<event>
 7    1  0.9953837E-014  0.5052886E+02  0.7816164E-02  0.1300439E+00
        -11   -1    0    0    0    0  0.00000000000E+00  0.00000000000E+00  0.45593999997E+02  0.45594000000E+02  0.51100000000E-03 0.  1.
         11   -1    0    0    0    0 -0.00000000000E+00 -0.00000000000E+00 -0.45593999997E+02  0.45594000000E+02  0.51100000000E-03 0. -1.
    9900012    2    1    2    0    0  0.38379529451E+02  0.12614823453E+02 -0.45873457635E+01  0.50528858435E+02  0.29999995699E+02 0.  0.
        -12    1    1    2    0    0 -0.38379529451E+02 -0.12614823453E+02  0.45873457635E+01  0.40659141565E+02  0.00000000000E+00 0.  1.
         11    1    3    3    0    0  0.11385683587E+02  0.10873651864E+02 -0.70598389733E+01  0.17254316045E+02  0.51100000000E-03 0. -1.
        -11    1    3    3    0    0  0.97885484017E+01 -0.13101541559E+01  0.10173902164E+02  0.14178874047E+02  0.51100000000E-03 0.  1.
        -12    1    3    3    0    0  0.17205297463E+02  0.30513257448E+01 -0.77014089545E+01  0.19095668343E+02  0.00000000000E+00 0.  1.
</event>
<event>
 7    1  0.9953837E-014  0.5052886E+02  0.7816164E-02  0.1300439E+00
        -11   -1    0    0    0    0  0.00000000000E+00  0.00000000000E+00  0.45593999997E+02  0.45594000000E+02  0.51100000000E-03 0. -1.
         11   -1    0    0    0    0 -0.00000000000E+00 -0.00000000000E+00 -0.45593999997E+02  0.45594000000E+02  0.51100000000E-03 0.  1.
    9900012    2    1    2    0    0 -0.14677396552E+02 -0.42402796964E+01  0.37679698638E+02  0.50528860426E+02  0.30000001750E+02 0.  0.
        -12    1    1    2    0    0  0.14677396552E+02  0.42402796964E+01 -0.37679698638E+02  0.40659139574E+02  0.00000000000E+00 0.  1.
         11    1    3    3    0    0  0.20443004843E+01  0.33468584953E+01  0.25437494198E+02  0.25738040671E+02  0.51100000000E-03 0. -1.
        -11    1    3    3    0    0 -0.87490628712E+01  0.18036309171E+01  0.72270176564E+01  0.11490385985E+02  0.51100000000E-03 0.  1.
         12    1    3    3    0    0 -0.79726341653E+01 -0.93907691087E+01  0.50151867836E+01  0.13300433770E+02  0.00000000000E+00 0. -1.
</event>
<event>
 7    1  0.9953837E-014  0.5052885E+02  0.7816164E-02  0.1300439E+00
        -11   -1    0    0    0    0  0.00000000000E+00  0.00000000000E+00  0.45593999997E+02  0.45594000000E+02  0.51100000000E-03 0.  1.
         11   -1    0    0    0    0 -0.00000000000E+00 -0.00000000000E+00 -0.45593999997E+02  0.45594000000E+02  0.51100000000E-03 0. -1.
    9900012    2    1    2    0    0 -0.36535586971E+02  0.12997720498E+02 -0.12221976136E+02  0.50528849073E+02  0.29999967241E+02 0.  0.
         12    1    1    2    0    0  0.36535586971E+02 -0.12997720498E+02  0.12221976136E+02  0.40659150927E+02  0.00000000000E+00 0. -1.
         11    1    3    3    0    0 -0.17095266494E+02  0.13936820844E+02 -0.69736220379E+01  0.23132542366E+02  0.51100000000E-03 0. -1.
        -11    1    3    3    0    0 -0.31056065871E+01 -0.61315875607E+01 -0.74257050344E+01  0.10118411625E+02  0.51100000000E-03 0.  1.
        -12    1    3    3    0    0 -0.16334713890E+02  0.51924872144E+01  0.21773509368E+01  0.17277895081E+02  0.00000000000E+00 0.  1.
</event>
<event>
 7    1  0.1026727E-013  0.5052886E+02  0.7816164E-02  0.1300439E+00
        -11   -1    0    0    0    0  0.00000000000E+00  0.00000000000E+00  0.45593999997E+02  0.45594000000E+02  0.51100000000E-03 0. -1.
         11   -1    0    0    0    0 -0.00000000000E+00 -0.00000000000E+00 -0.45593999997E+02  0.45594000000E+02  0.51100000000E-03 0.  1.
    9900012    2    1    2    0    0  0.93904659871E+00  0.71293156271E+00  0.40642045870E+02  0.50528856226E+02  0.29999988984E+02 0.  0.
        -12    1    1    2    0    0 -0.93904659871E+00 -0.71293156271E+00 -0.40642045870E+02  0.40659143774E+02  0.00000000000E+00 0.  1.
         11    1    3    3    0    0  0.33978599342E+01 -0.62370651474E+01  0.28698146810E+02  0.29563999465E+02  0.51100000000E-03 0.  1.
        -11    1    3    3    0    0  0.36254777545E+01  0.96084106630E+01  0.91740030404E+01  0.13770547428E+02  0.51100000000E-03 0. -1.
        -12    1    3    3    0    0 -0.60842910900E+01 -0.26584139529E+01  0.27698960198E+01  0.71943093326E+01  0.00000000000E+00 0.  1.
</event>
<event>
 7    1  0.9953837E-014  0.5052886E+02  0.7816164E-02  0.1300439E+00
        -11   -1    0    0    0    0  0.00000000000E+00  0.00000000000E+00  0.45593999997E+02  0.45594000000E+02  0.51100000000E-03 0.  1.
         11   -1    0    0    0    0 -0.00000000000E+00 -0.00000000000E+00 -0.45593999997E+02  0.45594000000E+02  0.51100000000E-03 0. -1.
    9900012    2    1    2    0    0 -0.30688529395E+02  0.26667866334E+02 -0.45228928226E+00  0.50528862074E+02  0.30000006761E+02 0.  0.
         12    1    1    2    0    0  0.30688529395E+02 -0.26667866334E+02  0.45228928226E+00  0.40659137926E+02  0.00000000000E+00 0. -1.
         11    1    3    3    0    0  0.46695788595E+01  0.50662557828E+01  0.52232313891E+00  0.69097565879E+01  0.51100000000E-03 0. -1.
        -11    1    3    3    0    0 -0.19106948057E+02  0.52730576028E+01 -0.44674259427E+01  0.20318427482E+02  0.51100000000E-03 0.  1.
        -12    1    3    3    0    0 -0.16251160198E+02  0.16328552948E+02  0.34928135215E+01  0.23300678005E+02  0.00000000000E+00 0.  1.
</event>
<event>
 7    1  0.9953837E-014  0.5052886E+02  0.7816164E-02  0.1300439E+00
        -11   -1    0    0    0    0  0.00000000000E+00  0.00000000000E+00  0.45593999997E+02  0.45594000000E+02  0.51100000000E-03 0. -1.
         11   -1    0    0    0    0 -0.00000000000E+00 -0.00000000000E+00 -0.45593999997E+02  0.45594000000E+02  0.51100000000E-03 0.  1.
    9900012    2    1    2    0    0  0.86651000837E+01 -0.25693495554E+02  0.30297292057E+02  0.50528861061E+02  0.30000003682E+02 0.  0.
        -12    1    1    2    0    0 -0.86651000837E+01  0.25693495554E+02 -0.30297292057E+02  0.40659138939E+02  0.00000000000E+00 0.  1.
         11    1    3    3    0    0  0.11774456180E+02 -0.14652619848E+02  0.20309260923E+02  0.27673148831E+02  0.51100000000E-03 0. -1.
        -11    1    3    3    0    0 -0.51031785940E+01  0.95237625652E+00  0.93337344864E+01  0.10680264604E+02  0.51100000000E-03 0.  1.
        -12    1    3    3    0    0  0.19938224982E+01 -0.11993251963E+02  0.65429664832E+00  0.12175447626E+02  0.00000000000E+00 0.  1.
</event>
<event>
 7    1  0.9953837E-014  0.5052882E+02  0.7816164E-02  0.1300439E+00
        -11   -1    0    0    0    0  0.00000000000E+00  0.00000000000E+00  0.45593999997E+02  0.45594000000E+02  0.51100000000E-03 0. -1.
         11   -1    0    0    0    0 -0.00000000000E+00 -0.00000000000E+00 -0.45593999997E+02  0.45594000000E+02  0.51100000000E-03 0.  1.
    9900012    2    1    2    0    0 -0.25703167191E+01 -0.22704513060E+02  0.33631342545E+02  0.50528823389E+02  0.29999889172E+02 0.  0.
        -12    1    1    2    0    0  0.25703167191E+01  0.22704513060E+02 -0.33631342545E+02  0.40659176611E+02  0.00000000000E+00 0.  1.
         11    1    3    3    0    0  0.27487368893E+01 -0.14014501224E+02  0.48160523007E+01  0.15071700603E+02  0.51100000000E-03 0.  1.
        -11    1    3    3    0    0 -0.95323258316E+01 -0.10463067813E+02  0.27101956037E+02  0.30575432051E+02  0.51100000000E-03 0. -1.
        -12    1    3    3    0    0  0.42132722232E+01  0.17730559764E+01  0.17133342067E+01  0.48816907344E+01  0.00000000000E+00 0.  1.
</event>
<event>
 7    1  0.9953837E-014  0.5052887E+02  0.7816164E-02  0.1300439E+00
        -11   -1    0    0    0    0  0.00000000000E+00  0.00000000000E+00  0.45593999997E+02  0.45594000000E+02  0.51100000000E-03 0. -1.
         11   -1    0    0    0    0 -0.00000000000E+00 -0.00000000000E+00 -0.45593999997E+02  0.45594000000E+02  0.51100000000E-03 0.  1.
    9900012    2    1    2    0    0  0.29039403358E+02 -0.36125134550E+01  0.28228141401E+02  0.50528866121E+02  0.30000019062E+02 0.  0.
        -12    1    1    2    0    0 -0.29039403358E+02  0.36125134550E+01 -0.28228141401E+02  0.40659133879E+02  0.00000000000E+00 0.  1.
         11    1    3    3    0    0  0.10271492183E+02  0.23662706512E+01  0.11998315903E+02  0.15970672284E+02  0.51100000000E-03 0. -1.
        -11    1    3    3    0    0  0.12191899057E+02 -0.14625725225E+02  0.13547473196E+02  0.23368531645E+02  0.51100000000E-03 0.  1.
        -12    1    3    3    0    0  0.65760121182E+01  0.86469411194E+01  0.26823523025E+01  0.11189662192E+02  0.00000000000E+00 0.  1.
</event>
<event>
 7    1  0.9953837E-014  0.5052887E+02  0.7816164E-02  0.1300439E+00
        -11   -1    0    0    0    0  0.00000000000E+00  0.00000000000E+00  0.45593999997E+02  0.45594000000E+02  0.51100000000E-03 0. -1.
         11   -1    0    0    0    0 -0.00000000000E+00 -0.00000000000E+00 -0.45593999997E+02  0.45594000000E+02  0.51100000000E-03 0.  1.
    9900012    2    1    2    0    0 -0.29281890767E+01  0.36420374189E+02 -0.17836668696E+02  0.50528871905E+02  0.30000036641E+02 0.  0.
         12    1    1    2    0    0  0.29281890767E+01 -0.36420374189E+02  0.17836668696E+02  0.40659128095E+02  0.00000000000E+00 0. -1.
         11    1    3    3    0    0 -0.95191620038E+00  0.15637502687E+01  0.35229757183E+01  0.39702414949E+01  0.51100000000E-03 0. -1.
        -11    1    3    3    0    0  0.37232683398E+01  0.78402263224E+01 -0.16329924466E+02  0.18493196296E+02  0.51100000000E-03 0.  1.
        -12    1    3    3    0    0 -0.56995412162E+01  0.27016397598E+02 -0.50297199477E+01  0.28065434114E+02  0.00000000000E+00 0.  1.
</event>
<event>
 7    1  0.9953837E-014  0.5052886E+02  0.7816164E-02  0.1300439E+00
        -11   -1    0    0    0    0  0.00000000000E+00  0.00000000000E+00  0.45593999997E+02  0.45594000000E+02  0.51100000000E-03 0.  1.
         11   -1    0    0    0    0 -0.00000000000E+00 -0.00000000000E+00 -0.45593999997E+02  0.45594000000E+02  0.51100000000E-03 0. -1.
    9900012    2    1    2    0    0 -0.84377123703E+01 -0.39682507119E+02 -0.26961458692E+01  0.50528861250E+02  0.30000004257E+02 0.  0.
        -12    1    1    2    0    0  0.84377123703E+01  0.39682507119E+02  0.26961458692E+01  0.40659138750E+02  0.00000000000E+00 0.  1.
         11    1    3    3    0    0 -0.60667146780E+01 -0.62803293941E+01 -0.11435015050E+02  0.14387742483E+02  0.51100000000E-03 0. -1.
        -11    1    3    3    0    0 -0.46309962797E+01 -0.31735499043E+02  0.90283221051E+01  0.33318142601E+02  0.51100000000E-03 0.  1.
        -12    1    3    3    0    0  0.22599985874E+01 -0.16666786817E+01 -0.28945292391E+00  0.28229761668E+01  0.00000000000E+00 0.  1.
</event>
<event>
 7    1  0.9953837E-014  0.5052886E+02  0.7816164E-02  0.1300439E+00
        -11   -1    0    0    0    0  0.00000000000E+00  0.00000000000E+00  0.45593999997E+02  0.45594000000E+02  0.51100000000E-03 0. -1.
         11   -1    0    0    0    0 -0.00000000000E+00 -0.00000000000E+00 -0.45593999997E+02  0.45594000000E+02  0.51100000000E-03 0.  1.
    9900012    2    1    2    0    0 -0.14187525653E+02  0.16892925718E+02  0.34154186777E+02  0.50528864521E+02  0.30000014198E+02 0.  0.
        -12    1    1    2    0    0  0.14187525653E+02 -0.16892925718E+02 -0.34154186777E+02  0.40659135479E+02  0.00000000000E+00 0.  1.
         11    1    3    3    0    0 -0.20546559114E+01 -0.38424107987E+01  0.16624216633E+02  0.17185758947E+02  0.51100000000E-03 0. -1.
        -11    1    3    3    0    0 -0.12132775105E+02  0.22680776241E+02  0.17933140148E+02  0.31356328842E+02  0.51100000000E-03 0.  1.
        -12    1    3    3    0    0 -0.94636919268E-04 -0.19454397241E+01 -0.40317000402E+00  0.19867767316E+01  0.00000000000E+00 0.  1.
</event>
<event>
 7    1  0.9953837E-014  0.5052882E+02  0.7816164E-02  0.1300439E+00
        -11   -1    0    0    0    0  0.00000000000E+00  0.00000000000E+00  0.45593999997E+02  0.45594000000E+02  0.51100000000E-03 0. -1.
         11   -1    0    0    0    0 -0.00000000000E+00 -0.00000000000E+00 -0.45593999997E+02  0.45594000000E+02  0.51100000000E-03 0.  1.
    9900012    2    1    2    0    0  0.13361192299E+01  0.15165907084E+02  0.37701180172E+02  0.50528819749E+02  0.29999878109E+02 0.  0.
        -12    1    1    2    0    0 -0.13361192299E+01 -0.15165907084E+02 -0.37701180172E+02  0.40659180251E+02  0.00000000000E+00 0.  1.
         11    1    3    3    0    0  0.93212292419E+01  0.15898842686E+02  0.27935238441E+02  0.33466939812E+02  0.51100000000E-03 0. -1.
        -11    1    3    3    0    0 -0.31133861656E+01 -0.60196392699E+01  0.52418689492E+01  0.85677547057E+01  0.51100000000E-03 0.  1.
         12    1    3    3    0    0 -0.48717238464E+01  0.52867036681E+01  0.45240727818E+01  0.84941252313E+01  0.00000000000E+00 0. -1.
</event>
<event>
 7    1  0.9953837E-014  0.5052885E+02  0.7816164E-02  0.1300439E+00
        -11   -1    0    0    0    0  0.00000000000E+00  0.00000000000E+00  0.45593999997E+02  0.45594000000E+02  0.51100000000E-03 0. -1.
         11   -1    0    0    0    0 -0.00000000000E+00 -0.00000000000E+00 -0.45593999997E+02  0.45594000000E+02  0.51100000000E-03 0.  1.
    9900012    2    1    2    0    0 -0.27931288844E+02  0.97598541138E+01  0.27888261147E+02  0.50528846558E+02  0.29999959598E+02 0.  0.
        -12    1    1    2    0    0  0.27931288844E+02 -0.97598541138E+01 -0.27888261147E+02  0.40659153442E+02  0.00000000000E+00 0.  1.
         11    1    3    3    0    0 -0.14346796601E+02  0.83057226858E+01  0.12017134579E+02  0.20475036650E+02  0.51100000000E-03 0. -1.
        -11    1    3    3    0    0 -0.30155387060E+01 -0.96928187441E+01  0.59176285253E+01  0.11750001554E+02  0.51100000000E-03 0.  1.
        -12    1    3    3    0    0 -0.10568953536E+02  0.11146950172E+02  0.99534980426E+01  0.18303808354E+02  0.00000000000E+00 0.  1.
</event>
<event>
 7    1  0.9953837E-014  0.5052886E+02  0.7816164E-02  0.1300439E+00
        -11   -1    0    0    0    0  0.00000000000E+00  0.00000000000E+00  0.45593999997E+02  0.45594000000E+02  0.51100000000E-03 0. -1.
         11   -1    0    0    0    0 -0.00000000000E+00 -0.00000000000E+00 -0.45593999997E+02  0.45594000000E+02  0.51100000000E-03 0.  1.
    9900012    2    1    2    0    0  0.10044137112E+02 -0.23199406644E+02 -0.31844440298E+02  0.50528861583E+02  0.30000005266E+02 0.  0.
         12    1    1    2    0    0 -0.10044137112E+02  0.23199406644E+02  0.31844440298E+02  0.40659138417E+02  0.00000000000E+00 0. -1.
         11    1    3    3    0    0  0.16528658872E+01 -0.16422767979E+02 -0.11452181996E+01  0.16545416245E+02  0.51100000000E-03 0. -1.
        -11    1    3    3    0    0  0.30665107614E+01 -0.82663520449E+01 -0.15834423024E+02  0.18123603867E+02  0.51100000000E-03 0.  1.
         12    1    3    3    0    0  0.53247604632E+01  0.14897133797E+01 -0.14864799075E+02  0.15859841471E+02  0.00000000000E+00 0. -1.
</event>
<event>
 7    1  0.9953837E-014  0.5052886E+02  0.7816164E-02  0.1300439E+00
        -11   -1    0    0    0    0  0.00000000000E+00  0.00000000000E+00  0.45593999997E+02  0.45594000000E+02  0.51100000000E-03 0. -1.
         11   -1    0    0    0    0 -0.00000000000E+00 -0.00000000000E+00 -0.45593999997E+02  0.45594000000E+02  0.51100000000E-03 0.  1.
    9900012    2    1    2    0    0 -0.12747885216E+02  0.15040418718E+02  0.35559003593E+02  0.50528861922E+02  0.30000006299E+02 0.  0.
        -12    1    1    2    0    0  0.12747885216E+02 -0.15040418718E+02 -0.35559003593E+02  0.40659138078E+02  0.00000000000E+00 0.  1.
         11    1    3    3    0    0  0.59235620225E+01  0.54334557555E+01  0.67176829282E+01  0.10475604644E+02  0.51100000000E-03 0. -1.
        -11    1    3    3    0    0 -0.10512048873E+02  0.14751641552E+02  0.19738536939E+02  0.26790370299E+02  0.51100000000E-03 0.  1.
        -12    1    3    3    0    0 -0.81593983650E+01 -0.51446785893E+01  0.91027837250E+01  0.13262886979E+02  0.00000000000E+00 0.  1.
</event>
<event>
 7    1  0.9953837E-014  0.5052887E+02  0.7816164E-02  0.1300439E+00
        -11   -1    0    0    0    0  0.00000000000E+00  0.00000000000E+00  0.45593999997E+02  0.45594000000E+02  0.51100000000E-03 0. -1.
         11   -1    0    0    0    0 -0.00000000000E+00 -0.00000000000E+00 -0.45593999997E+02  0.45594000000E+02  0.51100000000E-03 0.  1.
    9900012    2    1    2    0    0 -0.33998174800E+02 -0.12546986151E+02 -0.18435347978E+02  0.50528870566E+02  0.30000032573E+02 0.  0.
         12    1    1    2    0    0  0.33998174800E+02  0.12546986151E+02  0.18435347978E+02  0.40659129434E+02  0.00000000000E+00 0. -1.
         11    1    3    3    0    0 -0.26097048728E+02 -0.79932791390E+01 -0.21132599027E+02  0.34518621143E+02  0.51100000000E-03 0.  1.
        -11    1    3    3    0    0  0.44563232357E+00  0.37919487264E+01  0.16540143315E+01  0.41609166035E+01  0.51100000000E-03 0. -1.
        -12    1    3    3    0    0 -0.83467583954E+01 -0.83456557386E+01  0.10432367175E+01  0.11849332819E+02  0.00000000000E+00 0.  1.
</event>
<event>
 7    1  0.9953837E-014  0.5052886E+02  0.7816164E-02  0.1300439E+00
        -11   -1    0    0    0    0  0.00000000000E+00  0.00000000000E+00  0.45593999997E+02  0.45594000000E+02  0.51100000000E-03 0. -1.
         11   -1    0    0    0    0 -0.00000000000E+00 -0.00000000000E+00 -0.45593999997E+02  0.45594000000E+02  0.51100000000E-03 0.  1.
    9900012    2    1    2    0    0 -0.13176511175E+02 -0.20025626394E+02 -0.32840817418E+02  0.50528862676E+02  0.30000008591E+02 0.  0.
         12    1    1    2    0    0  0.13176511175E+02  0.20025626394E+02  0.32840817418E+02  0.40659137324E+02  0.00000000000E+00 0. -1.
         11    1    3    3    0    0 -0.86021572395E+01 -0.17308244220E+02 -0.96479020158E+01  0.21602186017E+02  0.51100000000E-03 0. -1.
        -11    1    3    3    0    0  0.23764324223E+01 -0.74955940188E+01 -0.16054334537E+02  0.17876605339E+02  0.51100000000E-03 0.  1.
         12    1    3    3    0    0 -0.69507863574E+01  0.47782118445E+01 -0.71385808649E+01  0.11050071320E+02  0.00000000000E+00 0. -1.
</event>
<event>
 7    1  0.9953837E-014  0.5052886E+02  0.7816164E-02  0.1300439E+00
        -11   -1    0    0    0    0  0.00000000000E+00  0.00000000000E+00  0.45593999997E+02  0.45594000000E+02  0.51100000000E-03 0.  1.
         11   -1    0    0    0    0 -0.00000000000E+00 -0.00000000000E+00 -0.45593999997E+02  0.45594000000E+02  0.51100000000E-03 0. -1.
    9900012    2    1    2    0    0  0.62781160525E+01 -0.39011971433E+02 -0.95821222667E+01  0.50528859289E+02  0.29999998294E+02 0.  0.
         12    1    1    2    0    0 -0.62781160525E+01  0.39011971433E+02  0.95821222667E+01  0.40659140711E+02  0.00000000000E+00 0. -1.
         11    1    3    3    0    0  0.35276367003E+01 -0.31828056222E+02 -0.11275394446E+02  0.33950020674E+02  0.51100000000E-03 0. -1.
        -11    1    3    3    0    0  0.20458759329E+01 -0.72815268141E+01  0.75454223579E+01  0.10683615488E+02  0.51100000000E-03 0.  1.
        -12    1    3    3    0    0  0.70460341924E+00  0.97611603399E-01 -0.58521501784E+01  0.58952231267E+01  0.00000000000E+00 0.  1.
</event>
<event>
 7    1  0.9953837E-014  0.5052889E+02  0.7816164E-02  0.1300439E+00
        -11   -1    0    0    0    0  0.00000000000E+00  0.00000000000E+00  0.45593999997E+02  0.45594000000E+02  0.51100000000E-03 0.  1.
         11   -1    0    0    0    0 -0.00000000000E+00 -0.00000000000E+00 -0.45593999997E+02  0.45594000000E+02  0.51100000000E-03 0. -1.
    9900012    2    1    2    0    0  0.13538293191E+02  0.37173838237E+02  0.93799555758E+01  0.50528890339E+02  0.30000092676E+02 0.  0.
        -12    1    1    2    0    0 -0.13538293191E+02 -0.37173838237E+02 -0.93799555758E+01  0.40659109661E+02  0.00000000000E+00 0.  1.
         11    1    3    3    0    0  0.10570418179E+00  0.13326323798E+02 -0.77453781980E+01  0.15414050831E+02  0.51100000000E-03 0. -1.
        -11    1    3    3    0    0  0.17848255651E+01  0.56925654378E+01  0.11289981390E+02  0.12769282815E+02  0.51100000000E-03 0.  1.
         12    1    3    3    0    0  0.11647763445E+02  0.18154949001E+02  0.58353523841E+01  0.22345556693E+02  0.00000000000E+00 0. -1.
</event>
<event>
 7    1  0.9953837E-014  0.5052886E+02  0.7816164E-02  0.1300439E+00
        -11   -1    0    0    0    0  0.00000000000E+00  0.00000000000E+00  0.45593999997E+02  0.45594000000E+02  0.51100000000E-03 0.  1.
         11   -1    0    0    0    0 -0.00000000000E+00 -0.00000000000E+00 -0.45593999997E+02  0.45594000000E+02  0.51100000000E-03 0. -1.
    9900012    2    1    2    0    0  0.25813775672E+02 -0.29226234234E+02  0.11517024684E+02  0.50528860320E+02  0.30000001428E+02 0.  0.
        -12    1    1    2    0    0 -0.25813775672E+02  0.29226234234E+02 -0.11517024684E+02  0.40659139680E+02  0.00000000000E+00 0.  1.
         11    1    3    3    0    0  0.13435686906E+01  0.39335559841E+00 -0.34390656853E+01  0.37130955418E+01  0.51100000000E-03 0. -1.
        -11    1    3    3    0    0  0.19849841931E+02 -0.23110165275E+02  0.69499462853E+00  0.30472593941E+02  0.51100000000E-03 0.  1.
        -12    1    3    3    0    0  0.46203650509E+01 -0.65094245576E+01  0.14261095741E+02  0.16343170837E+02  0.00000000000E+00 0.  1.
</event>
<event>
 7    1  0.9953837E-014  0.5052886E+02  0.7816164E-02  0.1300439E+00
        -11   -1    0    0    0    0  0.00000000000E+00  0.00000000000E+00  0.45593999997E+02  0.45594000000E+02  0.51100000000E-03 0. -1.
         11   -1    0    0    0    0 -0.00000000000E+00 -0.00000000000E+00 -0.45593999997E+02  0.45594000000E+02  0.51100000000E-03 0.  1.
    9900012    2    1    2    0    0 -0.19724998530E+01  0.13923101332E+02 -0.38150000328E+02  0.50528855501E+02  0.29999986781E+02 0.  0.
         12    1    1    2    0    0  0.19724998530E+01 -0.13923101332E+02  0.38150000328E+02  0.40659144499E+02  0.00000000000E+00 0. -1.
         11    1    3    3    0    0  0.13628085068E+01  0.16788949539E+01 -0.31305403459E+01  0.38047625959E+01  0.51100000000E-03 0. -1.
        -11    1    3    3    0    0  0.33534578068E+01  0.10809837030E+02 -0.37711001915E+02  0.39372806879E+02  0.51100000000E-03 0.  1.
        -12    1    3    3    0    0 -0.66887661665E+01  0.14343693484E+01  0.26915419328E+01  0.73512860258E+01  0.00000000000E+00 0.  1.
</event>
<event>
 7    1  0.9953837E-014  0.5052886E+02  0.7816164E-02  0.1300439E+00
        -11   -1    0    0    0    0  0.00000000000E+00  0.00000000000E+00  0.45593999997E+02  0.45594000000E+02  0.51100000000E-03 0.  1.
         11   -1    0    0    0    0 -0.00000000000E+00 -0.00000000000E+00 -0.45593999997E+02  0.45594000000E+02  0.51100000000E-03 0. -1.
    9900012    2    1    2    0    0 -0.15311426331E+02  0.36982230304E+02  0.71442432053E+01  0.50528863935E+02  0.30000012418E+02 0.  0.
         12    1    1    2    0    0  0.15311426331E+02 -0.36982230304E+02 -0.71442432053E+01  0.40659136065E+02  0.00000000000E+00 0. -1.
         11    1    3    3    0    0 -0.63827848630E+01  0.48082941786E+01 -0.50399041855E+01  0.94477653430E+01  0.51100000000E-03 0. -1.
        -11    1    3    3    0    0 -0.57054396218E+01  0.10585442824E+02  0.14830900135E+02  0.19093434477E+02  0.51100000000E-03 0.  1.
        -12    1    3    3    0    0 -0.32232018463E+01  0.21588493302E+02 -0.26467527440E+01  0.21987664116E+02  0.00000000000E+00 0.  1.
</event>
<event>
 7    1  0.9953837E-014  0.5052885E+02  0.7816164E-02  0.1300439E+00
        -11   -1    0    0    0    0  0.00000000000E+00  0.00000000000E+00  0.45593999997E+02  0.45594000000E+02  0.51100000000E-03 0. -1.
         11   -1    0    0    0    0 -0.00000000000E+00 -0.00000000000E+00 -0.45593999997E+02  0.45594000000E+02  0.51100000000E-03 0.  1.
    9900012    2    1    2    0    0  0.26354419167E+02 -0.21170008007E+02 -0.22592967749E+02  0.50528845552E+02  0.29999956541E+02 0.  0.
         12    1    1    2    0    0 -0.26354419167E+02  0.21170008007E+02  0.22592967749E+02  0.40659154448E+02  0.00000000000E+00 0. -1.
         11    1    3    3    0    0 -0.14980525508E+01  0.33959660520E+01 -0.70977356181E+01  0.80096565493E+01  0.51100000000E-03 0.  1.
        -11    1    3    3    0    0  0.22737839106E+02 -0.11964712296E+02 -0.12590934411E+02  0.28612851957E+02  0.51100000000E-03 0. -1.
        -12    1    3    3    0    0  0.51146326123E+01 -0.12601261763E+02 -0.29042977204E+01  0.13906337046E+02  0.00000000000E+00 0.  1.
</event>
<event>
 7    1  0.9953837E-014  0.5052880E+02  0.7816164E-02  0.1300439E+00
        -11   -1    0    0    0    0  0.00000000000E+00  0.00000000000E+00  0.45593999997E+02  0.45594000000E+02  0.51100000000E-03 0. -1.
         11   -1    0    0    0    0 -0.00000000000E+00 -0.00000000000E+00 -0.45593999997E+02  0.45594000000E+02  0.51100000000E-03 0.  1.
    9900012    2    1    2    0    0 -0.14994818204E+02 -0.33477595234E+02 -0.17537864857E+02  0.50528798589E+02  0.29999813791E+02 0.  0.
         12    1    1    2    0    0  0.14994818204E+02  0.33477595234E+02  0.17537864857E+02  0.40659201411E+02  0.00000000000E+00 0. -1.
         11    1    3    3    0    0 -0.85728776407E+01 -0.21568316595E+02 -0.19810716377E+02  0.30514766842E+02  0.51100000000E-03 0.  1.
        -11    1    3    3    0    0 -0.48163671462E+01 -0.26217264857E+01  0.74576689308E+01  0.92567633865E+01  0.51100000000E-03 0. -1.
         12    1    3    3    0    0 -0.16055734172E+01 -0.92875521534E+01 -0.51848174107E+01  0.10757268361E+02  0.00000000000E+00 0. -1.
</event>
<event>
 7    1  0.9953837E-014  0.5052887E+02  0.7816164E-02  0.1300439E+00
        -11   -1    0    0    0    0  0.00000000000E+00  0.00000000000E+00  0.45593999997E+02  0.45594000000E+02  0.51100000000E-03 0.  1.
         11   -1    0    0    0    0 -0.00000000000E+00 -0.00000000000E+00 -0.45593999997E+02  0.45594000000E+02  0.51100000000E-03 0. -1.
    9900012    2    1    2    0    0 -0.21173480619E+02 -0.34252487627E+02  0.56227995170E+01  0.50528867390E+02  0.30000022919E+02 0.  0.
        -12    1    1    2    0    0  0.21173480619E+02  0.34252487627E+02 -0.56227995170E+01  0.40659132610E+02  0.00000000000E+00 0.  1.
         11    1    3    3    0    0 -0.63733009418E+01 -0.65513242357E+01 -0.40769320008E+01  0.10008006242E+02  0.51100000000E-03 0. -1.
        -11    1    3    3    0    0 -0.46036324598E+01 -0.28657794318E+02  0.82688032583E+01  0.30180054914E+02  0.51100000000E-03 0.  1.
        -12    1    3    3    0    0 -0.10196547218E+02  0.95663092712E+00  0.14309282595E+01  0.10340806235E+02  0.00000000000E+00 0.  1.
</event>
<event>
 7    1  0.9953837E-014  0.5052885E+02  0.7816164E-02  0.1300439E+00
        -11   -1    0    0    0    0  0.00000000000E+00  0.00000000000E+00  0.45593999997E+02  0.45594000000E+02  0.51100000000E-03 0. -1.
         11   -1    0    0    0    0 -0.00000000000E+00 -0.00000000000E+00 -0.45593999997E+02  0.45594000000E+02  0.51100000000E-03 0.  1.
    9900012    2    1    2    0    0  0.26318611230E+02 -0.29164637770E+02  0.10484323662E+02  0.50528850526E+02  0.29999971658E+02 0.  0.
        -12    1    1    2    0    0 -0.26318611230E+02  0.29164637770E+02 -0.10484323662E+02  0.40659149474E+02  0.00000000000E+00 0.  1.
         11    1    3    3    0    0  0.29437035596E+02 -0.32746207312E+02  0.94995369008E+01  0.45045469912E+02  0.51100000000E-03 0. -1.
        -11    1    3    3    0    0 -0.21838853027E+01  0.38277763192E+01  0.61977576704E+00  0.44503200815E+01  0.51100000000E-03 0.  1.
         12    1    3    3    0    0 -0.93453906328E+00 -0.24620677683E+00  0.36501099422E+00  0.10330605324E+01  0.00000000000E+00 0. -1.
</event>
<event>
 7    1  0.9953837E-014  0.5052886E+02  0.7816164E-02  0.1300439E+00
        -11   -1    0    0    0    0  0.00000000000E+00  0.00000000000E+00  0.45593999997E+02  0.45594000000E+02  0.51100000000E-03 0. -1.
         11   -1    0    0    0    0 -0.00000000000E+00 -0.00000000000E+00 -0.45593999997E+02  0.45594000000E+02  0.51100000000E-03 0.  1.
    9900012    2    1    2    0    0 -0.25116745332E+02  0.22647468890E+02 -0.22570045472E+02  0.50528859628E+02  0.29999999325E+02 0.  0.
         12    1    1    2    0    0  0.25116745332E+02 -0.22647468890E+02  0.22570045472E+02  0.40659140372E+02  0.00000000000E+00 0. -1.
         11    1    3    3    0    0 -0.76196016335E+01 -0.39673270207E+01 -0.55187342217E+01  0.10210506374E+02  0.51100000000E-03 0. -1.
        -11    1    3    3    0    0 -0.18396716792E+02  0.25188652428E+02 -0.95365738594E+01  0.32616769324E+02  0.51100000000E-03 0.  1.
        -12    1    3    3    0    0  0.89957309382E+00  0.14261434823E+01 -0.75147373908E+01  0.77015839303E+01  0.00000000000E+00 0.  1.
</event>
<event>
 7    1  0.9953837E-014  0.5052887E+02  0.7816164E-02  0.1300439E+00
        -11   -1    0    0    0    0  0.00000000000E+00  0.00000000000E+00  0.45593999997E+02  0.45594000000E+02  0.51100000000E-03 0. -1.
         11   -1    0    0    0    0 -0.00000000000E+00 -0.00000000000E+00 -0.45593999997E+02  0.45594000000E+02  0.51100000000E-03 0.  1.
    9900012    2    1    2    0    0  0.29871198241E+02  0.26624989730E+02  0.72101436747E+01  0.50528871452E+02  0.30000035266E+02 0.  0.
        -12    1    1    2    0    0 -0.29871198241E+02 -0.26624989730E+02 -0.72101436747E+01  0.40659128548E+02  0.00000000000E+00 0.  1.
         11    1    3    3    0    0  0.12500025175E+02  0.13240633051E+02  0.27923936026E+01  0.18421792944E+02  0.51100000000E-03 0. -1.
        -11    1    3    3    0    0 -0.49644152467E+01  0.49302608139E+01  0.43238733864E+01  0.82248873402E+01  0.51100000000E-03 0.  1.
        -12    1    3    3    0    0  0.22335588313E+02  0.84540958647E+01  0.93876685626E-01  0.23882191168E+02  0.00000000000E+00 0.  1.
</event>
<event>
 7    1  0.9953837E-014  0.5052886E+02  0.7816164E-02  0.1300439E+00
        -11   -1    0    0    0    0  0.00000000000E+00  0.00000000000E+00  0.45593999997E+02  0.45594000000E+02  0.51100000000E-03 0. -1.
         11   -1    0    0    0    0 -0.00000000000E+00 -0.00000000000E+00 -0.45593999997E+02  0.45594000000E+02  0.51100000000E-03 0.  1.
    9900012    2    1    2    0    0 -0.16574123693E+02  0.24545022464E+02  0.27856881005E+02  0.50528861749E+02  0.30000005773E+02 0.  0.
        -12    1    1    2    0    0  0.16574123693E+02 -0.24545022464E+02 -0.27856881005E+02  0.40659138251E+02  0.00000000000E+00 0.  1.
         11    1    3    3    0    0 -0.19440403589E+02  0.48482625870E+01  0.16549437210E+02  0.25986896968E+02  0.51100000000E-03 0. -1.
        -11    1    3    3    0    0 -0.45478759570E+00  0.18032119451E+02  0.88886367887E+01  0.20109003652E+02  0.51100000000E-03 0.  1.
         12    1    3    3    0    0  0.33210674916E+01  0.16646404259E+01  0.24188070065E+01  0.44329611284E+01  0.00000000000E+00 0. -1.
</event>
<event>
 7    1  0.1016508E-013  0.5052887E+02  0.7816164E-02  0.1300439E+00
        -11   -1    0    0    0    0  0.00000000000E+00  0.00000000000E+00  0.45593999997E+02  0.45594000000E+02  0.51100000000E-03 0. -1.
         11   -1    0    0    0    0 -0.00000000000E+00 -0.00000000000E+00 -0.45593999997E+02  0.45594000000E+02  0.51100000000E-03 0.  1.
    9900012    2    1    2    0    0  0.82846061426E+00 -0.20949820550E+02  0.34836530437E+02  0.50528865959E+02  0.30000018569E+02 0.  0.
        -12    1    1    2    0    0 -0.82846061426E+00  0.20949820550E+02 -0.34836530437E+02  0.40659134041E+02  0.00000000000E+00 0.  1.
         11    1    3    3    0    0  0.87032209684E+01 -0.15388413515E+02  0.23414073778E+02  0.29338850981E+02  0.51100000000E-03 0. -1.
        -11    1    3    3    0    0 -0.10793019773E+02 -0.84577980932E+01  0.92425423890E+01  0.16536269666E+02  0.51100000000E-03 0.  1.
         12    1    3    3    0    0  0.29182594187E+01  0.28963910587E+01  0.21799142707E+01  0.46537453118E+01  0.00000000000E+00 0. -1.
</event>
<event>
 7    1  0.9953837E-014  0.5052888E+02  0.7816164E-02  0.1300439E+00
        -11   -1    0    0    0    0  0.00000000000E+00  0.00000000000E+00  0.45593999997E+02  0.45594000000E+02  0.51100000000E-03 0. -1.
         11   -1    0    0    0    0 -0.00000000000E+00 -0.00000000000E+00 -0.45593999997E+02  0.45594000000E+02  0.51100000000E-03 0.  1.
    9900012    2    1    2    0    0  0.35385773269E+02  0.18115082470E+02 -0.85355082072E+01  0.50528879706E+02  0.30000060354E+02 0.  0.
         12    1    1    2    0    0 -0.35385773269E+02 -0.18115082470E+02  0.85355082072E+01  0.40659120294E+02  0.00000000000E+00 0. -1.
         11    1    3    3    0    0  0.31815692762E+02  0.63962781295E+01 -0.15759140603E+02  0.36076324545E+02  0.51100000000E-03 0.  1.
        -11    1    3    3    0    0  0.13649698737E+01  0.65139272930E+01  0.25834064806E+01  0.71392143013E+01  0.51100000000E-03 0. -1.
         12    1    3    3    0    0  0.22051106329E+01  0.52048770473E+01  0.46402259154E+01  0.73133408595E+01  0.00000000000E+00 0. -1.
</event>
<event>
 7    1  0.9953837E-014  0.5052886E+02  0.7816164E-02  0.1300439E+00
        -11   -1    0    0    0    0  0.00000000000E+00  0.00000000000E+00  0.45593999997E+02  0.45594000000E+02  0.51100000000E-03 0. -1.
         11   -1    0    0    0    0 -0.00000000000E+00 -0.00000000000E+00 -0.45593999997E+02  0.45594000000E+02  0.51100000000E-03 0.  1.
    9900012    2    1    2    0    0 -0.27812108094E+02  0.28249686465E+02  0.90336857086E+01  0.50528860566E+02  0.30000002176E+02 0.  0.
        -12    1    1    2    0    0  0.27812108094E+02 -0.28249686465E+02 -0.90336857086E+01  0.40659139434E+02  0.00000000000E+00 0.  1.
         11    1    3    3    0    0 -0.15298148729E+02  0.28466652049E+02  0.14819344704E+02  0.35552730009E+02  0.51100000000E-03 0. -1.
        -11    1    3    3    0    0 -0.83855035042E+01  0.26266423552E+01 -0.39967737616E+01  0.96535029830E+01  0.51100000000E-03 0.  1.
         12    1    3    3    0    0 -0.41284558611E+01 -0.28436079386E+01 -0.17888852342E+01  0.53226275735E+01  0.00000000000E+00 0. -1.
</event>
<event>
 7    1  0.2270841E-013  0.5052886E+02  0.7816164E-02  0.1300439E+00
        -11   -1    0    0    0    0  0.00000000000E+00  0.00000000000E+00  0.45593999997E+02  0.45594000000E+02  0.51100000000E-03 0. -1.
         11   -1    0    0    0    0 -0.00000000000E+00 -0.00000000000E+00 -0.45593999997E+02  0.45594000000E+02  0.51100000000E-03 0.  1.
    9900012    2    1    2    0    0 -0.61945670066E+01 -0.17441022036E+02  0.36202260364E+02  0.50528861230E+02  0.30000004194E+02 0.  0.
        -12    1    1    2    0    0  0.61945670066E+01  0.17441022036E+02 -0.36202260364E+02  0.40659138770E+02  0.00000000000E+00 0.  1.
         11    1    3    3    0    0 -0.10141661140E+02 -0.86495367174E+01  0.22875820212E+02  0.26475855543E+02  0.51100000000E-03 0. -1.
        -11    1    3    3    0    0  0.17769633398E+01 -0.51581864031E+00 -0.41781361013E+01  0.45695173840E+01  0.51100000000E-03 0.  1.
         12    1    3    3    0    0  0.21701307937E+01 -0.82756666778E+01  0.17504576254E+02  0.19483488303E+02  0.00000000000E+00 0. -1.
</event>
<event>
 7    1  0.9953837E-014  0.5052883E+02  0.7816164E-02  0.1300439E+00
        -11   -1    0    0    0    0  0.00000000000E+00  0.00000000000E+00  0.45593999997E+02  0.45594000000E+02  0.51100000000E-03 0. -1.
         11   -1    0    0    0    0 -0.00000000000E+00 -0.00000000000E+00 -0.45593999997E+02  0.45594000000E+02  0.51100000000E-03 0.  1.
    9900012    2    1    2    0    0  0.59415403500E+00  0.78553670685E+01 -0.39888697380E+02  0.50528831422E+02  0.29999913589E+02 0.  0.
         12    1    1    2    0    0 -0.59415403500E+00 -0.78553670685E+01  0.39888697380E+02  0.40659168578E+02  0.00000000000E+00 0. -1.
         11    1    3    3    0    0 -0.36596839547E+01  0.93813073634E+00  0.81981601802E+00  0.38659377247E+01  0.51100000000E-03 0. -1.
        -11    1    3    3    0    0 -0.17255806778E+01  0.89040490168E+01 -0.39129938115E+02  0.40167297329E+02  0.51100000000E-03 0.  1.
        -12    1    3    3    0    0  0.59794186676E+01 -0.19868126846E+01 -0.15785752830E+01  0.64955963675E+01  0.00000000000E+00 0.  1.
</event>
<event>
 7    1  0.9953837E-014  0.5052886E+02  0.7816164E-02  0.1300439E+00
        -11   -1    0    0    0    0  0.00000000000E+00  0.00000000000E+00  0.45593999997E+02  0.45594000000E+02  0.51100000000E-03 0. -1.
         11   -1    0    0    0    0 -0.00000000000E+00 -0.00000000000E+00 -0.45593999997E+02  0.45594000000E+02  0.51100000000E-03 0.  1.
    9900012    2    1    2    0    0 -0.51381779428E+01 -0.10398524110E+02  0.38969674017E+02  0.50528859955E+02  0.30000000319E+02 0.  0.
        -12    1    1    2    0    0  0.51381779428E+01  0.10398524110E+02 -0.38969674017E+02  0.40659140045E+02  0.00000000000E+00 0.  1.
         11    1    3    3    0    0 -0.93836459461E+01 -0.15077731480E+01  0.26453861284E+02  0.28109303944E+02  0.51100000000E-03 0. -1.
        -11    1    3    3    0    0  0.26900467301E+01 -0.77913790299E+01 -0.14114390830E+01  0.83626610086E+01  0.51100000000E-03 0.  1.
        -12    1    3    3    0    0  0.15554212732E+01 -0.10993719318E+01  0.13927251815E+02  0.14056895003E+02  0.00000000000E+00 0.  1.
</event>
<event>
 7    1  0.9953837E-014  0.5052887E+02  0.7816164E-02  0.1300439E+00
        -11   -1    0    0    0    0  0.00000000000E+00  0.00000000000E+00  0.45593999997E+02  0.45594000000E+02  0.51100000000E-03 0. -1.
         11   -1    0    0    0    0 -0.00000000000E+00 -0.00000000000E+00 -0.45593999997E+02  0.45594000000E+02  0.51100000000E-03 0.  1.
    9900012    2    1    2    0    0  0.35382033161E+02 -0.96352756832E+01 -0.17562406262E+02  0.50528869146E+02  0.30000028256E+02 0.  0.
         12    1    1    2    0    0 -0.35382033161E+02  0.96352756832E+01  0.17562406262E+02  0.40659130854E+02  0.00000000000E+00 0. -1.
         11    1    3    3    0    0  0.21977437842E+02  0.44415099608E+01 -0.44674279988E+01  0.22862473576E+02  0.51100000000E-03 0. -1.
        -11    1    3    3    0    0  0.84556901315E+00 -0.59178684232E+01 -0.11033172704E+02  0.12548587722E+02  0.51100000000E-03 0.  1.
         12    1    3    3    0    0  0.12559026306E+02 -0.81589172207E+01 -0.20618055592E+01  0.15117807848E+02  0.00000000000E+00 0. -1.
</event>
<event>
 7    1  0.9953837E-014  0.5052897E+02  0.7816164E-02  0.1300438E+00
        -11   -1    0    0    0    0  0.00000000000E+00  0.00000000000E+00  0.45593999997E+02  0.45594000000E+02  0.51100000000E-03 0. -1.
         11   -1    0    0    0    0 -0.00000000000E+00 -0.00000000000E+00 -0.45593999997E+02  0.45594000000E+02  0.51100000000E-03 0.  1.
    9900012    2    1    2    0    0 -0.10481328570E+02  0.24111009141E+01 -0.39210781725E+02  0.50528965830E+02  0.30000322134E+02 0.  0.
         12    1    1    2    0    0  0.10481328570E+02 -0.24111009141E+01  0.39210781725E+02  0.40659034170E+02  0.00000000000E+00 0. -1.
         11    1    3    3    0    0  0.73134340216E+01 -0.35479223357E+01 -0.94154576452E+01  0.12438846933E+02  0.51100000000E-03 0. -1.
        -11    1    3    3    0    0 -0.16546648694E+02 -0.75659407087E-01 -0.16168993375E+02  0.23135117341E+02  0.51100000000E-03 0.  1.
         12    1    3    3    0    0 -0.12481138975E+01  0.60346826569E+01 -0.13626330704E+02  0.14955001555E+02  0.00000000000E+00 0. -1.
</event>
<event>
 7    1  0.9953837E-014  0.5052889E+02  0.7816164E-02  0.1300439E+00
        -11   -1    0    0    0    0  0.00000000000E+00  0.00000000000E+00  0.45593999997E+02  0.45594000000E+02  0.51100000000E-03 0. -1.
         11   -1    0    0    0    0 -0.00000000000E+00 -0.00000000000E+00 -0.45593999997E+02  0.45594000000E+02  0.51100000000E-03 0.  1.
    9900012    2    1    2    0    0  0.35986757343E+01 -0.26880307470E+02 -0.30292934609E+02  0.50528889287E+02  0.30000089477E+02 0.  0.
         12    1    1    2    0    0 -0.35986757343E+01  0.26880307470E+02  0.30292934609E+02  0.40659110713E+02  0.00000000000E+00 0. -1.
         11    1    3    3    0    0 -0.34244687233E+01 -0.22242438184E+02 -0.43062624083E+01  0.22912811669E+02  0.51100000000E-03 0. -1.
        -11    1    3    3    0    0  0.51049198450E+01 -0.36474459881E+01 -0.23499654922E+02  0.24322784597E+02  0.51100000000E-03 0.  1.
         12    1    3    3    0    0  0.19182246126E+01 -0.99042329827E+00 -0.24870172794E+01  0.32932930210E+01  0.00000000000E+00 0. -1.
</event>
<event>
 7    1  0.9953837E-014  0.5052883E+02  0.7816164E-02  0.1300439E+00
        -11   -1    0    0    0    0  0.00000000000E+00  0.00000000000E+00  0.45593999997E+02  0.45594000000E+02  0.51100000000E-03 0. -1.
         11   -1    0    0    0    0 -0.00000000000E+00 -0.00000000000E+00 -0.45593999997E+02  0.45594000000E+02  0.51100000000E-03 0.  1.
    9900012    2    1    2    0    0 -0.27221707337E+02 -0.20276175176E+02  0.22383562372E+02  0.50528825211E+02  0.29999894710E+02 0.  0.
        -12    1    1    2    0    0  0.27221707337E+02  0.20276175176E+02 -0.22383562372E+02  0.40659174789E+02  0.00000000000E+00 0.  1.
         11    1    3    3    0    0 -0.28709085796E+01 -0.78085827257E+01 -0.48872612737E+01  0.96489068435E+01  0.51100000000E-03 0. -1.
        -11    1    3    3    0    0 -0.17458495431E+02 -0.88259172789E+01  0.26650946127E+02  0.33060078770E+02  0.51100000000E-03 0.  1.
        -12    1    3    3    0    0 -0.68923033259E+01 -0.36416751710E+01  0.61987751846E+00  0.78198395971E+01  0.00000000000E+00 0.  1.
</event>
<event>
 7    1  0.9953837E-014  0.5052886E+02  0.7816164E-02  0.1300439E+00
        -11   -1    0    0    0    0  0.00000000000E+00  0.00000000000E+00  0.45593999997E+02  0.45594000000E+02  0.51100000000E-03 0.  1.
         11   -1    0    0    0    0 -0.00000000000E+00 -0.00000000000E+00 -0.45593999997E+02  0.45594000000E+02  0.51100000000E-03 0. -1.
    9900012    2    1    2    0    0  0.60040396709E+01 -0.40072634802E+02 -0.33616757470E+01  0.50528863067E+02  0.30000009777E+02 0.  0.
         12    1    1    2    0    0 -0.60040396709E+01  0.40072634802E+02  0.33616757470E+01  0.40659136933E+02  0.00000000000E+00 0. -1.
         11    1    3    3    0    0 -0.98911522093E+00 -0.91485428094E+01 -0.41692611392E+01  0.10102322662E+02  0.51100000000E-03 0. -1.
        -11    1    3    3    0    0  0.10801510039E+02 -0.13570773871E+02  0.10412471786E+02  0.20230128313E+02  0.51100000000E-03 0.  1.
        -12    1    3    3    0    0 -0.38083551475E+01 -0.17353318122E+02 -0.96048863939E+01  0.20196412092E+02  0.00000000000E+00 0.  1.
</event>
<event>
 7    1  0.9953837E-014  0.5052885E+02  0.7816164E-02  0.1300439E+00
        -11   -1    0    0    0    0  0.00000000000E+00  0.00000000000E+00  0.45593999997E+02  0.45594000000E+02  0.51100000000E-03 0.  1.
         11   -1    0    0    0    0 -0.00000000000E+00 -0.00000000000E+00 -0.45593999997E+02  0.45594000000E+02  0.51100000000E-03 0. -1.
    9900012    2    1    2    0    0  0.24369846225E+02 -0.16218036102E+02 -0.28217941306E+02  0.50528852056E+02  0.29999976308E+02 0.  0.
         12    1    1    2    0    0 -0.24369846225E+02  0.16218036102E+02  0.28217941306E+02  0.40659147944E+02  0.00000000000E+00 0. -1.
         11    1    3    3    0    0  0.40936020426E+01 -0.14759327384E+02 -0.25222877184E+02  0.29509131743E+02  0.51100000000E-03 0. -1.
        -11    1    3    3    0    0  0.15121570768E+02 -0.29951237697E+01 -0.25206612321E+01  0.15620064090E+02  0.51100000000E-03 0.  1.
         12    1    3    3    0    0  0.51546734141E+01  0.15364150516E+01 -0.47440288995E+00  0.53996562223E+01  0.00000000000E+00 0. -1.
</event>
<event>
 7    1  0.1374138E-013  0.5052886E+02  0.7816164E-02  0.1300439E+00
        -11   -1    0    0    0    0  0.00000000000E+00  0.00000000000E+00  0.45593999997E+02  0.45594000000E+02  0.51100000000E-03 0. -1.
         11   -1    0    0    0    0 -0.00000000000E+00 -0.00000000000E+00 -0.45593999997E+02  0.45594000000E+02  0.51100000000E-03 0.  1.
    9900012    2    1    2    0    0 -0.12385301172E+02  0.40080411669E+01  0.38518896157E+02  0.50528862770E+02  0.30000008877E+02 0.  0.
        -12    1    1    2    0    0  0.12385301172E+02 -0.40080411669E+01 -0.38518896157E+02  0.40659137230E+02  0.00000000000E+00 0.  1.
         11    1    3    3    0    0 -0.65693623092E+01 -0.96764777220E+01  0.78009644595E+01  0.14058655306E+02  0.51100000000E-03 0. -1.
        -11    1    3    3    0    0 -0.31373362018E+01  0.63433274234E+01  0.30256794741E+01  0.76964548842E+01  0.51100000000E-03 0.  1.
         12    1    3    3    0    0 -0.26786026611E+01  0.73411914655E+01  0.27692252223E+02  0.28773752580E+02  0.00000000000E+00 0. -1.
</event>
<event>
 7    1  0.9953837E-014  0.5052886E+02  0.7816164E-02  0.1300439E+00
        -11   -1    0    0    0    0  0.00000000000E+00  0.00000000000E+00  0.45593999997E+02  0.45594000000E+02  0.51100000000E-03 0. -1.
         11   -1    0    0    0    0 -0.00000000000E+00 -0.00000000000E+00 -0.45593999997E+02  0.45594000000E+02  0.51100000000E-03 0.  1.
    9900012    2    1    2    0    0  0.30673046901E+01 -0.13938417666E+02 -0.38072011649E+02  0.50528856919E+02  0.29999991090E+02 0.  0.
         12    1    1    2    0    0 -0.30673046901E+01  0.13938417666E+02  0.38072011649E+02  0.40659143081E+02  0.00000000000E+00 0. -1.
         11    1    3    3    0    0  0.41201435692E+01  0.42334389646E+01 -0.88683672156E+01  0.10655774295E+02  0.51100000000E-03 0. -1.
        -11    1    3    3    0    0 -0.78348374656E+01 -0.75711364659E+01 -0.38278051534E+01  0.11548111450E+02  0.51100000000E-03 0.  1.
        -12    1    3    3    0    0  0.67819985865E+01 -0.10600720165E+02 -0.25375839280E+02  0.28324971174E+02  0.00000000000E+00 0.  1.
</event>
<event>
 7    1  0.9953837E-014  0.5052886E+02  0.7816164E-02  0.1300439E+00
        -11   -1    0    0    0    0  0.00000000000E+00  0.00000000000E+00  0.45593999997E+02  0.45594000000E+02  0.51100000000E-03 0. -1.
         11   -1    0    0    0    0 -0.00000000000E+00 -0.00000000000E+00 -0.45593999997E+02  0.45594000000E+02  0.51100000000E-03 0.  1.
    9900012    2    1    2    0    0  0.17133482160E+01  0.30284953823E+02 -0.27074922155E+02  0.50528863267E+02  0.30000010387E+02 0.  0.
         12    1    1    2    0    0 -0.17133482160E+01 -0.30284953823E+02  0.27074922155E+02  0.40659136733E+02  0.00000000000E+00 0. -1.
         11    1    3    3    0    0  0.63768162090E+01  0.28161046095E+02 -0.27211878017E+02  0.39676121378E+02  0.51100000000E-03 0. -1.
        -11    1    3    3    0    0 -0.64186112459E+01  0.54786917803E+00 -0.28520315625E+01  0.70450560862E+01  0.51100000000E-03 0.  1.
         12    1    3    3    0    0  0.17551432530E+01  0.15760385505E+01  0.29889874247E+01  0.38076858032E+01  0.00000000000E+00 0. -1.
</event>
<event>
 7    1  0.9953837E-014  0.5052887E+02  0.7816164E-02  0.1300439E+00
        -11   -1    0    0    0    0  0.00000000000E+00  0.00000000000E+00  0.45593999997E+02  0.45594000000E+02  0.51100000000E-03 0. -1.
         11   -1    0    0    0    0 -0.00000000000E+00 -0.00000000000E+00 -0.45593999997E+02  0.45594000000E+02  0.51100000000E-03 0.  1.
    9900012    2    1    2    0    0  0.38383043233E+02 -0.91771222161E+01 -0.97819853793E+01  0.50528870423E+02  0.30000032137E+02 0.  0.
         12    1    1    2    0    0 -0.38383043233E+02  0.91771222161E+01  0.97819853793E+01  0.40659129577E+02  0.00000000000E+00 0. -1.
         11    1    3    3    0    0  0.11502284452E+02  0.60938206513E+00  0.92405507729E+01  0.14766911423E+02  0.51100000000E-03 0. -1.
        -11    1    3    3    0    0  0.11607352763E+02 -0.82211725579E+01 -0.53296303012E+01  0.15189577868E+02  0.51100000000E-03 0.  1.
         12    1    3    3    0    0  0.15273406018E+02 -0.15653317233E+01 -0.13692905851E+02  0.20572381132E+02  0.00000000000E+00 0. -1.
</event>
<event>
 7    1  0.9953837E-014  0.5052886E+02  0.7816164E-02  0.1300439E+00
        -11   -1    0    0    0    0  0.00000000000E+00  0.00000000000E+00  0.45593999997E+02  0.45594000000E+02  0.51100000000E-03 0. -1.
         11   -1    0    0    0    0 -0.00000000000E+00 -0.00000000000E+00 -0.45593999997E+02  0.45594000000E+02  0.51100000000E-03 0.  1.
    9900012    2    1    2    0    0 -0.15606121229E+01  0.18464360315E+02 -0.36191123215E+02  0.50528861893E+02  0.30000006210E+02 0.  0.
         12    1    1    2    0    0  0.15606121229E+01 -0.18464360315E+02  0.36191123215E+02  0.40659138107E+02  0.00000000000E+00 0. -1.
         11    1    3    3    0    0  0.18921447362E+01  0.14363185600E+02 -0.75703569118E+01  0.16345996951E+02  0.51100000000E-03 0. -1.
        -11    1    3    3    0    0 -0.99621625423E+01 -0.58780771013E+00 -0.20323722716E+02  0.22641640968E+02  0.51100000000E-03 0.  1.
        -12    1    3    3    0    0  0.65094056832E+01  0.46889824255E+01 -0.82970435867E+01  0.11541223974E+02  0.00000000000E+00 0.  1.
</event>
<event>
 7    1  0.9953837E-014  0.5052886E+02  0.7816164E-02  0.1300439E+00
        -11   -1    0    0    0    0  0.00000000000E+00  0.00000000000E+00  0.45593999997E+02  0.45594000000E+02  0.51100000000E-03 0. -1.
         11   -1    0    0    0    0 -0.00000000000E+00 -0.00000000000E+00 -0.45593999997E+02  0.45594000000E+02  0.51100000000E-03 0.  1.
    9900012    2    1    2    0    0  0.19705187605E+02  0.90134438717E+00 -0.35553603330E+02  0.50528861421E+02  0.30000004775E+02 0.  0.
         12    1    1    2    0    0 -0.19705187605E+02 -0.90134438717E+00  0.35553603330E+02  0.40659138579E+02  0.00000000000E+00 0. -1.
         11    1    3    3    0    0  0.75805190624E+01 -0.48990475992E+01 -0.13490988436E+02  0.16231811540E+02  0.51100000000E-03 0. -1.
        -11    1    3    3    0    0  0.14212219610E+02  0.12231419682E+02 -0.12312527683E+02  0.22431967188E+02  0.51100000000E-03 0.  1.
        -12    1    3    3    0    0 -0.20875510679E+01 -0.64310276961E+01 -0.97500872113E+01  0.11865082693E+02  0.00000000000E+00 0.  1.
</event>
<event>
 7    1  0.9953837E-014  0.5052886E+02  0.7816164E-02  0.1300439E+00
        -11   -1    0    0    0    0  0.00000000000E+00  0.00000000000E+00  0.45593999997E+02  0.45594000000E+02  0.51100000000E-03 0. -1.
         11   -1    0    0    0    0 -0.00000000000E+00 -0.00000000000E+00 -0.45593999997E+02  0.45594000000E+02  0.51100000000E-03 0.  1.
    9900012    2    1    2    0    0 -0.11587768360E+02 -0.39752825049E+01  0.38769659120E+02  0.50528859393E+02  0.29999998612E+02 0.  0.
        -12    1    1    2    0    0  0.11587768360E+02  0.39752825049E+01 -0.38769659120E+02  0.40659140607E+02  0.00000000000E+00 0.  1.
         11    1    3    3    0    0 -0.47879433186E+01 -0.10296999660E+02  0.90963771947E+01  0.14549800052E+02  0.51100000000E-03 0. -1.
        -11    1    3    3    0    0  0.43171904879E+01  0.63946780557E+01  0.19254192728E+02  0.20742564427E+02  0.51100000000E-03 0.  1.
        -12    1    3    3    0    0 -0.11117015529E+02 -0.72960900760E-01  0.10419089198E+02  0.15236494915E+02  0.00000000000E+00 0.  1.
</event>
<event>
 7    1  0.9953837E-014  0.5052889E+02  0.7816164E-02  0.1300439E+00
        -11   -1    0    0    0    0  0.00000000000E+00  0.00000000000E+00  0.45593999997E+02  0.45594000000E+02  0.51100000000E-03 0. -1.
         11   -1    0    0    0    0 -0.00000000000E+00 -0.00000000000E+00 -0.45593999997E+02  0.45594000000E+02  0.51100000000E-03 0.  1.
    9900012    2    1    2    0    0  0.20242055428E+02 -0.18155926521E+01 -0.35215429101E+02  0.50528885015E+02  0.30000076491E+02 0.  0.
         12    1    1    2    0    0 -0.20242055428E+02  0.18155926521E+01  0.35215429101E+02  0.40659114985E+02  0.00000000000E+00 0. -1.
         11    1    3    3    0    0 -0.29164302876E+01  0.28043169710E+01  0.57509731884E+00  0.40866240937E+01  0.51100000000E-03 0. -1.
        -11    1    3    3    0    0  0.16679598435E+02 -0.11204563896E+02 -0.27283856222E+02  0.33884510719E+02  0.51100000000E-03 0.  1.
        -12    1    3    3    0    0  0.64788872799E+01  0.65846542727E+01 -0.85066701976E+01  0.12557750202E+02  0.00000000000E+00 0.  1.
</event>
<event>
 7    1  0.9953837E-014  0.5052888E+02  0.7816164E-02  0.1300439E+00
        -11   -1    0    0    0    0  0.00000000000E+00  0.00000000000E+00  0.45593999997E+02  0.45594000000E+02  0.51100000000E-03 0.  1.
         11   -1    0    0    0    0 -0.00000000000E+00 -0.00000000000E+00 -0.45593999997E+02  0.45594000000E+02  0.51100000000E-03 0. -1.
    9900012    2    1    2    0    0 -0.17602528752E+02 -0.35457219222E+02 -0.92790454276E+01  0.50528879283E+02  0.30000059068E+02 0.  0.
        -12    1    1    2    0    0  0.17602528752E+02  0.35457219222E+02  0.92790454276E+01  0.40659120717E+02  0.00000000000E+00 0.  1.
         11    1    3    3    0    0 -0.57939858842E+01 -0.29303749836E+02 -0.79439346463E+01  0.30909321002E+02  0.51100000000E-03 0. -1.
        -11    1    3    3    0    0  0.31446633404E+01 -0.46430140775E+00  0.12451384984E+01  0.34139205415E+01  0.51100000000E-03 0.  1.
         12    1    3    3    0    0 -0.14953206208E+02 -0.56891679790E+01 -0.25802492797E+01  0.16205637740E+02  0.00000000000E+00 0. -1.
</event>
<event>
 7    1  0.9953837E-014  0.5052886E+02  0.7816164E-02  0.1300439E+00
        -11   -1    0    0    0    0  0.00000000000E+00  0.00000000000E+00  0.45593999997E+02  0.45594000000E+02  0.51100000000E-03 0. -1.
         11   -1    0    0    0    0 -0.00000000000E+00 -0.00000000000E+00 -0.45593999997E+02  0.45594000000E+02  0.51100000000E-03 0.  1.
    9900012    2    1    2    0    0  0.34815030581E+02  0.12268138483E+02 -0.17046184377E+02  0.50528856158E+02  0.29999988778E+02 0.  0.
         12    1    1    2    0    0 -0.34815030581E+02 -0.12268138483E+02  0.17046184377E+02  0.40659143842E+02  0.00000000000E+00 0. -1.
         11    1    3    3    0    0  0.30241050195E+02  0.13754628086E+02 -0.26657655762E+01  0.33328924631E+02  0.51100000000E-03 0. -1.
        -11    1    3    3    0    0  0.25506622335E+01 -0.46917544056E+01 -0.10473829728E+02  0.11756680937E+02  0.51100000000E-03 0.  1.
         12    1    3    3    0    0  0.20233181518E+01  0.32052648025E+01 -0.39065890729E+01  0.54432505897E+01  0.00000000000E+00 0. -1.
</event>
<event>
 7    1  0.9953837E-014  0.5052887E+02  0.7816164E-02  0.1300439E+00
        -11   -1    0    0    0    0  0.00000000000E+00  0.00000000000E+00  0.45593999997E+02  0.45594000000E+02  0.51100000000E-03 0. -1.
         11   -1    0    0    0    0 -0.00000000000E+00 -0.00000000000E+00 -0.45593999997E+02  0.45594000000E+02  0.51100000000E-03 0.  1.
    9900012    2    1    2    0    0  0.14980568007E+02  0.16488881811E+02 -0.34012712488E+02  0.50528865086E+02  0.30000015914E+02 0.  0.
         12    1    1    2    0    0 -0.14980568007E+02 -0.16488881811E+02  0.34012712488E+02  0.40659134914E+02  0.00000000000E+00 0. -1.
         11    1    3    3    0    0 -0.23265709229E+01  0.12075188039E+02 -0.39255387049E+01  0.12908638690E+02  0.51100000000E-03 0. -1.
        -11    1    3    3    0    0  0.81710357350E+01  0.69944511507E+01 -0.24113462552E+02  0.26403546133E+02  0.51100000000E-03 0.  1.
        -12    1    3    3    0    0  0.91361031953E+01 -0.25807573789E+01 -0.59737112307E+01  0.11216680263E+02  0.00000000000E+00 0.  1.
</event>
<event>
 7    1  0.9953837E-014  0.5052886E+02  0.7816164E-02  0.1300439E+00
        -11   -1    0    0    0    0  0.00000000000E+00  0.00000000000E+00  0.45593999997E+02  0.45594000000E+02  0.51100000000E-03 0. -1.
         11   -1    0    0    0    0 -0.00000000000E+00 -0.00000000000E+00 -0.45593999997E+02  0.45594000000E+02  0.51100000000E-03 0.  1.
    9900012    2    1    2    0    0  0.36171649022E+01 -0.82193214478E+01 -0.39655066924E+02  0.50528862531E+02  0.30000008150E+02 0.  0.
         12    1    1    2    0    0 -0.36171649022E+01  0.82193214478E+01  0.39655066924E+02  0.40659137469E+02  0.00000000000E+00 0. -1.
         11    1    3    3    0    0  0.45859030352E+01 -0.24750223769E+01 -0.96476149497E+00  0.52997176733E+01  0.51100000000E-03 0. -1.
        -11    1    3    3    0    0 -0.67943042027E+01 -0.10402786172E+02 -0.11142668704E+02  0.16689505560E+02  0.51100000000E-03 0.  1.
        -12    1    3    3    0    0  0.58255660697E+01  0.46584871014E+01 -0.27547636725E+02  0.28539639298E+02  0.00000000000E+00 0.  1.
</event>
<event>
 7    1  0.9953837E-014  0.5052886E+02  0.7816164E-02  0.1300439E+00
        -11   -1    0    0    0    0  0.00000000000E+00  0.00000000000E+00  0.45593999997E+02  0.45594000000E+02  0.51100000000E-03 0. -1.
         11   -1    0    0    0    0 -0.00000000000E+00 -0.00000000000E+00 -0.45593999997E+02  0.45594000000E+02  0.51100000000E-03 0.  1.
    9900012    2    1    2    0    0  0.38899747456E+02 -0.10511916102E+01  0.11784335134E+02  0.50528856987E+02  0.29999991298E+02 0.  0.
        -12    1    1    2    0    0 -0.38899747456E+02  0.10511916102E+01 -0.11784335134E+02  0.40659143013E+02  0.00000000000E+00 0.  1.
         11    1    3    3    0    0  0.31692108158E+02 -0.53774431475E+01  0.66618477035E+01  0.32828140815E+02  0.51100000000E-03 0. -1.
        -11    1    3    3    0    0  0.96741969587E-02  0.30854962589E+01 -0.46007746216E+01  0.55396306856E+01  0.51100000000E-03 0.  1.
        -12    1    3    3    0    0  0.71979651013E+01  0.12407552784E+01  0.97232620526E+01  0.12161085486E+02  0.00000000000E+00 0.  1.
</event>
<event>
 7    1  0.9953837E-014  0.5052886E+02  0.7816164E-02  0.1300439E+00
        -11   -1    0    0    0    0  0.00000000000E+00  0.00000000000E+00  0.45593999997E+02  0.45594000000E+02  0.51100000000E-03 0. -1.
         11   -1    0    0    0    0 -0.00000000000E+00 -0.00000000000E+00 -0.45593999997E+02  0.45594000000E+02  0.51100000000E-03 0.  1.
    9900012    2    1    2    0    0 -0.36391401577E+02  0.11101703673E+02  0.14338179314E+02  0.50528864258E+02  0.30000013400E+02 0.  0.
        -12    1    1    2    0    0  0.36391401577E+02 -0.11101703673E+02 -0.14338179314E+02  0.40659135742E+02  0.00000000000E+00 0.  1.
         11    1    3    3    0    0 -0.14751064924E+02  0.12149575513E+02  0.12809715185E+02  0.23006410083E+02  0.51100000000E-03 0. -1.
        -11    1    3    3    0    0  0.97262994516E+00 -0.80942155602E+00 -0.40393361555E+01  0.42328960658E+01  0.51100000000E-03 0.  1.
        -12    1    3    3    0    0 -0.22612966599E+02 -0.23845028351E+00  0.55678002848E+01  0.23289558110E+02  0.00000000000E+00 0.  1.
</event>
<event>
 7    1  0.9953837E-014  0.5052888E+02  0.7816164E-02  0.1300439E+00
        -11   -1    0    0    0    0  0.00000000000E+00  0.00000000000E+00  0.45593999997E+02  0.45594000000E+02  0.51100000000E-03 0. -1.
         11   -1    0    0    0    0 -0.00000000000E+00 -0.00000000000E+00 -0.45593999997E+02  0.45594000000E+02  0.51100000000E-03 0.  1.
    9900012    2    1    2    0    0  0.61326133982E+01 -0.37061027631E+02  0.15557472320E+02  0.50528884648E+02  0.30000075377E+02 0.  0.
        -12    1    1    2    0    0 -0.61326133982E+01  0.37061027631E+02 -0.15557472320E+02  0.40659115352E+02  0.00000000000E+00 0.  1.
         11    1    3    3    0    0  0.10770313700E+02 -0.31151890302E+02  0.21699699514E+02  0.39462854508E+02  0.51100000000E-03 0. -1.
        -11    1    3    3    0    0 -0.17809347583E+01 -0.29083978194E+01 -0.60226334825E+01  0.69211719250E+01  0.51100000000E-03 0.  1.
         12    1    3    3    0    0 -0.28567655432E+01 -0.30007395095E+01 -0.11959371201E+00  0.41448582158E+01  0.00000000000E+00 0. -1.
</event>
<event>
 7    1  0.9953837E-014  0.5052885E+02  0.7816164E-02  0.1300439E+00
        -11   -1    0    0    0    0  0.00000000000E+00  0.00000000000E+00  0.45593999997E+02  0.45594000000E+02  0.51100000000E-03 0. -1.
         11   -1    0    0    0    0 -0.00000000000E+00 -0.00000000000E+00 -0.45593999997E+02  0.45594000000E+02  0.51100000000E-03 0.  1.
    9900012    2    1    2    0    0 -0.60738860298E+01  0.28073425827E+02  0.28777712719E+02  0.50528854922E+02  0.29999985021E+02 0.  0.
        -12    1    1    2    0    0  0.60738860298E+01 -0.28073425827E+02 -0.28777712719E+02  0.40659145078E+02  0.00000000000E+00 0.  1.
         11    1    3    3    0    0  0.34090649458E+00  0.11970571717E+02  0.22582262255E+02  0.25561091003E+02  0.51100000000E-03 0. -1.
        -11    1    3    3    0    0 -0.61954511507E+01  0.24391127073E+01 -0.41342645320E+01  0.78374121521E+01  0.51100000000E-03 0.  1.
        -12    1    3    3    0    0 -0.21934137363E+00  0.13663741402E+02  0.10329714996E+02  0.17130351767E+02  0.00000000000E+00 0.  1.
</event>
<event>
 7    1  0.9953837E-014  0.5052887E+02  0.7816164E-02  0.1300439E+00
        -11   -1    0    0    0    0  0.00000000000E+00  0.00000000000E+00  0.45593999997E+02  0.45594000000E+02  0.51100000000E-03 0. -1.
         11   -1    0    0    0    0 -0.00000000000E+00 -0.00000000000E+00 -0.45593999997E+02  0.45594000000E+02  0.51100000000E-03 0.  1.
    9900012    2    1    2    0    0  0.44713019792E+01 -0.25822369229E+02 -0.31086610542E+02  0.50528872501E+02  0.30000038455E+02 0.  0.
         12    1    1    2    0    0 -0.44713019792E+01  0.25822369229E+02  0.31086610542E+02  0.40659127499E+02  0.00000000000E+00 0. -1.
         11    1    3    3    0    0  0.63047769100E+01  0.28353288827E+01 -0.19640631596E+01  0.71865740178E+01  0.51100000000E-03 0. -1.
        -11    1    3    3    0    0 -0.18697655352E+01 -0.13243066597E+02 -0.41645716850E+01  0.14007801170E+02  0.51100000000E-03 0.  1.
        -12    1    3    3    0    0  0.36290604435E-01 -0.15414631515E+02 -0.24957975697E+02  0.29334497314E+02  0.00000000000E+00 0.  1.
</event>
<event>
 7    1  0.9953837E-014  0.5052886E+02  0.7816164E-02  0.1300439E+00
        -11   -1    0    0    0    0  0.00000000000E+00  0.00000000000E+00  0.45593999997E+02  0.45594000000E+02  0.51100000000E-03 0. -1.
         11   -1    0    0    0    0 -0.00000000000E+00 -0.00000000000E+00 -0.45593999997E+02  0.45594000000E+02  0.51100000000E-03 0.  1.
    9900012    2    1    2    0    0  0.84423918258E+01  0.17079452202E+02 -0.35919126714E+02  0.50528864112E+02  0.30000012956E+02 0.  0.
         12    1    1    2    0    0 -0.84423918258E+01 -0.17079452202E+02  0.35919126714E+02  0.40659135888E+02  0.00000000000E+00 0. -1.
         11    1    3    3    0    0  0.27051117275E+01 -0.13180046985E+01  0.17918565754E+01  0.35022158830E+01  0.51100000000E-03 0. -1.
        -11    1    3    3    0    0  0.10003836108E+02  0.14276056796E+02 -0.13358460067E+02  0.21962035201E+02  0.51100000000E-03 0.  1.
        -12    1    3    3    0    0 -0.42665560096E+01  0.41214001045E+01 -0.24352523222E+02  0.25064613029E+02  0.00000000000E+00 0.  1.
</event>
<event>
 7    1  0.9953837E-014  0.5052886E+02  0.7816164E-02  0.1300439E+00
        -11   -1    0    0    0    0  0.00000000000E+00  0.00000000000E+00  0.45593999997E+02  0.45594000000E+02  0.51100000000E-03 0. -1.
         11   -1    0    0    0    0 -0.00000000000E+00 -0.00000000000E+00 -0.45593999997E+02  0.45594000000E+02  0.51100000000E-03 0.  1.
    9900012    2    1    2    0    0 -0.17154078927E+02 -0.34898413666E+01 -0.36697744887E+02  0.50528857161E+02  0.29999991826E+02 0.  0.
         12    1    1    2    0    0  0.17154078927E+02  0.34898413666E+01  0.36697744887E+02  0.40659142839E+02  0.00000000000E+00 0. -1.
         11    1    3    3    0    0 -0.35621780460E+01  0.97876499214E+01 -0.10583038726E+02  0.14848835387E+02  0.51100000000E-03 0. -1.
        -11    1    3    3    0    0 -0.18349032152E+01 -0.11996589041E+02 -0.16235425141E+02  0.20270028322E+02  0.51100000000E-03 0.  1.
        -12    1    3    3    0    0 -0.11756997666E+02 -0.12809022470E+01 -0.98792810206E+01  0.15409993451E+02  0.00000000000E+00 0.  1.
</event>
<event>
 7    1  0.9953837E-014  0.5052886E+02  0.7816164E-02  0.1300439E+00
        -11   -1    0    0    0    0  0.00000000000E+00  0.00000000000E+00  0.45593999997E+02  0.45594000000E+02  0.51100000000E-03 0. -1.
         11   -1    0    0    0    0 -0.00000000000E+00 -0.00000000000E+00 -0.45593999997E+02  0.45594000000E+02  0.51100000000E-03 0.  1.
    9900012    2    1    2    0    0 -0.18333440150E+01 -0.23905359761E+02  0.32838061726E+02  0.50528859903E+02  0.30000000160E+02 0.  0.
        -12    1    1    2    0    0  0.18333440150E+01  0.23905359761E+02 -0.32838061726E+02  0.40659140097E+02  0.00000000000E+00 0.  1.
         11    1    3    3    0    0 -0.45381920275E+01 -0.19962210074E+02  0.10905370861E+02  0.23195088527E+02  0.51100000000E-03 0. -1.
        -11    1    3    3    0    0 -0.26439148880E-01  0.19658070591E+01  0.20594325488E+02  0.20687951541E+02  0.51100000000E-03 0.  1.
        -12    1    3    3    0    0  0.27312871613E+01 -0.59089567460E+01  0.13383653769E+01  0.66458198340E+01  0.00000000000E+00 0.  1.
</event>
<event>
 7    1  0.9953837E-014  0.5052886E+02  0.7816164E-02  0.1300439E+00
        -11   -1    0    0    0    0  0.00000000000E+00  0.00000000000E+00  0.45593999997E+02  0.45594000000E+02  0.51100000000E-03 0. -1.
         11   -1    0    0    0    0 -0.00000000000E+00 -0.00000000000E+00 -0.45593999997E+02  0.45594000000E+02  0.51100000000E-03 0.  1.
    9900012    2    1    2    0    0 -0.34363782821E+01  0.23892891288E+02 -0.32718297424E+02  0.50528856672E+02  0.29999990341E+02 0.  0.
         12    1    1    2    0    0  0.34363782821E+01 -0.23892891288E+02  0.32718297424E+02  0.40659143328E+02  0.00000000000E+00 0. -1.
         11    1    3    3    0    0  0.15230651918E+01 -0.93174971373E+00 -0.22267301760E+02  0.22338769282E+02  0.51100000000E-03 0. -1.
        -11    1    3    3    0    0 -0.18861099005E+01  0.20995424434E+02 -0.97667518917E+01  0.23232621472E+02  0.51100000000E-03 0.  1.
         12    1    3    3    0    0 -0.30733335734E+01  0.38292165686E+01 -0.68424377209E+00  0.49574659174E+01  0.00000000000E+00 0. -1.
</event>
<event>
 7    1  0.9953837E-014  0.5052884E+02  0.7816164E-02  0.1300439E+00
        -11   -1    0    0    0    0  0.00000000000E+00  0.00000000000E+00  0.45593999997E+02  0.45594000000E+02  0.51100000000E-03 0. -1.
         11   -1    0    0    0    0 -0.00000000000E+00 -0.00000000000E+00 -0.45593999997E+02  0.45594000000E+02  0.51100000000E-03 0.  1.
    9900012    2    1    2    0    0  0.69316751919E+01 -0.17181530323E+02  0.36192739891E+02  0.50528837121E+02  0.29999930912E+02 0.  0.
        -12    1    1    2    0    0 -0.69316751919E+01  0.17181530323E+02 -0.36192739891E+02  0.40659162879E+02  0.00000000000E+00 0.  1.
         11    1    3    3    0    0 -0.77859165323E+01  0.40366788555E+01  0.10559469370E+02  0.13726531465E+02  0.51100000000E-03 0. -1.
        -11    1    3    3    0    0  0.73120880840E+01 -0.12993240374E+02  0.17923899523E+02  0.23314311097E+02  0.51100000000E-03 0.  1.
         12    1    3    3    0    0  0.74055036403E+01 -0.82249688052E+01  0.77093709980E+01  0.13487994558E+02  0.00000000000E+00 0. -1.
</event>
<event>
 7    1  0.9953837E-014  0.5052885E+02  0.7816164E-02  0.1300439E+00
        -11   -1    0    0    0    0  0.00000000000E+00  0.00000000000E+00  0.45593999997E+02  0.45594000000E+02  0.51100000000E-03 0. -1.
         11   -1    0    0    0    0 -0.00000000000E+00 -0.00000000000E+00 -0.45593999997E+02  0.45594000000E+02  0.51100000000E-03 0.  1.
    9900012    2    1    2    0    0 -0.31469487176E+02 -0.85412665174E+01  0.24287536349E+02  0.50528852459E+02  0.29999977534E+02 0.  0.
        -12    1    1    2    0    0  0.31469487176E+02  0.85412665174E+01 -0.24287536349E+02  0.40659147541E+02  0.00000000000E+00 0.  1.
         11    1    3    3    0    0 -0.10931275369E+02 -0.46010542932E+01  0.21197117693E+02  0.24289509681E+02  0.51100000000E-03 0. -1.
        -11    1    3    3    0    0 -0.57172004376E+01  0.43039923410E+01 -0.35964294349E+01  0.80090596112E+01  0.51100000000E-03 0.  1.
        -12    1    3    3    0    0 -0.14821011370E+02 -0.82442045651E+01  0.66868480909E+01  0.18230283167E+02  0.00000000000E+00 0.  1.
</event>
<event>
 7    1  0.9953837E-014  0.5052886E+02  0.7816164E-02  0.1300439E+00
        -11   -1    0    0    0    0  0.00000000000E+00  0.00000000000E+00  0.45593999997E+02  0.45594000000E+02  0.51100000000E-03 0.  1.
         11   -1    0    0    0    0 -0.00000000000E+00 -0.00000000000E+00 -0.45593999997E+02  0.45594000000E+02  0.51100000000E-03 0. -1.
    9900012    2    1    2    0    0 -0.32416142772E+02 -0.16591008632E+02  0.18085834613E+02  0.50528864578E+02  0.30000014371E+02 0.  0.
        -12    1    1    2    0    0  0.32416142772E+02  0.16591008632E+02 -0.18085834613E+02  0.40659135422E+02  0.00000000000E+00 0.  1.
         11    1    3    3    0    0 -0.13374550323E+02 -0.33611759130E+01 -0.55380884060E+00  0.13801550796E+02  0.51100000000E-03 0. -1.
        -11    1    3    3    0    0 -0.55966223435E+00 -0.13070749489E+02  0.90233799623E+01  0.15892737342E+02  0.51100000000E-03 0.  1.
        -12    1    3    3    0    0 -0.18481930214E+02 -0.15908323026E+00  0.96162634911E+01  0.20834576440E+02  0.00000000000E+00 0.  1.
</event>
<event>
 7    1  0.9953837E-014  0.5052886E+02  0.7816164E-02  0.1300439E+00
        -11   -1    0    0    0    0  0.00000000000E+00  0.00000000000E+00  0.45593999997E+02  0.45594000000E+02  0.51100000000E-03 0. -1.
         11   -1    0    0    0    0 -0.00000000000E+00 -0.00000000000E+00 -0.45593999997E+02  0.45594000000E+02  0.51100000000E-03 0.  1.
    9900012    2    1    2    0    0 -0.13758203041E+02  0.29310098735E+02 -0.24592599923E+02  0.50528855767E+02  0.29999987590E+02 0.  0.
         12    1    1    2    0    0  0.13758203041E+02 -0.29310098735E+02  0.24592599923E+02  0.40659144233E+02  0.00000000000E+00 0. -1.
         11    1    3    3    0    0 -0.45638522781E+01 -0.13761624645E+01 -0.10576213220E+02  0.11600812777E+02  0.51100000000E-03 0. -1.
        -11    1    3    3    0    0  0.21846197729E+01  0.19711402663E+02 -0.11484756105E+02  0.22917495097E+02  0.51100000000E-03 0.  1.
         12    1    3    3    0    0 -0.11378970535E+02  0.10974858537E+02 -0.25316305979E+01  0.16010547893E+02  0.00000000000E+00 0. -1.
</event>
<event>
 7    1  0.9953837E-014  0.5052887E+02  0.7816164E-02  0.1300439E+00
        -11   -1    0    0    0    0  0.00000000000E+00  0.00000000000E+00  0.45593999997E+02  0.45594000000E+02  0.51100000000E-03 0.  1.
         11   -1    0    0    0    0 -0.00000000000E+00 -0.00000000000E+00 -0.45593999997E+02  0.45594000000E+02  0.51100000000E-03 0. -1.
    9900012    2    1    2    0    0 -0.26737615128E+02  0.28840156526E+02  0.10320361032E+02  0.50528873804E+02  0.30000042415E+02 0.  0.
         12    1    1    2    0    0  0.26737615128E+02 -0.28840156526E+02 -0.10320361032E+02  0.40659126196E+02  0.00000000000E+00 0. -1.
         11    1    3    3    0    0 -0.11065049223E+02  0.55035367952E+01 -0.52483014376E+01  0.13426425429E+02  0.51100000000E-03 0. -1.
        -11    1    3    3    0    0 -0.10127309442E+02  0.23421996784E+02  0.17812585981E+02  0.31119777465E+02  0.51100000000E-03 0.  1.
        -12    1    3    3    0    0 -0.55452564635E+01 -0.85377053711E-01 -0.22439235116E+01  0.59826709097E+01  0.00000000000E+00 0.  1.
</event>
<event>
 7    1  0.9953837E-014  0.5052886E+02  0.7816164E-02  0.1300439E+00
        -11   -1    0    0    0    0  0.00000000000E+00  0.00000000000E+00  0.45593999997E+02  0.45594000000E+02  0.51100000000E-03 0. -1.
         11   -1    0    0    0    0 -0.00000000000E+00 -0.00000000000E+00 -0.45593999997E+02  0.45594000000E+02  0.51100000000E-03 0.  1.
    9900012    2    1    2    0    0 -0.11784095665E+02 -0.38741833795E+02  0.36565921685E+01  0.50528864954E+02  0.30000015514E+02 0.  0.
        -12    1    1    2    0    0  0.11784095665E+02  0.38741833795E+02 -0.36565921685E+01  0.40659135046E+02  0.00000000000E+00 0.  1.
         11    1    3    3    0    0 -0.12200523002E+02 -0.32288047036E+02 -0.44398387644E+01  0.34800616538E+02  0.51100000000E-03 0. -1.
        -11    1    3    3    0    0  0.14164418002E+01  0.23628559606E+01 -0.10840843308E+01  0.29605125842E+01  0.51100000000E-03 0.  1.
         12    1    3    3    0    0 -0.10000144629E+01 -0.88166427192E+01  0.91805152637E+01  0.12767735832E+02  0.00000000000E+00 0. -1.
</event>
<event>
 7    1  0.9953837E-014  0.5052895E+02  0.7816164E-02  0.1300438E+00
        -11   -1    0    0    0    0  0.00000000000E+00  0.00000000000E+00  0.45593999997E+02  0.45594000000E+02  0.51100000000E-03 0. -1.
         11   -1    0    0    0    0 -0.00000000000E+00 -0.00000000000E+00 -0.45593999997E+02  0.45594000000E+02  0.51100000000E-03 0.  1.
    9900012    2    1    2    0    0  0.44295950628E+01  0.18753739836E+02 -0.35802710187E+02  0.50528952704E+02  0.30000282239E+02 0.  0.
         12    1    1    2    0    0 -0.44295950628E+01 -0.18753739836E+02  0.35802710187E+02  0.40659047296E+02  0.00000000000E+00 0. -1.
         11    1    3    3    0    0  0.15865947694E+01  0.83784025580E+01  0.17273358352E+01  0.87004943385E+01  0.51100000000E-03 0. -1.
        -11    1    3    3    0    0 -0.54996393418E+00 -0.37946649682E+01 -0.93153206651E+01  0.10073586348E+02  0.51100000000E-03 0.  1.
         12    1    3    3    0    0  0.33929642276E+01  0.14170002247E+02 -0.28214725357E+02  0.31754872018E+02  0.00000000000E+00 0. -1.
</event>
<event>
 7    1  0.9953837E-014  0.5052886E+02  0.7816164E-02  0.1300439E+00
        -11   -1    0    0    0    0  0.00000000000E+00  0.00000000000E+00  0.45593999997E+02  0.45594000000E+02  0.51100000000E-03 0. -1.
         11   -1    0    0    0    0 -0.00000000000E+00 -0.00000000000E+00 -0.45593999997E+02  0.45594000000E+02  0.51100000000E-03 0.  1.
    9900012    2    1    2    0    0 -0.34511081904E+02 -0.15706682191E+02 -0.14678236898E+02  0.50528864765E+02  0.30000014938E+02 0.  0.
         12    1    1    2    0    0  0.34511081904E+02  0.15706682191E+02  0.14678236898E+02  0.40659135235E+02  0.00000000000E+00 0. -1.
         11    1    3    3    0    0 -0.14532151203E+01  0.37153567611E+01  0.43200476099E+01  0.58803504709E+01  0.51100000000E-03 0. -1.
        -11    1    3    3    0    0 -0.16065763562E+02 -0.16734550844E+02 -0.10620963476E+02  0.25513894571E+02  0.51100000000E-03 0.  1.
         12    1    3    3    0    0 -0.16992103222E+02 -0.26874881085E+01 -0.83773210313E+01  0.19134619722E+02  0.00000000000E+00 0. -1.
</event>
<event>
 7    1  0.9953837E-014  0.5052887E+02  0.7816164E-02  0.1300439E+00
        -11   -1    0    0    0    0  0.00000000000E+00  0.00000000000E+00  0.45593999997E+02  0.45594000000E+02  0.51100000000E-03 0.  1.
         11   -1    0    0    0    0 -0.00000000000E+00 -0.00000000000E+00 -0.45593999997E+02  0.45594000000E+02  0.51100000000E-03 0. -1.
    9900012    2    1    2    0    0  0.29092964337E+02  0.28402386646E+02 -0.26288695337E+00  0.50528865102E+02  0.30000015965E+02 0.  0.
        -12    1    1    2    0    0 -0.29092964337E+02 -0.28402386646E+02  0.26288695337E+00  0.40659134898E+02  0.00000000000E+00 0.  1.
         11    1    3    3    0    0  0.19880304685E+02  0.22675516036E+02  0.48715505423E+01  0.30547300156E+02  0.51100000000E-03 0. -1.
        -11    1    3    3    0    0  0.62226094899E+01 -0.49263356521E+01 -0.39150781963E+01  0.88497169087E+01  0.51100000000E-03 0.  1.
        -12    1    3    3    0    0  0.29900501613E+01  0.10653206262E+02 -0.12193592994E+01  0.11131848037E+02  0.00000000000E+00 0.  1.
</event>
<event>
 7    1  0.9953837E-014  0.5052888E+02  0.7816164E-02  0.1300439E+00
        -11   -1    0    0    0    0  0.00000000000E+00  0.00000000000E+00  0.45593999997E+02  0.45594000000E+02  0.51100000000E-03 0.  1.
         11   -1    0    0    0    0 -0.00000000000E+00 -0.00000000000E+00 -0.45593999997E+02  0.45594000000E+02  0.51100000000E-03 0. -1.
    9900012    2    1    2    0    0 -0.63583983294E+01  0.39607434058E+02 -0.66321946053E+01  0.50528879655E+02  0.30000060198E+02 0.  0.
         12    1    1    2    0    0  0.63583983294E+01 -0.39607434058E+02  0.66321946053E+01  0.40659120345E+02  0.00000000000E+00 0. -1.
         11    1    3    3    0    0 -0.40878378532E+01  0.32558039885E+01 -0.78658271172E+01  0.94436176556E+01  0.51100000000E-03 0. -1.
        -11    1    3    3    0    0  0.15189326702E+01  0.26254437873E+02  0.89992385489E+01  0.27795484512E+02  0.51100000000E-03 0.  1.
        -12    1    3    3    0    0 -0.37894931464E+01  0.10097192196E+02 -0.77656060370E+01  0.13289777488E+02  0.00000000000E+00 0.  1.
</event>
<event>
 7    1  0.9953837E-014  0.5052885E+02  0.7816164E-02  0.1300439E+00
        -11   -1    0    0    0    0  0.00000000000E+00  0.00000000000E+00  0.45593999997E+02  0.45594000000E+02  0.51100000000E-03 0. -1.
         11   -1    0    0    0    0 -0.00000000000E+00 -0.00000000000E+00 -0.45593999997E+02  0.45594000000E+02  0.51100000000E-03 0.  1.
    9900012    2    1    2    0    0  0.27810163869E+02  0.10621867906E+02 -0.27693627971E+02  0.50528851922E+02  0.29999975901E+02 0.  0.
         12    1    1    2    0    0 -0.27810163869E+02 -0.10621867906E+02  0.27693627971E+02  0.40659148078E+02  0.00000000000E+00 0. -1.
         11    1    3    3    0    0 -0.35716692963E+01  0.31559114079E+00  0.22581908975E+01  0.42374338603E+01  0.51100000000E-03 0. -1.
        -11    1    3    3    0    0  0.24133075498E+02  0.71160268984E+01 -0.28874796567E+02  0.38298786519E+02  0.51100000000E-03 0.  1.
         12    1    3    3    0    0  0.72487576669E+01  0.31902498669E+01 -0.10770223022E+01  0.79926315420E+01  0.00000000000E+00 0. -1.
</event>
<event>
 7    1  0.9953837E-014  0.5052883E+02  0.7816164E-02  0.1300439E+00
        -11   -1    0    0    0    0  0.00000000000E+00  0.00000000000E+00  0.45593999997E+02  0.45594000000E+02  0.51100000000E-03 0. -1.
         11   -1    0    0    0    0 -0.00000000000E+00 -0.00000000000E+00 -0.45593999997E+02  0.45594000000E+02  0.51100000000E-03 0.  1.
    9900012    2    1    2    0    0  0.54003943448E+01  0.13048930988E+02  0.38127805066E+02  0.50528826642E+02  0.29999899061E+02 0.  0.
        -12    1    1    2    0    0 -0.54003943448E+01 -0.13048930988E+02 -0.38127805066E+02  0.40659173358E+02  0.00000000000E+00 0.  1.
         11    1    3    3    0    0  0.15045848333E+02 -0.36797109104E+00  0.24762796533E+02  0.28977733644E+02  0.51100000000E-03 0. -1.
        -11    1    3    3    0    0 -0.20509549568E+01  0.24777366825E+01  0.97317657125E+00  0.33604565468E+01  0.51100000000E-03 0.  1.
         12    1    3    3    0    0 -0.75944990314E+01  0.10939165396E+02  0.12391831962E+02  0.18190636451E+02  0.00000000000E+00 0. -1.
</event>
<event>
 7    1  0.9953837E-014  0.5052886E+02  0.7816164E-02  0.1300439E+00
        -11   -1    0    0    0    0  0.00000000000E+00  0.00000000000E+00  0.45593999997E+02  0.45594000000E+02  0.51100000000E-03 0. -1.
         11   -1    0    0    0    0 -0.00000000000E+00 -0.00000000000E+00 -0.45593999997E+02  0.45594000000E+02  0.51100000000E-03 0.  1.
    9900012    2    1    2    0    0 -0.33087602783E+01 -0.14120014155E+02 -0.37984778154E+02  0.50528855079E+02  0.29999985497E+02 0.  0.
         12    1    1    2    0    0  0.33087602783E+01  0.14120014155E+02  0.37984778154E+02  0.40659144921E+02  0.00000000000E+00 0. -1.
         11    1    3    3    0    0 -0.42307956616E+01 -0.73032207241E+01 -0.28379898234E+01  0.89045410535E+01  0.51100000000E-03 0. -1.
        -11    1    3    3    0    0  0.74400302865E+01 -0.93563267889E+01 -0.31591411513E+02  0.33777391600E+02  0.51100000000E-03 0.  1.
        -12    1    3    3    0    0 -0.65179949032E+01  0.25395333577E+01 -0.35553768173E+01  0.78469224251E+01  0.00000000000E+00 0.  1.
</event>
<event>
 7    1  0.9953837E-014  0.5052887E+02  0.7816164E-02  0.1300439E+00
        -11   -1    0    0    0    0  0.00000000000E+00  0.00000000000E+00  0.45593999997E+02  0.45594000000E+02  0.51100000000E-03 0. -1.
         11   -1    0    0    0    0 -0.00000000000E+00 -0.00000000000E+00 -0.45593999997E+02  0.45594000000E+02  0.51100000000E-03 0.  1.
    9900012    2    1    2    0    0  0.13960073527E+02 -0.22092189482E+02  0.31148299453E+02  0.50528867597E+02  0.30000023547E+02 0.  0.
        -12    1    1    2    0    0 -0.13960073527E+02  0.22092189482E+02 -0.31148299453E+02  0.40659132403E+02  0.00000000000E+00 0.  1.
         11    1    3    3    0    0  0.77703784569E+01 -0.83065885296E+01  0.22096417943E+02  0.24852160480E+02  0.51100000000E-03 0.  1.
        -11    1    3    3    0    0 -0.29810265330E+01 -0.11283518764E+02 -0.11564048108E+01  0.11727812551E+02  0.51100000000E-03 0. -1.
         12    1    3    3    0    0  0.91707216027E+01 -0.25020821882E+01  0.10208286321E+02  0.13948894565E+02  0.00000000000E+00 0. -1.
</event>
<event>
 7    1  0.1056921E-013  0.5052887E+02  0.7816164E-02  0.1300439E+00
        -11   -1    0    0    0    0  0.00000000000E+00  0.00000000000E+00  0.45593999997E+02  0.45594000000E+02  0.51100000000E-03 0. -1.
         11   -1    0    0    0    0 -0.00000000000E+00 -0.00000000000E+00 -0.45593999997E+02  0.45594000000E+02  0.51100000000E-03 0.  1.
    9900012    2    1    2    0    0  0.25558982972E+02 -0.14062972979E+02  0.28322012153E+02  0.50528865824E+02  0.30000018157E+02 0.  0.
        -12    1    1    2    0    0 -0.25558982972E+02  0.14062972979E+02 -0.28322012153E+02  0.40659134176E+02  0.00000000000E+00 0.  1.
         11    1    3    3    0    0  0.17242669397E+02  0.32957016803E+01  0.21203688712E+02  0.27527580946E+02  0.51100000000E-03 0. -1.
        -11    1    3    3    0    0 -0.74567705967E-01 -0.51545421419E+01 -0.20889012423E+01  0.55622274043E+01  0.51100000000E-03 0.  1.
         12    1    3    3    0    0  0.83908812808E+01 -0.12204132518E+02  0.92072246837E+01  0.17439057473E+02  0.00000000000E+00 0. -1.
</event>
<event>
 7    1  0.9953837E-014  0.5052887E+02  0.7816164E-02  0.1300439E+00
        -11   -1    0    0    0    0  0.00000000000E+00  0.00000000000E+00  0.45593999997E+02  0.45594000000E+02  0.51100000000E-03 0. -1.
         11   -1    0    0    0    0 -0.00000000000E+00 -0.00000000000E+00 -0.45593999997E+02  0.45594000000E+02  0.51100000000E-03 0.  1.
    9900012    2    1    2    0    0  0.13742363349E+02  0.25169033028E+01 -0.38183468724E+02  0.50528872656E+02  0.30000038924E+02 0.  0.
         12    1    1    2    0    0 -0.13742363349E+02 -0.25169033028E+01  0.38183468724E+02  0.40659127344E+02  0.00000000000E+00 0. -1.
         11    1    3    3    0    0  0.59104723718E+01 -0.23598471689E+00  0.20515430470E+01  0.62608467143E+01  0.51100000000E-03 0. -1.
        -11    1    3    3    0    0 -0.14007021287E+01  0.57334178915E+01 -0.28192506979E+02  0.28803671592E+02  0.51100000000E-03 0.  1.
        -12    1    3    3    0    0  0.92325931061E+01 -0.29805298718E+01 -0.12042504791E+02  0.15464354349E+02  0.00000000000E+00 0.  1.
</event>
<event>
 7    1  0.9953837E-014  0.5052887E+02  0.7816164E-02  0.1300439E+00
        -11   -1    0    0    0    0  0.00000000000E+00  0.00000000000E+00  0.45593999997E+02  0.45594000000E+02  0.51100000000E-03 0. -1.
         11   -1    0    0    0    0 -0.00000000000E+00 -0.00000000000E+00 -0.45593999997E+02  0.45594000000E+02  0.51100000000E-03 0.  1.
    9900012    2    1    2    0    0  0.47861317523E+01 -0.18121440817E+02 -0.36081456668E+02  0.50528865851E+02  0.30000018242E+02 0.  0.
         12    1    1    2    0    0 -0.47861317523E+01  0.18121440817E+02  0.36081456668E+02  0.40659134149E+02  0.00000000000E+00 0. -1.
         11    1    3    3    0    0  0.11604235641E+02 -0.22606893275E+01 -0.15313392846E+02  0.19346033231E+02  0.51100000000E-03 0. -1.
        -11    1    3    3    0    0 -0.54507236761E+01  0.86281298496E+00 -0.16808752217E+01  0.57688973481E+01  0.51100000000E-03 0.  1.
        -12    1    3    3    0    0 -0.13673802126E+01 -0.16723564474E+02 -0.19087188600E+02  0.25413935272E+02  0.00000000000E+00 0.  1.
</event>
<event>
 7    1  0.9953837E-014  0.5052886E+02  0.7816164E-02  0.1300439E+00
        -11   -1    0    0    0    0  0.00000000000E+00  0.00000000000E+00  0.45593999997E+02  0.45594000000E+02  0.51100000000E-03 0. -1.
         11   -1    0    0    0    0 -0.00000000000E+00 -0.00000000000E+00 -0.45593999997E+02  0.45594000000E+02  0.51100000000E-03 0.  1.
    9900012    2    1    2    0    0 -0.18337046724E+02 -0.23774469122E+02  0.27417026616E+02  0.50528855726E+02  0.29999987465E+02 0.  0.
        -12    1    1    2    0    0  0.18337046724E+02  0.23774469122E+02 -0.27417026616E+02  0.40659144274E+02  0.00000000000E+00 0.  1.
         11    1    3    3    0    0 -0.26818933563E+01 -0.99123632721E+01  0.19168773228E+02  0.21746019520E+02  0.51100000000E-03 0. -1.
        -11    1    3    3    0    0 -0.19542309924E+01 -0.46050986299E-01 -0.49159850197E+01  0.52903731853E+01  0.51100000000E-03 0.  1.
        -12    1    3    3    0    0 -0.13700922376E+02 -0.13816054864E+02  0.13164238407E+02  0.23492463021E+02  0.00000000000E+00 0.  1.
</event>
<event>
 7    1  0.9953837E-014  0.5052886E+02  0.7816164E-02  0.1300439E+00
        -11   -1    0    0    0    0  0.00000000000E+00  0.00000000000E+00  0.45593999997E+02  0.45594000000E+02  0.51100000000E-03 0.  1.
         11   -1    0    0    0    0 -0.00000000000E+00 -0.00000000000E+00 -0.45593999997E+02  0.45594000000E+02  0.51100000000E-03 0. -1.
    9900012    2    1    2    0    0 -0.40018497702E+02 -0.61533262521E+01  0.37178594414E+01  0.50528855135E+02  0.29999985669E+02 0.  0.
        -12    1    1    2    0    0  0.40018497702E+02  0.61533262521E+01 -0.37178594414E+01  0.40659144865E+02  0.00000000000E+00 0.  1.
         11    1    3    3    0    0 -0.31599481938E+02  0.53131241320E+01  0.34177697941E+01  0.32224799416E+02  0.51100000000E-03 0. -1.
        -11    1    3    3    0    0  0.17866904429E+01 -0.23788668493E+00 -0.22865919489E+01  0.29115899120E+01  0.51100000000E-03 0.  1.
         12    1    3    3    0    0 -0.10205706207E+02 -0.11228563699E+02  0.25866815962E+01  0.15392465807E+02  0.00000000000E+00 0. -1.
</event>
<event>
 7    1  0.9953837E-014  0.5052886E+02  0.7816164E-02  0.1300439E+00
        -11   -1    0    0    0    0  0.00000000000E+00  0.00000000000E+00  0.45593999997E+02  0.45594000000E+02  0.51100000000E-03 0. -1.
         11   -1    0    0    0    0 -0.00000000000E+00 -0.00000000000E+00 -0.45593999997E+02  0.45594000000E+02  0.51100000000E-03 0.  1.
    9900012    2    1    2    0    0  0.16453422848E+02  0.57914059046E+01 -0.36727507948E+02  0.50528863931E+02  0.30000012405E+02 0.  0.
         12    1    1    2    0    0 -0.16453422848E+02 -0.57914059046E+01  0.36727507948E+02  0.40659136069E+02  0.00000000000E+00 0. -1.
         11    1    3    3    0    0  0.17044786651E+02  0.26820162508E+01 -0.92314976890E+01  0.19568814808E+02  0.51100000000E-03 0. -1.
        -11    1    3    3    0    0  0.41274994434E+00 -0.17587664265E+01 -0.25563045096E+02  0.25626800360E+02  0.51100000000E-03 0.  1.
        -12    1    3    3    0    0 -0.10041137480E+01  0.48681560804E+01 -0.19329651636E+01  0.53332487627E+01  0.00000000000E+00 0.  1.
</event>
<event>
 7    1  0.9953837E-014  0.5052879E+02  0.7816164E-02  0.1300439E+00
        -11   -1    0    0    0    0  0.00000000000E+00  0.00000000000E+00  0.45593999997E+02  0.45594000000E+02  0.51100000000E-03 0.  1.
         11   -1    0    0    0    0 -0.00000000000E+00 -0.00000000000E+00 -0.45593999997E+02  0.45594000000E+02  0.51100000000E-03 0. -1.
    9900012    2    1    2    0    0 -0.13960915861E+02 -0.27163472032E+02 -0.26840453713E+02  0.50528790219E+02  0.29999788349E+02 0.  0.
         12    1    1    2    0    0  0.13960915861E+02  0.27163472032E+02  0.26840453713E+02  0.40659209781E+02  0.00000000000E+00 0. -1.
         11    1    3    3    0    0  0.41467337743E+01  0.26782990223E+01 -0.28670431149E+01  0.57086445967E+01  0.51100000000E-03 0. -1.
        -11    1    3    3    0    0 -0.20152981069E+02 -0.24963980738E+02 -0.22914072994E+02  0.39425850932E+02  0.51100000000E-03 0.  1.
        -12    1    3    3    0    0  0.20453314341E+01 -0.48777903167E+01 -0.10593376039E+01  0.53942946905E+01  0.00000000000E+00 0.  1.
</event>
<event>
 7    1  0.9953837E-014  0.5052886E+02  0.7816164E-02  0.1300439E+00
        -11   -1    0    0    0    0  0.00000000000E+00  0.00000000000E+00  0.45593999997E+02  0.45594000000E+02  0.51100000000E-03 0. -1.
         11   -1    0    0    0    0 -0.00000000000E+00 -0.00000000000E+00 -0.45593999997E+02  0.45594000000E+02  0.51100000000E-03 0.  1.
    9900012    2    1    2    0    0  0.20096758764E+02  0.13757109354E+01 -0.35318455783E+02  0.50528860655E+02  0.30000002448E+02 0.  0.
         12    1    1    2    0    0 -0.20096758764E+02 -0.13757109354E+01  0.35318455783E+02  0.40659139345E+02  0.00000000000E+00 0. -1.
         11    1    3    3    0    0  0.20436188617E+02 -0.85549772957E+01 -0.16737107697E+02  0.27766098322E+02  0.51100000000E-03 0. -1.
        -11    1    3    3    0    0  0.23155653133E+01  0.59291061896E+01 -0.16193535730E+02  0.17399619037E+02  0.51100000000E-03 0.  1.
         12    1    3    3    0    0 -0.26549951665E+01  0.40015820415E+01 -0.23878123559E+01  0.53631432963E+01  0.00000000000E+00 0. -1.
</event>
<event>
 7    1  0.9953837E-014  0.5052886E+02  0.7816164E-02  0.1300439E+00
        -11   -1    0    0    0    0  0.00000000000E+00  0.00000000000E+00  0.45593999997E+02  0.45594000000E+02  0.51100000000E-03 0.  1.
         11   -1    0    0    0    0 -0.00000000000E+00 -0.00000000000E+00 -0.45593999997E+02  0.45594000000E+02  0.51100000000E-03 0. -1.
    9900012    2    1    2    0    0 -0.12996917246E+02  0.35549214539E+02 -0.14849213189E+02  0.50528860258E+02  0.30000001239E+02 0.  0.
        -12    1    1    2    0    0  0.12996917246E+02 -0.35549214539E+02  0.14849213189E+02  0.40659139742E+02  0.00000000000E+00 0.  1.
         11    1    3    3    0    0 -0.15771482466E+02  0.85293847599E+01 -0.10644939827E+02  0.20851973713E+02  0.51100000000E-03 0. -1.
        -11    1    3    3    0    0  0.52036035474E+01  0.64271805297E+01 -0.33545252047E+01  0.89240674050E+01  0.51100000000E-03 0.  1.
         12    1    3    3    0    0 -0.24290383279E+01  0.20592649250E+02 -0.84974815697E+00  0.20752819140E+02  0.00000000000E+00 0. -1.
</event>
<event>
 7    1  0.9953837E-014  0.5052887E+02  0.7816164E-02  0.1300439E+00
        -11   -1    0    0    0    0  0.00000000000E+00  0.00000000000E+00  0.45593999997E+02  0.45594000000E+02  0.51100000000E-03 0. -1.
         11   -1    0    0    0    0 -0.00000000000E+00 -0.00000000000E+00 -0.45593999997E+02  0.45594000000E+02  0.51100000000E-03 0.  1.
    9900012    2    1    2    0    0 -0.49035481429E+01  0.20677650082E+02 -0.34663455659E+02  0.50528866272E+02  0.30000019520E+02 0.  0.
         12    1    1    2    0    0  0.49035481429E+01 -0.20677650082E+02  0.34663455659E+02  0.40659133728E+02  0.00000000000E+00 0. -1.
         11    1    3    3    0    0  0.45024624555E+01  0.13395369317E+02 -0.87409152300E+01  0.16616608758E+02  0.51100000000E-03 0. -1.
        -11    1    3    3    0    0 -0.66797609553E+01  0.18034262232E+00 -0.25425363883E+02  0.26288797209E+02  0.51100000000E-03 0.  1.
        -12    1    3    3    0    0 -0.27262496432E+01  0.71019381424E+01 -0.49717654641E+00  0.76234603044E+01  0.00000000000E+00 0.  1.
</event>
<event>
 7    1  0.9953837E-014  0.5052886E+02  0.7816164E-02  0.1300439E+00
        -11   -1    0    0    0    0  0.00000000000E+00  0.00000000000E+00  0.45593999997E+02  0.45594000000E+02  0.51100000000E-03 0. -1.
         11   -1    0    0    0    0 -0.00000000000E+00 -0.00000000000E+00 -0.45593999997E+02  0.45594000000E+02  0.51100000000E-03 0.  1.
    9900012    2    1    2    0    0  0.43898457770E+00 -0.16583563610E+02 -0.37120861532E+02  0.50528860187E+02  0.30000001024E+02 0.  0.
         12    1    1    2    0    0 -0.43898457770E+00  0.16583563610E+02  0.37120861532E+02  0.40659139813E+02  0.00000000000E+00 0. -1.
         11    1    3    3    0    0 -0.26984077128E+01  0.42637328938E+01 -0.18960008148E+02  0.19619957482E+02  0.51100000000E-03 0. -1.
        -11    1    3    3    0    0  0.80724188025E+01 -0.10576983204E+02 -0.12187705518E+02  0.18043743654E+02  0.51100000000E-03 0.  1.
         12    1    3    3    0    0 -0.49350265119E+01 -0.10270313301E+02 -0.59731478662E+01  0.12865159051E+02  0.00000000000E+00 0. -1.
</event>
<event>
 7    1  0.9953837E-014  0.5052885E+02  0.7816164E-02  0.1300439E+00
        -11   -1    0    0    0    0  0.00000000000E+00  0.00000000000E+00  0.45593999997E+02  0.45594000000E+02  0.51100000000E-03 0. -1.
         11   -1    0    0    0    0 -0.00000000000E+00 -0.00000000000E+00 -0.45593999997E+02  0.45594000000E+02  0.51100000000E-03 0.  1.
    9900012    2    1    2    0    0 -0.15574663993E+02 -0.30138741897E+02 -0.22410994576E+02  0.50528848515E+02  0.29999965546E+02 0.  0.
         12    1    1    2    0    0  0.15574663993E+02  0.30138741897E+02  0.22410994576E+02  0.40659151485E+02  0.00000000000E+00 0. -1.
         11    1    3    3    0    0 -0.12076614945E+01  0.37823900042E+01 -0.28818854628E+01  0.49061374330E+01  0.51100000000E-03 0. -1.
        -11    1    3    3    0    0 -0.29897710546E+01 -0.28099472731E+02 -0.15458026062E+02  0.32209775980E+02  0.51100000000E-03 0.  1.
         12    1    3    3    0    0 -0.11377231444E+02 -0.58216591701E+01 -0.40710830506E+01  0.13412935102E+02  0.00000000000E+00 0. -1.
</event>
<event>
 7    1  0.9953837E-014  0.5052885E+02  0.7816164E-02  0.1300439E+00
        -11   -1    0    0    0    0  0.00000000000E+00  0.00000000000E+00  0.45593999997E+02  0.45594000000E+02  0.51100000000E-03 0.  1.
         11   -1    0    0    0    0 -0.00000000000E+00 -0.00000000000E+00 -0.45593999997E+02  0.45594000000E+02  0.51100000000E-03 0. -1.
    9900012    2    1    2    0    0 -0.33515212273E+02 -0.21063589657E+02  0.92855931165E+01  0.50528849708E+02  0.29999969173E+02 0.  0.
         12    1    1    2    0    0  0.33515212273E+02  0.21063589657E+02 -0.92855931165E+01  0.40659150292E+02  0.00000000000E+00 0. -1.
         11    1    3    3    0    0  0.39176312215E+01 -0.17762954641E+00  0.56531579492E+01  0.68802312246E+01  0.51100000000E-03 0. -1.
        -11    1    3    3    0    0 -0.26215314837E+02 -0.14376326056E+02 -0.89410263374E+00  0.29911885642E+02  0.51100000000E-03 0.  1.
        -12    1    3    3    0    0 -0.11217528657E+02 -0.65096340550E+01  0.45265378010E+01  0.13736732842E+02  0.00000000000E+00 0.  1.
</event>
<event>
 7    1  0.9953837E-014  0.5052886E+02  0.7816164E-02  0.1300439E+00
        -11   -1    0    0    0    0  0.00000000000E+00  0.00000000000E+00  0.45593999997E+02  0.45594000000E+02  0.51100000000E-03 0. -1.
         11   -1    0    0    0    0 -0.00000000000E+00 -0.00000000000E+00 -0.45593999997E+02  0.45594000000E+02  0.51100000000E-03 0.  1.
    9900012    2    1    2    0    0 -0.24694615838E+02  0.18886935537E+02 -0.26203541556E+02  0.50528856189E+02  0.29999988873E+02 0.  0.
         12    1    1    2    0    0  0.24694615838E+02 -0.18886935537E+02  0.26203541556E+02  0.40659143811E+02  0.00000000000E+00 0. -1.
         11    1    3    3    0    0 -0.21158006240E+02  0.10069363181E+02 -0.24072434644E+01  0.23555214376E+02  0.51100000000E-03 0. -1.
        -11    1    3    3    0    0 -0.32497027185E+01  0.10154537445E+02 -0.23094176107E+02  0.25436512513E+02  0.51100000000E-03 0.  1.
         12    1    3    3    0    0 -0.28690687967E+00 -0.13369650895E+01 -0.70212198413E+00  0.15371293013E+01  0.00000000000E+00 0. -1.
</event>
<event>
 7    1  0.9953837E-014  0.5052886E+02  0.7816164E-02  0.1300439E+00
        -11   -1    0    0    0    0  0.00000000000E+00  0.00000000000E+00  0.45593999997E+02  0.45594000000E+02  0.51100000000E-03 0.  1.
         11   -1    0    0    0    0 -0.00000000000E+00 -0.00000000000E+00 -0.45593999997E+02  0.45594000000E+02  0.51100000000E-03 0. -1.
    9900012    2    1    2    0    0 -0.72916853688E+01  0.33054975199E+02  0.22524778886E+02  0.50528859272E+02  0.29999998242E+02 0.  0.
        -12    1    1    2    0    0  0.72916853688E+01 -0.33054975199E+02 -0.22524778886E+02  0.40659140728E+02  0.00000000000E+00 0.  1.
         11    1    3    3    0    0 -0.57848208405E+01 -0.34623157163E+01  0.33734574357E+01  0.75386999946E+01  0.51100000000E-03 0. -1.
        -11    1    3    3    0    0 -0.38311144924E+01  0.12593918789E+02  0.12252846049E+02  0.17983783397E+02  0.51100000000E-03 0.  1.
         12    1    3    3    0    0  0.23242499641E+01  0.23923372126E+02  0.68984754011E+01  0.25006375880E+02  0.00000000000E+00 0. -1.
</event>
<event>
 7    1  0.9953837E-014  0.5052885E+02  0.7816164E-02  0.1300439E+00
        -11   -1    0    0    0    0  0.00000000000E+00  0.00000000000E+00  0.45593999997E+02  0.45594000000E+02  0.51100000000E-03 0.  1.
         11   -1    0    0    0    0 -0.00000000000E+00 -0.00000000000E+00 -0.45593999997E+02  0.45594000000E+02  0.51100000000E-03 0. -1.
    9900012    2    1    2    0    0  0.37209163051E+02  0.95663990486E+01 -0.13308980785E+02  0.50528846354E+02  0.29999958977E+02 0.  0.
         12    1    1    2    0    0 -0.37209163051E+02 -0.95663990486E+01  0.13308980785E+02  0.40659153646E+02  0.00000000000E+00 0. -1.
         11    1    3    3    0    0  0.58357171873E+01  0.10166998172E+02  0.11513233844E+01  0.11779176233E+02  0.51100000000E-03 0.  1.
        -11    1    3    3    0    0  0.28972809384E+02 -0.59387827380E+01 -0.94595658958E+01  0.31051186953E+02  0.51100000000E-03 0. -1.
         12    1    3    3    0    0  0.24006364796E+01  0.53381836142E+01 -0.50007382731E+01  0.76984831676E+01  0.00000000000E+00 0. -1.
</event>
<event>
 7    1  0.9953837E-014  0.5052887E+02  0.7816164E-02  0.1300439E+00
        -11   -1    0    0    0    0  0.00000000000E+00  0.00000000000E+00  0.45593999997E+02  0.45594000000E+02  0.51100000000E-03 0. -1.
         11   -1    0    0    0    0 -0.00000000000E+00 -0.00000000000E+00 -0.45593999997E+02  0.45594000000E+02  0.51100000000E-03 0.  1.
    9900012    2    1    2    0    0 -0.15190372797E+02 -0.15541024122E+02  0.34364141753E+02  0.50528867018E+02  0.30000021786E+02 0.  0.
        -12    1    1    2    0    0  0.15190372797E+02  0.15541024122E+02 -0.34364141753E+02  0.40659132982E+02  0.00000000000E+00 0.  1.
         11    1    3    3    0    0 -0.23485518301E+01 -0.13681822680E+02  0.16760231164E+02  0.21762658764E+02  0.51100000000E-03 0.  1.
        -11    1    3    3    0    0 -0.80643454833E+01  0.80938575608E+01  0.11217895700E+02  0.16012038674E+02  0.51100000000E-03 0. -1.
        -12    1    3    3    0    0 -0.47774754833E+01 -0.99530590031E+01  0.63860148885E+01  0.12754169580E+02  0.00000000000E+00 0.  1.
</event>
<event>
 7    1  0.9953837E-014  0.5052886E+02  0.7816164E-02  0.1300439E+00
        -11   -1    0    0    0    0  0.00000000000E+00  0.00000000000E+00  0.45593999997E+02  0.45594000000E+02  0.51100000000E-03 0. -1.
         11   -1    0    0    0    0 -0.00000000000E+00 -0.00000000000E+00 -0.45593999997E+02  0.45594000000E+02  0.51100000000E-03 0.  1.
    9900012    2    1    2    0    0  0.13841486544E+02  0.25963600242E+02 -0.28061901077E+02  0.50528861060E+02  0.30000003679E+02 0.  0.
         12    1    1    2    0    0 -0.13841486544E+02 -0.25963600242E+02  0.28061901077E+02  0.40659138940E+02  0.00000000000E+00 0. -1.
         11    1    3    3    0    0  0.21988183454E+02  0.11573191066E+02 -0.20659869519E+02  0.32314844451E+02  0.51100000000E-03 0.  1.
        -11    1    3    3    0    0 -0.43430765685E+01  0.91492970543E+01 -0.51151609487E+01  0.11346225031E+02  0.51100000000E-03 0. -1.
        -12    1    3    3    0    0 -0.38036203418E+01  0.52411121218E+01 -0.22868706090E+01  0.68677915781E+01  0.00000000000E+00 0.  1.
</event>
<event>
 7    1  0.9953837E-014  0.5052886E+02  0.7816164E-02  0.1300439E+00
        -11   -1    0    0    0    0  0.00000000000E+00  0.00000000000E+00  0.45593999997E+02  0.45594000000E+02  0.51100000000E-03 0. -1.
         11   -1    0    0    0    0 -0.00000000000E+00 -0.00000000000E+00 -0.45593999997E+02  0.45594000000E+02  0.51100000000E-03 0.  1.
    9900012    2    1    2    0    0 -0.18118721131E+02  0.20385903119E+02  0.30154475854E+02  0.50528861846E+02  0.30000006067E+02 0.  0.
        -12    1    1    2    0    0  0.18118721131E+02 -0.20385903119E+02 -0.30154475854E+02  0.40659138154E+02  0.00000000000E+00 0.  1.
         11    1    3    3    0    0 -0.33621562639E+01 -0.32040792540E+01 -0.38127031536E+00  0.46599984896E+01  0.51100000000E-03 0. -1.
        -11    1    3    3    0    0 -0.17912557005E+02  0.22096082634E+02  0.31300468069E+02  0.42294395229E+02  0.51100000000E-03 0.  1.
        -12    1    3    3    0    0  0.31559921378E+01  0.14938997397E+01 -0.76472190008E+00  0.35744681270E+01  0.00000000000E+00 0.  1.
</event>
<event>
 7    1  0.9953837E-014  0.5052882E+02  0.7816164E-02  0.1300439E+00
        -11   -1    0    0    0    0  0.00000000000E+00  0.00000000000E+00  0.45593999997E+02  0.45594000000E+02  0.51100000000E-03 0. -1.
         11   -1    0    0    0    0 -0.00000000000E+00 -0.00000000000E+00 -0.45593999997E+02  0.45594000000E+02  0.51100000000E-03 0.  1.
    9900012    2    1    2    0    0 -0.22971919548E+02 -0.98167297235E+01 -0.32079453881E+02  0.50528823527E+02  0.29999889591E+02 0.  0.
         12    1    1    2    0    0  0.22971919548E+02  0.98167297235E+01  0.32079453881E+02  0.40659176473E+02  0.00000000000E+00 0. -1.
         11    1    3    3    0    0  0.36136520441E+01 -0.94110097305E+01 -0.20322436179E+01  0.10283754160E+02  0.51100000000E-03 0. -1.
        -11    1    3    3    0    0 -0.14919480844E+02  0.12628691256E+01 -0.17503062263E+02  0.23033517662E+02  0.51100000000E-03 0.  1.
         12    1    3    3    0    0 -0.11666090748E+02 -0.16685891186E+01 -0.12544148001E+02  0.17211551704E+02  0.00000000000E+00 0. -1.
</event>
<event>
 7    1  0.9953837E-014  0.5052886E+02  0.7816164E-02  0.1300439E+00
        -11   -1    0    0    0    0  0.00000000000E+00  0.00000000000E+00  0.45593999997E+02  0.45594000000E+02  0.51100000000E-03 0. -1.
         11   -1    0    0    0    0 -0.00000000000E+00 -0.00000000000E+00 -0.45593999997E+02  0.45594000000E+02  0.51100000000E-03 0.  1.
    9900012    2    1    2    0    0 -0.35367414053E+02  0.26288088085E+00  0.20055976169E+02  0.50528864947E+02  0.30000015493E+02 0.  0.
        -12    1    1    2    0    0  0.35367414053E+02 -0.26288088085E+00 -0.20055976169E+02  0.40659135053E+02  0.00000000000E+00 0.  1.
         11    1    3    3    0    0 -0.16360402883E+02  0.67464523219E+01  0.16871318435E+02  0.24450333074E+02  0.51100000000E-03 0. -1.
        -11    1    3    3    0    0 -0.28246729361E+01 -0.76981375536E+01 -0.29720961033E+01  0.87220097741E+01  0.51100000000E-03 0.  1.
        -12    1    3    3    0    0 -0.16182338234E+02  0.12145661125E+01  0.61567538374E+01  0.17356522099E+02  0.00000000000E+00 0.  1.
</event>
<event>
 7    1  0.9953837E-014  0.5052886E+02  0.7816164E-02  0.1300439E+00
        -11   -1    0    0    0    0  0.00000000000E+00  0.00000000000E+00  0.45593999997E+02  0.45594000000E+02  0.51100000000E-03 0. -1.
         11   -1    0    0    0    0 -0.00000000000E+00 -0.00000000000E+00 -0.45593999997E+02  0.45594000000E+02  0.51100000000E-03 0.  1.
    9900012    2    1    2    0    0 -0.29818507540E+01 -0.25495156185E+02  0.31532066033E+02  0.50528860669E+02  0.30000002491E+02 0.  0.
        -12    1    1    2    0    0  0.29818507540E+01  0.25495156185E+02 -0.31532066033E+02  0.40659139331E+02  0.00000000000E+00 0.  1.
         11    1    3    3    0    0 -0.25443891659E+00 -0.22727531958E+01  0.57291901071E+01  0.61687734434E+01  0.51100000000E-03 0. -1.
        -11    1    3    3    0    0 -0.21937305284E+01 -0.78374419311E+00  0.21351160930E+02  0.21477867257E+02  0.51100000000E-03 0.  1.
        -12    1    3    3    0    0 -0.53368130892E+00 -0.22438658796E+02  0.44517149956E+01  0.22882219969E+02  0.00000000000E+00 0.  1.
</event>
<event>
 7    1  0.9953837E-014  0.5052884E+02  0.7816164E-02  0.1300439E+00
        -11   -1    0    0    0    0  0.00000000000E+00  0.00000000000E+00  0.45593999997E+02  0.45594000000E+02  0.51100000000E-03 0. -1.
         11   -1    0    0    0    0 -0.00000000000E+00 -0.00000000000E+00 -0.45593999997E+02  0.45594000000E+02  0.51100000000E-03 0.  1.
    9900012    2    1    2    0    0 -0.30358122625E+02  0.54983029372E+01 -0.26482450153E+02  0.50528842230E+02  0.29999946442E+02 0.  0.
         12    1    1    2    0    0  0.30358122625E+02 -0.54983029372E+01  0.26482450153E+02  0.40659157770E+02  0.00000000000E+00 0. -1.
         11    1    3    3    0    0 -0.10011818672E+02 -0.40872958063E+01 -0.49267971823E+01  0.11883426731E+02  0.51100000000E-03 0. -1.
        -11    1    3    3    0    0 -0.49279511335E-03  0.11204043835E+02 -0.46015734995E+01  0.12112187145E+02  0.51100000000E-03 0.  1.
        -12    1    3    3    0    0 -0.20345811157E+02 -0.16184450920E+01 -0.16954079471E+02  0.26533228354E+02  0.00000000000E+00 0.  1.
</event>
<event>
 7    1  0.9953837E-014  0.5052888E+02  0.7816164E-02  0.1300439E+00
        -11   -1    0    0    0    0  0.00000000000E+00  0.00000000000E+00  0.45593999997E+02  0.45594000000E+02  0.51100000000E-03 0. -1.
         11   -1    0    0    0    0 -0.00000000000E+00 -0.00000000000E+00 -0.45593999997E+02  0.45594000000E+02  0.51100000000E-03 0.  1.
    9900012    2    1    2    0    0 -0.12994586762E+02  0.20382556312E+02 -0.32693360796E+02  0.50528883838E+02  0.30000072914E+02 0.  0.
         12    1    1    2    0    0  0.12994586762E+02 -0.20382556312E+02  0.32693360796E+02  0.40659116162E+02  0.00000000000E+00 0. -1.
         11    1    3    3    0    0 -0.24945846748E+01 -0.10416156411E+01 -0.80370410682E-01  0.27045102158E+01  0.51100000000E-03 0. -1.
        -11    1    3    3    0    0 -0.35770850222E-01  0.13709218553E+02 -0.31995585655E+02  0.34808927800E+02  0.51100000000E-03 0.  1.
        -12    1    3    3    0    0 -0.10464231237E+02  0.77149534001E+01 -0.61740473004E+00  0.13015445822E+02  0.00000000000E+00 0.  1.
</event>
<event>
 7    1  0.9953837E-014  0.5052890E+02  0.7816164E-02  0.1300439E+00
        -11   -1    0    0    0    0  0.00000000000E+00  0.00000000000E+00  0.45593999997E+02  0.45594000000E+02  0.51100000000E-03 0. -1.
         11   -1    0    0    0    0 -0.00000000000E+00 -0.00000000000E+00 -0.45593999997E+02  0.45594000000E+02  0.51100000000E-03 0.  1.
    9900012    2    1    2    0    0  0.26154607736E+02  0.18680370662E+02 -0.24902659129E+02  0.50528902794E+02  0.30000130532E+02 0.  0.
         12    1    1    2    0    0 -0.26154607736E+02 -0.18680370662E+02  0.24902659129E+02  0.40659097206E+02  0.00000000000E+00 0. -1.
         11    1    3    3    0    0  0.15951577169E+02  0.13494851085E+02  0.34805165505E+00  0.20897008403E+02  0.51100000000E-03 0. -1.
        -11    1    3    3    0    0  0.10579622921E+02  0.13157863099E+01 -0.22409984742E+02  0.24816670429E+02  0.51100000000E-03 0.  1.
         12    1    3    3    0    0 -0.37659235386E+00  0.38697332670E+01 -0.28407260421E+01  0.48152239620E+01  0.00000000000E+00 0. -1.
</event>
<event>
 7    1  0.9953837E-014  0.5052886E+02  0.7816164E-02  0.1300439E+00
        -11   -1    0    0    0    0  0.00000000000E+00  0.00000000000E+00  0.45593999997E+02  0.45594000000E+02  0.51100000000E-03 0. -1.
         11   -1    0    0    0    0 -0.00000000000E+00 -0.00000000000E+00 -0.45593999997E+02  0.45594000000E+02  0.51100000000E-03 0.  1.
    9900012    2    1    2    0    0  0.85793538467E+01 -0.11788319989E+02 -0.37955181711E+02  0.50528860568E+02  0.30000002184E+02 0.  0.
         12    1    1    2    0    0 -0.85793538467E+01  0.11788319989E+02  0.37955181711E+02  0.40659139432E+02  0.00000000000E+00 0. -1.
         11    1    3    3    0    0  0.21575472603E+01 -0.16082467075E+02 -0.10654408398E+02  0.19411779310E+02  0.51100000000E-03 0. -1.
        -11    1    3    3    0    0 -0.37836654703E+01  0.99742693808E+00 -0.10277085872E+02  0.10996794040E+02  0.51100000000E-03 0.  1.
         12    1    3    3    0    0  0.10205472057E+02  0.32967201484E+01 -0.17023687441E+02  0.20120287218E+02  0.00000000000E+00 0. -1.
</event>
<event>
 7    1  0.9953837E-014  0.5052886E+02  0.7816164E-02  0.1300439E+00
        -11   -1    0    0    0    0  0.00000000000E+00  0.00000000000E+00  0.45593999997E+02  0.45594000000E+02  0.51100000000E-03 0.  1.
         11   -1    0    0    0    0 -0.00000000000E+00 -0.00000000000E+00 -0.45593999997E+02  0.45594000000E+02  0.51100000000E-03 0. -1.
    9900012    2    1    2    0    0 -0.36019418753E+02 -0.37989804283E+01  0.18475261212E+02  0.50528855193E+02  0.29999985844E+02 0.  0.
         12    1    1    2    0    0  0.36019418753E+02  0.37989804283E+01 -0.18475261212E+02  0.40659144807E+02  0.00000000000E+00 0. -1.
         11    1    3    3    0    0  0.66838941220E+00  0.76029937256E+01  0.22395264556E+00  0.76356016820E+01  0.51100000000E-03 0. -1.
        -11    1    3    3    0    0 -0.82495460581E+01 -0.23956544530E+01  0.16260873665E+01  0.87429017384E+01  0.51100000000E-03 0.  1.
         12    1    3    3    0    0 -0.28438262107E+02 -0.90063197009E+01  0.16625221200E+02  0.34150351772E+02  0.00000000000E+00 0. -1.
</event>
<event>
 7    1  0.9953837E-014  0.5052886E+02  0.7816164E-02  0.1300439E+00
        -11   -1    0    0    0    0  0.00000000000E+00  0.00000000000E+00  0.45593999997E+02  0.45594000000E+02  0.51100000000E-03 0. -1.
         11   -1    0    0    0    0 -0.00000000000E+00 -0.00000000000E+00 -0.45593999997E+02  0.45594000000E+02  0.51100000000E-03 0.  1.
    9900012    2    1    2    0    0 -0.11258594600E+02 -0.23491497341E+02 -0.31217932083E+02  0.50528859782E+02  0.29999999794E+02 0.  0.
         12    1    1    2    0    0  0.11258594600E+02  0.23491497341E+02  0.31217932083E+02  0.40659140218E+02  0.00000000000E+00 0. -1.
         11    1    3    3    0    0  0.59349978543E+01 -0.11128219300E+02 -0.69373213192E+01  0.14394022775E+02  0.51100000000E-03 0. -1.
        -11    1    3    3    0    0 -0.16505443548E+02 -0.10427865901E+02 -0.10434225719E+02  0.22136917594E+02  0.51100000000E-03 0.  1.
        -12    1    3    3    0    0 -0.68814890653E+00 -0.19354121408E+01 -0.13846385045E+02  0.13997919412E+02  0.00000000000E+00 0.  1.
</event>
<event>
 7    1  0.9953837E-014  0.5052886E+02  0.7816164E-02  0.1300439E+00
        -11   -1    0    0    0    0  0.00000000000E+00  0.00000000000E+00  0.45593999997E+02  0.45594000000E+02  0.51100000000E-03 0. -1.
         11   -1    0    0    0    0 -0.00000000000E+00 -0.00000000000E+00 -0.45593999997E+02  0.45594000000E+02  0.51100000000E-03 0.  1.
    9900012    2    1    2    0    0  0.13292981279E+02 -0.15915156430E+02  0.34973852870E+02  0.50528856625E+02  0.29999990196E+02 0.  0.
        -12    1    1    2    0    0 -0.13292981279E+02  0.15915156430E+02 -0.34973852870E+02  0.40659143375E+02  0.00000000000E+00 0.  1.
         11    1    3    3    0    0  0.56561937649E+01 -0.26833492216E+01  0.27355926566E+01  0.68320098357E+01  0.51100000000E-03 0. -1.
        -11    1    3    3    0    0  0.96898689139E+01 -0.68890827783E+01  0.34630002761E+02  0.36614069872E+02  0.51100000000E-03 0.  1.
        -12    1    3    3    0    0 -0.20530814000E+01 -0.63427244302E+01 -0.23917425485E+01  0.70827769166E+01  0.00000000000E+00 0.  1.
</event>
<event>
 7    1  0.9953837E-014  0.5052888E+02  0.7816164E-02  0.1300439E+00
        -11   -1    0    0    0    0  0.00000000000E+00  0.00000000000E+00  0.45593999997E+02  0.45594000000E+02  0.51100000000E-03 0. -1.
         11   -1    0    0    0    0 -0.00000000000E+00 -0.00000000000E+00 -0.45593999997E+02  0.45594000000E+02  0.51100000000E-03 0.  1.
    9900012    2    1    2    0    0  0.22134119879E+02 -0.61219078232E+01 -0.33552449744E+02  0.50528881686E+02  0.30000066373E+02 0.  0.
         12    1    1    2    0    0 -0.22134119879E+02  0.61219078232E+01  0.33552449744E+02  0.40659118314E+02  0.00000000000E+00 0. -1.
         11    1    3    3    0    0  0.55156516242E+01 -0.72882546672E+01  0.17014486032E+01  0.92970961351E+01  0.51100000000E-03 0. -1.
        -11    1    3    3    0    0  0.38199120793E+01  0.64002274309E+01 -0.10478903018E+02  0.12859317563E+02  0.51100000000E-03 0.  1.
        -12    1    3    3    0    0  0.12798556176E+02 -0.52338805868E+01 -0.24774995329E+02  0.28372467988E+02  0.00000000000E+00 0.  1.
</event>
<event>
 7    1  0.9953837E-014  0.5052896E+02  0.7816164E-02  0.1300438E+00
        -11   -1    0    0    0    0  0.00000000000E+00  0.00000000000E+00  0.45593999997E+02  0.45594000000E+02  0.51100000000E-03 0. -1.
         11   -1    0    0    0    0 -0.00000000000E+00 -0.00000000000E+00 -0.45593999997E+02  0.45594000000E+02  0.51100000000E-03 0.  1.
    9900012    2    1    2    0    0  0.36756118893E+02  0.93191692386E+01  0.14673055495E+02  0.50528957353E+02  0.30000296369E+02 0.  0.
        -12    1    1    2    0    0 -0.36756118893E+02 -0.93191692386E+01 -0.14673055495E+02  0.40659042647E+02  0.00000000000E+00 0.  1.
         11    1    3    3    0    0  0.13708336261E+02  0.14288021700E+02  0.12291519785E+02  0.23305525225E+02  0.51100000000E-03 0. -1.
        -11    1    3    3    0    0  0.10061896752E+02  0.12143731594E+01 -0.47232732237E+01  0.11181492684E+02  0.51100000000E-03 0.  1.
         12    1    3    3    0    0  0.12985885880E+02 -0.61832256204E+01  0.71048089336E+01  0.16041939444E+02  0.00000000000E+00 0. -1.
</event>
<event>
 7    1  0.9953837E-014  0.5052886E+02  0.7816164E-02  0.1300439E+00
        -11   -1    0    0    0    0  0.00000000000E+00  0.00000000000E+00  0.45593999997E+02  0.45594000000E+02  0.51100000000E-03 0. -1.
         11   -1    0    0    0    0 -0.00000000000E+00 -0.00000000000E+00 -0.45593999997E+02  0.45594000000E+02  0.51100000000E-03 0.  1.
    9900012    2    1    2    0    0 -0.37236065273E+02  0.79113614601E+01  0.14284647390E+02  0.50528863902E+02  0.30000012316E+02 0.  0.
        -12    1    1    2    0    0  0.37236065273E+02 -0.79113614601E+01 -0.14284647390E+02  0.40659136098E+02  0.00000000000E+00 0.  1.
         11    1    3    3    0    0 -0.24735331843E+02 -0.10982163542E+01  0.11487824921E+02  0.27294923379E+02  0.51100000000E-03 0. -1.
        -11    1    3    3    0    0 -0.14230857590E+00  0.10225231498E+02  0.34666001584E+01  0.10797820513E+02  0.51100000000E-03 0.  1.
        -12    1    3    3    0    0 -0.12358424854E+02 -0.12156536835E+01 -0.66977769004E+00  0.12436120010E+02  0.00000000000E+00 0.  1.
</event>
<event>
 7    1  0.9953837E-014  0.5052886E+02  0.7816164E-02  0.1300439E+00
        -11   -1    0    0    0    0  0.00000000000E+00  0.00000000000E+00  0.45593999997E+02  0.45594000000E+02  0.51100000000E-03 0. -1.
         11   -1    0    0    0    0 -0.00000000000E+00 -0.00000000000E+00 -0.45593999997E+02  0.45594000000E+02  0.51100000000E-03 0.  1.
    9900012    2    1    2    0    0 -0.22489607008E+02 -0.69077948222E+01  0.33161203231E+02  0.50528862621E+02  0.30000008422E+02 0.  0.
        -12    1    1    2    0    0  0.22489607008E+02  0.69077948222E+01 -0.33161203231E+02  0.40659137379E+02  0.00000000000E+00 0.  1.
         11    1    3    3    0    0 -0.33722035880E+01  0.22430170752E+01  0.10262935263E+00  0.40513473912E+01  0.51100000000E-03 0. -1.
        -11    1    3    3    0    0 -0.19537155929E+02 -0.12898923065E+02  0.35098307814E+02  0.42189736781E+02  0.51100000000E-03 0.  1.
        -12    1    3    3    0    0  0.41975250845E+00  0.37481111678E+01 -0.20397339351E+01  0.42877784482E+01  0.00000000000E+00 0.  1.
</event>
<event>
 7    1  0.9953837E-014  0.5052886E+02  0.7816164E-02  0.1300439E+00
        -11   -1    0    0    0    0  0.00000000000E+00  0.00000000000E+00  0.45593999997E+02  0.45594000000E+02  0.51100000000E-03 0. -1.
         11   -1    0    0    0    0 -0.00000000000E+00 -0.00000000000E+00 -0.45593999997E+02  0.45594000000E+02  0.51100000000E-03 0.  1.
    9900012    2    1    2    0    0 -0.23852705747E+02 -0.23904179418E+02  0.22645187141E+02  0.50528857538E+02  0.29999992971E+02 0.  0.
        -12    1    1    2    0    0  0.23852705747E+02  0.23904179418E+02 -0.22645187141E+02  0.40659142462E+02  0.00000000000E+00 0.  1.
         11    1    3    3    0    0 -0.15563792133E+02 -0.21917957862E+02  0.18200856083E+01  0.26943296278E+02  0.51100000000E-03 0. -1.
        -11    1    3    3    0    0 -0.62701672313E+01  0.13401367121E+01  0.84125195434E+01  0.10577402746E+02  0.51100000000E-03 0.  1.
         12    1    3    3    0    0 -0.20187463829E+01 -0.33263582677E+01  0.12412581990E+02  0.13008158514E+02  0.00000000000E+00 0. -1.
</event>
<event>
 7    1  0.9953837E-014  0.5052887E+02  0.7816164E-02  0.1300439E+00
        -11   -1    0    0    0    0  0.00000000000E+00  0.00000000000E+00  0.45593999997E+02  0.45594000000E+02  0.51100000000E-03 0. -1.
         11   -1    0    0    0    0 -0.00000000000E+00 -0.00000000000E+00 -0.45593999997E+02  0.45594000000E+02  0.51100000000E-03 0.  1.
    9900012    2    1    2    0    0  0.35452203926E+01  0.14081746546E+02  0.37977631551E+02  0.50528872223E+02  0.30000037608E+02 0.  0.
        -12    1    1    2    0    0 -0.35452203926E+01 -0.14081746546E+02 -0.37977631551E+02  0.40659127777E+02  0.00000000000E+00 0.  1.
         11    1    3    3    0    0  0.60787446453E+01  0.41720940887E+01  0.14362935695E+02  0.16144702772E+02  0.51100000000E-03 0. -1.
        -11    1    3    3    0    0 -0.11475089310E+02  0.39526966668E+00  0.78219354662E+01  0.13893040973E+02  0.51100000000E-03 0.  1.
        -12    1    3    3    0    0  0.89415650576E+01  0.95143827902E+01  0.15792760390E+02  0.20491128477E+02  0.00000000000E+00 0.  1.
</event>
<event>
 7    1  0.9953837E-014  0.5052885E+02  0.7816164E-02  0.1300439E+00
        -11   -1    0    0    0    0  0.00000000000E+00  0.00000000000E+00  0.45593999997E+02  0.45594000000E+02  0.51100000000E-03 0.  1.
         11   -1    0    0    0    0 -0.00000000000E+00 -0.00000000000E+00 -0.45593999997E+02  0.45594000000E+02  0.51100000000E-03 0. -1.
    9900012    2    1    2    0    0 -0.39933208815E+01 -0.39071496366E+02  0.10518469853E+02  0.50528847918E+02  0.29999963732E+02 0.  0.
        -12    1    1    2    0    0  0.39933208815E+01  0.39071496366E+02 -0.10518469853E+02  0.40659152082E+02  0.00000000000E+00 0.  1.
         11    1    3    3    0    0 -0.13761886690E+02 -0.18296771655E+02  0.96937072627E+01  0.24862207042E+02  0.51100000000E-03 0.  1.
        -11    1    3    3    0    0  0.11059833039E+02 -0.15713554830E+02  0.38971802041E+01  0.19606726551E+02  0.51100000000E-03 0. -1.
        -12    1    3    3    0    0 -0.12912672309E+01 -0.50611698816E+01 -0.30724176139E+01  0.60599143250E+01  0.00000000000E+00 0.  1.
</event>
<event>
 7    1  0.9953837E-014  0.5052886E+02  0.7816164E-02  0.1300439E+00
        -11   -1    0    0    0    0  0.00000000000E+00  0.00000000000E+00  0.45593999997E+02  0.45594000000E+02  0.51100000000E-03 0. -1.
         11   -1    0    0    0    0 -0.00000000000E+00 -0.00000000000E+00 -0.45593999997E+02  0.45594000000E+02  0.51100000000E-03 0.  1.
    9900012    2    1    2    0    0 -0.14809120072E+01 -0.12697154174E+02  0.38597342126E+02  0.50528860269E+02  0.30000001273E+02 0.  0.
        -12    1    1    2    0    0  0.14809120072E+01  0.12697154174E+02 -0.38597342126E+02  0.40659139731E+02  0.00000000000E+00 0.  1.
         11    1    3    3    0    0 -0.30933089703E+01 -0.42845734798E+01  0.30001520084E+02  0.30463376994E+02  0.51100000000E-03 0. -1.
        -11    1    3    3    0    0  0.78170331665E+01 -0.81206391383E+01  0.29021564836E+01  0.11639299810E+02  0.51100000000E-03 0.  1.
        -12    1    3    3    0    0 -0.62046362035E+01 -0.29194155551E+00  0.56936655587E+01  0.84261834649E+01  0.00000000000E+00 0.  1.
</event>
<event>
 7    1  0.9953837E-014  0.5052886E+02  0.7816164E-02  0.1300439E+00
        -11   -1    0    0    0    0  0.00000000000E+00  0.00000000000E+00  0.45593999997E+02  0.45594000000E+02  0.51100000000E-03 0. -1.
         11   -1    0    0    0    0 -0.00000000000E+00 -0.00000000000E+00 -0.45593999997E+02  0.45594000000E+02  0.51100000000E-03 0.  1.
    9900012    2    1    2    0    0 -0.18503865776E+02 -0.35059707997E+02  0.90327046447E+01  0.50528856788E+02  0.29999990693E+02 0.  0.
        -12    1    1    2    0    0  0.18503865776E+02  0.35059707997E+02 -0.90327046447E+01  0.40659143212E+02  0.00000000000E+00 0.  1.
         11    1    3    3    0    0 -0.13789646659E+02 -0.13659038983E+02  0.29858294263E+01  0.19637690255E+02  0.51100000000E-03 0. -1.
        -11    1    3    3    0    0  0.77800889451E+01 -0.13003038579E+02  0.18666062816E+01  0.15267384044E+02  0.51100000000E-03 0.  1.
        -12    1    3    3    0    0 -0.12494308062E+02 -0.83976304359E+01  0.41802689368E+01  0.15623782489E+02  0.00000000000E+00 0.  1.
</event>
<event>
 7    1  0.9953837E-014  0.5052886E+02  0.7816164E-02  0.1300439E+00
        -11   -1    0    0    0    0  0.00000000000E+00  0.00000000000E+00  0.45593999997E+02  0.45594000000E+02  0.51100000000E-03 0. -1.
         11   -1    0    0    0    0 -0.00000000000E+00 -0.00000000000E+00 -0.45593999997E+02  0.45594000000E+02  0.51100000000E-03 0.  1.
    9900012    2    1    2    0    0  0.17352731269E+02  0.10041678285E+02  0.35372490799E+02  0.50528859692E+02  0.29999999520E+02 0.  0.
        -12    1    1    2    0    0 -0.17352731269E+02 -0.10041678285E+02 -0.35372490799E+02  0.40659140308E+02  0.00000000000E+00 0.  1.
         11    1    3    3    0    0  0.79078663203E+01 -0.39789904251E+01  0.37912303514E+01  0.96301683465E+01  0.51100000000E-03 0. -1.
        -11    1    3    3    0    0  0.59391820719E+00  0.12908742146E+02  0.68879651011E+01  0.14643511400E+02  0.51100000000E-03 0.  1.
         12    1    3    3    0    0  0.88509467411E+01  0.11119265638E+01  0.24693295347E+02  0.26255179946E+02  0.00000000000E+00 0. -1.
</event>
<event>
 7    1  0.9953837E-014  0.5052886E+02  0.7816164E-02  0.1300439E+00
        -11   -1    0    0    0    0  0.00000000000E+00  0.00000000000E+00  0.45593999997E+02  0.45594000000E+02  0.51100000000E-03 0. -1.
         11   -1    0    0    0    0 -0.00000000000E+00 -0.00000000000E+00 -0.45593999997E+02  0.45594000000E+02  0.51100000000E-03 0.  1.
    9900012    2    1    2    0    0  0.15927050880E+02 -0.20869395865E+02 -0.31047756788E+02  0.50528857915E+02  0.29999994119E+02 0.  0.
         12    1    1    2    0    0 -0.15927050880E+02  0.20869395865E+02  0.31047756788E+02  0.40659142085E+02  0.00000000000E+00 0. -1.
         11    1    3    3    0    0  0.10441271337E+02  0.12401469358E+01  0.16747570200E+00  0.10515995432E+02  0.51100000000E-03 0. -1.
        -11    1    3    3    0    0 -0.43109137252E+00 -0.17472446401E+02 -0.20803682202E+02  0.27171040033E+02  0.51100000000E-03 0.  1.
        -12    1    3    3    0    0  0.59168709152E+01 -0.46370963997E+01 -0.10411550288E+02  0.12841822450E+02  0.00000000000E+00 0.  1.
</event>
<event>
 7    1  0.9953837E-014  0.5052884E+02  0.7816164E-02  0.1300439E+00
        -11   -1    0    0    0    0  0.00000000000E+00  0.00000000000E+00  0.45593999997E+02  0.45594000000E+02  0.51100000000E-03 0. -1.
         11   -1    0    0    0    0 -0.00000000000E+00 -0.00000000000E+00 -0.45593999997E+02  0.45594000000E+02  0.51100000000E-03 0.  1.
    9900012    2    1    2    0    0 -0.18760709542E+02 -0.40122700657E+01  0.35848352444E+02  0.50528844739E+02  0.29999954068E+02 0.  0.
        -12    1    1    2    0    0  0.18760709542E+02  0.40122700657E+01 -0.35848352444E+02  0.40659155261E+02  0.00000000000E+00 0.  1.
         11    1    3    3    0    0 -0.99836898714E+01 -0.11322428809E+02  0.25700938219E+02  0.29806202093E+02  0.51100000000E-03 0. -1.
        -11    1    3    3    0    0 -0.33054678901E+01  0.35954272636E+01 -0.31914868724E+01  0.58342783528E+01  0.51100000000E-03 0.  1.
        -12    1    3    3    0    0 -0.54715517807E+01  0.37147314798E+01  0.13338901097E+02  0.14888364293E+02  0.00000000000E+00 0.  1.
</event>
<event>
 7    1  0.9953837E-014  0.5052886E+02  0.7816164E-02  0.1300439E+00
        -11   -1    0    0    0    0  0.00000000000E+00  0.00000000000E+00  0.45593999997E+02  0.45594000000E+02  0.51100000000E-03 0. -1.
         11   -1    0    0    0    0 -0.00000000000E+00 -0.00000000000E+00 -0.45593999997E+02  0.45594000000E+02  0.51100000000E-03 0.  1.
    9900012    2    1    2    0    0  0.12286511371E+02 -0.95850632994E+01  0.37554409155E+02  0.50528862686E+02  0.30000008621E+02 0.  0.
        -12    1    1    2    0    0 -0.12286511371E+02  0.95850632994E+01 -0.37554409155E+02  0.40659137314E+02  0.00000000000E+00 0.  1.
         11    1    3    3    0    0  0.99596480127E+01 -0.65223467362E+01 -0.80244225252E+00  0.11932288520E+02  0.51100000000E-03 0. -1.
        -11    1    3    3    0    0 -0.26061479407E+00 -0.47147998748E+00  0.83019621483E+01  0.83194224092E+01  0.51100000000E-03 0.  1.
         12    1    3    3    0    0  0.25874781522E+01 -0.25912365757E+01  0.30054889259E+02  0.30277151758E+02  0.00000000000E+00 0. -1.
</event>
<event>
 7    1  0.9953837E-014  0.5052888E+02  0.7816164E-02  0.1300439E+00
        -11   -1    0    0    0    0  0.00000000000E+00  0.00000000000E+00  0.45593999997E+02  0.45594000000E+02  0.51100000000E-03 0. -1.
         11   -1    0    0    0    0 -0.00000000000E+00 -0.00000000000E+00 -0.45593999997E+02  0.45594000000E+02  0.51100000000E-03 0.  1.
    9900012    2    1    2    0    0 -0.11057529034E+02 -0.33519500561E+01 -0.38982808538E+02  0.50528881969E+02  0.30000067233E+02 0.  0.
         12    1    1    2    0    0  0.11057529034E+02  0.33519500561E+01  0.38982808538E+02  0.40659118031E+02  0.00000000000E+00 0. -1.
         11    1    3    3    0    0  0.43276827428E+01  0.38677111657E+01 -0.73952041858E+01  0.94009080835E+01  0.51100000000E-03 0. -1.
        -11    1    3    3    0    0 -0.74628110437E+01 -0.10075489708E+02 -0.54578994294E+01  0.13674710526E+02  0.51100000000E-03 0.  1.
        -12    1    3    3    0    0 -0.79224007326E+01  0.28558284864E+01 -0.26129704923E+02  0.27453263359E+02  0.00000000000E+00 0.  1.
</event>
<event>
 7    1  0.9953837E-014  0.5052884E+02  0.7816164E-02  0.1300439E+00
        -11   -1    0    0    0    0  0.00000000000E+00  0.00000000000E+00  0.45593999997E+02  0.45594000000E+02  0.51100000000E-03 0. -1.
         11   -1    0    0    0    0 -0.00000000000E+00 -0.00000000000E+00 -0.45593999997E+02  0.45594000000E+02  0.51100000000E-03 0.  1.
    9900012    2    1    2    0    0  0.15435626961E+02  0.10679439713E+02  0.36067411565E+02  0.50528841262E+02  0.29999943500E+02 0.  0.
        -12    1    1    2    0    0 -0.15435626961E+02 -0.10679439713E+02 -0.36067411565E+02  0.40659158738E+02  0.00000000000E+00 0.  1.
         11    1    3    3    0    0  0.65442036306E+01  0.13831666206E+01  0.25573700195E+02  0.26433953412E+02  0.51100000000E-03 0. -1.
        -11    1    3    3    0    0  0.69179046996E+01  0.10915941971E+02 -0.37646702184E+00  0.12928918061E+02  0.51100000000E-03 0.  1.
        -12    1    3    3    0    0  0.19735186308E+01 -0.16196688788E+01  0.10870178392E+02  0.11165969789E+02  0.00000000000E+00 0.  1.
</event>
<event>
 7    1  0.9953837E-014  0.5052883E+02  0.7816164E-02  0.1300439E+00
        -11   -1    0    0    0    0  0.00000000000E+00  0.00000000000E+00  0.45593999997E+02  0.45594000000E+02  0.51100000000E-03 0. -1.
         11   -1    0    0    0    0 -0.00000000000E+00 -0.00000000000E+00 -0.45593999997E+02  0.45594000000E+02  0.51100000000E-03 0.  1.
    9900012    2    1    2    0    0  0.16768014692E+02  0.14034340887E+02 -0.34278842676E+02  0.50528830111E+02  0.29999909604E+02 0.  0.
         12    1    1    2    0    0 -0.16768014692E+02 -0.14034340887E+02  0.34278842676E+02  0.40659169889E+02  0.00000000000E+00 0. -1.
         11    1    3    3    0    0  0.64613834512E+01 -0.44902037084E+01 -0.26871445274E+01  0.83145746385E+01  0.51100000000E-03 0. -1.
        -11    1    3    3    0    0  0.12225458051E+02  0.16914476130E+02 -0.33216363277E+02  0.39228664481E+02  0.51100000000E-03 0.  1.
        -12    1    3    3    0    0 -0.19188268097E+01  0.16100684655E+01  0.16246651282E+01  0.29855909914E+01  0.00000000000E+00 0.  1.
</event>
<event>
 7    1  0.9953837E-014  0.5052886E+02  0.7816164E-02  0.1300439E+00
        -11   -1    0    0    0    0  0.00000000000E+00  0.00000000000E+00  0.45593999997E+02  0.45594000000E+02  0.51100000000E-03 0.  1.
         11   -1    0    0    0    0 -0.00000000000E+00 -0.00000000000E+00 -0.45593999997E+02  0.45594000000E+02  0.51100000000E-03 0. -1.
    9900012    2    1    2    0    0 -0.84950029340E+01  0.37328006730E+02  0.13697465928E+02  0.50528859156E+02  0.29999997891E+02 0.  0.
         12    1    1    2    0    0  0.84950029340E+01 -0.37328006730E+02 -0.13697465928E+02  0.40659140844E+02  0.00000000000E+00 0. -1.
         11    1    3    3    0    0 -0.11160238064E+02  0.12899591926E+02 -0.42083881373E+01  0.17568748290E+02  0.51100000000E-03 0. -1.
        -11    1    3    3    0    0 -0.42924606814E+01  0.14988509411E+02  0.12789625823E+02  0.20165692699E+02  0.51100000000E-03 0.  1.
         12    1    3    3    0    0  0.69576958108E+01  0.94399053936E+01  0.51162282419E+01  0.12794418168E+02  0.00000000000E+00 0. -1.
</event>
<event>
 7    1  0.1242966E-013  0.5052887E+02  0.7816164E-02  0.1300439E+00
        -11   -1    0    0    0    0  0.00000000000E+00  0.00000000000E+00  0.45593999997E+02  0.45594000000E+02  0.51100000000E-03 0. -1.
         11   -1    0    0    0    0 -0.00000000000E+00 -0.00000000000E+00 -0.45593999997E+02  0.45594000000E+02  0.51100000000E-03 0.  1.
    9900012    2    1    2    0    0  0.47407580400E+01  0.50276976526E+01  0.40067601439E+02  0.50528865534E+02  0.30000017276E+02 0.  0.
        -12    1    1    2    0    0 -0.47407580400E+01 -0.50276976526E+01 -0.40067601439E+02  0.40659134466E+02  0.00000000000E+00 0.  1.
         11    1    3    3    0    0 -0.11248989830E+02  0.19852372055E+01  0.14181745416E+02  0.18209965466E+02  0.51100000000E-03 0. -1.
        -11    1    3    3    0    0  0.59273521448E+01  0.22555992756E+01  0.24442106800E+01  0.67967196242E+01  0.51100000000E-03 0.  1.
         12    1    3    3    0    0  0.10062395725E+02  0.78686117157E+00  0.23441645343E+02  0.25522180444E+02  0.00000000000E+00 0. -1.
</event>
<event>
 7    1  0.9953837E-014  0.5052886E+02  0.7816164E-02  0.1300439E+00
        -11   -1    0    0    0    0  0.00000000000E+00  0.00000000000E+00  0.45593999997E+02  0.45594000000E+02  0.51100000000E-03 0.  1.
         11   -1    0    0    0    0 -0.00000000000E+00 -0.00000000000E+00 -0.45593999997E+02  0.45594000000E+02  0.51100000000E-03 0. -1.
    9900012    2    1    2    0    0 -0.25136527184E+01  0.22429011069E+02 -0.33819914777E+02  0.50528860523E+02  0.30000002046E+02 0.  0.
         12    1    1    2    0    0  0.25136527184E+01 -0.22429011069E+02  0.33819914777E+02  0.40659139477E+02  0.00000000000E+00 0. -1.
         11    1    3    3    0    0  0.19227063406E+00 -0.36630115488E+01 -0.87540238468E+01  0.94914464322E+01  0.51100000000E-03 0. -1.
        -11    1    3    3    0    0  0.27736912483E+01  0.97625394610E+01  0.55599563956E+00  0.10164136524E+02  0.51100000000E-03 0.  1.
        -12    1    3    3    0    0 -0.54796146008E+01  0.16329483157E+02 -0.25621886569E+02  0.30873277567E+02  0.00000000000E+00 0.  1.
</event>
<event>
 7    1  0.1205851E-013  0.5052886E+02  0.7816164E-02  0.1300439E+00
        -11   -1    0    0    0    0  0.00000000000E+00  0.00000000000E+00  0.45593999997E+02  0.45594000000E+02  0.51100000000E-03 0. -1.
         11   -1    0    0    0    0 -0.00000000000E+00 -0.00000000000E+00 -0.45593999997E+02  0.45594000000E+02  0.51100000000E-03 0.  1.
    9900012    2    1    2    0    0 -0.11374764619E+02  0.14083620391E+02  0.36406487543E+02  0.50528856272E+02  0.29999989125E+02 0.  0.
        -12    1    1    2    0    0  0.11374764619E+02 -0.14083620391E+02 -0.36406487543E+02  0.40659143728E+02  0.00000000000E+00 0.  1.
         11    1    3    3    0    0 -0.16763536778E+02  0.13101567243E+02  0.26427750461E+02  0.33927764798E+02  0.51100000000E-03 0. -1.
        -11    1    3    3    0    0  0.39311478186E+01  0.64745909521E+01  0.53805683021E+01  0.92911122415E+01  0.51100000000E-03 0.  1.
         12    1    3    3    0    0  0.14576243402E+01 -0.54925378043E+01  0.45981687805E+01  0.73099792327E+01  0.00000000000E+00 0. -1.
</event>
<event>
 7    1  0.9953837E-014  0.5052887E+02  0.7816164E-02  0.1300439E+00
        -11   -1    0    0    0    0  0.00000000000E+00  0.00000000000E+00  0.45593999997E+02  0.45594000000E+02  0.51100000000E-03 0. -1.
         11   -1    0    0    0    0 -0.00000000000E+00 -0.00000000000E+00 -0.45593999997E+02  0.45594000000E+02  0.51100000000E-03 0.  1.
    9900012    2    1    2    0    0  0.14575267547E+02  0.18657772401E+02  0.33054713031E+02  0.50528868817E+02  0.30000027255E+02 0.  0.
        -12    1    1    2    0    0 -0.14575267547E+02 -0.18657772401E+02 -0.33054713031E+02  0.40659131183E+02  0.00000000000E+00 0.  1.
         11    1    3    3    0    0  0.13171075823E+01  0.14735476653E+02  0.13116548828E+02  0.19771517342E+02  0.51100000000E-03 0. -1.
        -11    1    3    3    0    0  0.98239574715E+01 -0.43303485647E+01  0.18929328363E+02  0.21761928490E+02  0.51100000000E-03 0.  1.
        -12    1    3    3    0    0  0.34342024931E+01  0.82526443131E+01  0.10088358404E+01  0.89954229848E+01  0.00000000000E+00 0.  1.
</event>
<event>
 7    1  0.9953837E-014  0.5052886E+02  0.7816164E-02  0.1300439E+00
        -11   -1    0    0    0    0  0.00000000000E+00  0.00000000000E+00  0.45593999997E+02  0.45594000000E+02  0.51100000000E-03 0. -1.
         11   -1    0    0    0    0 -0.00000000000E+00 -0.00000000000E+00 -0.45593999997E+02  0.45594000000E+02  0.51100000000E-03 0.  1.
    9900012    2    1    2    0    0  0.36295158869E+01  0.15729432858E+02 -0.37317254800E+02  0.50528856509E+02  0.29999989844E+02 0.  0.
         12    1    1    2    0    0 -0.36295158869E+01 -0.15729432858E+02  0.37317254800E+02  0.40659143491E+02  0.00000000000E+00 0. -1.
         11    1    3    3    0    0  0.12006573315E+02  0.85075072361E+01 -0.34406635673E+02  0.37421278182E+02  0.51100000000E-03 0. -1.
        -11    1    3    3    0    0 -0.45179851912E+01  0.61279756271E+00 -0.29927619870E+01  0.54538367791E+01  0.51100000000E-03 0.  1.
         12    1    3    3    0    0 -0.38590722369E+01  0.66091280592E+01  0.82142859880E-01  0.76537415479E+01  0.00000000000E+00 0. -1.
</event>
<event>
 7    1  0.9953837E-014  0.5052886E+02  0.7816164E-02  0.1300439E+00
        -11   -1    0    0    0    0  0.00000000000E+00  0.00000000000E+00  0.45593999997E+02  0.45594000000E+02  0.51100000000E-03 0. -1.
         11   -1    0    0    0    0 -0.00000000000E+00 -0.00000000000E+00 -0.45593999997E+02  0.45594000000E+02  0.51100000000E-03 0.  1.
    9900012    2    1    2    0    0 -0.59416625402E+01  0.20822228065E+02  0.34413621250E+02  0.50528857573E+02  0.29999993080E+02 0.  0.
        -12    1    1    2    0    0  0.59416625402E+01 -0.20822228065E+02 -0.34413621250E+02  0.40659142427E+02  0.00000000000E+00 0.  1.
         11    1    3    3    0    0 -0.52098347884E+01 -0.26547422169E+01  0.14364999989E+02  0.15509457105E+02  0.51100000000E-03 0. -1.
        -11    1    3    3    0    0  0.42997527495E+01  0.10812295718E+02  0.11118117132E+01  0.11688872398E+02  0.51100000000E-03 0.  1.
        -12    1    3    3    0    0 -0.50315805013E+01  0.12664674564E+02  0.18936809548E+02  0.23330528070E+02  0.00000000000E+00 0.  1.
</event>
<event>
 7    1  0.9953837E-014  0.5052887E+02  0.7816164E-02  0.1300439E+00
        -11   -1    0    0    0    0  0.00000000000E+00  0.00000000000E+00  0.45593999997E+02  0.45594000000E+02  0.51100000000E-03 0. -1.
         11   -1    0    0    0    0 -0.00000000000E+00 -0.00000000000E+00 -0.45593999997E+02  0.45594000000E+02  0.51100000000E-03 0.  1.
    9900012    2    1    2    0    0  0.28380346036E+02 -0.16485361332E+02  0.23999028628E+02  0.50528873663E+02  0.30000041987E+02 0.  0.
        -12    1    1    2    0    0 -0.28380346036E+02  0.16485361332E+02 -0.23999028628E+02  0.40659126337E+02  0.00000000000E+00 0.  1.
         11    1    3    3    0    0  0.85131010290E+01 -0.13044064364E+02  0.16220078247E+02  0.22488028879E+02  0.51100000000E-03 0. -1.
        -11    1    3    3    0    0  0.20231447620E+02  0.10385815539E+01  0.10468376399E+02  0.22803004827E+02  0.51100000000E-03 0.  1.
        -12    1    3    3    0    0 -0.36420261283E+00 -0.44798785223E+01 -0.26894260177E+01  0.52378399577E+01  0.00000000000E+00 0.  1.
</event>
<event>
 7    1  0.9953837E-014  0.5052887E+02  0.7816164E-02  0.1300439E+00
        -11   -1    0    0    0    0  0.00000000000E+00  0.00000000000E+00  0.45593999997E+02  0.45594000000E+02  0.51100000000E-03 0. -1.
         11   -1    0    0    0    0 -0.00000000000E+00 -0.00000000000E+00 -0.45593999997E+02  0.45594000000E+02  0.51100000000E-03 0.  1.
    9900012    2    1    2    0    0  0.26126139416E+02 -0.17163413871E+02 -0.26000140476E+02  0.50528865217E+02  0.30000016315E+02 0.  0.
         12    1    1    2    0    0 -0.26126139416E+02  0.17163413871E+02  0.26000140476E+02  0.40659134783E+02  0.00000000000E+00 0. -1.
         11    1    3    3    0    0  0.11056090964E+02  0.64580669557E+01 -0.58080728083E+01  0.14059782581E+02  0.51100000000E-03 0. -1.
        -11    1    3    3    0    0  0.11863406910E+02 -0.24344600974E+02 -0.17944736148E+02  0.32487129386E+02  0.51100000000E-03 0.  1.
        -12    1    3    3    0    0  0.32066415418E+01  0.72312014710E+00 -0.22473315196E+01  0.39819532499E+01  0.00000000000E+00 0.  1.
</event>
<event>
 7    1  0.1151830E-013  0.5052885E+02  0.7816164E-02  0.1300439E+00
        -11   -1    0    0    0    0  0.00000000000E+00  0.00000000000E+00  0.45593999997E+02  0.45594000000E+02  0.51100000000E-03 0. -1.
         11   -1    0    0    0    0 -0.00000000000E+00 -0.00000000000E+00 -0.45593999997E+02  0.45594000000E+02  0.51100000000E-03 0.  1.
    9900012    2    1    2    0    0 -0.39440010641E+00 -0.87397974248E+01  0.39706763907E+02  0.50528847151E+02  0.29999961400E+02 0.  0.
        -12    1    1    2    0    0  0.39440010641E+00  0.87397974248E+01 -0.39706763907E+02  0.40659152849E+02  0.00000000000E+00 0.  1.
         11    1    3    3    0    0  0.26484525520E+00 -0.48888252619E+01  0.32829432151E+02  0.33192504742E+02  0.51100000000E-03 0. -1.
        -11    1    3    3    0    0 -0.71704066180E+01  0.15759683689E+01  0.22464264234E+01  0.76775542528E+01  0.51100000000E-03 0.  1.
        -12    1    3    3    0    0  0.65111612564E+01 -0.54269405318E+01  0.46309053325E+01  0.96587881559E+01  0.00000000000E+00 0.  1.
</event>
<event>
 7    1  0.9953837E-014  0.5052887E+02  0.7816164E-02  0.1300439E+00
        -11   -1    0    0    0    0  0.00000000000E+00  0.00000000000E+00  0.45593999997E+02  0.45594000000E+02  0.51100000000E-03 0. -1.
         11   -1    0    0    0    0 -0.00000000000E+00 -0.00000000000E+00 -0.45593999997E+02  0.45594000000E+02  0.51100000000E-03 0.  1.
    9900012    2    1    2    0    0 -0.13655163396E+02  0.19777840218E+02 -0.32795403418E+02  0.50528868967E+02  0.30000027711E+02 0.  0.
         12    1    1    2    0    0  0.13655163396E+02 -0.19777840218E+02  0.32795403418E+02  0.40659131033E+02  0.00000000000E+00 0. -1.
         11    1    3    3    0    0 -0.60546411325E+01  0.10632034342E+01 -0.12776298977E+02  0.14178254356E+02  0.51100000000E-03 0. -1.
        -11    1    3    3    0    0  0.46872300042E+01  0.16521549633E+02 -0.15318929589E+02  0.23013068709E+02  0.51100000000E-03 0.  1.
        -12    1    3    3    0    0 -0.12287752267E+02  0.21930871508E+01 -0.47001748516E+01  0.13337545901E+02  0.00000000000E+00 0.  1.
</event>
<event>
 7    1  0.9953837E-014  0.5052886E+02  0.7816164E-02  0.1300439E+00
        -11   -1    0    0    0    0  0.00000000000E+00  0.00000000000E+00  0.45593999997E+02  0.45594000000E+02  0.51100000000E-03 0. -1.
         11   -1    0    0    0    0 -0.00000000000E+00 -0.00000000000E+00 -0.45593999997E+02  0.45594000000E+02  0.51100000000E-03 0.  1.
    9900012    2    1    2    0    0 -0.70199528313E+01 -0.10375786306E+02 -0.38681120369E+02  0.50528858934E+02  0.29999997216E+02 0.  0.
         12    1    1    2    0    0  0.70199528313E+01  0.10375786306E+02  0.38681120369E+02  0.40659141066E+02  0.00000000000E+00 0. -1.
         11    1    3    3    0    0 -0.25412425564E+01 -0.12005780232E+02 -0.33349034615E+01  0.12716849219E+02  0.51100000000E-03 0. -1.
        -11    1    3    3    0    0  0.19730543180E+01 -0.85390369717E+00 -0.26489066016E+02  0.26576168150E+02  0.51100000000E-03 0.  1.
         12    1    3    3    0    0 -0.64517645929E+01  0.24838976231E+01 -0.88571508915E+01  0.11235841565E+02  0.00000000000E+00 0. -1.
</event>
<event>
 7    1  0.9953837E-014  0.5052886E+02  0.7816164E-02  0.1300439E+00
        -11   -1    0    0    0    0  0.00000000000E+00  0.00000000000E+00  0.45593999997E+02  0.45594000000E+02  0.51100000000E-03 0. -1.
         11   -1    0    0    0    0 -0.00000000000E+00 -0.00000000000E+00 -0.45593999997E+02  0.45594000000E+02  0.51100000000E-03 0.  1.
    9900012    2    1    2    0    0  0.59336227303E+01 -0.12586568504E+02  0.38203869909E+02  0.50528864970E+02  0.30000015562E+02 0.  0.
        -12    1    1    2    0    0 -0.59336227303E+01  0.12586568504E+02 -0.38203869909E+02  0.40659135030E+02  0.00000000000E+00 0.  1.
         11    1    3    3    0    0  0.43307017706E+01 -0.93778591688E+01  0.18506831051E+02  0.21194386432E+02  0.51100000000E-03 0. -1.
        -11    1    3    3    0    0 -0.22042071906E+01 -0.87027395286E+01  0.48248494450E+00  0.89904947931E+01  0.51100000000E-03 0.  1.
        -12    1    3    3    0    0  0.38071281503E+01  0.54940301938E+01  0.19214553913E+02  0.20343983744E+02  0.00000000000E+00 0.  1.
</event>
<event>
 7    1  0.9953837E-014  0.5052886E+02  0.7816164E-02  0.1300439E+00
        -11   -1    0    0    0    0  0.00000000000E+00  0.00000000000E+00  0.45593999997E+02  0.45594000000E+02  0.51100000000E-03 0. -1.
         11   -1    0    0    0    0 -0.00000000000E+00 -0.00000000000E+00 -0.45593999997E+02  0.45594000000E+02  0.51100000000E-03 0.  1.
    9900012    2    1    2    0    0  0.15681480430E+02  0.51460203293E+01  0.37158781236E+02  0.50528863552E+02  0.30000011254E+02 0.  0.
        -12    1    1    2    0    0 -0.15681480430E+02 -0.51460203293E+01 -0.37158781236E+02  0.40659136448E+02  0.00000000000E+00 0.  1.
         11    1    3    3    0    0  0.36434775681E+01  0.80943065834E+01  0.19937629513E+02  0.21824339594E+02  0.51100000000E-03 0. -1.
        -11    1    3    3    0    0  0.12851647193E+01 -0.99645532814E+01  0.87421745738E+01  0.13318017382E+02  0.51100000000E-03 0.  1.
        -12    1    3    3    0    0  0.10752838143E+02  0.70162670273E+01  0.84789771499E+01  0.15386506576E+02  0.00000000000E+00 0.  1.
</event>
<event>
 7    1  0.9953837E-014  0.5052886E+02  0.7816164E-02  0.1300439E+00
        -11   -1    0    0    0    0  0.00000000000E+00  0.00000000000E+00  0.45593999997E+02  0.45594000000E+02  0.51100000000E-03 0. -1.
         11   -1    0    0    0    0 -0.00000000000E+00 -0.00000000000E+00 -0.45593999997E+02  0.45594000000E+02  0.51100000000E-03 0.  1.
    9900012    2    1    2    0    0 -0.78734888801E+01  0.26833143473E+02  0.29515355152E+02  0.50528860738E+02  0.30000002699E+02 0.  0.
        -12    1    1    2    0    0  0.78734888801E+01 -0.26833143473E+02 -0.29515355152E+02  0.40659139262E+02  0.00000000000E+00 0.  1.
         11    1    3    3    0    0  0.42060000355E+01 -0.13385453872E+01 -0.25429271413E+01  0.50939786768E+01  0.51100000000E-03 0. -1.
        -11    1    3    3    0    0 -0.10144660391E+01  0.51299597899E+01  0.12002763712E+01  0.53652858655E+01  0.51100000000E-03 0.  1.
         12    1    3    3    0    0 -0.11065022876E+02  0.23041729070E+02  0.30858005922E+02  0.40069596196E+02  0.00000000000E+00 0. -1.
</event>
<event>
 7    1  0.9953837E-014  0.5052885E+02  0.7816164E-02  0.1300439E+00
        -11   -1    0    0    0    0  0.00000000000E+00  0.00000000000E+00  0.45593999997E+02  0.45594000000E+02  0.51100000000E-03 0. -1.
         11   -1    0    0    0    0 -0.00000000000E+00 -0.00000000000E+00 -0.45593999997E+02  0.45594000000E+02  0.51100000000E-03 0.  1.
    9900012    2    1    2    0    0 -0.33442841001E+02  0.17954911691E+02  0.14572704041E+02  0.50528853783E+02  0.29999981558E+02 0.  0.
        -12    1    1    2    0    0  0.33442841001E+02 -0.17954911691E+02 -0.14572704041E+02  0.40659146217E+02  0.00000000000E+00 0.  1.
         11    1    3    3    0    0 -0.30223574544E+02  0.17055691529E+02  0.12613153937E+02  0.36924960721E+02  0.51100000000E-03 0. -1.
        -11    1    3    3    0    0 -0.22602457854E+01 -0.39714095042E+01  0.57596818629E+01  0.73521928622E+01  0.51100000000E-03 0.  1.
        -12    1    3    3    0    0 -0.95902067124E+00  0.48706296666E+01 -0.38001317593E+01  0.62517001995E+01  0.00000000000E+00 0.  1.
</event>
<event>
 7    1  0.9953837E-014  0.5052886E+02  0.7816164E-02  0.1300439E+00
        -11   -1    0    0    0    0  0.00000000000E+00  0.00000000000E+00  0.45593999997E+02  0.45594000000E+02  0.51100000000E-03 0. -1.
         11   -1    0    0    0    0 -0.00000000000E+00 -0.00000000000E+00 -0.45593999997E+02  0.45594000000E+02  0.51100000000E-03 0.  1.
    9900012    2    1    2    0    0 -0.19208606816E+01  0.73140534022E+01  0.39949729699E+02  0.50528856059E+02  0.29999988478E+02 0.  0.
        -12    1    1    2    0    0  0.19208606816E+01 -0.73140534022E+01 -0.39949729699E+02  0.40659143941E+02  0.00000000000E+00 0.  1.
         11    1    3    3    0    0  0.66814675450E-01 -0.56461609161E+01  0.13475910114E+02  0.14611083155E+02  0.51100000000E-03 0. -1.
        -11    1    3    3    0    0  0.13800589402E+01  0.25172165409E+01 -0.31888771401E+01  0.42906735449E+01  0.51100000000E-03 0.  1.
        -12    1    3    3    0    0 -0.33677342973E+01  0.10442997777E+02  0.29662696726E+02  0.31627099360E+02  0.00000000000E+00 0.  1.
</event>
<event>
 7    1  0.9953837E-014  0.5052886E+02  0.7816164E-02  0.1300439E+00
        -11   -1    0    0    0    0  0.00000000000E+00  0.00000000000E+00  0.45593999997E+02  0.45594000000E+02  0.51100000000E-03 0. -1.
         11   -1    0    0    0    0 -0.00000000000E+00 -0.00000000000E+00 -0.45593999997E+02  0.45594000000E+02  0.51100000000E-03 0.  1.
    9900012    2    1    2    0    0  0.29275468831E+01 -0.93091750996E+01 -0.39470677908E+02  0.50528859745E+02  0.29999999680E+02 0.  0.
         12    1    1    2    0    0 -0.29275468831E+01  0.93091750996E+01  0.39470677908E+02  0.40659140255E+02  0.00000000000E+00 0. -1.
         11    1    3    3    0    0  0.23180584783E+01  0.72912560318E+01 -0.88921381775E+01  0.11730555454E+02  0.51100000000E-03 0. -1.
        -11    1    3    3    0    0  0.14667755501E+00 -0.10715851537E+02 -0.37902074694E+01  0.11367350676E+02  0.51100000000E-03 0.  1.
        -12    1    3    3    0    0  0.46281084982E+00 -0.58845795941E+01 -0.26788332261E+02  0.27430953615E+02  0.00000000000E+00 0.  1.
</event>
<event>
 7    1  0.9953837E-014  0.5052884E+02  0.7816164E-02  0.1300439E+00
        -11   -1    0    0    0    0  0.00000000000E+00  0.00000000000E+00  0.45593999997E+02  0.45594000000E+02  0.51100000000E-03 0. -1.
         11   -1    0    0    0    0 -0.00000000000E+00 -0.00000000000E+00 -0.45593999997E+02  0.45594000000E+02  0.51100000000E-03 0.  1.
    9900012    2    1    2    0    0  0.93047161308E+01  0.20568266143E+02  0.33816211041E+02  0.50528838135E+02  0.29999933994E+02 0.  0.
        -12    1    1    2    0    0 -0.93047161308E+01 -0.20568266143E+02 -0.33816211041E+02  0.40659161865E+02  0.00000000000E+00 0.  1.
         11    1    3    3    0    0  0.12763806548E+01  0.67965889436E+01  0.17626619196E+02  0.18934636870E+02  0.51100000000E-03 0. -1.
        -11    1    3    3    0    0 -0.64141996013E+01 -0.95707490618E+00  0.33926991428E+01  0.73190406909E+01  0.51100000000E-03 0.  1.
         12    1    3    3    0    0  0.14442535077E+02  0.14728752106E+02  0.12796892702E+02  0.24275160574E+02  0.00000000000E+00 0. -1.
</event>
<event>
 7    1  0.9953837E-014  0.5052884E+02  0.7816164E-02  0.1300439E+00
        -11   -1    0    0    0    0  0.00000000000E+00  0.00000000000E+00  0.45593999997E+02  0.45594000000E+02  0.51100000000E-03 0.  1.
         11   -1    0    0    0    0 -0.00000000000E+00 -0.00000000000E+00 -0.45593999997E+02  0.45594000000E+02  0.51100000000E-03 0. -1.
    9900012    2    1    2    0    0 -0.40019137743E+02 -0.65668648729E+01  0.29175946247E+01  0.50528837953E+02  0.29999933443E+02 0.  0.
         12    1    1    2    0    0  0.40019137743E+02  0.65668648729E+01 -0.29175946247E+01  0.40659162047E+02  0.00000000000E+00 0. -1.
         11    1    3    3    0    0 -0.15938040282E+02  0.52797060765E+01 -0.95782638269E+01  0.19329758469E+02  0.51100000000E-03 0. -1.
        -11    1    3    3    0    0 -0.11759623281E+02 -0.41115214467E+01  0.71339690455E+00  0.12478072116E+02  0.51100000000E-03 0.  1.
         12    1    3    3    0    0 -0.12321474180E+02 -0.77350495026E+01  0.11782461547E+02  0.18721007368E+02  0.00000000000E+00 0. -1.
</event>
<event>
 7    1  0.9953837E-014  0.5052887E+02  0.7816164E-02  0.1300439E+00
        -11   -1    0    0    0    0  0.00000000000E+00  0.00000000000E+00  0.45593999997E+02  0.45594000000E+02  0.51100000000E-03 0. -1.
         11   -1    0    0    0    0 -0.00000000000E+00 -0.00000000000E+00 -0.45593999997E+02  0.45594000000E+02  0.51100000000E-03 0.  1.
    9900012    2    1    2    0    0  0.23906164362E+02  0.26674057101E+02 -0.19239405989E+02  0.50528871142E+02  0.30000034323E+02 0.  0.
         12    1    1    2    0    0 -0.23906164362E+02 -0.26674057101E+02  0.19239405989E+02  0.40659128858E+02  0.00000000000E+00 0. -1.
         11    1    3    3    0    0  0.12629673826E+02 -0.16165100212E+01 -0.12000211338E+02  0.17496480732E+02  0.51100000000E-03 0. -1.
        -11    1    3    3    0    0  0.14267513344E+01  0.65827855862E+01 -0.62270028987E+01  0.91730175409E+01  0.51100000000E-03 0.  1.
         12    1    3    3    0    0  0.98497392014E+01  0.21707781536E+02 -0.10121917519E+01  0.23859372869E+02  0.00000000000E+00 0. -1.
</event>
<event>
 7    1  0.9953837E-014  0.5052896E+02  0.7816164E-02  0.1300438E+00
        -11   -1    0    0    0    0  0.00000000000E+00  0.00000000000E+00  0.45593999997E+02  0.45594000000E+02  0.51100000000E-03 0. -1.
         11   -1    0    0    0    0 -0.00000000000E+00 -0.00000000000E+00 -0.45593999997E+02  0.45594000000E+02  0.51100000000E-03 0.  1.
    9900012    2    1    2    0    0  0.17046783936E+02 -0.18179644968E+02 -0.32125774864E+02  0.50528957410E+02  0.30000296543E+02 0.  0.
         12    1    1    2    0    0 -0.17046783936E+02  0.18179644968E+02  0.32125774864E+02  0.40659042590E+02  0.00000000000E+00 0. -1.
         11    1    3    3    0    0  0.99601142776E+01 -0.13522798567E+02 -0.45720350585E+01  0.17406132895E+02  0.51100000000E-03 0. -1.
        -11    1    3    3    0    0  0.11025285322E+01 -0.49532606936E+01 -0.26571082333E+02  0.27051298995E+02  0.51100000000E-03 0.  1.
        -12    1    3    3    0    0  0.59841411259E+01  0.29641429269E+00 -0.98265747184E+00  0.60715255212E+01  0.00000000000E+00 0.  1.
</event>
<event>
 7    1  0.9953837E-014  0.5052884E+02  0.7816164E-02  0.1300439E+00
        -11   -1    0    0    0    0  0.00000000000E+00  0.00000000000E+00  0.45593999997E+02  0.45594000000E+02  0.51100000000E-03 0.  1.
         11   -1    0    0    0    0 -0.00000000000E+00 -0.00000000000E+00 -0.45593999997E+02  0.45594000000E+02  0.51100000000E-03 0. -1.
    9900012    2    1    2    0    0 -0.11023677416E+02  0.29342023287E+02 -0.25897704620E+02  0.50528844832E+02  0.29999954352E+02 0.  0.
         12    1    1    2    0    0  0.11023677416E+02 -0.29342023287E+02  0.25897704620E+02  0.40659155168E+02  0.00000000000E+00 0. -1.
         11    1    3    3    0    0  0.24895885668E+01 -0.97574928417E+00  0.40428306319E+01  0.48471246814E+01  0.51100000000E-03 0. -1.
        -11    1    3    3    0    0 -0.11247693108E+02  0.13731974679E+02 -0.16002985132E+02  0.23899231415E+02  0.51100000000E-03 0.  1.
         12    1    3    3    0    0 -0.22655728750E+01  0.16585797892E+02 -0.13937550120E+02  0.21782488736E+02  0.00000000000E+00 0. -1.
</event>
<event>
 7    1  0.9953837E-014  0.5052883E+02  0.7816164E-02  0.1300439E+00
        -11   -1    0    0    0    0  0.00000000000E+00  0.00000000000E+00  0.45593999997E+02  0.45594000000E+02  0.51100000000E-03 0.  1.
         11   -1    0    0    0    0 -0.00000000000E+00 -0.00000000000E+00 -0.45593999997E+02  0.45594000000E+02  0.51100000000E-03 0. -1.
    9900012    2    1    2    0    0  0.16340468267E+02  0.99661708944E+00  0.37217790723E+02  0.50528830122E+02  0.29999909640E+02 0.  0.
        -12    1    1    2    0    0 -0.16340468267E+02 -0.99661708944E+00 -0.37217790723E+02  0.40659169878E+02  0.00000000000E+00 0.  1.
         11    1    3    3    0    0  0.13141128745E+02  0.73049592615E+01  0.29578540825E+02  0.33180442615E+02  0.51100000000E-03 0. -1.
        -11    1    3    3    0    0  0.74489471246E+01 -0.80440235521E+01  0.49574627473E+01  0.12032022495E+02  0.51100000000E-03 0.  1.
        -12    1    3    3    0    0 -0.42496076019E+01  0.17356813801E+01  0.26817871508E+01  0.53163650125E+01  0.00000000000E+00 0.  1.
</event>
<event>
 7    1  0.9953837E-014  0.5052887E+02  0.7816164E-02  0.1300439E+00
        -11   -1    0    0    0    0  0.00000000000E+00  0.00000000000E+00  0.45593999997E+02  0.45594000000E+02  0.51100000000E-03 0. -1.
         11   -1    0    0    0    0 -0.00000000000E+00 -0.00000000000E+00 -0.45593999997E+02  0.45594000000E+02  0.51100000000E-03 0.  1.
    9900012    2    1    2    0    0 -0.92644096181E+01  0.77612236307E+01 -0.38821372178E+02  0.50528870452E+02  0.30000032225E+02 0.  0.
         12    1    1    2    0    0  0.92644096181E+01 -0.77612236307E+01  0.38821372178E+02  0.40659129548E+02  0.00000000000E+00 0. -1.
         11    1    3    3    0    0 -0.96351298313E+01 -0.52228371594E+01 -0.44374058951E+01  0.11823887948E+02  0.51100000000E-03 0. -1.
        -11    1    3    3    0    0  0.50658474378E+01  0.18718399660E+01 -0.75360200519E+01  0.92713641718E+01  0.51100000000E-03 0.  1.
         12    1    3    3    0    0 -0.46951272246E+01  0.11112220824E+02 -0.26847946231E+02  0.29433618332E+02  0.00000000000E+00 0. -1.
</event>
<event>
 7    1  0.9953837E-014  0.5052885E+02  0.7816164E-02  0.1300439E+00
        -11   -1    0    0    0    0  0.00000000000E+00  0.00000000000E+00  0.45593999997E+02  0.45594000000E+02  0.51100000000E-03 0. -1.
         11   -1    0    0    0    0 -0.00000000000E+00 -0.00000000000E+00 -0.45593999997E+02  0.45594000000E+02  0.51100000000E-03 0.  1.
    9900012    2    1    2    0    0 -0.72987575646E+01 -0.14835405651E+02  0.37145732333E+02  0.50528849082E+02  0.29999967269E+02 0.  0.
        -12    1    1    2    0    0  0.72987575646E+01  0.14835405651E+02 -0.37145732333E+02  0.40659150918E+02  0.00000000000E+00 0.  1.
         11    1    3    3    0    0  0.73871419495E+00 -0.13846164965E+02  0.31840394102E+02  0.34728557121E+02  0.51100000000E-03 0. -1.
        -11    1    3    3    0    0 -0.50041814452E+01 -0.38054161556E+01 -0.26579883511E+01  0.68255348793E+01  0.51100000000E-03 0.  1.
        -12    1    3    3    0    0 -0.30332903144E+01  0.28161754696E+01  0.79633265824E+01  0.89747570811E+01  0.00000000000E+00 0.  1.
</event>
<event>
 7    1  0.9953837E-014  0.5052878E+02  0.7816164E-02  0.1300439E+00
        -11   -1    0    0    0    0  0.00000000000E+00  0.00000000000E+00  0.45593999997E+02  0.45594000000E+02  0.51100000000E-03 0. -1.
         11   -1    0    0    0    0 -0.00000000000E+00 -0.00000000000E+00 -0.45593999997E+02  0.45594000000E+02  0.51100000000E-03 0.  1.
    9900012    2    1    2    0    0 -0.17262130797E+02  0.34758169799E+02  0.12126871839E+02  0.50528775364E+02  0.29999743195E+02 0.  0.
        -12    1    1    2    0    0  0.17262130797E+02 -0.34758169799E+02 -0.12126871839E+02  0.40659224636E+02  0.00000000000E+00 0.  1.
         11    1    3    3    0    0 -0.50970899546E+01  0.11380167643E+02  0.16464690961E+02  0.20653682245E+02  0.51100000000E-03 0. -1.
        -11    1    3    3    0    0 -0.53734303730E+01  0.21802617298E+02 -0.44990664827E+01  0.22901298533E+02  0.51100000000E-03 0.  1.
        -12    1    3    3    0    0 -0.67916104694E+01  0.15753848580E+01  0.16124736043E+00  0.69737945862E+01  0.00000000000E+00 0.  1.
</event>
<event>
 7    1  0.9953837E-014  0.5052885E+02  0.7816164E-02  0.1300439E+00
        -11   -1    0    0    0    0  0.00000000000E+00  0.00000000000E+00  0.45593999997E+02  0.45594000000E+02  0.51100000000E-03 0. -1.
         11   -1    0    0    0    0 -0.00000000000E+00 -0.00000000000E+00 -0.45593999997E+02  0.45594000000E+02  0.51100000000E-03 0.  1.
    9900012    2    1    2    0    0 -0.84997199349E+01 -0.29528418152E+02  0.26626944158E+02  0.50528845155E+02  0.29999955333E+02 0.  0.
        -12    1    1    2    0    0  0.84997199349E+01  0.29528418152E+02 -0.26626944158E+02  0.40659154845E+02  0.00000000000E+00 0.  1.
         11    1    3    3    0    0 -0.97987996700E+01 -0.21713570315E+02  0.14462159998E+01  0.23866025052E+02  0.51100000000E-03 0. -1.
        -11    1    3    3    0    0  0.18294816572E+01 -0.15285377585E+01  0.85357338118E+01  0.88624027657E+01  0.51100000000E-03 0.  1.
         12    1    3    3    0    0 -0.53040192209E+00 -0.62863100783E+01  0.16644994346E+02  0.17800417337E+02  0.00000000000E+00 0. -1.
</event>
<event>
 7    1  0.9953837E-014  0.5052886E+02  0.7816164E-02  0.1300439E+00
        -11   -1    0    0    0    0  0.00000000000E+00  0.00000000000E+00  0.45593999997E+02  0.45594000000E+02  0.51100000000E-03 0. -1.
         11   -1    0    0    0    0 -0.00000000000E+00 -0.00000000000E+00 -0.45593999997E+02  0.45594000000E+02  0.51100000000E-03 0.  1.
    9900012    2    1    2    0    0  0.27882465860E+02 -0.10036713186E+02 -0.27838787879E+02  0.50528860504E+02  0.30000001987E+02 0.  0.
         12    1    1    2    0    0 -0.27882465860E+02  0.10036713186E+02  0.27838787879E+02  0.40659139496E+02  0.00000000000E+00 0. -1.
         11    1    3    3    0    0  0.13971513717E+02 -0.10040506237E+02  0.22568808167E+01  0.17352477412E+02  0.51100000000E-03 0. -1.
        -11    1    3    3    0    0  0.49163369933E+01 -0.44165034687E+00 -0.98249213007E+01  0.10995203649E+02  0.51100000000E-03 0.  1.
         12    1    3    3    0    0  0.89946151491E+01  0.44544339812E+00 -0.20270747396E+02  0.22181179443E+02  0.00000000000E+00 0. -1.
</event>
<event>
 7    1  0.9953837E-014  0.5052886E+02  0.7816164E-02  0.1300439E+00
        -11   -1    0    0    0    0  0.00000000000E+00  0.00000000000E+00  0.45593999997E+02  0.45594000000E+02  0.51100000000E-03 0.  1.
         11   -1    0    0    0    0 -0.00000000000E+00 -0.00000000000E+00 -0.45593999997E+02  0.45594000000E+02  0.51100000000E-03 0. -1.
    9900012    2    1    2    0    0 -0.79310151517E+01 -0.32947189770E+02  0.22466588111E+02  0.50528857161E+02  0.29999991826E+02 0.  0.
        -12    1    1    2    0    0  0.79310151517E+01  0.32947189770E+02 -0.22466588111E+02  0.40659142839E+02  0.00000000000E+00 0.  1.
         11    1    3    3    0    0 -0.11545082336E+02 -0.15074731818E+02 -0.26946721879E+01  0.19178053186E+02  0.51100000000E-03 0. -1.
        -11    1    3    3    0    0  0.16178543454E+01 -0.13044099237E+02  0.15141971765E+02  0.20051066974E+02  0.51100000000E-03 0.  1.
         12    1    3    3    0    0  0.19962128389E+01 -0.48283587144E+01  0.10019288534E+02  0.11299737001E+02  0.00000000000E+00 0. -1.
</event>
<event>
 7    1  0.9953837E-014  0.5052886E+02  0.7816164E-02  0.1300439E+00
        -11   -1    0    0    0    0  0.00000000000E+00  0.00000000000E+00  0.45593999997E+02  0.45594000000E+02  0.51100000000E-03 0. -1.
         11   -1    0    0    0    0 -0.00000000000E+00 -0.00000000000E+00 -0.45593999997E+02  0.45594000000E+02  0.51100000000E-03 0.  1.
    9900012    2    1    2    0    0 -0.97073804582E+01 -0.35771691560E+01 -0.39320937442E+02  0.50528862086E+02  0.30000006798E+02 0.  0.
         12    1    1    2    0    0  0.97073804582E+01  0.35771691560E+01  0.39320937442E+02  0.40659137914E+02  0.00000000000E+00 0. -1.
         11    1    3    3    0    0  0.64105438001E+01  0.76105744477E+01 -0.10782676291E+02  0.14672492068E+02  0.51100000000E-03 0. -1.
        -11    1    3    3    0    0 -0.16868637553E+02 -0.11196880673E+02 -0.24662767782E+02  0.31908826124E+02  0.51100000000E-03 0.  1.
        -12    1    3    3    0    0  0.75071329474E+00  0.91370692013E-02 -0.38754933690E+01  0.39475438934E+01  0.00000000000E+00 0.  1.
</event>
<event>
 7    1  0.9953837E-014  0.5052886E+02  0.7816164E-02  0.1300439E+00
        -11   -1    0    0    0    0  0.00000000000E+00  0.00000000000E+00  0.45593999997E+02  0.45594000000E+02  0.51100000000E-03 0. -1.
         11   -1    0    0    0    0 -0.00000000000E+00 -0.00000000000E+00 -0.45593999997E+02  0.45594000000E+02  0.51100000000E-03 0.  1.
    9900012    2    1    2    0    0  0.18605066577E+02 -0.34409674416E+02  0.11090141082E+02  0.50528862958E+02  0.30000009447E+02 0.  0.
        -12    1    1    2    0    0 -0.18605066577E+02  0.34409674416E+02 -0.11090141082E+02  0.40659137042E+02  0.00000000000E+00 0.  1.
         11    1    3    3    0    0  0.21862040584E+02 -0.24673714786E+02  0.13371710120E+02  0.35574480343E+02  0.51100000000E-03 0. -1.
        -11    1    3    3    0    0 -0.55720749525E+01 -0.96566960318E+01 -0.42329893802E+01  0.11925518726E+02  0.51100000000E-03 0.  1.
        -12    1    3    3    0    0  0.23151009455E+01 -0.79263597839E-01  0.19514203427E+01  0.30288638893E+01  0.00000000000E+00 0.  1.
</event>
<event>
 7    1  0.9953837E-014  0.5052882E+02  0.7816164E-02  0.1300439E+00
        -11   -1    0    0    0    0  0.00000000000E+00  0.00000000000E+00  0.45593999997E+02  0.45594000000E+02  0.51100000000E-03 0. -1.
         11   -1    0    0    0    0 -0.00000000000E+00 -0.00000000000E+00 -0.45593999997E+02  0.45594000000E+02  0.51100000000E-03 0.  1.
    9900012    2    1    2    0    0 -0.15470345625E+01  0.11994195102E+02 -0.38819000830E+02  0.50528820747E+02  0.29999881143E+02 0.  0.
         12    1    1    2    0    0  0.15470345625E+01 -0.11994195102E+02  0.38819000830E+02  0.40659179253E+02  0.00000000000E+00 0. -1.
         11    1    3    3    0    0  0.75165084953E+01 -0.56642691567E+01 -0.61217978578E+01  0.11227566714E+02  0.51100000000E-03 0. -1.
        -11    1    3    3    0    0 -0.83121826488E+01  0.92712037115E+01 -0.13653264303E+02  0.18478615344E+02  0.51100000000E-03 0.  1.
         12    1    3    3    0    0 -0.75136040894E+00  0.83872605476E+01 -0.19043938669E+02  0.20822638689E+02  0.00000000000E+00 0. -1.
</event>
<event>
 7    1  0.9953837E-014  0.5052885E+02  0.7816164E-02  0.1300439E+00
        -11   -1    0    0    0    0  0.00000000000E+00  0.00000000000E+00  0.45593999997E+02  0.45594000000E+02  0.51100000000E-03 0. -1.
         11   -1    0    0    0    0 -0.00000000000E+00 -0.00000000000E+00 -0.45593999997E+02  0.45594000000E+02  0.51100000000E-03 0.  1.
    9900012    2    1    2    0    0  0.35635833353E+01 -0.20230870370E+02 -0.35088162351E+02  0.50528851223E+02  0.29999973776E+02 0.  0.
         12    1    1    2    0    0 -0.35635833353E+01  0.20230870370E+02  0.35088162351E+02  0.40659148777E+02  0.00000000000E+00 0. -1.
         11    1    3    3    0    0 -0.38403592488E+01 -0.20677214504E+02 -0.81595565587E+01  0.22558234025E+02  0.51100000000E-03 0. -1.
        -11    1    3    3    0    0  0.38013793547E+01  0.28765874080E+00 -0.11098737179E+02  0.11735211961E+02  0.51100000000E-03 0.  1.
         12    1    3    3    0    0  0.36025632294E+01  0.15868539335E+00 -0.15829868614E+02  0.16235405237E+02  0.00000000000E+00 0. -1.
</event>
<event>
 7    1  0.9953837E-014  0.5052886E+02  0.7816164E-02  0.1300439E+00
        -11   -1    0    0    0    0  0.00000000000E+00  0.00000000000E+00  0.45593999997E+02  0.45594000000E+02  0.51100000000E-03 0. -1.
         11   -1    0    0    0    0 -0.00000000000E+00 -0.00000000000E+00 -0.45593999997E+02  0.45594000000E+02  0.51100000000E-03 0.  1.
    9900012    2    1    2    0    0  0.96673459788E+01  0.40928402389E+01  0.39280489504E+02  0.50528858652E+02  0.29999996357E+02 0.  0.
        -12    1    1    2    0    0 -0.96673459788E+01 -0.40928402389E+01 -0.39280489504E+02  0.40659141348E+02  0.00000000000E+00 0.  1.
         11    1    3    3    0    0  0.88783676201E-02  0.11694586085E+02  0.19163076591E+02  0.22449653165E+02  0.51100000000E-03 0. -1.
        -11    1    3    3    0    0 -0.15836258475E+01 -0.77949406794E+01  0.11155195906E+02  0.13700633817E+02  0.51100000000E-03 0.  1.
         12    1    3    3    0    0  0.11242093459E+02  0.19319483288E+00  0.89622170079E+01  0.14378571670E+02  0.00000000000E+00 0. -1.
</event>
<event>
 7    1  0.9953837E-014  0.5052883E+02  0.7816164E-02  0.1300439E+00
        -11   -1    0    0    0    0  0.00000000000E+00  0.00000000000E+00  0.45593999997E+02  0.45594000000E+02  0.51100000000E-03 0. -1.
         11   -1    0    0    0    0 -0.00000000000E+00 -0.00000000000E+00 -0.45593999997E+02  0.45594000000E+02  0.51100000000E-03 0.  1.
    9900012    2    1    2    0    0 -0.25664913641E+02  0.31389033070E+02  0.30345715885E+01  0.50528833579E+02  0.29999920148E+02 0.  0.
        -12    1    1    2    0    0  0.25664913641E+02 -0.31389033070E+02 -0.30345715885E+01  0.40659166421E+02  0.00000000000E+00 0.  1.
         11    1    3    3    0    0 -0.11619875540E+02  0.31513325604E+02  0.55628550697E+01  0.34044919664E+02  0.51100000000E-03 0. -1.
        -11    1    3    3    0    0 -0.99640446873E+01  0.35378702395E+01 -0.33650251095E+00  0.10578844292E+02  0.51100000000E-03 0.  1.
         12    1    3    3    0    0 -0.40809934144E+01 -0.36621627733E+01 -0.21917809703E+01  0.59050696226E+01  0.00000000000E+00 0. -1.
</event>
<event>
 7    1  0.9953837E-014  0.5052886E+02  0.7816164E-02  0.1300439E+00
        -11   -1    0    0    0    0  0.00000000000E+00  0.00000000000E+00  0.45593999997E+02  0.45594000000E+02  0.51100000000E-03 0. -1.
         11   -1    0    0    0    0 -0.00000000000E+00 -0.00000000000E+00 -0.45593999997E+02  0.45594000000E+02  0.51100000000E-03 0.  1.
    9900012    2    1    2    0    0 -0.40822677823E+01 -0.42208855453E+01  0.40232885865E+02  0.50528857239E+02  0.29999992064E+02 0.  0.
        -12    1    1    2    0    0  0.40822677823E+01  0.42208855453E+01 -0.40232885865E+02  0.40659142761E+02  0.00000000000E+00 0.  1.
         11    1    3    3    0    0  0.88587802596E+01  0.52407984757E+01  0.21892675432E+02  0.24191593461E+02  0.51100000000E-03 0. -1.
        -11    1    3    3    0    0 -0.85568899796E+01 -0.11019936081E+02  0.15635558938E+02  0.20955430344E+02  0.51100000000E-03 0.  1.
        -12    1    3    3    0    0 -0.43841580624E+01  0.15582520601E+01  0.27046514952E+01  0.53818334338E+01  0.00000000000E+00 0.  1.
</event>
<event>
 7    1  0.9953837E-014  0.5052886E+02  0.7816164E-02  0.1300439E+00
        -11   -1    0    0    0    0  0.00000000000E+00  0.00000000000E+00  0.45593999997E+02  0.45594000000E+02  0.51100000000E-03 0. -1.
         11   -1    0    0    0    0 -0.00000000000E+00 -0.00000000000E+00 -0.45593999997E+02  0.45594000000E+02  0.51100000000E-03 0.  1.
    9900012    2    1    2    0    0 -0.32681618369E+02 -0.13287808776E+02  0.20211676594E+02  0.50528856969E+02  0.29999991242E+02 0.  0.
        -12    1    1    2    0    0  0.32681618369E+02  0.13287808776E+02 -0.20211676594E+02  0.40659143031E+02  0.00000000000E+00 0.  1.
         11    1    3    3    0    0 -0.25021280999E+01  0.26883810455E+01  0.85317837421E+01  0.92886689982E+01  0.51100000000E-03 0.  1.
        -11    1    3    3    0    0 -0.31919500785E+02 -0.10213684199E+02  0.10349649940E+02  0.35075477608E+02  0.51100000000E-03 0. -1.
        -12    1    3    3    0    0  0.17400105162E+01 -0.57625056226E+01  0.13302429119E+01  0.61647103624E+01  0.00000000000E+00 0.  1.
</event>
<event>
 7    1  0.9953837E-014  0.5052886E+02  0.7816164E-02  0.1300439E+00
        -11   -1    0    0    0    0  0.00000000000E+00  0.00000000000E+00  0.45593999997E+02  0.45594000000E+02  0.51100000000E-03 0. -1.
         11   -1    0    0    0    0 -0.00000000000E+00 -0.00000000000E+00 -0.45593999997E+02  0.45594000000E+02  0.51100000000E-03 0.  1.
    9900012    2    1    2    0    0  0.38820733438E+01  0.22848498641E+01 -0.40408843248E+02  0.50528860253E+02  0.30000001225E+02 0.  0.
         12    1    1    2    0    0 -0.38820733438E+01 -0.22848498641E+01  0.40408843248E+02  0.40659139747E+02  0.00000000000E+00 0. -1.
         11    1    3    3    0    0  0.39095955371E+01  0.11537818371E+02 -0.15545579717E+02  0.19750221240E+02  0.51100000000E-03 0. -1.
        -11    1    3    3    0    0 -0.59160035451E+01 -0.64391194299E+01 -0.54639417476E+01  0.10310965845E+02  0.51100000000E-03 0.  1.
        -12    1    3    3    0    0  0.58884813517E+01 -0.28138490774E+01 -0.19399321783E+02  0.20467673168E+02  0.00000000000E+00 0.  1.
</event>
<event>
 7    1  0.9953837E-014  0.5052875E+02  0.7816164E-02  0.1300439E+00
        -11   -1    0    0    0    0  0.00000000000E+00  0.00000000000E+00  0.45593999997E+02  0.45594000000E+02  0.51100000000E-03 0. -1.
         11   -1    0    0    0    0 -0.00000000000E+00 -0.00000000000E+00 -0.45593999997E+02  0.45594000000E+02  0.51100000000E-03 0.  1.
    9900012    2    1    2    0    0  0.41501077012E+01 -0.35335844493E+02 -0.19680675426E+02  0.50528754001E+02  0.29999678261E+02 0.  0.
         12    1    1    2    0    0 -0.41501077012E+01  0.35335844493E+02  0.19680675426E+02  0.40659245999E+02  0.00000000000E+00 0. -1.
         11    1    3    3    0    0 -0.31040007273E+01 -0.50342398143E+01  0.52078929693E+01  0.78803896137E+01  0.51100000000E-03 0. -1.
        -11    1    3    3    0    0  0.10625279554E+02 -0.17046846342E+02 -0.10024645175E+02  0.22449611287E+02  0.51100000000E-03 0.  1.
         12    1    3    3    0    0 -0.33711711252E+01 -0.13254758337E+02 -0.14863923220E+02  0.20198753101E+02  0.00000000000E+00 0. -1.
</event>
<event>
 7    1  0.9953837E-014  0.5052886E+02  0.7816164E-02  0.1300439E+00
        -11   -1    0    0    0    0  0.00000000000E+00  0.00000000000E+00  0.45593999997E+02  0.45594000000E+02  0.51100000000E-03 0. -1.
         11   -1    0    0    0    0 -0.00000000000E+00 -0.00000000000E+00 -0.45593999997E+02  0.45594000000E+02  0.51100000000E-03 0.  1.
    9900012    2    1    2    0    0 -0.26419535472E+02  0.65662477844E+01 -0.30200307596E+02  0.50528855353E+02  0.29999986330E+02 0.  0.
         12    1    1    2    0    0  0.26419535472E+02 -0.65662477844E+01  0.30200307596E+02  0.40659144647E+02  0.00000000000E+00 0. -1.
         11    1    3    3    0    0 -0.14088727589E+02  0.14848232203E+01  0.31487577443E+01  0.14512464321E+02  0.51100000000E-03 0. -1.
        -11    1    3    3    0    0 -0.44604331891E+01  0.27187641939E+01 -0.15744202232E+02  0.16588159848E+02  0.51100000000E-03 0.  1.
        -12    1    3    3    0    0 -0.78703746944E+01  0.23626603702E+01 -0.17604863109E+02  0.19428231184E+02  0.00000000000E+00 0.  1.
</event>
<event>
 7    1  0.9953837E-014  0.5052886E+02  0.7816164E-02  0.1300439E+00
        -11   -1    0    0    0    0  0.00000000000E+00  0.00000000000E+00  0.45593999997E+02  0.45594000000E+02  0.51100000000E-03 0. -1.
         11   -1    0    0    0    0 -0.00000000000E+00 -0.00000000000E+00 -0.45593999997E+02  0.45594000000E+02  0.51100000000E-03 0.  1.
    9900012    2    1    2    0    0  0.71750740859E+01 -0.23571881147E+02 -0.32342701267E+02  0.50528860877E+02  0.30000003123E+02 0.  0.
         12    1    1    2    0    0 -0.71750740859E+01  0.23571881147E+02  0.32342701267E+02  0.40659139123E+02  0.00000000000E+00 0. -1.
         11    1    3    3    0    0  0.84375005203E+01 -0.54984610944E+01 -0.15205300617E+01  0.10185111750E+02  0.51100000000E-03 0. -1.
        -11    1    3    3    0    0 -0.25729473766E+01 -0.19048576633E+02 -0.32652786083E+02  0.37890272751E+02  0.51100000000E-03 0.  1.
        -12    1    3    3    0    0  0.13105209422E+01  0.97515657975E+00  0.18306148779E+01  0.24534763757E+01  0.00000000000E+00 0.  1.
</event>
<event>
 7    1  0.9953837E-014  0.5052886E+02  0.7816164E-02  0.1300439E+00
        -11   -1    0    0    0    0  0.00000000000E+00  0.00000000000E+00  0.45593999997E+02  0.45594000000E+02  0.51100000000E-03 0. -1.
         11   -1    0    0    0    0 -0.00000000000E+00 -0.00000000000E+00 -0.45593999997E+02  0.45594000000E+02  0.51100000000E-03 0.  1.
    9900012    2    1    2    0    0 -0.12185356519E+02  0.14677835259E+02 -0.35906040623E+02  0.50528861856E+02  0.30000006099E+02 0.  0.
         12    1    1    2    0    0  0.12185356519E+02 -0.14677835259E+02  0.35906040623E+02  0.40659138144E+02  0.00000000000E+00 0. -1.
         11    1    3    3    0    0  0.31267703681E+01 -0.59730904858E+01 -0.39469129043E+01  0.78123379742E+01  0.51100000000E-03 0. -1.
        -11    1    3    3    0    0 -0.89473136898E+01  0.20042447335E+02 -0.24794875587E+02  0.33114044951E+02  0.51100000000E-03 0.  1.
         12    1    3    3    0    0 -0.63648131972E+01  0.60847841025E+00 -0.71642521317E+01  0.96024789308E+01  0.00000000000E+00 0. -1.
</event>
<event>
 7    1  0.9953837E-014  0.5052887E+02  0.7816164E-02  0.1300439E+00
        -11   -1    0    0    0    0  0.00000000000E+00  0.00000000000E+00  0.45593999997E+02  0.45594000000E+02  0.51100000000E-03 0.  1.
         11   -1    0    0    0    0 -0.00000000000E+00 -0.00000000000E+00 -0.45593999997E+02  0.45594000000E+02  0.51100000000E-03 0. -1.
    9900012    2    1    2    0    0 -0.79803656898E+01 -0.39868172259E+02  0.88178186342E-01  0.50528866079E+02  0.30000018934E+02 0.  0.
         12    1    1    2    0    0  0.79803656898E+01  0.39868172259E+02 -0.88178186342E-01  0.40659133921E+02  0.00000000000E+00 0. -1.
         11    1    3    3    0    0 -0.14427947009E+02 -0.31021069629E+02  0.45650066697E+01  0.34515383555E+02  0.51100000000E-03 0.  1.
        -11    1    3    3    0    0  0.26333617718E+01 -0.65792853556E+01 -0.77483430558E+01  0.10500400487E+02  0.51100000000E-03 0. -1.
        -12    1    3    3    0    0  0.38142195475E+01 -0.22678172745E+01  0.32715145725E+01  0.55130820368E+01  0.00000000000E+00 0.  1.
</event>
<event>
 7    1  0.9953837E-014  0.5052885E+02  0.7816164E-02  0.1300439E+00
        -11   -1    0    0    0    0  0.00000000000E+00  0.00000000000E+00  0.45593999997E+02  0.45594000000E+02  0.51100000000E-03 0. -1.
         11   -1    0    0    0    0 -0.00000000000E+00 -0.00000000000E+00 -0.45593999997E+02  0.45594000000E+02  0.51100000000E-03 0.  1.
    9900012    2    1    2    0    0 -0.28176590281E+02 -0.49256420948E+01  0.28896099304E+02  0.50528846727E+02  0.29999960111E+02 0.  0.
        -12    1    1    2    0    0  0.28176590281E+02  0.49256420948E+01 -0.28896099304E+02  0.40659153273E+02  0.00000000000E+00 0.  1.
         11    1    3    3    0    0 -0.36805627498E+01  0.45951906041E+01  0.21516239923E+02  0.22307193897E+02  0.51100000000E-03 0. -1.
        -11    1    3    3    0    0 -0.76100852657E+01 -0.66330005362E+01  0.23079809265E+01  0.10355523651E+02  0.51100000000E-03 0.  1.
         12    1    3    3    0    0 -0.16885942266E+02 -0.28878321628E+01  0.50718784536E+01  0.17866129179E+02  0.00000000000E+00 0. -1.
</event>
<event>
 7    1  0.9953837E-014  0.5052887E+02  0.7816164E-02  0.1300439E+00
        -11   -1    0    0    0    0  0.00000000000E+00  0.00000000000E+00  0.45593999997E+02  0.45594000000E+02  0.51100000000E-03 0. -1.
         11   -1    0    0    0    0 -0.00000000000E+00 -0.00000000000E+00 -0.45593999997E+02  0.45594000000E+02  0.51100000000E-03 0.  1.
    9900012    2    1    2    0    0  0.62296981832E+01  0.22471832411E+02  0.33307245860E+02  0.50528867961E+02  0.30000024656E+02 0.  0.
        -12    1    1    2    0    0 -0.62296981832E+01 -0.22471832411E+02 -0.33307245860E+02  0.40659132039E+02  0.00000000000E+00 0.  1.
         11    1    3    3    0    0 -0.75774238124E+01  0.91099056687E+01  0.58653179774E+01  0.13221561487E+02  0.51100000000E-03 0. -1.
        -11    1    3    3    0    0  0.75412767855E+01 -0.22328130486E+01  0.12769886514E+02  0.14997543516E+02  0.51100000000E-03 0.  1.
         12    1    3    3    0    0  0.62658452101E+01  0.15594739791E+02  0.14672041368E+02  0.22309762959E+02  0.00000000000E+00 0. -1.
</event>
<event>
 7    1  0.9953837E-014  0.5052886E+02  0.7816164E-02  0.1300439E+00
        -11   -1    0    0    0    0  0.00000000000E+00  0.00000000000E+00  0.45593999997E+02  0.45594000000E+02  0.51100000000E-03 0. -1.
         11   -1    0    0    0    0 -0.00000000000E+00 -0.00000000000E+00 -0.45593999997E+02  0.45594000000E+02  0.51100000000E-03 0.  1.
    9900012    2    1    2    0    0 -0.29267964569E+02 -0.26438273821E+02 -0.98777356657E+01  0.50528859152E+02  0.29999997877E+02 0.  0.
         12    1    1    2    0    0  0.29267964569E+02  0.26438273821E+02  0.98777356657E+01  0.40659140848E+02  0.00000000000E+00 0. -1.
         11    1    3    3    0    0 -0.13899778082E+02  0.61237652865E+00 -0.18997902161E+01  0.14042365857E+02  0.51100000000E-03 0. -1.
        -11    1    3    3    0    0 -0.34282818244E+01 -0.21253126655E+02 -0.11458496970E+01  0.21558327409E+02  0.51100000000E-03 0.  1.
        -12    1    3    3    0    0 -0.11939904662E+02 -0.57975236951E+01 -0.68320957526E+01  0.14928165886E+02  0.00000000000E+00 0.  1.
</event>
<event>
 7    1  0.9953837E-014  0.5052886E+02  0.7816164E-02  0.1300439E+00
        -11   -1    0    0    0    0  0.00000000000E+00  0.00000000000E+00  0.45593999997E+02  0.45594000000E+02  0.51100000000E-03 0. -1.
         11   -1    0    0    0    0 -0.00000000000E+00 -0.00000000000E+00 -0.45593999997E+02  0.45594000000E+02  0.51100000000E-03 0.  1.
    9900012    2    1    2    0    0  0.91498578240E+01 -0.21814640280E+02  0.33069129729E+02  0.50528858718E+02  0.29999996561E+02 0.  0.
        -12    1    1    2    0    0 -0.91498578240E+01  0.21814640280E+02 -0.33069129729E+02  0.40659141282E+02  0.00000000000E+00 0.  1.
         11    1    3    3    0    0  0.27405733830E+01 -0.31185817414E+01  0.24294764149E+01  0.48102651130E+01  0.51100000000E-03 0.  1.
        -11    1    3    3    0    0  0.78764278778E+01 -0.14221904502E+02  0.35442165649E+02  0.38992919741E+02  0.51100000000E-03 0. -1.
        -12    1    3    3    0    0 -0.14671434369E+01 -0.44741540361E+01 -0.48025123350E+01  0.67256738644E+01  0.00000000000E+00 0.  1.
</event>
<event>
 7    1  0.9953837E-014  0.5052889E+02  0.7816164E-02  0.1300439E+00
        -11   -1    0    0    0    0  0.00000000000E+00  0.00000000000E+00  0.45593999997E+02  0.45594000000E+02  0.51100000000E-03 0. -1.
         11   -1    0    0    0    0 -0.00000000000E+00 -0.00000000000E+00 -0.45593999997E+02  0.45594000000E+02  0.51100000000E-03 0.  1.
    9900012    2    1    2    0    0 -0.15001275272E+02  0.14091509728E+02 -0.35065002823E+02  0.50528888732E+02  0.30000087788E+02 0.  0.
         12    1    1    2    0    0  0.15001275272E+02 -0.14091509728E+02  0.35065002823E+02  0.40659111268E+02  0.00000000000E+00 0. -1.
         11    1    3    3    0    0 -0.36937504308E+01 -0.37523058179E+00 -0.24803713704E+02  0.25080047927E+02  0.51100000000E-03 0. -1.
        -11    1    3    3    0    0 -0.10623492925E+02  0.98961621108E+01 -0.13484201869E+02  0.19814548361E+02  0.51100000000E-03 0.  1.
         12    1    3    3    0    0 -0.68403191624E+00  0.45705781988E+01  0.32229127511E+01  0.56342924432E+01  0.00000000000E+00 0. -1.
</event>
<event>
 7    1  0.9953837E-014  0.5052886E+02  0.7816164E-02  0.1300439E+00
        -11   -1    0    0    0    0  0.00000000000E+00  0.00000000000E+00  0.45593999997E+02  0.45594000000E+02  0.51100000000E-03 0. -1.
         11   -1    0    0    0    0 -0.00000000000E+00 -0.00000000000E+00 -0.45593999997E+02  0.45594000000E+02  0.51100000000E-03 0.  1.
    9900012    2    1    2    0    0 -0.20154264984E+02 -0.60601813256E+01 -0.34788586179E+02  0.50528856833E+02  0.29999990830E+02 0.  0.
         12    1    1    2    0    0  0.20154264984E+02  0.60601813256E+01  0.34788586179E+02  0.40659143167E+02  0.00000000000E+00 0. -1.
         11    1    3    3    0    0 -0.20588994391E+02 -0.13225166245E+02 -0.28067296135E+02  0.37236874531E+02  0.51100000000E-03 0. -1.
        -11    1    3    3    0    0 -0.11445010359E+01  0.82934376982E+01 -0.74616541083E+01  0.11214600919E+02  0.51100000000E-03 0.  1.
         12    1    3    3    0    0  0.15792304423E+01 -0.11284527789E+01  0.74036406462E+00  0.20773813834E+01  0.00000000000E+00 0. -1.
</event>
<event>
 7    1  0.9953837E-014  0.5052885E+02  0.7816164E-02  0.1300439E+00
        -11   -1    0    0    0    0  0.00000000000E+00  0.00000000000E+00  0.45593999997E+02  0.45594000000E+02  0.51100000000E-03 0. -1.
         11   -1    0    0    0    0 -0.00000000000E+00 -0.00000000000E+00 -0.45593999997E+02  0.45594000000E+02  0.51100000000E-03 0.  1.
    9900012    2    1    2    0    0  0.22513965579E+02 -0.17150362277E+02 -0.29191651878E+02  0.50528854513E+02  0.29999983779E+02 0.  0.
         12    1    1    2    0    0 -0.22513965579E+02  0.17150362277E+02  0.29191651878E+02  0.40659145487E+02  0.00000000000E+00 0. -1.
         11    1    3    3    0    0  0.68972321126E+01  0.14268611961E+00  0.22479555795E+01  0.72557201360E+01  0.51100000000E-03 0. -1.
        -11    1    3    3    0    0 -0.87545390357E+00 -0.12493189610E+02 -0.14281299912E+02  0.18994781747E+02  0.51100000000E-03 0.  1.
        -12    1    3    3    0    0  0.16492187370E+02 -0.47998587866E+01 -0.17158307546E+02  0.24278352630E+02  0.00000000000E+00 0.  1.
</event>
<event>
 7    1  0.9953837E-014  0.5052886E+02  0.7816164E-02  0.1300439E+00
        -11   -1    0    0    0    0  0.00000000000E+00  0.00000000000E+00  0.45593999997E+02  0.45594000000E+02  0.51100000000E-03 0. -1.
         11   -1    0    0    0    0 -0.00000000000E+00 -0.00000000000E+00 -0.45593999997E+02  0.45594000000E+02  0.51100000000E-03 0.  1.
    9900012    2    1    2    0    0 -0.22815530753E+02  0.14223620066E+02 -0.30500914415E+02  0.50528860911E+02  0.30000003224E+02 0.  0.
         12    1    1    2    0    0  0.22815530753E+02 -0.14223620066E+02  0.30500914415E+02  0.40659139089E+02  0.00000000000E+00 0. -1.
         11    1    3    3    0    0 -0.17763335752E+02  0.20012424457E+02 -0.12991981111E+02  0.29746004826E+02  0.51100000000E-03 0. -1.
        -11    1    3    3    0    0 -0.42297234181E+01 -0.75904191465E+01 -0.16275069285E+02  0.18449468922E+02  0.51100000000E-03 0.  1.
        -12    1    3    3    0    0 -0.82247158327E+00  0.18016147556E+01 -0.12338640190E+01  0.23333871625E+01  0.00000000000E+00 0.  1.
</event>
<event>
 7    1  0.9953837E-014  0.5052886E+02  0.7816164E-02  0.1300439E+00
        -11   -1    0    0    0    0  0.00000000000E+00  0.00000000000E+00  0.45593999997E+02  0.45594000000E+02  0.51100000000E-03 0. -1.
         11   -1    0    0    0    0 -0.00000000000E+00 -0.00000000000E+00 -0.45593999997E+02  0.45594000000E+02  0.51100000000E-03 0.  1.
    9900012    2    1    2    0    0 -0.22141904136E+02  0.49615796128E+01 -0.33738475591E+02  0.50528856794E+02  0.29999990712E+02 0.  0.
         12    1    1    2    0    0  0.22141904136E+02 -0.49615796128E+01  0.33738475591E+02  0.40659143206E+02  0.00000000000E+00 0. -1.
         11    1    3    3    0    0 -0.15626392485E+02  0.59479801547E+01 -0.13829997206E+01  0.16777225590E+02  0.51100000000E-03 0. -1.
        -11    1    3    3    0    0 -0.23942126139E+01 -0.28670568216E+01 -0.23598515014E+02  0.23892303781E+02  0.51100000000E-03 0.  1.
         12    1    3    3    0    0 -0.41212990372E+01  0.18806562797E+01 -0.87569608562E+01  0.98593274230E+01  0.00000000000E+00 0. -1.
</event>
<event>
 7    1  0.9953837E-014  0.5052887E+02  0.7816164E-02  0.1300439E+00
        -11   -1    0    0    0    0  0.00000000000E+00  0.00000000000E+00  0.45593999997E+02  0.45594000000E+02  0.51100000000E-03 0.  1.
         11   -1    0    0    0    0 -0.00000000000E+00 -0.00000000000E+00 -0.45593999997E+02  0.45594000000E+02  0.51100000000E-03 0. -1.
    9900012    2    1    2    0    0 -0.32267712778E+02  0.84358959572E+01  0.23255008915E+02  0.50528867347E+02  0.30000022787E+02 0.  0.
        -12    1    1    2    0    0  0.32267712778E+02 -0.84358959572E+01 -0.23255008915E+02  0.40659132653E+02  0.00000000000E+00 0.  1.
         11    1    3    3    0    0 -0.10782582792E+02  0.43840953232E+01 -0.36017984990E+01  0.12184306962E+02  0.51100000000E-03 0. -1.
        -11    1    3    3    0    0 -0.14384718540E+02  0.84530624443E+01  0.24541284545E+02  0.29675731491E+02  0.51100000000E-03 0.  1.
         12    1    3    3    0    0 -0.71004114454E+01 -0.44012618103E+01  0.23155228689E+01  0.86688288929E+01  0.00000000000E+00 0. -1.
</event>
<event>
 7    1  0.9953837E-014  0.5052886E+02  0.7816164E-02  0.1300439E+00
        -11   -1    0    0    0    0  0.00000000000E+00  0.00000000000E+00  0.45593999997E+02  0.45594000000E+02  0.51100000000E-03 0. -1.
         11   -1    0    0    0    0 -0.00000000000E+00 -0.00000000000E+00 -0.45593999997E+02  0.45594000000E+02  0.51100000000E-03 0.  1.
    9900012    2    1    2    0    0 -0.11095148749E+02  0.17873975546E+02  0.34793457040E+02  0.50528856128E+02  0.29999988687E+02 0.  0.
        -12    1    1    2    0    0  0.11095148749E+02 -0.17873975546E+02 -0.34793457040E+02  0.40659143872E+02  0.00000000000E+00 0.  1.
         11    1    3    3    0    0 -0.28957269860E+01  0.20999592559E+02  0.11446929857E+02  0.24091499037E+02  0.51100000000E-03 0. -1.
        -11    1    3    3    0    0 -0.39136239668E+01 -0.50941391833E+01  0.73575354472E+01  0.97672941335E+01  0.51100000000E-03 0.  1.
        -12    1    3    3    0    0 -0.42857977963E+01  0.19685221699E+01  0.15988991736E+02  0.16670062958E+02  0.00000000000E+00 0.  1.
</event>
<event>
 7    1  0.9953837E-014  0.5052886E+02  0.7816164E-02  0.1300439E+00
        -11   -1    0    0    0    0  0.00000000000E+00  0.00000000000E+00  0.45593999997E+02  0.45594000000E+02  0.51100000000E-03 0. -1.
         11   -1    0    0    0    0 -0.00000000000E+00 -0.00000000000E+00 -0.45593999997E+02  0.45594000000E+02  0.51100000000E-03 0.  1.
    9900012    2    1    2    0    0  0.19135890349E+02  0.12150621632E+02 -0.33754195341E+02  0.50528860700E+02  0.30000002585E+02 0.  0.
         12    1    1    2    0    0 -0.19135890349E+02 -0.12150621632E+02  0.33754195341E+02  0.40659139300E+02  0.00000000000E+00 0. -1.
         11    1    3    3    0    0 -0.16498529415E+01  0.23217213039E+01 -0.19648682717E+02  0.19854045867E+02  0.51100000000E-03 0. -1.
        -11    1    3    3    0    0  0.22295350259E+02  0.61442433424E+01 -0.10917531979E+02  0.25573949132E+02  0.51100000000E-03 0.  1.
         12    1    3    3    0    0 -0.15096069694E+01  0.36846569860E+01 -0.31879806445E+01  0.51008657007E+01  0.00000000000E+00 0. -1.
</event>
<event>
 7    1  0.9953837E-014  0.5052886E+02  0.7816164E-02  0.1300439E+00
        -11   -1    0    0    0    0  0.00000000000E+00  0.00000000000E+00  0.45593999997E+02  0.45594000000E+02  0.51100000000E-03 0. -1.
         11   -1    0    0    0    0 -0.00000000000E+00 -0.00000000000E+00 -0.45593999997E+02  0.45594000000E+02  0.51100000000E-03 0.  1.
    9900012    2    1    2    0    0  0.69351082098E+01 -0.27087435821E+02 -0.29518486210E+02  0.50528856706E+02  0.29999990444E+02 0.  0.
         12    1    1    2    0    0 -0.69351082098E+01  0.27087435821E+02  0.29518486210E+02  0.40659143294E+02  0.00000000000E+00 0. -1.
         11    1    3    3    0    0  0.48872144308E+01 -0.30339101513E+02 -0.30929811721E+02  0.43600449526E+02  0.51100000000E-03 0. -1.
        -11    1    3    3    0    0 -0.55904002076E+00  0.32629999895E+01 -0.91472603890E+00  0.34345914842E+01  0.51100000000E-03 0.  1.
         12    1    3    3    0    0  0.26069337998E+01 -0.11334297449E-01  0.23260515499E+01  0.34938156957E+01  0.00000000000E+00 0. -1.
</event>
<event>
 7    1  0.9953837E-014  0.5052886E+02  0.7816164E-02  0.1300439E+00
        -11   -1    0    0    0    0  0.00000000000E+00  0.00000000000E+00  0.45593999997E+02  0.45594000000E+02  0.51100000000E-03 0. -1.
         11   -1    0    0    0    0 -0.00000000000E+00 -0.00000000000E+00 -0.45593999997E+02  0.45594000000E+02  0.51100000000E-03 0.  1.
    9900012    2    1    2    0    0 -0.16329274244E+02  0.16141121123E+02  0.33555696914E+02  0.50528858545E+02  0.29999996035E+02 0.  0.
        -12    1    1    2    0    0  0.16329274244E+02 -0.16141121123E+02 -0.33555696914E+02  0.40659141455E+02  0.00000000000E+00 0.  1.
         11    1    3    3    0    0  0.28894340360E+01 -0.43044355687E+01  0.15820307530E+02  0.16648096744E+02  0.51100000000E-03 0. -1.
        -11    1    3    3    0    0 -0.60911810663E+01  0.58668734734E+01  0.18971745463E+01  0.86672926947E+01  0.51100000000E-03 0.  1.
         12    1    3    3    0    0 -0.13127527214E+02  0.14578683219E+02  0.15838214837E+02  0.25213469106E+02  0.00000000000E+00 0. -1.
</event>
<event>
 7    1  0.9953837E-014  0.5052891E+02  0.7816164E-02  0.1300439E+00
        -11   -1    0    0    0    0  0.00000000000E+00  0.00000000000E+00  0.45593999997E+02  0.45594000000E+02  0.51100000000E-03 0. -1.
         11   -1    0    0    0    0 -0.00000000000E+00 -0.00000000000E+00 -0.45593999997E+02  0.45594000000E+02  0.51100000000E-03 0.  1.
    9900012    2    1    2    0    0 -0.46677884648E+01 -0.17204039786E+02  0.36543045623E+02  0.50528912240E+02  0.30000159243E+02 0.  0.
        -12    1    1    2    0    0  0.46677884648E+01  0.17204039786E+02 -0.36543045623E+02  0.40659087760E+02  0.00000000000E+00 0.  1.
         11    1    3    3    0    0 -0.42730863547E+01 -0.15839758759E+02  0.13563789879E+02  0.21286935446E+02  0.51100000000E-03 0. -1.
        -11    1    3    3    0    0 -0.55028746859E+01  0.55982449702E+01  0.17040167124E+02  0.18761377147E+02  0.51100000000E-03 0.  1.
        -12    1    3    3    0    0  0.51081725757E+01 -0.69625259975E+01  0.59390886198E+01  0.10480599647E+02  0.00000000000E+00 0.  1.
</event>
<event>
 7    1  0.9953837E-014  0.5052886E+02  0.7816164E-02  0.1300439E+00
        -11   -1    0    0    0    0  0.00000000000E+00  0.00000000000E+00  0.45593999997E+02  0.45594000000E+02  0.51100000000E-03 0. -1.
         11   -1    0    0    0    0 -0.00000000000E+00 -0.00000000000E+00 -0.45593999997E+02  0.45594000000E+02  0.51100000000E-03 0.  1.
    9900012    2    1    2    0    0  0.64368341605E+01  0.50660386336E+01 -0.39825468852E+02  0.50528861412E+02  0.30000004747E+02 0.  0.
         12    1    1    2    0    0 -0.64368341605E+01 -0.50660386336E+01  0.39825468852E+02  0.40659138588E+02  0.00000000000E+00 0. -1.
         11    1    3    3    0    0 -0.25813972998E+01  0.32400543423E+01 -0.57640397319E+01  0.70982898259E+01  0.51100000000E-03 0. -1.
        -11    1    3    3    0    0  0.14413419189E+02 -0.73063806141E+01 -0.18075036997E+02  0.24245346215E+02  0.51100000000E-03 0.  1.
        -12    1    3    3    0    0 -0.53951877286E+01  0.91323649053E+01 -0.15986392123E+02  0.19185225370E+02  0.00000000000E+00 0.  1.
</event>
<event>
 7    1  0.9953837E-014  0.5052886E+02  0.7816164E-02  0.1300439E+00
        -11   -1    0    0    0    0  0.00000000000E+00  0.00000000000E+00  0.45593999997E+02  0.45594000000E+02  0.51100000000E-03 0. -1.
         11   -1    0    0    0    0 -0.00000000000E+00 -0.00000000000E+00 -0.45593999997E+02  0.45594000000E+02  0.51100000000E-03 0.  1.
    9900012    2    1    2    0    0  0.23956557257E+02 -0.28953518286E+02  0.15522327557E+02  0.50528861919E+02  0.30000006288E+02 0.  0.
        -12    1    1    2    0    0 -0.23956557257E+02  0.28953518286E+02 -0.15522327557E+02  0.40659138081E+02  0.00000000000E+00 0.  1.
         11    1    3    3    0    0  0.12654665997E+02 -0.87704908891E+01  0.49641925034E+00  0.15404821137E+02  0.51100000000E-03 0. -1.
        -11    1    3    3    0    0 -0.54205669236E+01  0.90444325921E-01  0.18704411245E+01  0.57349172802E+01  0.51100000000E-03 0.  1.
        -12    1    3    3    0    0  0.16722458184E+02 -0.20273471722E+02  0.13155467182E+02  0.29389123501E+02  0.00000000000E+00 0.  1.
</event>
<event>
 7    1  0.9953837E-014  0.5052886E+02  0.7816164E-02  0.1300439E+00
        -11   -1    0    0    0    0  0.00000000000E+00  0.00000000000E+00  0.45593999997E+02  0.45594000000E+02  0.51100000000E-03 0. -1.
         11   -1    0    0    0    0 -0.00000000000E+00 -0.00000000000E+00 -0.45593999997E+02  0.45594000000E+02  0.51100000000E-03 0.  1.
    9900012    2    1    2    0    0  0.31905904448E+02  0.73347356038E+01  0.24111832809E+02  0.50528861218E+02  0.30000004159E+02 0.  0.
        -12    1    1    2    0    0 -0.31905904448E+02 -0.73347356038E+01 -0.24111832809E+02  0.40659138782E+02  0.00000000000E+00 0.  1.
         11    1    3    3    0    0  0.18342391794E+02 -0.10054706494E+02  0.10135923881E+02  0.23243868279E+02  0.51100000000E-03 0. -1.
        -11    1    3    3    0    0 -0.66121350720E+00  0.20957438675E+01  0.81192069188E-01  0.21990766411E+01  0.51100000000E-03 0.  1.
         12    1    3    3    0    0  0.14224726162E+02  0.15293698230E+02  0.13894716859E+02  0.25085916298E+02  0.00000000000E+00 0. -1.
</event>
<event>
 7    1  0.9953837E-014  0.5052887E+02  0.7816164E-02  0.1300439E+00
        -11   -1    0    0    0    0  0.00000000000E+00  0.00000000000E+00  0.45593999997E+02  0.45594000000E+02  0.51100000000E-03 0. -1.
         11   -1    0    0    0    0 -0.00000000000E+00 -0.00000000000E+00 -0.45593999997E+02  0.45594000000E+02  0.51100000000E-03 0.  1.
    9900012    2    1    2    0    0  0.49762195057E+01  0.23808350425E+02 -0.32581661307E+02  0.50528868626E+02  0.30000026676E+02 0.  0.
         12    1    1    2    0    0 -0.49762195057E+01 -0.23808350425E+02  0.32581661307E+02  0.40659131374E+02  0.00000000000E+00 0. -1.
         11    1    3    3    0    0 -0.65290236536E+00  0.20337196936E+02 -0.95055749464E+01  0.22458490957E+02  0.51100000000E-03 0. -1.
        -11    1    3    3    0    0 -0.26824219388E+01  0.36323445534E+01 -0.17468771592E+02  0.18042929241E+02  0.51100000000E-03 0.  1.
         12    1    3    3    0    0  0.83115438099E+01 -0.16119106432E+00 -0.56073147689E+01  0.10027448428E+02  0.00000000000E+00 0. -1.
</event>
<event>
 7    1  0.9953837E-014  0.5052886E+02  0.7816164E-02  0.1300439E+00
        -11   -1    0    0    0    0  0.00000000000E+00  0.00000000000E+00  0.45593999997E+02  0.45594000000E+02  0.51100000000E-03 0. -1.
         11   -1    0    0    0    0 -0.00000000000E+00 -0.00000000000E+00 -0.45593999997E+02  0.45594000000E+02  0.51100000000E-03 0.  1.
    9900012    2    1    2    0    0 -0.95465310901E+01 -0.13354756205E+02 -0.37197843993E+02  0.50528863673E+02  0.30000011620E+02 0.  0.
         12    1    1    2    0    0  0.95465310901E+01  0.13354756205E+02  0.37197843993E+02  0.40659136327E+02  0.00000000000E+00 0. -1.
         11    1    3    3    0    0 -0.99903716181E+01 -0.41328281319E+01 -0.59323958353E+01  0.12332117176E+02  0.51100000000E-03 0. -1.
        -11    1    3    3    0    0  0.43040099461E+01  0.47734818585E+01 -0.15420742978E+02  0.16706583880E+02  0.51100000000E-03 0.  1.
        -12    1    3    3    0    0 -0.38601694181E+01 -0.13995409931E+02 -0.15844705179E+02  0.21490162617E+02  0.00000000000E+00 0.  1.
</event>
<event>
 7    1  0.9953837E-014  0.5052886E+02  0.7816164E-02  0.1300439E+00
        -11   -1    0    0    0    0  0.00000000000E+00  0.00000000000E+00  0.45593999997E+02  0.45594000000E+02  0.51100000000E-03 0. -1.
         11   -1    0    0    0    0 -0.00000000000E+00 -0.00000000000E+00 -0.45593999997E+02  0.45594000000E+02  0.51100000000E-03 0.  1.
    9900012    2    1    2    0    0  0.23157457041E+02 -0.24483945966E+02 -0.22747183393E+02  0.50528858605E+02  0.29999996216E+02 0.  0.
         12    1    1    2    0    0 -0.23157457041E+02  0.24483945966E+02  0.22747183393E+02  0.40659141395E+02  0.00000000000E+00 0. -1.
         11    1    3    3    0    0  0.86688415672E+00 -0.13929085243E+01  0.40876477520E+01  0.44046051700E+01  0.51100000000E-03 0. -1.
        -11    1    3    3    0    0  0.17735500823E+02 -0.26446534238E+02 -0.23231986614E+02  0.39416904558E+02  0.51100000000E-03 0.  1.
         12    1    3    3    0    0  0.45550720615E+01  0.33554967967E+01 -0.36028445307E+01  0.67073488765E+01  0.00000000000E+00 0. -1.
</event>
<event>
 7    1  0.9953837E-014  0.5052887E+02  0.7816164E-02  0.1300439E+00
        -11   -1    0    0    0    0  0.00000000000E+00  0.00000000000E+00  0.45593999997E+02  0.45594000000E+02  0.51100000000E-03 0. -1.
         11   -1    0    0    0    0 -0.00000000000E+00 -0.00000000000E+00 -0.45593999997E+02  0.45594000000E+02  0.51100000000E-03 0.  1.
    9900012    2    1    2    0    0 -0.17113905287E+02  0.36881084893E+02  0.25510931444E+00  0.50528865014E+02  0.30000015696E+02 0.  0.
         12    1    1    2    0    0  0.17113905287E+02 -0.36881084893E+02 -0.25510931444E+00  0.40659134986E+02  0.00000000000E+00 0. -1.
         11    1    3    3    0    0 -0.92101354801E+01 -0.25519052099E+00 -0.51031392569E+00  0.92277916278E+01  0.51100000000E-03 0. -1.
        -11    1    3    3    0    0 -0.24428077043E+01  0.31353887105E+02 -0.44904200665E+01  0.31767867707E+02  0.51100000000E-03 0.  1.
        -12    1    3    3    0    0 -0.54609621030E+01  0.57823883092E+01  0.52558433066E+01  0.95332056787E+01  0.00000000000E+00 0.  1.
</event>
<event>
 7    1  0.9953837E-014  0.5052886E+02  0.7816164E-02  0.1300439E+00
        -11   -1    0    0    0    0  0.00000000000E+00  0.00000000000E+00  0.45593999997E+02  0.45594000000E+02  0.51100000000E-03 0. -1.
         11   -1    0    0    0    0 -0.00000000000E+00 -0.00000000000E+00 -0.45593999997E+02  0.45594000000E+02  0.51100000000E-03 0.  1.
    9900012    2    1    2    0    0  0.34685064418E+01  0.67417720326E+01 -0.39946004591E+02  0.50528864374E+02  0.30000013751E+02 0.  0.
         12    1    1    2    0    0 -0.34685064418E+01 -0.67417720326E+01  0.39946004591E+02  0.40659135626E+02  0.00000000000E+00 0. -1.
         11    1    3    3    0    0  0.16242330260E+00 -0.74090160449E+01 -0.14058189021E+02  0.15891902935E+02  0.51100000000E-03 0. -1.
        -11    1    3    3    0    0 -0.35879878234E+00  0.17194684634E+02 -0.23969297977E+02  0.29501070523E+02  0.51100000000E-03 0.  1.
         12    1    3    3    0    0  0.36648819215E+01 -0.30438965562E+01 -0.19185175924E+01  0.51358909155E+01  0.00000000000E+00 0. -1.
</event>
<event>
 7    1  0.9953837E-014  0.5052886E+02  0.7816164E-02  0.1300439E+00
        -11   -1    0    0    0    0  0.00000000000E+00  0.00000000000E+00  0.45593999997E+02  0.45594000000E+02  0.51100000000E-03 0. -1.
         11   -1    0    0    0    0 -0.00000000000E+00 -0.00000000000E+00 -0.45593999997E+02  0.45594000000E+02  0.51100000000E-03 0.  1.
    9900012    2    1    2    0    0  0.12318754204E+02  0.64415548636E+01  0.38208905519E+02  0.50528858405E+02  0.29999995609E+02 0.  0.
        -12    1    1    2    0    0 -0.12318754204E+02 -0.64415548636E+01 -0.38208905519E+02  0.40659141595E+02  0.00000000000E+00 0.  1.
         11    1    3    3    0    0 -0.36460681895E+01  0.79935731129E+01  0.36509235564E+01  0.95142139680E+01  0.51100000000E-03 0. -1.
        -11    1    3    3    0    0  0.14066940559E+02 -0.73651710673E+01  0.23170038408E+02  0.28088703096E+02  0.51100000000E-03 0.  1.
         12    1    3    3    0    0  0.18978818352E+01  0.58131528180E+01  0.11387943555E+02  0.12925941341E+02  0.00000000000E+00 0. -1.
</event>
<event>
 7    1  0.9953837E-014  0.5052886E+02  0.7816164E-02  0.1300439E+00
        -11   -1    0    0    0    0  0.00000000000E+00  0.00000000000E+00  0.45593999997E+02  0.45594000000E+02  0.51100000000E-03 0. -1.
         11   -1    0    0    0    0 -0.00000000000E+00 -0.00000000000E+00 -0.45593999997E+02  0.45594000000E+02  0.51100000000E-03 0.  1.
    9900012    2    1    2    0    0  0.68907881539E+01 -0.21121262221E+02 -0.34052535556E+02  0.50528857645E+02  0.29999993299E+02 0.  0.
         12    1    1    2    0    0 -0.68907881539E+01  0.21121262221E+02  0.34052535556E+02  0.40659142355E+02  0.00000000000E+00 0. -1.
         11    1    3    3    0    0  0.71326582658E+01 -0.95675446932E+01 -0.22047924041E+02  0.25070374552E+02  0.51100000000E-03 0. -1.
        -11    1    3    3    0    0 -0.37735424880E+00 -0.15068298765E+02 -0.24419982825E+01  0.15269557288E+02  0.51100000000E-03 0.  1.
        -12    1    3    3    0    0  0.13548413693E+00  0.35145812374E+01 -0.95626132332E+01  0.10188925806E+02  0.00000000000E+00 0.  1.
</event>
<event>
 7    1  0.9953837E-014  0.5052885E+02  0.7816164E-02  0.1300439E+00
        -11   -1    0    0    0    0  0.00000000000E+00  0.00000000000E+00  0.45593999997E+02  0.45594000000E+02  0.51100000000E-03 0. -1.
         11   -1    0    0    0    0 -0.00000000000E+00 -0.00000000000E+00 -0.45593999997E+02  0.45594000000E+02  0.51100000000E-03 0.  1.
    9900012    2    1    2    0    0  0.20519950683E+02 -0.20064924091E+02  0.28800981399E+02  0.50528854849E+02  0.29999984800E+02 0.  0.
        -12    1    1    2    0    0 -0.20519950683E+02  0.20064924091E+02 -0.28800981399E+02  0.40659145151E+02  0.00000000000E+00 0.  1.
         11    1    3    3    0    0 -0.92564539060E+00 -0.11725082180E+01  0.12932397481E+02  0.13018390829E+02  0.51100000000E-03 0. -1.
        -11    1    3    3    0    0  0.14657862484E+02 -0.21986248515E+02  0.13568062681E+02  0.29704214878E+02  0.51100000000E-03 0.  1.
        -12    1    3    3    0    0  0.67877335903E+01  0.30938326413E+01  0.23005212370E+01  0.78062491420E+01  0.00000000000E+00 0.  1.
</event>
<event>
 7    1  0.9953837E-014  0.5052887E+02  0.7816164E-02  0.1300439E+00
        -11   -1    0    0    0    0  0.00000000000E+00  0.00000000000E+00  0.45593999997E+02  0.45594000000E+02  0.51100000000E-03 0. -1.
         11   -1    0    0    0    0 -0.00000000000E+00 -0.00000000000E+00 -0.45593999997E+02  0.45594000000E+02  0.51100000000E-03 0.  1.
    9900012    2    1    2    0    0 -0.40148144537E+02 -0.13639489457E+01  0.62794151313E+01  0.50528869158E+02  0.30000028292E+02 0.  0.
        -12    1    1    2    0    0  0.40148144537E+02  0.13639489457E+01 -0.62794151313E+01  0.40659130842E+02  0.00000000000E+00 0.  1.
         11    1    3    3    0    0 -0.13717098190E+01  0.10492304134E+01  0.21978546350E+01  0.27951811293E+01  0.51100000000E-03 0. -1.
        -11    1    3    3    0    0 -0.19360151750E+02  0.96107617498E+01  0.10473434880E+02  0.24018223407E+02  0.51100000000E-03 0.  1.
        -12    1    3    3    0    0 -0.19416282968E+02 -0.12023941109E+02 -0.63918743835E+01  0.23715464621E+02  0.00000000000E+00 0.  1.
</event>
<event>
 7    1  0.9953837E-014  0.5052886E+02  0.7816164E-02  0.1300439E+00
        -11   -1    0    0    0    0  0.00000000000E+00  0.00000000000E+00  0.45593999997E+02  0.45594000000E+02  0.51100000000E-03 0. -1.
         11   -1    0    0    0    0 -0.00000000000E+00 -0.00000000000E+00 -0.45593999997E+02  0.45594000000E+02  0.51100000000E-03 0.  1.
    9900012    2    1    2    0    0  0.18530949053E+01  0.33207576262E+02  0.23387789586E+02  0.50528858548E+02  0.29999996041E+02 0.  0.
        -12    1    1    2    0    0 -0.18530949053E+01 -0.33207576262E+02 -0.23387789586E+02  0.40659141452E+02  0.00000000000E+00 0.  1.
         11    1    3    3    0    0  0.59374272548E+01  0.24333665156E+02  0.39286556270E+01  0.25353789413E+02  0.51100000000E-03 0. -1.
        -11    1    3    3    0    0 -0.80069212646E+01  0.29423719376E+01  0.80369816619E+01  0.11720128636E+02  0.51100000000E-03 0.  1.
        -12    1    3    3    0    0  0.39225889151E+01  0.59315391689E+01  0.11422152297E+02  0.13454940498E+02  0.00000000000E+00 0.  1.
</event>
<event>
 7    1  0.9953837E-014  0.5052888E+02  0.7816164E-02  0.1300439E+00
        -11   -1    0    0    0    0  0.00000000000E+00  0.00000000000E+00  0.45593999997E+02  0.45594000000E+02  0.51100000000E-03 0.  1.
         11   -1    0    0    0    0 -0.00000000000E+00 -0.00000000000E+00 -0.45593999997E+02  0.45594000000E+02  0.51100000000E-03 0. -1.
    9900012    2    1    2    0    0 -0.38293524530E+02 -0.38926115562E+01 -0.13100300008E+02  0.50528876720E+02  0.30000051277E+02 0.  0.
         12    1    1    2    0    0  0.38293524530E+02  0.38926115562E+01  0.13100300008E+02  0.40659123280E+02  0.00000000000E+00 0. -1.
         11    1    3    3    0    0 -0.39167688267E+01  0.62173347858E+01 -0.69942954472E+01  0.10144776929E+02  0.51100000000E-03 0. -1.
        -11    1    3    3    0    0 -0.15465125851E+02 -0.11736670949E+02 -0.86103921569E+01  0.21238135886E+02  0.51100000000E-03 0.  1.
        -12    1    3    3    0    0 -0.18911629851E+02  0.16267246074E+01  0.25043875963E+01  0.19145963904E+02  0.00000000000E+00 0.  1.
</event>
<event>
 7    1  0.9953837E-014  0.5052887E+02  0.7816164E-02  0.1300439E+00
        -11   -1    0    0    0    0  0.00000000000E+00  0.00000000000E+00  0.45593999997E+02  0.45594000000E+02  0.51100000000E-03 0. -1.
         11   -1    0    0    0    0 -0.00000000000E+00 -0.00000000000E+00 -0.45593999997E+02  0.45594000000E+02  0.51100000000E-03 0.  1.
    9900012    2    1    2    0    0 -0.29240971624E+02  0.18962138079E+02 -0.20942016564E+02  0.50528866219E+02  0.30000019358E+02 0.  0.
         12    1    1    2    0    0  0.29240971624E+02 -0.18962138079E+02  0.20942016564E+02  0.40659133781E+02  0.00000000000E+00 0. -1.
         11    1    3    3    0    0 -0.17065101190E+02  0.21492575966E+02 -0.16235951455E+02  0.31886589974E+02  0.51100000000E-03 0. -1.
        -11    1    3    3    0    0 -0.12684199388E+02 -0.61434931846E+01 -0.23216562101E+01  0.14283609853E+02  0.51100000000E-03 0.  1.
        -12    1    3    3    0    0  0.50832895328E+00  0.36130552979E+01 -0.23844088990E+01  0.43586663910E+01  0.00000000000E+00 0.  1.
</event>
<event>
 7    1  0.9953837E-014  0.5052886E+02  0.7816164E-02  0.1300439E+00
        -11   -1    0    0    0    0  0.00000000000E+00  0.00000000000E+00  0.45593999997E+02  0.45594000000E+02  0.51100000000E-03 0. -1.
         11   -1    0    0    0    0 -0.00000000000E+00 -0.00000000000E+00 -0.45593999997E+02  0.45594000000E+02  0.51100000000E-03 0.  1.
    9900012    2    1    2    0    0  0.48347646936E+00 -0.35758463380E+02 -0.19345907860E+02  0.50528860760E+02  0.30000002765E+02 0.  0.
         12    1    1    2    0    0 -0.48347646936E+00  0.35758463380E+02  0.19345907860E+02  0.40659139240E+02  0.00000000000E+00 0. -1.
         11    1    3    3    0    0 -0.16286346805E+01 -0.15413509052E+01  0.31843274312E+00  0.22648649426E+01  0.51100000000E-03 0. -1.
        -11    1    3    3    0    0 -0.98491279360E+01 -0.26770761090E+02 -0.18768614538E+02  0.34145861570E+02  0.51100000000E-03 0.  1.
        -12    1    3    3    0    0  0.11961239086E+02 -0.74463513856E+01 -0.89572606504E+00  0.14118134247E+02  0.00000000000E+00 0.  1.
</event>
<event>
 7    1  0.9953837E-014  0.5052886E+02  0.7816164E-02  0.1300439E+00
        -11   -1    0    0    0    0  0.00000000000E+00  0.00000000000E+00  0.45593999997E+02  0.45594000000E+02  0.51100000000E-03 0. -1.
         11   -1    0    0    0    0 -0.00000000000E+00 -0.00000000000E+00 -0.45593999997E+02  0.45594000000E+02  0.51100000000E-03 0.  1.
    9900012    2    1    2    0    0  0.79168538935E+01 -0.52233549963E+01 -0.39537395106E+02  0.50528860502E+02  0.30000001980E+02 0.  0.
         12    1    1    2    0    0 -0.79168538935E+01  0.52233549963E+01  0.39537395106E+02  0.40659139498E+02  0.00000000000E+00 0. -1.
         11    1    3    3    0    0  0.47673779509E+00  0.11605074141E+01  0.19694301993E+01  0.23351042706E+01  0.51100000000E-03 0. -1.
        -11    1    3    3    0    0  0.97890373990E+01 -0.79234170725E+01 -0.43142894946E+02  0.44943466443E+02  0.51100000000E-03 0.  1.
        -12    1    3    3    0    0 -0.23489213006E+01  0.15395546620E+01  0.16360696412E+01  0.32502897878E+01  0.00000000000E+00 0.  1.
</event>
<event>
 7    1  0.9953837E-014  0.5052886E+02  0.7816164E-02  0.1300439E+00
        -11   -1    0    0    0    0  0.00000000000E+00  0.00000000000E+00  0.45593999997E+02  0.45594000000E+02  0.51100000000E-03 0. -1.
         11   -1    0    0    0    0 -0.00000000000E+00 -0.00000000000E+00 -0.45593999997E+02  0.45594000000E+02  0.51100000000E-03 0.  1.
    9900012    2    1    2    0    0 -0.19371533994E+02 -0.25925773267E+01  0.35653723344E+02  0.50528858657E+02  0.29999996373E+02 0.  0.
        -12    1    1    2    0    0  0.19371533994E+02  0.25925773267E+01 -0.35653723344E+02  0.40659141343E+02  0.00000000000E+00 0.  1.
         11    1    3    3    0    0 -0.56653672061E+01  0.10755543855E+01  0.18794469628E+02  0.19659229173E+02  0.51100000000E-03 0. -1.
        -11    1    3    3    0    0 -0.11450933746E+02 -0.21313227866E+01 -0.19964488049E+01  0.11817454403E+02  0.51100000000E-03 0.  1.
        -12    1    3    3    0    0 -0.22552330420E+01 -0.15368089256E+01  0.18855702520E+02  0.19052175080E+02  0.00000000000E+00 0.  1.
</event>
<event>
 7    1  0.9953837E-014  0.5052887E+02  0.7816164E-02  0.1300439E+00
        -11   -1    0    0    0    0  0.00000000000E+00  0.00000000000E+00  0.45593999997E+02  0.45594000000E+02  0.51100000000E-03 0. -1.
         11   -1    0    0    0    0 -0.00000000000E+00 -0.00000000000E+00 -0.45593999997E+02  0.45594000000E+02  0.51100000000E-03 0.  1.
    9900012    2    1    2    0    0  0.86967335229E+01  0.31164459425E+02 -0.24623332248E+02  0.50528865772E+02  0.30000018000E+02 0.  0.
         12    1    1    2    0    0 -0.86967335229E+01 -0.31164459425E+02  0.24623332248E+02  0.40659134228E+02  0.00000000000E+00 0. -1.
         11    1    3    3    0    0  0.18239339024E+02  0.22343838159E+02 -0.12965564752E+02  0.31623194989E+02  0.51100000000E-03 0. -1.
        -11    1    3    3    0    0 -0.46034016982E+01  0.82626926055E+01 -0.97429969118E+01  0.13579005316E+02  0.51100000000E-03 0.  1.
         12    1    3    3    0    0 -0.49392038033E+01  0.55792866007E+00 -0.19147705839E+01  0.53266654662E+01  0.00000000000E+00 0. -1.
</event>
<event>
 7    1  0.9953837E-014  0.5052884E+02  0.7816164E-02  0.1300439E+00
        -11   -1    0    0    0    0  0.00000000000E+00  0.00000000000E+00  0.45593999997E+02  0.45594000000E+02  0.51100000000E-03 0.  1.
         11   -1    0    0    0    0 -0.00000000000E+00 -0.00000000000E+00 -0.45593999997E+02  0.45594000000E+02  0.51100000000E-03 0. -1.
    9900012    2    1    2    0    0  0.10415325817E+02 -0.27239915609E+02 -0.28331524994E+02  0.50528839621E+02  0.29999938511E+02 0.  0.
         12    1    1    2    0    0 -0.10415325817E+02  0.27239915609E+02  0.28331524994E+02  0.40659160379E+02  0.00000000000E+00 0. -1.
         11    1    3    3    0    0  0.12901687613E+02 -0.56451442173E+01 -0.20190521839E+01  0.14226656968E+02  0.51100000000E-03 0. -1.
        -11    1    3    3    0    0  0.77819293613E+00 -0.17155465149E+02 -0.25483344150E+02  0.30729731500E+02  0.51100000000E-03 0.  1.
         12    1    3    3    0    0 -0.32645547324E+01 -0.44393062426E+01 -0.82912866028E+00  0.55724511529E+01  0.00000000000E+00 0. -1.
</event>
<event>
 7    1  0.9953837E-014  0.5052886E+02  0.7816164E-02  0.1300439E+00
        -11   -1    0    0    0    0  0.00000000000E+00  0.00000000000E+00  0.45593999997E+02  0.45594000000E+02  0.51100000000E-03 0. -1.
         11   -1    0    0    0    0 -0.00000000000E+00 -0.00000000000E+00 -0.45593999997E+02  0.45594000000E+02  0.51100000000E-03 0.  1.
    9900012    2    1    2    0    0  0.10215222837E+02  0.13606043256E+02  0.36928183259E+02  0.50528857000E+02  0.29999991337E+02 0.  0.
        -12    1    1    2    0    0 -0.10215222837E+02 -0.13606043256E+02 -0.36928183259E+02  0.40659143000E+02  0.00000000000E+00 0.  1.
         11    1    3    3    0    0  0.30566986467E+01 -0.84702844851E+01  0.12628069037E+02  0.15509908244E+02  0.51100000000E-03 0. -1.
        -11    1    3    3    0    0  0.75233601701E+01  0.11524071287E+02  0.18224330697E+02  0.22837061914E+02  0.51100000000E-03 0.  1.
         12    1    3    3    0    0 -0.36483597958E+00  0.10552256454E+02  0.60757835254E+01  0.12181886842E+02  0.00000000000E+00 0. -1.
</event>
<event>
 7    1  0.9953837E-014  0.5052886E+02  0.7816164E-02  0.1300439E+00
        -11   -1    0    0    0    0  0.00000000000E+00  0.00000000000E+00  0.45593999997E+02  0.45594000000E+02  0.51100000000E-03 0.  1.
         11   -1    0    0    0    0 -0.00000000000E+00 -0.00000000000E+00 -0.45593999997E+02  0.45594000000E+02  0.51100000000E-03 0. -1.
    9900012    2    1    2    0    0  0.26767884182E+02  0.29170639503E+02  0.92584863842E+01  0.50528863232E+02  0.30000010281E+02 0.  0.
        -12    1    1    2    0    0 -0.26767884182E+02 -0.29170639503E+02 -0.92584863842E+01  0.40659136768E+02  0.00000000000E+00 0.  1.
         11    1    3    3    0    0 -0.12041556275E+01  0.10997401110E+01  0.47669627872E+01  0.50381895124E+01  0.51100000000E-03 0.  1.
        -11    1    3    3    0    0  0.87271367479E+01  0.99507451272E+01 -0.88099422611E+01  0.15899538588E+02  0.51100000000E-03 0. -1.
        -12    1    3    3    0    0  0.19244903061E+02  0.18120154265E+02  0.13301465858E+02  0.29591135132E+02  0.00000000000E+00 0.  1.
</event>
<event>
 7    1  0.9953837E-014  0.5052885E+02  0.7816164E-02  0.1300439E+00
        -11   -1    0    0    0    0  0.00000000000E+00  0.00000000000E+00  0.45593999997E+02  0.45594000000E+02  0.51100000000E-03 0. -1.
         11   -1    0    0    0    0 -0.00000000000E+00 -0.00000000000E+00 -0.45593999997E+02  0.45594000000E+02  0.51100000000E-03 0.  1.
    9900012    2    1    2    0    0 -0.96797527979E+01  0.21691723831E+02 -0.32999054534E+02  0.50528854692E+02  0.29999984323E+02 0.  0.
         12    1    1    2    0    0  0.96797527979E+01 -0.21691723831E+02  0.32999054534E+02  0.40659145308E+02  0.00000000000E+00 0. -1.
         11    1    3    3    0    0 -0.46316583123E+01  0.98021345483E+00  0.12181771056E+01  0.48884591500E+01  0.51100000000E-03 0. -1.
        -11    1    3    3    0    0  0.81268685018E+01  0.94252863348E+01 -0.18065602980E+02  0.21937365964E+02  0.51100000000E-03 0.  1.
        -12    1    3    3    0    0 -0.13174962987E+02  0.11286224041E+02 -0.16151628660E+02  0.23703029579E+02  0.00000000000E+00 0.  1.
</event>
<event>
 7    1  0.9953837E-014  0.5052882E+02  0.7816164E-02  0.1300439E+00
        -11   -1    0    0    0    0  0.00000000000E+00  0.00000000000E+00  0.45593999997E+02  0.45594000000E+02  0.51100000000E-03 0. -1.
         11   -1    0    0    0    0 -0.00000000000E+00 -0.00000000000E+00 -0.45593999997E+02  0.45594000000E+02  0.51100000000E-03 0.  1.
    9900012    2    1    2    0    0 -0.24011414159E+02  0.27497388987E+02  0.17902918547E+02  0.50528820182E+02  0.29999879425E+02 0.  0.
        -12    1    1    2    0    0  0.24011414159E+02 -0.27497388987E+02 -0.17902918547E+02  0.40659179818E+02  0.00000000000E+00 0.  1.
         11    1    3    3    0    0 -0.26011983720E+02  0.93381476606E+01  0.11726196682E+02  0.30022124969E+02  0.51100000000E-03 0. -1.
        -11    1    3    3    0    0 -0.14172470204E+01  0.43918339081E+01 -0.82417093962E+00  0.46878622199E+01  0.51100000000E-03 0.  1.
         12    1    3    3    0    0  0.34178165816E+01  0.13767407418E+02  0.70008928041E+01  0.15818832993E+02  0.00000000000E+00 0. -1.
</event>
<event>
 7    1  0.9953837E-014  0.5052886E+02  0.7816164E-02  0.1300439E+00
        -11   -1    0    0    0    0  0.00000000000E+00  0.00000000000E+00  0.45593999997E+02  0.45594000000E+02  0.51100000000E-03 0. -1.
         11   -1    0    0    0    0 -0.00000000000E+00 -0.00000000000E+00 -0.45593999997E+02  0.45594000000E+02  0.51100000000E-03 0.  1.
    9900012    2    1    2    0    0  0.35369301243E+02  0.36842654759E+01 -0.19713052461E+02  0.50528859332E+02  0.29999998427E+02 0.  0.
         12    1    1    2    0    0 -0.35369301243E+02 -0.36842654759E+01  0.19713052461E+02  0.40659140668E+02  0.00000000000E+00 0. -1.
         11    1    3    3    0    0 -0.19422435546E+01  0.44043970954E+00 -0.28017257594E+01  0.34374357674E+01  0.51100000000E-03 0. -1.
        -11    1    3    3    0    0  0.38740475519E+02  0.36638665772E+01 -0.19933805609E+02  0.43721904900E+02  0.51100000000E-03 0.  1.
        -12    1    3    3    0    0 -0.14289307216E+01 -0.42004081088E+00  0.30224789075E+01  0.33695186654E+01  0.00000000000E+00 0.  1.
</event>
<event>
 7    1  0.9953837E-014  0.5052886E+02  0.7816164E-02  0.1300439E+00
        -11   -1    0    0    0    0  0.00000000000E+00  0.00000000000E+00  0.45593999997E+02  0.45594000000E+02  0.51100000000E-03 0. -1.
         11   -1    0    0    0    0 -0.00000000000E+00 -0.00000000000E+00 -0.45593999997E+02  0.45594000000E+02  0.51100000000E-03 0.  1.
    9900012    2    1    2    0    0  0.10184603764E+02  0.35974020468E+02 -0.15978399932E+02  0.50528861214E+02  0.30000004146E+02 0.  0.
         12    1    1    2    0    0 -0.10184603764E+02 -0.35974020468E+02  0.15978399932E+02  0.40659138786E+02  0.00000000000E+00 0. -1.
         11    1    3    3    0    0  0.26536194024E+01  0.19327989710E+01 -0.14023275320E+02  0.14402418504E+02  0.51100000000E-03 0. -1.
        -11    1    3    3    0    0  0.75882345891E+01  0.14617084216E+02  0.89777837059E+00  0.16493831011E+02  0.51100000000E-03 0.  1.
         12    1    3    3    0    0 -0.57250227404E-01  0.19424137280E+02 -0.28529029823E+01  0.19632611698E+02  0.00000000000E+00 0. -1.
</event>
<event>
 7    1  0.9953837E-014  0.5052886E+02  0.7816164E-02  0.1300439E+00
        -11   -1    0    0    0    0  0.00000000000E+00  0.00000000000E+00  0.45593999997E+02  0.45594000000E+02  0.51100000000E-03 0. -1.
         11   -1    0    0    0    0 -0.00000000000E+00 -0.00000000000E+00 -0.45593999997E+02  0.45594000000E+02  0.51100000000E-03 0.  1.
    9900012    2    1    2    0    0  0.50061777429E+01 -0.23405401916E+02  0.32867777995E+02  0.50528862223E+02  0.30000007213E+02 0.  0.
        -12    1    1    2    0    0 -0.50061777429E+01  0.23405401916E+02 -0.32867777995E+02  0.40659137777E+02  0.00000000000E+00 0.  1.
         11    1    3    3    0    0  0.72797037839E+01 -0.22156470423E+02  0.11598182318E+02  0.26046518042E+02  0.51100000000E-03 0. -1.
        -11    1    3    3    0    0 -0.61744230336E+01 -0.39061758570E+01  0.14400321079E+02  0.16147784896E+02  0.51100000000E-03 0.  1.
        -12    1    3    3    0    0  0.39008969926E+01  0.26572443640E+01  0.68692745987E+01  0.83345592847E+01  0.00000000000E+00 0.  1.
</event>
<event>
 7    1  0.9953837E-014  0.5052886E+02  0.7816164E-02  0.1300439E+00
        -11   -1    0    0    0    0  0.00000000000E+00  0.00000000000E+00  0.45593999997E+02  0.45594000000E+02  0.51100000000E-03 0. -1.
         11   -1    0    0    0    0 -0.00000000000E+00 -0.00000000000E+00 -0.45593999997E+02  0.45594000000E+02  0.51100000000E-03 0.  1.
    9900012    2    1    2    0    0  0.10409675243E+01  0.87838232342E+01 -0.39685346667E+02  0.50528857067E+02  0.29999991539E+02 0.  0.
         12    1    1    2    0    0 -0.10409675243E+01 -0.87838232342E+01  0.39685346667E+02  0.40659142933E+02  0.00000000000E+00 0. -1.
         11    1    3    3    0    0  0.19339701436E+00  0.11465583256E+02 -0.21928413051E+02  0.24745753192E+02  0.51100000000E-03 0.  1.
        -11    1    3    3    0    0  0.41307538602E+01 -0.97657309685E+01 -0.12394157391E+02  0.16310970740E+02  0.51100000000E-03 0. -1.
         12    1    3    3    0    0 -0.32831833503E+01  0.70839709464E+01 -0.53627762253E+01  0.94721331348E+01  0.00000000000E+00 0. -1.
</event>
<event>
 7    1  0.9953837E-014  0.5052886E+02  0.7816164E-02  0.1300439E+00
        -11   -1    0    0    0    0  0.00000000000E+00  0.00000000000E+00  0.45593999997E+02  0.45594000000E+02  0.51100000000E-03 0. -1.
         11   -1    0    0    0    0 -0.00000000000E+00 -0.00000000000E+00 -0.45593999997E+02  0.45594000000E+02  0.51100000000E-03 0.  1.
    9900012    2    1    2    0    0  0.10701941464E+02 -0.90394901537E+01 -0.38169646009E+02  0.50528858226E+02  0.29999995064E+02 0.  0.
         12    1    1    2    0    0 -0.10701941464E+02  0.90394901537E+01  0.38169646009E+02  0.40659141774E+02  0.00000000000E+00 0. -1.
         11    1    3    3    0    0  0.47128986752E+01  0.24679935299E+01 -0.23191904770E+01  0.58035377759E+01  0.51100000000E-03 0.  1.
        -11    1    3    3    0    0  0.10498663334E+02 -0.15865380090E+02 -0.19636757998E+02  0.27341076829E+02  0.51100000000E-03 0. -1.
        -12    1    3    3    0    0 -0.45096205459E+01  0.43578964066E+01 -0.16213697534E+02  0.17384243621E+02  0.00000000000E+00 0.  1.
</event>
<event>
 7    1  0.9953837E-014  0.5052886E+02  0.7816164E-02  0.1300439E+00
        -11   -1    0    0    0    0  0.00000000000E+00  0.00000000000E+00  0.45593999997E+02  0.45594000000E+02  0.51100000000E-03 0.  1.
         11   -1    0    0    0    0 -0.00000000000E+00 -0.00000000000E+00 -0.45593999997E+02  0.45594000000E+02  0.51100000000E-03 0. -1.
    9900012    2    1    2    0    0 -0.16492910314E+02  0.33223431727E+02 -0.16653924966E+02  0.50528859292E+02  0.29999998303E+02 0.  0.
         12    1    1    2    0    0  0.16492910314E+02 -0.33223431727E+02  0.16653924966E+02  0.40659140708E+02  0.00000000000E+00 0. -1.
         11    1    3    3    0    0 -0.28688988812E+01  0.88407809164E+01 -0.98085125089E+01  0.13512842258E+02  0.51100000000E-03 0. -1.
        -11    1    3    3    0    0 -0.93205889629E+01  0.82809190746E+01  0.79022281171E+01  0.14761172339E+02  0.51100000000E-03 0.  1.
        -12    1    3    3    0    0 -0.43034224698E+01  0.16101731736E+02 -0.14747640575E+02  0.22254844695E+02  0.00000000000E+00 0.  1.
</event>
<event>
 7    1  0.9953837E-014  0.5052885E+02  0.7816164E-02  0.1300439E+00
        -11   -1    0    0    0    0  0.00000000000E+00  0.00000000000E+00  0.45593999997E+02  0.45594000000E+02  0.51100000000E-03 0.  1.
         11   -1    0    0    0    0 -0.00000000000E+00 -0.00000000000E+00 -0.45593999997E+02  0.45594000000E+02  0.51100000000E-03 0. -1.
    9900012    2    1    2    0    0  0.32287113660E+02  0.21454965613E+02 -0.12263498751E+02  0.50528847776E+02  0.29999963301E+02 0.  0.
        -12    1    1    2    0    0 -0.32287113660E+02 -0.21454965613E+02  0.12263498751E+02  0.40659152224E+02  0.00000000000E+00 0.  1.
         11    1    3    3    0    0  0.19304816652E+02  0.68599529007E+01 -0.11209571337E+02  0.23353573380E+02  0.51100000000E-03 0. -1.
        -11    1    3    3    0    0  0.92961376470E+00  0.12003265436E+02  0.54742038429E+01  0.13225334433E+02  0.51100000000E-03 0.  1.
        -12    1    3    3    0    0  0.12052683243E+02  0.25917472762E+01 -0.65281312564E+01  0.13949939964E+02  0.00000000000E+00 0.  1.
</event>
<event>
 7    1  0.9953837E-014  0.5052886E+02  0.7816164E-02  0.1300439E+00
        -11   -1    0    0    0    0  0.00000000000E+00  0.00000000000E+00  0.45593999997E+02  0.45594000000E+02  0.51100000000E-03 0. -1.
         11   -1    0    0    0    0 -0.00000000000E+00 -0.00000000000E+00 -0.45593999997E+02  0.45594000000E+02  0.51100000000E-03 0.  1.
    9900012    2    1    2    0    0 -0.18825115285E+02  0.42900167143E+01 -0.35782352773E+02  0.50528856147E+02  0.29999988743E+02 0.  0.
         12    1    1    2    0    0  0.18825115285E+02 -0.42900167143E+01  0.35782352773E+02  0.40659143853E+02  0.00000000000E+00 0. -1.
         11    1    3    3    0    0 -0.16725626538E+02  0.62135445395E+01 -0.15064552976E+02  0.23351562591E+02  0.51100000000E-03 0. -1.
        -11    1    3    3    0    0  0.63950166478E+01 -0.20867562131E+00 -0.16171451179E+02  0.17391251161E+02  0.51100000000E-03 0.  1.
        -12    1    3    3    0    0 -0.84945053952E+01 -0.17148522039E+01 -0.45463486175E+01  0.97860423942E+01  0.00000000000E+00 0.  1.
</event>
<event>
 7    1  0.9953837E-014  0.5052886E+02  0.7816164E-02  0.1300439E+00
        -11   -1    0    0    0    0  0.00000000000E+00  0.00000000000E+00  0.45593999997E+02  0.45594000000E+02  0.51100000000E-03 0. -1.
         11   -1    0    0    0    0 -0.00000000000E+00 -0.00000000000E+00 -0.45593999997E+02  0.45594000000E+02  0.51100000000E-03 0.  1.
    9900012    2    1    2    0    0 -0.39650111153E+02 -0.82291444310E+01  0.36490389326E+01  0.50528860589E+02  0.30000002247E+02 0.  0.
        -12    1    1    2    0    0  0.39650111153E+02  0.82291444310E+01 -0.36490389326E+01  0.40659139411E+02  0.00000000000E+00 0.  1.
         11    1    3    3    0    0 -0.44957178489E+01  0.25154684917E+01  0.20033209502E+01  0.55274185476E+01  0.51100000000E-03 0. -1.
        -11    1    3    3    0    0 -0.23605739442E+02  0.34727677520E+01  0.86667656757E+01  0.25385111345E+02  0.51100000000E-03 0.  1.
        -12    1    3    3    0    0 -0.11548653862E+02 -0.14217380675E+02 -0.70210476934E+01  0.19616330696E+02  0.00000000000E+00 0.  1.
</event>
<event>
 7    1  0.9953837E-014  0.5052886E+02  0.7816164E-02  0.1300439E+00
        -11   -1    0    0    0    0  0.00000000000E+00  0.00000000000E+00  0.45593999997E+02  0.45594000000E+02  0.51100000000E-03 0.  1.
         11   -1    0    0    0    0 -0.00000000000E+00 -0.00000000000E+00 -0.45593999997E+02  0.45594000000E+02  0.51100000000E-03 0. -1.
    9900012    2    1    2    0    0 -0.32940214308E+02  0.15022002096E+02 -0.18505331425E+02  0.50528861338E+02  0.30000004523E+02 0.  0.
         12    1    1    2    0    0  0.32940214308E+02 -0.15022002096E+02  0.18505331425E+02  0.40659138662E+02  0.00000000000E+00 0. -1.
         11    1    3    3    0    0 -0.36555122092E+00 -0.41320198006E+01 -0.53068351451E+01  0.67357044803E+01  0.51100000000E-03 0. -1.
        -11    1    3    3    0    0 -0.33378668455E+02  0.16066571178E+02 -0.15184087464E+02  0.40035318528E+02  0.51100000000E-03 0.  1.
        -12    1    3    3    0    0  0.80400536800E+00  0.30874507177E+01  0.19855911840E+01  0.37578383302E+01  0.00000000000E+00 0.  1.
</event>
<event>
 7    1  0.9953837E-014  0.5052887E+02  0.7816164E-02  0.1300439E+00
        -11   -1    0    0    0    0  0.00000000000E+00  0.00000000000E+00  0.45593999997E+02  0.45594000000E+02  0.51100000000E-03 0.  1.
         11   -1    0    0    0    0 -0.00000000000E+00 -0.00000000000E+00 -0.45593999997E+02  0.45594000000E+02  0.51100000000E-03 0. -1.
    9900012    2    1    2    0    0  0.38801762937E+02 -0.25541427621E+01 -0.11877058485E+02  0.50528868547E+02  0.30000026434E+02 0.  0.
        -12    1    1    2    0    0 -0.38801762937E+02  0.25541427621E+01  0.11877058485E+02  0.40659131453E+02  0.00000000000E+00 0.  1.
         11    1    3    3    0    0  0.18241786488E+02  0.21916667310E+01 -0.12044065169E+02  0.21968743328E+02  0.51100000000E-03 0. -1.
        -11    1    3    3    0    0  0.10195290496E+02 -0.11936410543E+02  0.19558011669E+01  0.15819197306E+02  0.51100000000E-03 0.  1.
        -12    1    3    3    0    0  0.10364685953E+02  0.71906010500E+01 -0.17887944828E+01  0.12740927912E+02  0.00000000000E+00 0.  1.
</event>
<event>
 7    1  0.9953837E-014  0.5052887E+02  0.7816164E-02  0.1300439E+00
        -11   -1    0    0    0    0  0.00000000000E+00  0.00000000000E+00  0.45593999997E+02  0.45594000000E+02  0.51100000000E-03 0.  1.
         11   -1    0    0    0    0 -0.00000000000E+00 -0.00000000000E+00 -0.45593999997E+02  0.45594000000E+02  0.51100000000E-03 0. -1.
    9900012    2    1    2    0    0 -0.82829256203E+01  0.39458116056E+02 -0.52550361917E+01  0.50528865911E+02  0.30000018422E+02 0.  0.
        -12    1    1    2    0    0  0.82829256203E+01 -0.39458116056E+02  0.52550361917E+01  0.40659134089E+02  0.00000000000E+00 0.  1.
         11    1    3    3    0    0 -0.92646750244E+01  0.35186803304E+01 -0.16630695869E+01  0.10048936028E+02  0.51100000000E-03 0. -1.
        -11    1    3    3    0    0  0.54480379537E+01  0.17815306610E+02  0.58962729285E+01  0.19540529723E+02  0.51100000000E-03 0.  1.
         12    1    3    3    0    0 -0.44662885495E+01  0.18124129115E+02 -0.94882395333E+01  0.20939400160E+02  0.00000000000E+00 0. -1.
</event>
<event>
 7    1  0.9953837E-014  0.5052886E+02  0.7816164E-02  0.1300439E+00
        -11   -1    0    0    0    0  0.00000000000E+00  0.00000000000E+00  0.45593999997E+02  0.45594000000E+02  0.51100000000E-03 0. -1.
         11   -1    0    0    0    0 -0.00000000000E+00 -0.00000000000E+00 -0.45593999997E+02  0.45594000000E+02  0.51100000000E-03 0.  1.
    9900012    2    1    2    0    0  0.34532915840E+02 -0.88279724153E+01 -0.19562973987E+02  0.50528864193E+02  0.30000013201E+02 0.  0.
         12    1    1    2    0    0 -0.34532915840E+02  0.88279724153E+01  0.19562973987E+02  0.40659135807E+02  0.00000000000E+00 0. -1.
         11    1    3    3    0    0  0.45419612498E+01  0.25552424045E+00 -0.11240257850E+02  0.12125926827E+02  0.51100000000E-03 0. -1.
        -11    1    3    3    0    0  0.14792044768E+02  0.11679885165E+01  0.50904909782E+01  0.15686997299E+02  0.51100000000E-03 0.  1.
        -12    1    3    3    0    0  0.15198909822E+02 -0.10251485172E+02 -0.13413207115E+02  0.22715940067E+02  0.00000000000E+00 0.  1.
</event>
<event>
 7    1  0.9953837E-014  0.5052887E+02  0.7816164E-02  0.1300439E+00
        -11   -1    0    0    0    0  0.00000000000E+00  0.00000000000E+00  0.45593999997E+02  0.45594000000E+02  0.51100000000E-03 0.  1.
         11   -1    0    0    0    0 -0.00000000000E+00 -0.00000000000E+00 -0.45593999997E+02  0.45594000000E+02  0.51100000000E-03 0. -1.
    9900012    2    1    2    0    0  0.10280377483E+02 -0.37805362829E+02 -0.10873519424E+02  0.50528867637E+02  0.30000023669E+02 0.  0.
        -12    1    1    2    0    0 -0.10280377483E+02  0.37805362829E+02  0.10873519424E+02  0.40659132363E+02  0.00000000000E+00 0.  1.
         11    1    3    3    0    0 -0.77797563410E+01 -0.16077631479E+02 -0.30350421468E+01  0.18117017519E+02  0.51100000000E-03 0. -1.
        -11    1    3    3    0    0  0.10037027277E+02 -0.15855565443E+02  0.14293172299E+01  0.18819772052E+02  0.51100000000E-03 0.  1.
         12    1    3    3    0    0  0.80231065471E+01 -0.58721659076E+01 -0.92677945075E+01  0.13592078066E+02  0.00000000000E+00 0. -1.
</event>
<event>
 7    1  0.9953837E-014  0.5052887E+02  0.7816164E-02  0.1300439E+00
        -11   -1    0    0    0    0  0.00000000000E+00  0.00000000000E+00  0.45593999997E+02  0.45594000000E+02  0.51100000000E-03 0. -1.
         11   -1    0    0    0    0 -0.00000000000E+00 -0.00000000000E+00 -0.45593999997E+02  0.45594000000E+02  0.51100000000E-03 0.  1.
    9900012    2    1    2    0    0 -0.99963484418E+01  0.11572696662E+02  0.37673743349E+02  0.50528865379E+02  0.30000016806E+02 0.  0.
        -12    1    1    2    0    0  0.99963484418E+01 -0.11572696662E+02 -0.37673743349E+02  0.40659134621E+02  0.00000000000E+00 0.  1.
         11    1    3    3    0    0 -0.16677536670E+01 -0.50904273123E+01  0.23205543300E+02  0.23815774030E+02  0.51100000000E-03 0. -1.
        -11    1    3    3    0    0 -0.55392799962E+01  0.71291184168E+01 -0.16148332493E+00  0.90296195602E+01  0.51100000000E-03 0.  1.
         12    1    3    3    0    0 -0.27893147786E+01  0.95340055571E+01  0.14629683374E+02  0.17683471789E+02  0.00000000000E+00 0. -1.
</event>
<event>
 7    1  0.9953837E-014  0.5052883E+02  0.7816164E-02  0.1300439E+00
        -11   -1    0    0    0    0  0.00000000000E+00  0.00000000000E+00  0.45593999997E+02  0.45594000000E+02  0.51100000000E-03 0. -1.
         11   -1    0    0    0    0 -0.00000000000E+00 -0.00000000000E+00 -0.45593999997E+02  0.45594000000E+02  0.51100000000E-03 0.  1.
    9900012    2    1    2    0    0 -0.18027294249E+02  0.18110899909E+02 -0.31625618417E+02  0.50528834075E+02  0.29999921655E+02 0.  0.
         12    1    1    2    0    0  0.18027294249E+02 -0.18110899909E+02  0.31625618417E+02  0.40659165925E+02  0.00000000000E+00 0. -1.
         11    1    3    3    0    0  0.17595189723E+01  0.85503002910E+01 -0.24972494938E+01  0.90796364121E+01  0.51100000000E-03 0. -1.
        -11    1    3    3    0    0 -0.11824082851E+02 -0.49322791181E+01 -0.10727510902E+02  0.16709751733E+02  0.51100000000E-03 0.  1.
        -12    1    3    3    0    0 -0.79627303702E+01  0.14492878736E+02 -0.18400858021E+02  0.24739445930E+02  0.00000000000E+00 0.  1.
</event>
<event>
 7    1  0.9953837E-014  0.5052885E+02  0.7816164E-02  0.1300439E+00
        -11   -1    0    0    0    0  0.00000000000E+00  0.00000000000E+00  0.45593999997E+02  0.45594000000E+02  0.51100000000E-03 0. -1.
         11   -1    0    0    0    0 -0.00000000000E+00 -0.00000000000E+00 -0.45593999997E+02  0.45594000000E+02  0.51100000000E-03 0.  1.
    9900012    2    1    2    0    0  0.25703727329E+02 -0.29919144367E+02  0.98655684629E+01  0.50528852944E+02  0.29999979007E+02 0.  0.
        -12    1    1    2    0    0 -0.25703727329E+02  0.29919144367E+02 -0.98655684629E+01  0.40659147056E+02  0.00000000000E+00 0.  1.
         11    1    3    3    0    0  0.17796040716E+02 -0.21581377756E+02 -0.16398465820E+01  0.28020421626E+02  0.51100000000E-03 0. -1.
        -11    1    3    3    0    0  0.92367642055E+01 -0.37112620550E+01  0.13927975705E+02  0.17119573200E+02  0.51100000000E-03 0.  1.
        -12    1    3    3    0    0 -0.13290775933E+01 -0.46265045561E+01 -0.24225606605E+01  0.53888581175E+01  0.00000000000E+00 0.  1.
</event>
<event>
 7    1  0.9953837E-014  0.5052884E+02  0.7816164E-02  0.1300439E+00
        -11   -1    0    0    0    0  0.00000000000E+00  0.00000000000E+00  0.45593999997E+02  0.45594000000E+02  0.51100000000E-03 0. -1.
         11   -1    0    0    0    0 -0.00000000000E+00 -0.00000000000E+00 -0.45593999997E+02  0.45594000000E+02  0.51100000000E-03 0.  1.
    9900012    2    1    2    0    0 -0.21771000916E+01  0.22306211657E+01 -0.40539510821E+02  0.50528839000E+02  0.29999936626E+02 0.  0.
         12    1    1    2    0    0  0.21771000916E+01 -0.22306211657E+01  0.40539510821E+02  0.40659161000E+02  0.00000000000E+00 0. -1.
         11    1    3    3    0    0  0.52149939951E+01 -0.41983679240E+00  0.22674578303E+01  0.57020865107E+01  0.51100000000E-03 0. -1.
        -11    1    3    3    0    0  0.49856769567E+00 -0.34538900390E+00 -0.26116675369E+02  0.26123717115E+02  0.51100000000E-03 0.  1.
         12    1    3    3    0    0 -0.78906617825E+01  0.29958469620E+01 -0.16690293282E+02  0.18703035374E+02  0.00000000000E+00 0. -1.
</event>
<event>
 7    1  0.9953837E-014  0.5052886E+02  0.7816164E-02  0.1300439E+00
        -11   -1    0    0    0    0  0.00000000000E+00  0.00000000000E+00  0.45593999997E+02  0.45594000000E+02  0.51100000000E-03 0.  1.
         11   -1    0    0    0    0 -0.00000000000E+00 -0.00000000000E+00 -0.45593999997E+02  0.45594000000E+02  0.51100000000E-03 0. -1.
    9900012    2    1    2    0    0  0.37710780746E+02 -0.90321520714E+01  0.12226306256E+02  0.50528864247E+02  0.30000013365E+02 0.  0.
         12    1    1    2    0    0 -0.37710780746E+02  0.90321520714E+01 -0.12226306256E+02  0.40659135753E+02  0.00000000000E+00 0. -1.
         11    1    3    3    0    0  0.16254792879E+02 -0.12310129234E+02 -0.54875962609E+01  0.21115664476E+02  0.51100000000E-03 0. -1.
        -11    1    3    3    0    0  0.21660484588E+02  0.22619273264E+01  0.14828347120E+02  0.26347158981E+02  0.51100000000E-03 0.  1.
         12    1    3    3    0    0 -0.20449672034E+00  0.10160498359E+01  0.28855553969E+01  0.30660407900E+01  0.00000000000E+00 0. -1.
</event>
<event>
 7    1  0.9953837E-014  0.5052888E+02  0.7816164E-02  0.1300439E+00
        -11   -1    0    0    0    0  0.00000000000E+00  0.00000000000E+00  0.45593999997E+02  0.45594000000E+02  0.51100000000E-03 0. -1.
         11   -1    0    0    0    0 -0.00000000000E+00 -0.00000000000E+00 -0.45593999997E+02  0.45594000000E+02  0.51100000000E-03 0.  1.
    9900012    2    1    2    0    0 -0.59694352790E+01 -0.18984621622E+02  0.35455805525E+02  0.50528878501E+02  0.30000056691E+02 0.  0.
        -12    1    1    2    0    0  0.59694352790E+01  0.18984621622E+02 -0.35455805525E+02  0.40659121499E+02  0.00000000000E+00 0.  1.
         11    1    3    3    0    0  0.17258010769E+01 -0.14282331371E+02  0.36803537516E+02  0.39515360971E+02  0.51100000000E-03 0. -1.
        -11    1    3    3    0    0 -0.85947339223E+00 -0.36914373854E+01 -0.15636395747E+01  0.41000455440E+01  0.51100000000E-03 0.  1.
         12    1    3    3    0    0 -0.68357629637E+01 -0.10108528648E+01  0.21590758373E+00  0.69134719855E+01  0.00000000000E+00 0. -1.
</event>
<event>
 7    1  0.9953837E-014  0.5052887E+02  0.7816164E-02  0.1300439E+00
        -11   -1    0    0    0    0  0.00000000000E+00  0.00000000000E+00  0.45593999997E+02  0.45594000000E+02  0.51100000000E-03 0. -1.
         11   -1    0    0    0    0 -0.00000000000E+00 -0.00000000000E+00 -0.45593999997E+02  0.45594000000E+02  0.51100000000E-03 0.  1.
    9900012    2    1    2    0    0 -0.18478010826E+02  0.13221641974E+02  0.33718184925E+02  0.50528871933E+02  0.30000036726E+02 0.  0.
        -12    1    1    2    0    0  0.18478010826E+02 -0.13221641974E+02 -0.33718184925E+02  0.40659128067E+02  0.00000000000E+00 0.  1.
         11    1    3    3    0    0 -0.10260828821E+02  0.43776149181E+00  0.70177158087E+01  0.12438833492E+02  0.51100000000E-03 0. -1.
        -11    1    3    3    0    0 -0.59814212070E+01  0.18614641635E+02  0.14357815696E+02  0.24257558713E+02  0.51100000000E-03 0.  1.
        -12    1    3    3    0    0 -0.22357607974E+01 -0.58307611529E+01  0.12342653420E+02  0.13832479728E+02  0.00000000000E+00 0.  1.
</event>
<event>
 7    1  0.9953837E-014  0.5052886E+02  0.7816164E-02  0.1300439E+00
        -11   -1    0    0    0    0  0.00000000000E+00  0.00000000000E+00  0.45593999997E+02  0.45594000000E+02  0.51100000000E-03 0. -1.
         11   -1    0    0    0    0 -0.00000000000E+00 -0.00000000000E+00 -0.45593999997E+02  0.45594000000E+02  0.51100000000E-03 0.  1.
    9900012    2    1    2    0    0 -0.14186163415E+02 -0.24900441178E+02 -0.28842436930E+02  0.50528863618E+02  0.30000011453E+02 0.  0.
         12    1    1    2    0    0  0.14186163415E+02  0.24900441178E+02  0.28842436930E+02  0.40659136382E+02  0.00000000000E+00 0. -1.
         11    1    3    3    0    0 -0.35558382877E+01 -0.19121700340E+02 -0.14399305427E+01  0.19502738527E+02  0.51100000000E-03 0. -1.
        -11    1    3    3    0    0 -0.10782126541E+02 -0.50405808197E+01 -0.17912621076E+02  0.21506364217E+02  0.51100000000E-03 0.  1.
         12    1    3    3    0    0  0.15180141411E+00 -0.73816001805E+00 -0.94898853108E+01  0.95197608738E+01  0.00000000000E+00 0. -1.
</event>
<event>
 7    1  0.9953837E-014  0.5052886E+02  0.7816164E-02  0.1300439E+00
        -11   -1    0    0    0    0  0.00000000000E+00  0.00000000000E+00  0.45593999997E+02  0.45594000000E+02  0.51100000000E-03 0.  1.
         11   -1    0    0    0    0 -0.00000000000E+00 -0.00000000000E+00 -0.45593999997E+02  0.45594000000E+02  0.51100000000E-03 0. -1.
    9900012    2    1    2    0    0  0.15594940704E+02 -0.34318396606E+02  0.15238473137E+02  0.50528860994E+02  0.30000003477E+02 0.  0.
        -12    1    1    2    0    0 -0.15594940704E+02  0.34318396606E+02 -0.15238473137E+02  0.40659139006E+02  0.00000000000E+00 0.  1.
         11    1    3    3    0    0  0.19375848275E+02 -0.26055371309E+02  0.14028585400E+02  0.35370992056E+02  0.51100000000E-03 0. -1.
        -11    1    3    3    0    0  0.55021614468E+00  0.48102734789E+00  0.47287190237E+01  0.47848624830E+01  0.51100000000E-03 0.  1.
         12    1    3    3    0    0 -0.43311237151E+01 -0.87440526445E+01 -0.35188312869E+01  0.10373006455E+02  0.00000000000E+00 0. -1.
</event>
<event>
 7    1  0.9953837E-014  0.5052886E+02  0.7816164E-02  0.1300439E+00
        -11   -1    0    0    0    0  0.00000000000E+00  0.00000000000E+00  0.45593999997E+02  0.45594000000E+02  0.51100000000E-03 0. -1.
         11   -1    0    0    0    0 -0.00000000000E+00 -0.00000000000E+00 -0.45593999997E+02  0.45594000000E+02  0.51100000000E-03 0.  1.
    9900012    2    1    2    0    0 -0.34882513737E+02  0.62191736732E+01 -0.19942366570E+02  0.50528857483E+02  0.29999992805E+02 0.  0.
         12    1    1    2    0    0  0.34882513737E+02 -0.62191736732E+01  0.19942366570E+02  0.40659142517E+02  0.00000000000E+00 0. -1.
         11    1    3    3    0    0 -0.10352491362E+01 -0.57229918094E-01 -0.98455326730E+01  0.98999762582E+01  0.51100000000E-03 0. -1.
        -11    1    3    3    0    0 -0.28568894555E+02  0.86420702174E+01 -0.10189370182E+01  0.29864784390E+02  0.51100000000E-03 0.  1.
        -12    1    3    3    0    0 -0.52783700464E+01 -0.23656666261E+01 -0.90778968787E+01  0.10764096835E+02  0.00000000000E+00 0.  1.
</event>
<event>
 7    1  0.1157243E-013  0.5052886E+02  0.7816164E-02  0.1300439E+00
        -11   -1    0    0    0    0  0.00000000000E+00  0.00000000000E+00  0.45593999997E+02  0.45594000000E+02  0.51100000000E-03 0. -1.
         11   -1    0    0    0    0 -0.00000000000E+00 -0.00000000000E+00 -0.45593999997E+02  0.45594000000E+02  0.51100000000E-03 0.  1.
    9900012    2    1    2    0    0  0.21074120203E+01  0.32167850433E+02  0.24778094314E+02  0.50528859026E+02  0.29999997494E+02 0.  0.
        -12    1    1    2    0    0 -0.21074120203E+01 -0.32167850433E+02 -0.24778094314E+02  0.40659140974E+02  0.00000000000E+00 0.  1.
         11    1    3    3    0    0 -0.51112349485E+01  0.27588082556E+02  0.17563289787E+02  0.33101301639E+02  0.51100000000E-03 0. -1.
        -11    1    3    3    0    0  0.66052057285E+00 -0.17753149778E+01 -0.31113387277E+01  0.36425896882E+01  0.51100000000E-03 0.  1.
         12    1    3    3    0    0  0.65581263960E+01  0.63550828556E+01  0.10326143255E+02  0.13784967698E+02  0.00000000000E+00 0. -1.
</event>
<event>
 7    1  0.9953837E-014  0.5052901E+02  0.7816164E-02  0.1300438E+00
        -11   -1    0    0    0    0  0.00000000000E+00  0.00000000000E+00  0.45593999997E+02  0.45594000000E+02  0.51100000000E-03 0. -1.
         11   -1    0    0    0    0 -0.00000000000E+00 -0.00000000000E+00 -0.45593999997E+02  0.45594000000E+02  0.51100000000E-03 0.  1.
    9900012    2    1    2    0    0  0.26113642545E+02  0.21492193815E+02 -0.22568052545E+02  0.50529006928E+02  0.30000447055E+02 0.  0.
         12    1    1    2    0    0 -0.26113642545E+02 -0.21492193815E+02  0.22568052545E+02  0.40658993072E+02  0.00000000000E+00 0. -1.
         11    1    3    3    0    0  0.19738845553E+02 -0.70306011779E+00 -0.11846395985E+02  0.23031574315E+02  0.51100000000E-03 0. -1.
        -11    1    3    3    0    0  0.68945627419E+01  0.73070522279E+01 -0.20278019637E+01  0.10248901830E+02  0.51100000000E-03 0.  1.
         12    1    3    3    0    0 -0.51976574988E+00  0.14888201705E+02 -0.86938545956E+01  0.17248530783E+02  0.00000000000E+00 0. -1.
</event>
<event>
 7    1  0.9953837E-014  0.5052885E+02  0.7816164E-02  0.1300439E+00
        -11   -1    0    0    0    0  0.00000000000E+00  0.00000000000E+00  0.45593999997E+02  0.45594000000E+02  0.51100000000E-03 0. -1.
         11   -1    0    0    0    0 -0.00000000000E+00 -0.00000000000E+00 -0.45593999997E+02  0.45594000000E+02  0.51100000000E-03 0.  1.
    9900012    2    1    2    0    0  0.88733880056E+00 -0.19225606876E+02  0.35815566153E+02  0.50528854549E+02  0.29999983888E+02 0.  0.
        -12    1    1    2    0    0 -0.88733880056E+00  0.19225606876E+02 -0.35815566153E+02  0.40659145451E+02  0.00000000000E+00 0.  1.
         11    1    3    3    0    0  0.10634741120E+02 -0.76046004063E+01  0.17305809519E+02  0.21689138051E+02  0.51100000000E-03 0. -1.
        -11    1    3    3    0    0 -0.44887918592E+01 -0.24188141558E+01  0.17459756908E+02  0.18189090846E+02  0.51100000000E-03 0.  1.
         12    1    3    3    0    0 -0.52586104601E+01 -0.92021923143E+01  0.10499997265E+01  0.10650625652E+02  0.00000000000E+00 0. -1.
</event>
<event>
 7    1  0.9953837E-014  0.5052886E+02  0.7816164E-02  0.1300439E+00
        -11   -1    0    0    0    0  0.00000000000E+00  0.00000000000E+00  0.45593999997E+02  0.45594000000E+02  0.51100000000E-03 0. -1.
         11   -1    0    0    0    0 -0.00000000000E+00 -0.00000000000E+00 -0.45593999997E+02  0.45594000000E+02  0.51100000000E-03 0.  1.
    9900012    2    1    2    0    0  0.51748458087E+01 -0.65970992313E+01  0.39785230964E+02  0.50528863877E+02  0.30000012240E+02 0.  0.
        -12    1    1    2    0    0 -0.51748458087E+01  0.65970992313E+01 -0.39785230964E+02  0.40659136123E+02  0.00000000000E+00 0.  1.
         11    1    3    3    0    0  0.11739835539E+02 -0.91654613184E+01  0.73203768036E+01  0.16595702350E+02  0.51100000000E-03 0. -1.
        -11    1    3    3    0    0 -0.22709778605E+01  0.23673961019E+01  0.41313245001E+01  0.52753907090E+01  0.51100000000E-03 0.  1.
         12    1    3    3    0    0 -0.42940118700E+01  0.20096598518E+00  0.28333529660E+02  0.28657770818E+02  0.00000000000E+00 0. -1.
</event>
<event>
 7    1  0.9953837E-014  0.5052884E+02  0.7816164E-02  0.1300439E+00
        -11   -1    0    0    0    0  0.00000000000E+00  0.00000000000E+00  0.45593999997E+02  0.45594000000E+02  0.51100000000E-03 0. -1.
         11   -1    0    0    0    0 -0.00000000000E+00 -0.00000000000E+00 -0.45593999997E+02  0.45594000000E+02  0.51100000000E-03 0.  1.
    9900012    2    1    2    0    0  0.10775147166E+02  0.21836151339E+02 -0.32561418108E+02  0.50528840503E+02  0.29999941194E+02 0.  0.
         12    1    1    2    0    0 -0.10775147166E+02 -0.21836151339E+02  0.32561418108E+02  0.40659159497E+02  0.00000000000E+00 0. -1.
         11    1    3    3    0    0 -0.61530697496E+01  0.12246478667E+02 -0.78325405632E+01  0.15785601003E+02  0.51100000000E-03 0. -1.
        -11    1    3    3    0    0  0.17910738898E+02  0.12081584096E+02 -0.22997235803E+02  0.31553638411E+02  0.51100000000E-03 0.  1.
         12    1    3    3    0    0 -0.98252198176E+00 -0.24919114238E+01 -0.17316417418E+01  0.31896010896E+01  0.00000000000E+00 0. -1.
</event>
<event>
 7    1  0.9953837E-014  0.5052886E+02  0.7816164E-02  0.1300439E+00
        -11   -1    0    0    0    0  0.00000000000E+00  0.00000000000E+00  0.45593999997E+02  0.45594000000E+02  0.51100000000E-03 0. -1.
         11   -1    0    0    0    0 -0.00000000000E+00 -0.00000000000E+00 -0.45593999997E+02  0.45594000000E+02  0.51100000000E-03 0.  1.
    9900012    2    1    2    0    0 -0.27281280552E+02 -0.88255701351E+01  0.28827193903E+02  0.50528855087E+02  0.29999985521E+02 0.  0.
        -12    1    1    2    0    0  0.27281280552E+02  0.88255701351E+01 -0.28827193903E+02  0.40659144913E+02  0.00000000000E+00 0.  1.
         11    1    3    3    0    0 -0.12608814855E+02 -0.82982374416E+01  0.27810316532E+02  0.31642639943E+02  0.51100000000E-03 0. -1.
        -11    1    3    3    0    0 -0.11801250378E+02  0.11393622465E+01 -0.43051794205E+01  0.12613573123E+02  0.51100000000E-03 0.  1.
        -12    1    3    3    0    0 -0.28712153189E+01 -0.16666949400E+01  0.53220567912E+01  0.62726420206E+01  0.00000000000E+00 0.  1.
</event>
<event>
 7    1  0.9953837E-014  0.5052885E+02  0.7816164E-02  0.1300439E+00
        -11   -1    0    0    0    0  0.00000000000E+00  0.00000000000E+00  0.45593999997E+02  0.45594000000E+02  0.51100000000E-03 0.  1.
         11   -1    0    0    0    0 -0.00000000000E+00 -0.00000000000E+00 -0.45593999997E+02  0.45594000000E+02  0.51100000000E-03 0. -1.
    9900012    2    1    2    0    0 -0.30836275369E+02 -0.19997838138E+02  0.17388994276E+02  0.50528849361E+02  0.29999968116E+02 0.  0.
         12    1    1    2    0    0  0.30836275369E+02  0.19997838138E+02 -0.17388994276E+02  0.40659150639E+02  0.00000000000E+00 0. -1.
         11    1    3    3    0    0  0.43944642960E+01 -0.15467799852E+01  0.23185000757E+01  0.52037762859E+01  0.51100000000E-03 0. -1.
        -11    1    3    3    0    0 -0.30649327292E+02 -0.16420208958E+02  0.18369964400E+02  0.39325057127E+02  0.51100000000E-03 0.  1.
        -12    1    3    3    0    0 -0.45814123724E+01 -0.20308491947E+01 -0.32994701998E+01  0.60000159481E+01  0.00000000000E+00 0.  1.
</event>
<event>
 7    1  0.9953837E-014  0.5052889E+02  0.7816164E-02  0.1300439E+00
        -11   -1    0    0    0    0  0.00000000000E+00  0.00000000000E+00  0.45593999997E+02  0.45594000000E+02  0.51100000000E-03 0. -1.
         11   -1    0    0    0    0 -0.00000000000E+00 -0.00000000000E+00 -0.45593999997E+02  0.45594000000E+02  0.51100000000E-03 0.  1.
    9900012    2    1    2    0    0  0.30033783063E+01  0.84562134748E+01 -0.39656465502E+02  0.50528891750E+02  0.30000096964E+02 0.  0.
         12    1    1    2    0    0 -0.30033783063E+01 -0.84562134748E+01  0.39656465502E+02  0.40659108250E+02  0.00000000000E+00 0. -1.
         11    1    3    3    0    0 -0.33648870706E+00 -0.86186046404E+01 -0.33624367403E+01  0.92574052354E+01  0.51100000000E-03 0. -1.
        -11    1    3    3    0    0 -0.11041851004E+01 -0.50447015224E+00 -0.45971577046E+01  0.47547422740E+01  0.51100000000E-03 0.  1.
         12    1    3    3    0    0  0.44440521138E+01  0.17579288268E+02 -0.31696871057E+02  0.36516744241E+02  0.00000000000E+00 0. -1.
</event>
<event>
 7    1  0.9953837E-014  0.5052886E+02  0.7816164E-02  0.1300439E+00
        -11   -1    0    0    0    0  0.00000000000E+00  0.00000000000E+00  0.45593999997E+02  0.45594000000E+02  0.51100000000E-03 0. -1.
         11   -1    0    0    0    0 -0.00000000000E+00 -0.00000000000E+00 -0.45593999997E+02  0.45594000000E+02  0.51100000000E-03 0.  1.
    9900012    2    1    2    0    0  0.18017548470E+02  0.85726098642E+01  0.35426601458E+02  0.50528858548E+02  0.29999996042E+02 0.  0.
        -12    1    1    2    0    0 -0.18017548470E+02 -0.85726098642E+01 -0.35426601458E+02  0.40659141452E+02  0.00000000000E+00 0.  1.
         11    1    3    3    0    0  0.10201583196E+02  0.20579971286E+01  0.31831394950E+02  0.33489481283E+02  0.51100000000E-03 0. -1.
        -11    1    3    3    0    0 -0.25402537321E+01  0.31870206148E+01 -0.22867367129E+01  0.46732381148E+01  0.51100000000E-03 0.  1.
         12    1    3    3    0    0  0.10356219006E+02  0.33275921208E+01  0.58819432214E+01  0.12366139150E+02  0.00000000000E+00 0. -1.
</event>
<event>
 7    1  0.9953837E-014  0.5052885E+02  0.7816164E-02  0.1300439E+00
        -11   -1    0    0    0    0  0.00000000000E+00  0.00000000000E+00  0.45593999997E+02  0.45594000000E+02  0.51100000000E-03 0. -1.
         11   -1    0    0    0    0 -0.00000000000E+00 -0.00000000000E+00 -0.45593999997E+02  0.45594000000E+02  0.51100000000E-03 0.  1.
    9900012    2    1    2    0    0  0.97848400684E+01  0.35104739039E+02  0.18029987695E+02  0.50528852758E+02  0.29999978444E+02 0.  0.
        -12    1    1    2    0    0 -0.97848400684E+01 -0.35104739039E+02 -0.18029987695E+02  0.40659147242E+02  0.00000000000E+00 0.  1.
         11    1    3    3    0    0  0.18438714550E+02  0.11805081325E+02  0.72096849044E+01  0.23050503163E+02  0.51100000000E-03 0. -1.
        -11    1    3    3    0    0 -0.58322071381E+01  0.11469089638E+02  0.37142150425E+01  0.13392163786E+02  0.51100000000E-03 0.  1.
         12    1    3    3    0    0 -0.28216673440E+01  0.11830568076E+02  0.71060877477E+01  0.14086185810E+02  0.00000000000E+00 0. -1.
</event>
<event>
 7    1  0.9953837E-014  0.5052886E+02  0.7816164E-02  0.1300439E+00
        -11   -1    0    0    0    0  0.00000000000E+00  0.00000000000E+00  0.45593999997E+02  0.45594000000E+02  0.51100000000E-03 0. -1.
         11   -1    0    0    0    0 -0.00000000000E+00 -0.00000000000E+00 -0.45593999997E+02  0.45594000000E+02  0.51100000000E-03 0.  1.
    9900012    2    1    2    0    0  0.12948054527E+02  0.21866101823E+02 -0.31739366364E+02  0.50528857090E+02  0.29999991611E+02 0.  0.
         12    1    1    2    0    0 -0.12948054527E+02 -0.21866101823E+02  0.31739366364E+02  0.40659142910E+02  0.00000000000E+00 0. -1.
         11    1    3    3    0    0  0.10279451714E+02  0.12133083971E+02 -0.50283861021E+01  0.16678234956E+02  0.51100000000E-03 0. -1.
        -11    1    3    3    0    0 -0.63585164397E+01  0.57211222003E+00 -0.34149241307E+01  0.72401485334E+01  0.51100000000E-03 0.  1.
        -12    1    3    3    0    0  0.90271192528E+01  0.91609056326E+01 -0.23296056131E+02  0.26610473601E+02  0.00000000000E+00 0.  1.
</event>
<event>
 7    1  0.1053822E-013  0.5052886E+02  0.7816164E-02  0.1300439E+00
        -11   -1    0    0    0    0  0.00000000000E+00  0.00000000000E+00  0.45593999997E+02  0.45594000000E+02  0.51100000000E-03 0.  1.
         11   -1    0    0    0    0 -0.00000000000E+00 -0.00000000000E+00 -0.45593999997E+02  0.45594000000E+02  0.51100000000E-03 0. -1.
    9900012    2    1    2    0    0 -0.52609724841E+01 -0.33770316185E+02  0.22023925833E+02  0.50528863317E+02  0.30000010539E+02 0.  0.
        -12    1    1    2    0    0  0.52609724841E+01  0.33770316185E+02 -0.22023925833E+02  0.40659136683E+02  0.00000000000E+00 0.  1.
         11    1    3    3    0    0 -0.33583481654E+00 -0.29142667696E+02  0.20686600790E+02  0.35739940095E+02  0.51100000000E-03 0. -1.
        -11    1    3    3    0    0 -0.84349226663E+01 -0.53742880494E+01 -0.16289098957E+01  0.10133323252E+02  0.51100000000E-03 0.  1.
         12    1    3    3    0    0  0.35097849987E+01  0.74663956067E+00  0.29662349387E+01  0.46555999702E+01  0.00000000000E+00 0. -1.
</event>
<event>
 7    1  0.9953837E-014  0.5052882E+02  0.7816164E-02  0.1300439E+00
        -11   -1    0    0    0    0  0.00000000000E+00  0.00000000000E+00  0.45593999997E+02  0.45594000000E+02  0.51100000000E-03 0. -1.
         11   -1    0    0    0    0 -0.00000000000E+00 -0.00000000000E+00 -0.45593999997E+02  0.45594000000E+02  0.51100000000E-03 0.  1.
    9900012    2    1    2    0    0 -0.20211444466E+00 -0.19611540493E+02  0.35616222441E+02  0.50528823032E+02  0.29999888087E+02 0.  0.
        -12    1    1    2    0    0  0.20211444466E+00  0.19611540493E+02 -0.35616222441E+02  0.40659176968E+02  0.00000000000E+00 0.  1.
         11    1    3    3    0    0 -0.65699635632E+01  0.50758685540E+01  0.14299685497E+02  0.16535110171E+02  0.51100000000E-03 0. -1.
        -11    1    3    3    0    0  0.46651407483E+01 -0.13140554800E+02  0.72527099283E+01  0.15717490900E+02  0.51100000000E-03 0.  1.
        -12    1    3    3    0    0  0.17027083703E+01 -0.11546854248E+02  0.14063827016E+02  0.18276221960E+02  0.00000000000E+00 0.  1.
</event>
<event>
 7    1  0.9953837E-014  0.5052886E+02  0.7816164E-02  0.1300439E+00
        -11   -1    0    0    0    0  0.00000000000E+00  0.00000000000E+00  0.45593999997E+02  0.45594000000E+02  0.51100000000E-03 0. -1.
         11   -1    0    0    0    0 -0.00000000000E+00 -0.00000000000E+00 -0.45593999997E+02  0.45594000000E+02  0.51100000000E-03 0.  1.
    9900012    2    1    2    0    0  0.20433769956E+02  0.24358512617E+02  0.25343437045E+02  0.50528857205E+02  0.29999991961E+02 0.  0.
        -12    1    1    2    0    0 -0.20433769956E+02 -0.24358512617E+02 -0.25343437045E+02  0.40659142795E+02  0.00000000000E+00 0.  1.
         11    1    3    3    0    0  0.10291648191E+02  0.83319101761E+01 -0.29280475857E+01  0.13561423694E+02  0.51100000000E-03 0. -1.
        -11    1    3    3    0    0  0.12866323990E+02  0.15735632825E+02  0.27351862891E+02  0.34077512193E+02  0.51100000000E-03 0.  1.
        -12    1    3    3    0    0 -0.27242022252E+01  0.29096961580E+00  0.91962174037E+00  0.28899213184E+01  0.00000000000E+00 0.  1.
</event>
<event>
 7    1  0.9953837E-014  0.5052886E+02  0.7816164E-02  0.1300439E+00
        -11   -1    0    0    0    0  0.00000000000E+00  0.00000000000E+00  0.45593999997E+02  0.45594000000E+02  0.51100000000E-03 0.  1.
         11   -1    0    0    0    0 -0.00000000000E+00 -0.00000000000E+00 -0.45593999997E+02  0.45594000000E+02  0.51100000000E-03 0. -1.
    9900012    2    1    2    0    0  0.31300198388E+02  0.22737058554E+02  0.12509573838E+02  0.50528859718E+02  0.29999999600E+02 0.  0.
        -12    1    1    2    0    0 -0.31300198388E+02 -0.22737058554E+02 -0.12509573838E+02  0.40659140282E+02  0.00000000000E+00 0.  1.
         11    1    3    3    0    0  0.80144548916E+01  0.22376950622E+02  0.32379253063E+01  0.23988404843E+02  0.51100000000E-03 0. -1.
        -11    1    3    3    0    0  0.19222577355E+02  0.26343178213E+00  0.10971676660E+02  0.22134917336E+02  0.51100000000E-03 0.  1.
         12    1    3    3    0    0  0.40631661420E+01  0.96676149712E-01 -0.17000281285E+01  0.44055375396E+01  0.00000000000E+00 0. -1.
</event>
<event>
 7    1  0.9953837E-014  0.5052887E+02  0.7816164E-02  0.1300439E+00
        -11   -1    0    0    0    0  0.00000000000E+00  0.00000000000E+00  0.45593999997E+02  0.45594000000E+02  0.51100000000E-03 0. -1.
         11   -1    0    0    0    0 -0.00000000000E+00 -0.00000000000E+00 -0.45593999997E+02  0.45594000000E+02  0.51100000000E-03 0.  1.
    9900012    2    1    2    0    0 -0.74848496990E+01 -0.16440676157E+02  0.36425903034E+02  0.50528865487E+02  0.30000017135E+02 0.  0.
        -12    1    1    2    0    0  0.74848496990E+01  0.16440676157E+02 -0.36425903034E+02  0.40659134513E+02  0.00000000000E+00 0.  1.
         11    1    3    3    0    0 -0.37071692740E+01  0.46742466166E+01  0.19214217253E+02  0.20119091192E+02  0.51100000000E-03 0. -1.
        -11    1    3    3    0    0  0.74413867870E+00 -0.17520243524E+02  0.74202105370E+01  0.19041328740E+02  0.51100000000E-03 0.  1.
        -12    1    3    3    0    0 -0.45218191038E+01 -0.35946792494E+01  0.97914752433E+01  0.11368445556E+02  0.00000000000E+00 0.  1.
</event>
<event>
 7    1  0.9953837E-014  0.5052885E+02  0.7816164E-02  0.1300439E+00
        -11   -1    0    0    0    0  0.00000000000E+00  0.00000000000E+00  0.45593999997E+02  0.45594000000E+02  0.51100000000E-03 0.  1.
         11   -1    0    0    0    0 -0.00000000000E+00 -0.00000000000E+00 -0.45593999997E+02  0.45594000000E+02  0.51100000000E-03 0. -1.
    9900012    2    1    2    0    0 -0.22138175684E+02  0.21543278531E+02 -0.26437750469E+02  0.50528851923E+02  0.29999975907E+02 0.  0.
         12    1    1    2    0    0  0.22138175684E+02 -0.21543278531E+02  0.26437750469E+02  0.40659148077E+02  0.00000000000E+00 0. -1.
         11    1    3    3    0    0 -0.39749752985E+01 -0.31553120785E+01  0.24644983822E+01  0.56418237719E+01  0.51100000000E-03 0. -1.
        -11    1    3    3    0    0 -0.88662732795E+01  0.15949975732E+02 -0.70182842542E+01  0.19551696649E+02  0.51100000000E-03 0.  1.
         12    1    3    3    0    0 -0.92969271056E+01  0.87486148776E+01 -0.21883964597E+02  0.25335331503E+02  0.00000000000E+00 0. -1.
</event>
<event>
 7    1  0.9953837E-014  0.5052885E+02  0.7816164E-02  0.1300439E+00
        -11   -1    0    0    0    0  0.00000000000E+00  0.00000000000E+00  0.45593999997E+02  0.45594000000E+02  0.51100000000E-03 0. -1.
         11   -1    0    0    0    0 -0.00000000000E+00 -0.00000000000E+00 -0.45593999997E+02  0.45594000000E+02  0.51100000000E-03 0.  1.
    9900012    2    1    2    0    0  0.63964456537E+01  0.30220007948E+02  0.26438662694E+02  0.50528852414E+02  0.29999977398E+02 0.  0.
        -12    1    1    2    0    0 -0.63964456537E+01 -0.30220007948E+02 -0.26438662694E+02  0.40659147586E+02  0.00000000000E+00 0.  1.
         11    1    3    3    0    0 -0.38187598275E+01  0.16055078531E+02  0.20695038227E+02  0.26469474508E+02  0.51100000000E-03 0. -1.
        -11    1    3    3    0    0  0.13777705606E+02  0.10733334046E+02  0.14776900908E+01  0.17527498389E+02  0.51100000000E-03 0.  1.
        -12    1    3    3    0    0 -0.35625001247E+01  0.34315953711E+01  0.42659343756E+01  0.65318795171E+01  0.00000000000E+00 0.  1.
</event>
<event>
 7    1  0.9953837E-014  0.5052900E+02  0.7816164E-02  0.1300438E+00
        -11   -1    0    0    0    0  0.00000000000E+00  0.00000000000E+00  0.45593999997E+02  0.45594000000E+02  0.51100000000E-03 0. -1.
         11   -1    0    0    0    0 -0.00000000000E+00 -0.00000000000E+00 -0.45593999997E+02  0.45594000000E+02  0.51100000000E-03 0.  1.
    9900012    2    1    2    0    0  0.30848221384E+02 -0.10503215661E+02 -0.24315097815E+02  0.50528999969E+02  0.30000425902E+02 0.  0.
         12    1    1    2    0    0 -0.30848221384E+02  0.10503215661E+02  0.24315097815E+02  0.40659000031E+02  0.00000000000E+00 0. -1.
         11    1    3    3    0    0 -0.21797035289E+00 -0.94626527565E+01 -0.12820471164E+02  0.15935927629E+02  0.51100000000E-03 0. -1.
        -11    1    3    3    0    0  0.15150588929E+02 -0.34082699879E+01 -0.99159542590E+01  0.18425058978E+02  0.51100000000E-03 0.  1.
         12    1    3    3    0    0  0.15915602807E+02  0.23677070835E+01 -0.15786723925E+01  0.16168013362E+02  0.00000000000E+00 0. -1.
</event>
<event>
 7    1  0.9953837E-014  0.5052886E+02  0.7816164E-02  0.1300439E+00
        -11   -1    0    0    0    0  0.00000000000E+00  0.00000000000E+00  0.45593999997E+02  0.45594000000E+02  0.51100000000E-03 0. -1.
         11   -1    0    0    0    0 -0.00000000000E+00 -0.00000000000E+00 -0.45593999997E+02  0.45594000000E+02  0.51100000000E-03 0.  1.
    9900012    2    1    2    0    0  0.10781987560E+01 -0.20884805342E+02 -0.34868728650E+02  0.50528857800E+02  0.29999993770E+02 0.  0.
         12    1    1    2    0    0 -0.10781987560E+01  0.20884805342E+02  0.34868728650E+02  0.40659142200E+02  0.00000000000E+00 0. -1.
         11    1    3    3    0    0  0.12273602702E+02 -0.18201072931E+02 -0.29845189832E+02  0.37049368895E+02  0.51100000000E-03 0.  1.
        -11    1    3    3    0    0 -0.78925633081E+01 -0.21896115960E+01 -0.10014341068E+01  0.82516558971E+01  0.51100000000E-03 0. -1.
        -12    1    3    3    0    0 -0.33028406375E+01 -0.49412081522E+00 -0.40221047111E+01  0.52278330084E+01  0.00000000000E+00 0.  1.
</event>
<event>
 7    1  0.9953837E-014  0.5052886E+02  0.7816164E-02  0.1300439E+00
        -11   -1    0    0    0    0  0.00000000000E+00  0.00000000000E+00  0.45593999997E+02  0.45594000000E+02  0.51100000000E-03 0. -1.
         11   -1    0    0    0    0 -0.00000000000E+00 -0.00000000000E+00 -0.45593999997E+02  0.45594000000E+02  0.51100000000E-03 0.  1.
    9900012    2    1    2    0    0 -0.27403347804E+02  0.33972132686E+01 -0.29844279005E+02  0.50528861812E+02  0.30000005964E+02 0.  0.
         12    1    1    2    0    0  0.27403347804E+02 -0.33972132686E+01  0.29844279005E+02  0.40659138188E+02  0.00000000000E+00 0. -1.
         11    1    3    3    0    0  0.22190400391E+01 -0.62406315419E+00 -0.87596513613E+00  0.24659498568E+01  0.51100000000E-03 0. -1.
        -11    1    3    3    0    0 -0.33627734348E+02  0.53841191791E+01 -0.24848510851E+02  0.42157582337E+02  0.51100000000E-03 0.  1.
        -12    1    3    3    0    0  0.40053465048E+01 -0.13628427563E+01 -0.41198030176E+01  0.59053296188E+01  0.00000000000E+00 0.  1.
</event>
<event>
 7    1  0.9953837E-014  0.5052885E+02  0.7816164E-02  0.1300439E+00
        -11   -1    0    0    0    0  0.00000000000E+00  0.00000000000E+00  0.45593999997E+02  0.45594000000E+02  0.51100000000E-03 0. -1.
         11   -1    0    0    0    0 -0.00000000000E+00 -0.00000000000E+00 -0.45593999997E+02  0.45594000000E+02  0.51100000000E-03 0.  1.
    9900012    2    1    2    0    0 -0.54832425759E+01 -0.21087669803E+02  0.34327981642E+02  0.50528854775E+02  0.29999984574E+02 0.  0.
        -12    1    1    2    0    0  0.54832425759E+01  0.21087669803E+02 -0.34327981642E+02  0.40659145225E+02  0.00000000000E+00 0.  1.
         11    1    3    3    0    0  0.31600934478E+01 -0.72509337344E+01  0.59784548052E+01  0.99148450688E+01  0.51100000000E-03 0. -1.
        -11    1    3    3    0    0 -0.10914966831E+02 -0.12623765758E+02  0.32033142626E+02  0.36119498745E+02  0.51100000000E-03 0.  1.
        -12    1    3    3    0    0  0.22716308077E+01 -0.12129703106E+01 -0.36836157892E+01  0.44945109616E+01  0.00000000000E+00 0.  1.
</event>
<event>
 7    1  0.1409712E-013  0.5052887E+02  0.7816164E-02  0.1300439E+00
        -11   -1    0    0    0    0  0.00000000000E+00  0.00000000000E+00  0.45593999997E+02  0.45594000000E+02  0.51100000000E-03 0. -1.
         11   -1    0    0    0    0 -0.00000000000E+00 -0.00000000000E+00 -0.45593999997E+02  0.45594000000E+02  0.51100000000E-03 0.  1.
    9900012    2    1    2    0    0  0.26360416582E+02 -0.14790305127E+02  0.27194489185E+02  0.50528869044E+02  0.30000027945E+02 0.  0.
        -12    1    1    2    0    0 -0.26360416582E+02  0.14790305127E+02 -0.27194489185E+02  0.40659130956E+02  0.00000000000E+00 0.  1.
         11    1    3    3    0    0  0.18808323200E+02  0.38896792267E+00  0.18956025259E+02  0.26706463853E+02  0.51100000000E-03 0. -1.
        -11    1    3    3    0    0 -0.22134648194E+01 -0.21869632932E+01 -0.27912286321E+01  0.41800947944E+01  0.51100000000E-03 0.  1.
         12    1    3    3    0    0  0.97655582010E+01 -0.12992309756E+02  0.11029692558E+02  0.19642310396E+02  0.00000000000E+00 0. -1.
</event>
<event>
 7    1  0.1013549E-013  0.5052887E+02  0.7816164E-02  0.1300439E+00
        -11   -1    0    0    0    0  0.00000000000E+00  0.00000000000E+00  0.45593999997E+02  0.45594000000E+02  0.51100000000E-03 0. -1.
         11   -1    0    0    0    0 -0.00000000000E+00 -0.00000000000E+00 -0.45593999997E+02  0.45594000000E+02  0.51100000000E-03 0.  1.
    9900012    2    1    2    0    0 -0.28454950058E+02 -0.12403233907E+02  0.26261002156E+02  0.50528872754E+02  0.30000039224E+02 0.  0.
        -12    1    1    2    0    0  0.28454950058E+02  0.12403233907E+02 -0.26261002156E+02  0.40659127246E+02  0.00000000000E+00 0.  1.
         11    1    3    3    0    0 -0.21552602336E+02 -0.47289192691E+01  0.27010438699E+02  0.34877516309E+02  0.51100000000E-03 0. -1.
        -11    1    3    3    0    0  0.26548232147E+01 -0.23365146741E+01 -0.28042020707E+01  0.45134174013E+01  0.51100000000E-03 0.  1.
         12    1    3    3    0    0 -0.95571709364E+01 -0.53377999641E+01  0.20547655272E+01  0.11137939044E+02  0.00000000000E+00 0. -1.
</event>
<event>
 7    1  0.9953837E-014  0.5052886E+02  0.7816164E-02  0.1300439E+00
        -11   -1    0    0    0    0  0.00000000000E+00  0.00000000000E+00  0.45593999997E+02  0.45594000000E+02  0.51100000000E-03 0. -1.
         11   -1    0    0    0    0 -0.00000000000E+00 -0.00000000000E+00 -0.45593999997E+02  0.45594000000E+02  0.51100000000E-03 0.  1.
    9900012    2    1    2    0    0  0.11309434896E+02 -0.19322353029E+02  0.33939783772E+02  0.50528861215E+02  0.30000004149E+02 0.  0.
        -12    1    1    2    0    0 -0.11309434896E+02  0.19322353029E+02 -0.33939783772E+02  0.40659138785E+02  0.00000000000E+00 0.  1.
         11    1    3    3    0    0 -0.63644624247E+01 -0.12213845684E+02  0.92052727041E+01  0.16565670955E+02  0.51100000000E-03 0. -1.
        -11    1    3    3    0    0  0.49071923845E+01 -0.65178502525E+01  0.17424465095E+02  0.19239929655E+02  0.51100000000E-03 0.  1.
         12    1    3    3    0    0  0.12766704936E+02 -0.59065709211E+00  0.73100459731E+01  0.14723260606E+02  0.00000000000E+00 0. -1.
</event>
<event>
 7    1  0.9953837E-014  0.5052886E+02  0.7816164E-02  0.1300439E+00
        -11   -1    0    0    0    0  0.00000000000E+00  0.00000000000E+00  0.45593999997E+02  0.45594000000E+02  0.51100000000E-03 0. -1.
         11   -1    0    0    0    0 -0.00000000000E+00 -0.00000000000E+00 -0.45593999997E+02  0.45594000000E+02  0.51100000000E-03 0.  1.
    9900012    2    1    2    0    0  0.83003199466E+01  0.15911137139E+02 -0.36484323841E+02  0.50528862252E+02  0.30000007300E+02 0.  0.
         12    1    1    2    0    0 -0.83003199466E+01 -0.15911137139E+02  0.36484323841E+02  0.40659137748E+02  0.00000000000E+00 0. -1.
         11    1    3    3    0    0  0.14363071984E+02  0.17398395340E+02 -0.13457216932E+02  0.26269729443E+02  0.51100000000E-03 0. -1.
        -11    1    3    3    0    0 -0.53522388681E+01 -0.52473086511E+00 -0.11791220322E+02  0.12959733034E+02  0.51100000000E-03 0.  1.
         12    1    3    3    0    0 -0.71051316971E+00 -0.96252733504E+00 -0.11235886588E+02  0.11299399774E+02  0.00000000000E+00 0. -1.
</event>
<event>
 7    1  0.9953837E-014  0.5052883E+02  0.7816164E-02  0.1300439E+00
        -11   -1    0    0    0    0  0.00000000000E+00  0.00000000000E+00  0.45593999997E+02  0.45594000000E+02  0.51100000000E-03 0. -1.
         11   -1    0    0    0    0 -0.00000000000E+00 -0.00000000000E+00 -0.45593999997E+02  0.45594000000E+02  0.51100000000E-03 0.  1.
    9900012    2    1    2    0    0  0.20421913236E+02 -0.16725184628E+02  0.30925418671E+02  0.50528833001E+02  0.29999918390E+02 0.  0.
        -12    1    1    2    0    0 -0.20421913236E+02  0.16725184628E+02 -0.30925418671E+02  0.40659166999E+02  0.00000000000E+00 0.  1.
         11    1    3    3    0    0  0.93758804675E+01  0.17697475594E+01 -0.30626211871E+01  0.10020917611E+02  0.51100000000E-03 0. -1.
        -11    1    3    3    0    0  0.82643993838E+01 -0.15890506230E+02  0.25079955169E+02  0.30819030435E+02  0.51100000000E-03 0.  1.
         12    1    3    3    0    0  0.27816333851E+01 -0.26044259577E+01  0.89080846888E+01  0.96888849555E+01  0.00000000000E+00 0. -1.
</event>
<event>
 7    1  0.9953837E-014  0.5052886E+02  0.7816164E-02  0.1300439E+00
        -11   -1    0    0    0    0  0.00000000000E+00  0.00000000000E+00  0.45593999997E+02  0.45594000000E+02  0.51100000000E-03 0. -1.
         11   -1    0    0    0    0 -0.00000000000E+00 -0.00000000000E+00 -0.45593999997E+02  0.45594000000E+02  0.51100000000E-03 0.  1.
    9900012    2    1    2    0    0 -0.16058592252E+02  0.42786414988E+01 -0.37107688149E+02  0.50528859847E+02  0.29999999991E+02 0.  0.
         12    1    1    2    0    0  0.16058592252E+02 -0.42786414988E+01  0.37107688149E+02  0.40659140153E+02  0.00000000000E+00 0. -1.
         11    1    3    3    0    0 -0.12675276616E+02  0.42286328882E+01 -0.40534253716E+02  0.42679851194E+02  0.51100000000E-03 0. -1.
        -11    1    3    3    0    0 -0.34891586789E+01  0.26872783110E+01  0.18683554392E+01  0.47839779803E+01  0.51100000000E-03 0.  1.
         12    1    3    3    0    0  0.10584304313E+00 -0.26372697004E+01  0.15582101272E+01  0.30650306724E+01  0.00000000000E+00 0. -1.
</event>
<event>
 7    1  0.9953837E-014  0.5052887E+02  0.7816164E-02  0.1300439E+00
        -11   -1    0    0    0    0  0.00000000000E+00  0.00000000000E+00  0.45593999997E+02  0.45594000000E+02  0.51100000000E-03 0. -1.
         11   -1    0    0    0    0 -0.00000000000E+00 -0.00000000000E+00 -0.45593999997E+02  0.45594000000E+02  0.51100000000E-03 0.  1.
    9900012    2    1    2    0    0 -0.21587844347E+02 -0.99706884483E+01  0.32980522762E+02  0.50528873923E+02  0.30000042775E+02 0.  0.
        -12    1    1    2    0    0  0.21587844347E+02  0.99706884483E+01 -0.32980522762E+02  0.40659126077E+02  0.00000000000E+00 0.  1.
         11    1    3    3    0    0 -0.25856185402E+02 -0.36623186155E+01  0.22135793515E+02  0.34233729799E+02  0.51100000000E-03 0. -1.
        -11    1    3    3    0    0  0.43489673233E+01 -0.84870715773E+01  0.68413637608E+01  0.11736616169E+02  0.51100000000E-03 0.  1.
        -12    1    3    3    0    0 -0.80626268686E-01  0.21787017446E+01  0.40033654866E+01  0.45585279539E+01  0.00000000000E+00 0.  1.
</event>
<event>
 7    1  0.9953837E-014  0.5052884E+02  0.7816164E-02  0.1300439E+00
        -11   -1    0    0    0    0  0.00000000000E+00  0.00000000000E+00  0.45593999997E+02  0.45594000000E+02  0.51100000000E-03 0.  1.
         11   -1    0    0    0    0 -0.00000000000E+00 -0.00000000000E+00 -0.45593999997E+02  0.45594000000E+02  0.51100000000E-03 0. -1.
    9900012    2    1    2    0    0  0.17083415835E+02  0.35906010459E+02  0.84901359319E+01  0.50528842460E+02  0.29999947143E+02 0.  0.
        -12    1    1    2    0    0 -0.17083415835E+02 -0.35906010459E+02 -0.84901359319E+01  0.40659157540E+02  0.00000000000E+00 0.  1.
         11    1    3    3    0    0  0.69590039351E+01  0.17496536835E+02 -0.84734730716E+01  0.20648396624E+02  0.51100000000E-03 0. -1.
        -11    1    3    3    0    0 -0.18350045278E+01  0.95046756212E+01  0.63155411819E+01  0.11558207515E+02  0.51100000000E-03 0.  1.
         12    1    3    3    0    0  0.11959416428E+02  0.89047980030E+01  0.10648067822E+02  0.18322238321E+02  0.00000000000E+00 0. -1.
</event>
<event>
 7    1  0.9953837E-014  0.5052886E+02  0.7816164E-02  0.1300439E+00
        -11   -1    0    0    0    0  0.00000000000E+00  0.00000000000E+00  0.45593999997E+02  0.45594000000E+02  0.51100000000E-03 0. -1.
         11   -1    0    0    0    0 -0.00000000000E+00 -0.00000000000E+00 -0.45593999997E+02  0.45594000000E+02  0.51100000000E-03 0.  1.
    9900012    2    1    2    0    0  0.19886561535E+02 -0.19832073453E+02 -0.29400323352E+02  0.50528862278E+02  0.30000007380E+02 0.  0.
         12    1    1    2    0    0 -0.19886561535E+02  0.19832073453E+02  0.29400323352E+02  0.40659137722E+02  0.00000000000E+00 0. -1.
         11    1    3    3    0    0 -0.19016905077E+00  0.67542410267E+01 -0.71874253741E+01  0.98648375498E+01  0.51100000000E-03 0. -1.
        -11    1    3    3    0    0  0.11245166127E+02 -0.93008441178E+01 -0.10701241385E+02  0.18096298792E+02  0.51100000000E-03 0.  1.
         12    1    3    3    0    0  0.88315644584E+01 -0.17285470362E+02 -0.11511656593E+02  0.22567725936E+02  0.00000000000E+00 0. -1.
</event>
<event>
 7    1  0.9953837E-014  0.5052886E+02  0.7816164E-02  0.1300439E+00
        -11   -1    0    0    0    0  0.00000000000E+00  0.00000000000E+00  0.45593999997E+02  0.45594000000E+02  0.51100000000E-03 0. -1.
         11   -1    0    0    0    0 -0.00000000000E+00 -0.00000000000E+00 -0.45593999997E+02  0.45594000000E+02  0.51100000000E-03 0.  1.
    9900012    2    1    2    0    0 -0.11262073415E+02 -0.27316094684E+02  0.27931384425E+02  0.50528861270E+02  0.30000004315E+02 0.  0.
        -12    1    1    2    0    0  0.11262073415E+02  0.27316094684E+02 -0.27931384425E+02  0.40659138730E+02  0.00000000000E+00 0.  1.
         11    1    3    3    0    0 -0.85461081393E+00  0.56050021405E+01  0.30908694609E+01  0.64575446513E+01  0.51100000000E-03 0. -1.
        -11    1    3    3    0    0 -0.10784250515E+01 -0.14951789779E+02  0.52090767999E+01  0.15869892865E+02  0.51100000000E-03 0.  1.
         12    1    3    3    0    0 -0.93290375499E+01 -0.17969307045E+02  0.19631438165E+02  0.28201423753E+02  0.00000000000E+00 0. -1.
</event>
<event>
 7    1  0.9953837E-014  0.5052884E+02  0.7816164E-02  0.1300439E+00
        -11   -1    0    0    0    0  0.00000000000E+00  0.00000000000E+00  0.45593999997E+02  0.45594000000E+02  0.51100000000E-03 0. -1.
         11   -1    0    0    0    0 -0.00000000000E+00 -0.00000000000E+00 -0.45593999997E+02  0.45594000000E+02  0.51100000000E-03 0.  1.
    9900012    2    1    2    0    0  0.17726202719E+02 -0.32558074719E+02 -0.16700917362E+02  0.50528841954E+02  0.29999945605E+02 0.  0.
         12    1    1    2    0    0 -0.17726202719E+02  0.32558074719E+02  0.16700917362E+02  0.40659158046E+02  0.00000000000E+00 0. -1.
         11    1    3    3    0    0  0.90671296923E+01 -0.12003460957E+02  0.72919209833E+01  0.16717297260E+02  0.51100000000E-03 0. -1.
        -11    1    3    3    0    0  0.89770225849E+01 -0.12129326906E+02 -0.12729054202E+02  0.19741740725E+02  0.51100000000E-03 0.  1.
         12    1    3    3    0    0 -0.31794955796E+00 -0.84252868552E+01 -0.11263784143E+02  0.14069803969E+02  0.00000000000E+00 0. -1.
</event>
<event>
 7    1  0.9953837E-014  0.5052886E+02  0.7816164E-02  0.1300439E+00
        -11   -1    0    0    0    0  0.00000000000E+00  0.00000000000E+00  0.45593999997E+02  0.45594000000E+02  0.51100000000E-03 0. -1.
         11   -1    0    0    0    0 -0.00000000000E+00 -0.00000000000E+00 -0.45593999997E+02  0.45594000000E+02  0.51100000000E-03 0.  1.
    9900012    2    1    2    0    0  0.14726020652E+02  0.31118781429E+01 -0.37770706440E+02  0.50528859149E+02  0.29999997868E+02 0.  0.
         12    1    1    2    0    0 -0.14726020652E+02 -0.31118781429E+01  0.37770706440E+02  0.40659140851E+02  0.00000000000E+00 0. -1.
         11    1    3    3    0    0  0.31501851681E+01  0.60594372551E+01  0.33204316106E+01  0.75937943601E+01  0.51100000000E-03 0. -1.
        -11    1    3    3    0    0  0.52391823309E+01 -0.25410148022E+01 -0.24177700767E+02  0.24868996811E+02  0.51100000000E-03 0.  1.
         12    1    3    3    0    0  0.63366531530E+01 -0.40654431002E+00 -0.16913437283E+02  0.18066067978E+02  0.00000000000E+00 0. -1.
</event>
<event>
 7    1  0.9953837E-014  0.5052886E+02  0.7816164E-02  0.1300439E+00
        -11   -1    0    0    0    0  0.00000000000E+00  0.00000000000E+00  0.45593999997E+02  0.45594000000E+02  0.51100000000E-03 0. -1.
         11   -1    0    0    0    0 -0.00000000000E+00 -0.00000000000E+00 -0.45593999997E+02  0.45594000000E+02  0.51100000000E-03 0.  1.
    9900012    2    1    2    0    0  0.21784341532E+02 -0.24340040407E+02  0.24210959856E+02  0.50528859821E+02  0.29999999911E+02 0.  0.
        -12    1    1    2    0    0 -0.21784341532E+02  0.24340040407E+02 -0.24210959856E+02  0.40659140179E+02  0.00000000000E+00 0.  1.
         11    1    3    3    0    0  0.43407859966E+01 -0.16432085121E+02  0.91511112002E+01  0.19302815364E+02  0.51100000000E-03 0. -1.
        -11    1    3    3    0    0  0.12156678866E+01  0.57219775387E+01  0.53024578259E+01  0.78952475971E+01  0.51100000000E-03 0.  1.
        -12    1    3    3    0    0  0.16227887648E+02 -0.13629932824E+02  0.97573908297E+01  0.23330796860E+02  0.00000000000E+00 0.  1.
</event>
<event>
 7    1  0.9953837E-014  0.5052884E+02  0.7816164E-02  0.1300439E+00
        -11   -1    0    0    0    0  0.00000000000E+00  0.00000000000E+00  0.45593999997E+02  0.45594000000E+02  0.51100000000E-03 0. -1.
         11   -1    0    0    0    0 -0.00000000000E+00 -0.00000000000E+00 -0.45593999997E+02  0.45594000000E+02  0.51100000000E-03 0.  1.
    9900012    2    1    2    0    0 -0.27456383208E+02 -0.65650812356E+01  0.29261139065E+02  0.50528837074E+02  0.29999930770E+02 0.  0.
        -12    1    1    2    0    0  0.27456383208E+02  0.65650812356E+01 -0.29261139065E+02  0.40659162926E+02  0.00000000000E+00 0.  1.
         11    1    3    3    0    0  0.18258447845E+01  0.40555123655E+01  0.76705318610E+01  0.88666763229E+01  0.51100000000E-03 0. -1.
        -11    1    3    3    0    0 -0.31002654271E+02 -0.73218524484E+01  0.18594805731E+02  0.36885510645E+02  0.51100000000E-03 0.  1.
        -12    1    3    3    0    0  0.17204262785E+01 -0.32987411527E+01  0.29958014731E+01  0.47766501063E+01  0.00000000000E+00 0.  1.
</event>
<event>
 7    1  0.9953837E-014  0.5052886E+02  0.7816164E-02  0.1300439E+00
        -11   -1    0    0    0    0  0.00000000000E+00  0.00000000000E+00  0.45593999997E+02  0.45594000000E+02  0.51100000000E-03 0. -1.
         11   -1    0    0    0    0 -0.00000000000E+00 -0.00000000000E+00 -0.45593999997E+02  0.45594000000E+02  0.51100000000E-03 0.  1.
    9900012    2    1    2    0    0  0.38128054416E+02  0.63370594332E+00 -0.14107284299E+02  0.50528860965E+02  0.30000003388E+02 0.  0.
         12    1    1    2    0    0 -0.38128054416E+02 -0.63370594332E+00  0.14107284299E+02  0.40659139035E+02  0.00000000000E+00 0. -1.
         11    1    3    3    0    0  0.11449608070E+02  0.12686303219E+02 -0.37112277599E+01  0.17487396206E+02  0.51100000000E-03 0. -1.
        -11    1    3    3    0    0  0.99899539186E+01 -0.50125053480E+01 -0.98858579477E+01  0.14921614416E+02  0.51100000000E-03 0.  1.
         12    1    3    3    0    0  0.16688492427E+02 -0.70400919273E+01 -0.51019859197E+00  0.18119850343E+02  0.00000000000E+00 0. -1.
</event>
<event>
 7    1  0.9953837E-014  0.5052886E+02  0.7816164E-02  0.1300439E+00
        -11   -1    0    0    0    0  0.00000000000E+00  0.00000000000E+00  0.45593999997E+02  0.45594000000E+02  0.51100000000E-03 0. -1.
         11   -1    0    0    0    0 -0.00000000000E+00 -0.00000000000E+00 -0.45593999997E+02  0.45594000000E+02  0.51100000000E-03 0.  1.
    9900012    2    1    2    0    0  0.28534068718E+02  0.26926280322E+00 -0.28963766268E+02  0.50528864047E+02  0.30000012757E+02 0.  0.
         12    1    1    2    0    0 -0.28534068718E+02 -0.26926280322E+00  0.28963766268E+02  0.40659135953E+02  0.00000000000E+00 0. -1.
         11    1    3    3    0    0  0.48570637151E+01  0.51284849435E+01 -0.41074715469E+01  0.81709086715E+01  0.51100000000E-03 0. -1.
        -11    1    3    3    0    0  0.87254155155E+01 -0.13107288324E+02 -0.18109530900E+02  0.23997687239E+02  0.51100000000E-03 0.  1.
        -12    1    3    3    0    0  0.14951589487E+02  0.82480661842E+01 -0.67467638203E+01  0.18360268136E+02  0.00000000000E+00 0.  1.
</event>
<event>
 7    1  0.9953837E-014  0.5052885E+02  0.7816164E-02  0.1300439E+00
        -11   -1    0    0    0    0  0.00000000000E+00  0.00000000000E+00  0.45593999997E+02  0.45594000000E+02  0.51100000000E-03 0. -1.
         11   -1    0    0    0    0 -0.00000000000E+00 -0.00000000000E+00 -0.45593999997E+02  0.45594000000E+02  0.51100000000E-03 0.  1.
    9900012    2    1    2    0    0  0.30076194949E+01  0.27428807629E+02 -0.29862704400E+02  0.50528851250E+02  0.29999973861E+02 0.  0.
         12    1    1    2    0    0 -0.30076194949E+01 -0.27428807629E+02  0.29862704400E+02  0.40659148750E+02  0.00000000000E+00 0. -1.
         11    1    3    3    0    0 -0.94587973977E+01  0.36014695271E+01 -0.13674433357E+02  0.17012629393E+02  0.51100000000E-03 0. -1.
        -11    1    3    3    0    0  0.29952646620E+01  0.10742255621E+02 -0.75829889571E+00  0.11177776330E+02  0.51100000000E-03 0.  1.
         12    1    3    3    0    0  0.94711522305E+01  0.13085082481E+02 -0.15429972147E+02  0.22338445527E+02  0.00000000000E+00 0. -1.
</event>
<event>
 7    1  0.9953837E-014  0.5052886E+02  0.7816164E-02  0.1300439E+00
        -11   -1    0    0    0    0  0.00000000000E+00  0.00000000000E+00  0.45593999997E+02  0.45594000000E+02  0.51100000000E-03 0. -1.
         11   -1    0    0    0    0 -0.00000000000E+00 -0.00000000000E+00 -0.45593999997E+02  0.45594000000E+02  0.51100000000E-03 0.  1.
    9900012    2    1    2    0    0  0.32794059982E+02  0.89066612722E+01  0.22324577762E+02  0.50528858871E+02  0.29999997023E+02 0.  0.
        -12    1    1    2    0    0 -0.32794059982E+02 -0.89066612722E+01 -0.22324577762E+02  0.40659141129E+02  0.00000000000E+00 0.  1.
         11    1    3    3    0    0  0.14050156429E+02  0.15373786279E+02  0.15670796009E+02  0.26064037447E+02  0.51100000000E-03 0. -1.
        -11    1    3    3    0    0 -0.38042362453E+00 -0.22863821076E+01 -0.19999854354E+01  0.30614060951E+01  0.51100000000E-03 0.  1.
         12    1    3    3    0    0  0.19124327177E+02 -0.41807428989E+01  0.86537671892E+01  0.21403415329E+02  0.00000000000E+00 0. -1.
</event>
<event>
 7    1  0.9953837E-014  0.5052886E+02  0.7816164E-02  0.1300439E+00
        -11   -1    0    0    0    0  0.00000000000E+00  0.00000000000E+00  0.45593999997E+02  0.45594000000E+02  0.51100000000E-03 0. -1.
         11   -1    0    0    0    0 -0.00000000000E+00 -0.00000000000E+00 -0.45593999997E+02  0.45594000000E+02  0.51100000000E-03 0.  1.
    9900012    2    1    2    0    0 -0.13663444583E+02  0.61901792832E+01 -0.37790970854E+02  0.50528861845E+02  0.30000006064E+02 0.  0.
         12    1    1    2    0    0  0.13663444583E+02 -0.61901792832E+01  0.37790970854E+02  0.40659138155E+02  0.00000000000E+00 0. -1.
         11    1    3    3    0    0  0.62745898023E+01 -0.56327370342E+01 -0.37849045852E+01  0.92424946126E+01  0.51100000000E-03 0. -1.
        -11    1    3    3    0    0 -0.14549909638E+02  0.72147881373E+01 -0.25216530819E+02  0.29993773773E+02  0.51100000000E-03 0.  1.
         12    1    3    3    0    0 -0.53881247473E+01  0.46081281801E+01 -0.87895354501E+01  0.11292593460E+02  0.00000000000E+00 0. -1.
</event>
<event>
 7    1  0.9953837E-014  0.5052887E+02  0.7816164E-02  0.1300439E+00
        -11   -1    0    0    0    0  0.00000000000E+00  0.00000000000E+00  0.45593999997E+02  0.45594000000E+02  0.51100000000E-03 0. -1.
         11   -1    0    0    0    0 -0.00000000000E+00 -0.00000000000E+00 -0.45593999997E+02  0.45594000000E+02  0.51100000000E-03 0.  1.
    9900012    2    1    2    0    0  0.12346920138E+02  0.38415917075E+02 -0.49935519271E+01  0.50528872089E+02  0.30000037203E+02 0.  0.
         12    1    1    2    0    0 -0.12346920138E+02 -0.38415917075E+02  0.49935519271E+01  0.40659127911E+02  0.00000000000E+00 0. -1.
         11    1    3    3    0    0  0.41262503244E+01  0.36987095025E+01 -0.88551094335E+01  0.10446021112E+02  0.51100000000E-03 0.  1.
        -11    1    3    3    0    0  0.91936407949E+01  0.15321188918E+02  0.89824184725E+01  0.19998642524E+02  0.51100000000E-03 0. -1.
        -12    1    3    3    0    0 -0.97297098088E+00  0.19396018655E+02 -0.51208609661E+01  0.20084208454E+02  0.00000000000E+00 0.  1.
</event>
<event>
 7    1  0.9953837E-014  0.5052886E+02  0.7816164E-02  0.1300439E+00
        -11   -1    0    0    0    0  0.00000000000E+00  0.00000000000E+00  0.45593999997E+02  0.45594000000E+02  0.51100000000E-03 0. -1.
         11   -1    0    0    0    0 -0.00000000000E+00 -0.00000000000E+00 -0.45593999997E+02  0.45594000000E+02  0.51100000000E-03 0.  1.
    9900012    2    1    2    0    0  0.88829541459E+01 -0.36225107091E+02 -0.16186414934E+02  0.50528864661E+02  0.30000014624E+02 0.  0.
         12    1    1    2    0    0 -0.88829541459E+01  0.36225107091E+02  0.16186414934E+02  0.40659135339E+02  0.00000000000E+00 0. -1.
         11    1    3    3    0    0  0.16673199543E+01 -0.27265573076E+02 -0.86136099425E+01  0.28642376080E+02  0.51100000000E-03 0. -1.
        -11    1    3    3    0    0 -0.74062687112E+00 -0.14340759497E+01  0.49758380862E+01  0.52310674736E+01  0.51100000000E-03 0.  1.
        -12    1    3    3    0    0  0.79562610627E+01 -0.75254580651E+01 -0.12548643077E+02  0.16655421108E+02  0.00000000000E+00 0.  1.
</event>
<event>
 7    1  0.9953837E-014  0.5052886E+02  0.7816164E-02  0.1300439E+00
        -11   -1    0    0    0    0  0.00000000000E+00  0.00000000000E+00  0.45593999997E+02  0.45594000000E+02  0.51100000000E-03 0. -1.
         11   -1    0    0    0    0 -0.00000000000E+00 -0.00000000000E+00 -0.45593999997E+02  0.45594000000E+02  0.51100000000E-03 0.  1.
    9900012    2    1    2    0    0 -0.61077997690E+01 -0.23877929821E+02 -0.32337360830E+02  0.50528860117E+02  0.30000000812E+02 0.  0.
         12    1    1    2    0    0  0.61077997690E+01  0.23877929821E+02  0.32337360830E+02  0.40659139883E+02  0.00000000000E+00 0. -1.
         11    1    3    3    0    0  0.37739252978E+00  0.51615509343E+01  0.58697559728E+00  0.52085097467E+01  0.51100000000E-03 0. -1.
        -11    1    3    3    0    0 -0.36101807877E+01 -0.25692504663E+02 -0.31212502374E+02  0.40587664455E+02  0.51100000000E-03 0.  1.
         12    1    3    3    0    0 -0.28750115110E+01 -0.33469760918E+01 -0.17118340537E+01  0.47326859155E+01  0.00000000000E+00 0. -1.
</event>
<event>
 7    1  0.9953837E-014  0.5052885E+02  0.7816164E-02  0.1300439E+00
        -11   -1    0    0    0    0  0.00000000000E+00  0.00000000000E+00  0.45593999997E+02  0.45594000000E+02  0.51100000000E-03 0. -1.
         11   -1    0    0    0    0 -0.00000000000E+00 -0.00000000000E+00 -0.45593999997E+02  0.45594000000E+02  0.51100000000E-03 0.  1.
    9900012    2    1    2    0    0 -0.16032544949E+02  0.92844500408E+01 -0.36192856068E+02  0.50528851701E+02  0.29999975230E+02 0.  0.
         12    1    1    2    0    0  0.16032544949E+02 -0.92844500408E+01  0.36192856068E+02  0.40659148299E+02  0.00000000000E+00 0. -1.
         11    1    3    3    0    0  0.64941524588E+01 -0.42040240653E+01 -0.79630897682E+01  0.11102190478E+02  0.51100000000E-03 0. -1.
        -11    1    3    3    0    0 -0.68183588452E+01  0.62072884461E+01 -0.15119188318E+02  0.17709045792E+02  0.51100000000E-03 0.  1.
         12    1    3    3    0    0 -0.15708338562E+02  0.72811856600E+01 -0.13110577982E+02  0.21717615431E+02  0.00000000000E+00 0. -1.
</event>
<event>
 7    1  0.9953837E-014  0.5052884E+02  0.7816164E-02  0.1300439E+00
        -11   -1    0    0    0    0  0.00000000000E+00  0.00000000000E+00  0.45593999997E+02  0.45594000000E+02  0.51100000000E-03 0. -1.
         11   -1    0    0    0    0 -0.00000000000E+00 -0.00000000000E+00 -0.45593999997E+02  0.45594000000E+02  0.51100000000E-03 0.  1.
    9900012    2    1    2    0    0  0.69222074967E+01  0.33434023653E+02  0.22077505657E+02  0.50528841742E+02  0.29999944959E+02 0.  0.
        -12    1    1    2    0    0 -0.69222074967E+01 -0.33434023653E+02 -0.22077505657E+02  0.40659158258E+02  0.00000000000E+00 0.  1.
         11    1    3    3    0    0  0.13192529513E+02  0.24286147754E+01  0.77370425182E+01  0.15485568503E+02  0.51100000000E-03 0. -1.
        -11    1    3    3    0    0 -0.67792984112E+01  0.27534009369E+02  0.13636568142E+02  0.31464846255E+02  0.51100000000E-03 0.  1.
         12    1    3    3    0    0  0.50897639536E+00  0.34713995082E+01  0.70389499695E+00  0.35784269845E+01  0.00000000000E+00 0. -1.
</event>
<event>
 7    1  0.9953837E-014  0.5052893E+02  0.7816164E-02  0.1300439E+00
        -11   -1    0    0    0    0  0.00000000000E+00  0.00000000000E+00  0.45593999997E+02  0.45594000000E+02  0.51100000000E-03 0. -1.
         11   -1    0    0    0    0 -0.00000000000E+00 -0.00000000000E+00 -0.45593999997E+02  0.45594000000E+02  0.51100000000E-03 0.  1.
    9900012    2    1    2    0    0 -0.21927037230E+02  0.12155984016E+02 -0.32009333658E+02  0.50528925364E+02  0.30000199135E+02 0.  0.
         12    1    1    2    0    0  0.21927037230E+02 -0.12155984016E+02  0.32009333658E+02  0.40659074636E+02  0.00000000000E+00 0. -1.
         11    1    3    3    0    0 -0.42905826006E+01 -0.58898720296E+01 -0.51194845701E+01  0.89055496239E+01  0.51100000000E-03 0. -1.
        -11    1    3    3    0    0 -0.17478345244E+02  0.16363573250E+02 -0.12265435771E+02  0.26901672753E+02  0.51100000000E-03 0.  1.
        -12    1    3    3    0    0 -0.15810938498E+00  0.16822827956E+01 -0.14624413317E+02  0.14721702987E+02  0.00000000000E+00 0.  1.
</event>
<event>
 7    1  0.9953837E-014  0.5052886E+02  0.7816164E-02  0.1300439E+00
        -11   -1    0    0    0    0  0.00000000000E+00  0.00000000000E+00  0.45593999997E+02  0.45594000000E+02  0.51100000000E-03 0. -1.
         11   -1    0    0    0    0 -0.00000000000E+00 -0.00000000000E+00 -0.45593999997E+02  0.45594000000E+02  0.51100000000E-03 0.  1.
    9900012    2    1    2    0    0  0.11033450451E+02 -0.47961429244E+01 -0.38838458767E+02  0.50528857176E+02  0.29999991871E+02 0.  0.
         12    1    1    2    0    0 -0.11033450451E+02  0.47961429244E+01  0.38838458767E+02  0.40659142824E+02  0.00000000000E+00 0. -1.
         11    1    3    3    0    0  0.12932351823E+02 -0.53869163085E+01 -0.69521364283E+01  0.15639590537E+02  0.51100000000E-03 0. -1.
        -11    1    3    3    0    0 -0.56554452309E+01 -0.37157277065E+01 -0.25204015533E+02  0.26096610745E+02  0.51100000000E-03 0.  1.
         12    1    3    3    0    0  0.37565438585E+01  0.43065010907E+01 -0.66823068063E+01  0.87926558933E+01  0.00000000000E+00 0. -1.
</event>
<event>
 7    1  0.9953837E-014  0.5052887E+02  0.7816164E-02  0.1300439E+00
        -11   -1    0    0    0    0  0.00000000000E+00  0.00000000000E+00  0.45593999997E+02  0.45594000000E+02  0.51100000000E-03 0. -1.
         11   -1    0    0    0    0 -0.00000000000E+00 -0.00000000000E+00 -0.45593999997E+02  0.45594000000E+02  0.51100000000E-03 0.  1.
    9900012    2    1    2    0    0  0.38810422875E+02  0.84029729834E+01 -0.87353278315E+01  0.50528870263E+02  0.30000031651E+02 0.  0.
         12    1    1    2    0    0 -0.38810422875E+02 -0.84029729834E+01  0.87353278315E+01  0.40659129737E+02  0.00000000000E+00 0. -1.
         11    1    3    3    0    0  0.52221904934E+01  0.11771224756E+02 -0.39069604103E+01  0.13457241386E+02  0.51100000000E-03 0. -1.
        -11    1    3    3    0    0  0.20266738864E+02 -0.23487575265E+01  0.43516573300E+01  0.20861310790E+02  0.51100000000E-03 0.  1.
         12    1    3    3    0    0  0.13321493517E+02 -0.10194942461E+01 -0.91800247513E+01  0.16210318087E+02  0.00000000000E+00 0. -1.
</event>
<event>
 7    1  0.9953837E-014  0.5052885E+02  0.7816164E-02  0.1300439E+00
        -11   -1    0    0    0    0  0.00000000000E+00  0.00000000000E+00  0.45593999997E+02  0.45594000000E+02  0.51100000000E-03 0. -1.
         11   -1    0    0    0    0 -0.00000000000E+00 -0.00000000000E+00 -0.45593999997E+02  0.45594000000E+02  0.51100000000E-03 0.  1.
    9900012    2    1    2    0    0 -0.35538702577E+01  0.38561868514E+01  0.40319548573E+02  0.50528853821E+02  0.29999981674E+02 0.  0.
        -12    1    1    2    0    0  0.35538702577E+01 -0.38561868514E+01 -0.40319548573E+02  0.40659146179E+02  0.00000000000E+00 0.  1.
         11    1    3    3    0    0  0.53383424127E+01 -0.19098622425E+01  0.29964741807E+02  0.30496413319E+02  0.51100000000E-03 0. -1.
        -11    1    3    3    0    0 -0.19467417067E+01  0.85929863974E+01  0.24682692758E+01  0.91499492882E+01  0.51100000000E-03 0.  1.
        -12    1    3    3    0    0 -0.69454709637E+01 -0.28269373035E+01  0.78865374902E+01  0.10882491213E+02  0.00000000000E+00 0.  1.
</event>
<event>
 7    1  0.9953837E-014  0.5052886E+02  0.7816164E-02  0.1300439E+00
        -11   -1    0    0    0    0  0.00000000000E+00  0.00000000000E+00  0.45593999997E+02  0.45594000000E+02  0.51100000000E-03 0. -1.
         11   -1    0    0    0    0 -0.00000000000E+00 -0.00000000000E+00 -0.45593999997E+02  0.45594000000E+02  0.51100000000E-03 0.  1.
    9900012    2    1    2    0    0 -0.76644297522E+01 -0.16937971821E+01 -0.39894276258E+02  0.50528859448E+02  0.29999998777E+02 0.  0.
         12    1    1    2    0    0  0.76644297522E+01  0.16937971821E+01  0.39894276258E+02  0.40659140552E+02  0.00000000000E+00 0. -1.
         11    1    3    3    0    0 -0.14009627015E+02  0.50992368877E+01 -0.23930877064E+02  0.28195012737E+02  0.51100000000E-03 0. -1.
        -11    1    3    3    0    0  0.13546593467E+01 -0.73017675647E+01 -0.15632172128E+02  0.17306522389E+02  0.51100000000E-03 0.  1.
        -12    1    3    3    0    0  0.49905379165E+01  0.50873349494E+00 -0.33122706663E+00  0.50273243216E+01  0.00000000000E+00 0.  1.
</event>
<event>
 7    1  0.9953837E-014  0.5052886E+02  0.7816164E-02  0.1300439E+00
        -11   -1    0    0    0    0  0.00000000000E+00  0.00000000000E+00  0.45593999997E+02  0.45594000000E+02  0.51100000000E-03 0. -1.
         11   -1    0    0    0    0 -0.00000000000E+00 -0.00000000000E+00 -0.45593999997E+02  0.45594000000E+02  0.51100000000E-03 0.  1.
    9900012    2    1    2    0    0 -0.14406578473E+02 -0.29753889645E+02 -0.23671129419E+02  0.50528858097E+02  0.29999994673E+02 0.  0.
         12    1    1    2    0    0  0.14406578473E+02  0.29753889645E+02  0.23671129419E+02  0.40659141903E+02  0.00000000000E+00 0. -1.
         11    1    3    3    0    0  0.13548190910E+01 -0.16223212435E+02 -0.14282039398E+01  0.16342212924E+02  0.51100000000E-03 0. -1.
        -11    1    3    3    0    0 -0.83920217592E+01 -0.62715378537E+00 -0.15981337172E+02  0.18061630301E+02  0.51100000000E-03 0.  1.
         12    1    3    3    0    0 -0.73693758047E+01 -0.12903523424E+02 -0.62615883070E+01  0.16125014872E+02  0.00000000000E+00 0. -1.
</event>
<event>
 7    1  0.9953837E-014  0.5052888E+02  0.7816164E-02  0.1300439E+00
        -11   -1    0    0    0    0  0.00000000000E+00  0.00000000000E+00  0.45593999997E+02  0.45594000000E+02  0.51100000000E-03 0. -1.
         11   -1    0    0    0    0 -0.00000000000E+00 -0.00000000000E+00 -0.45593999997E+02  0.45594000000E+02  0.51100000000E-03 0.  1.
    9900012    2    1    2    0    0  0.85225215838E+01 -0.35382866657E+00 -0.39754314108E+02  0.50528879755E+02  0.30000060504E+02 0.  0.
         12    1    1    2    0    0 -0.85225215838E+01  0.35382866657E+00  0.39754314108E+02  0.40659120245E+02  0.00000000000E+00 0. -1.
         11    1    3    3    0    0 -0.71949686364E+00  0.11401500830E+02 -0.26479400559E+02  0.28838698846E+02  0.51100000000E-03 0. -1.
        -11    1    3    3    0    0 -0.10437005552E+01 -0.42589808856E+01 -0.27633181608E+01  0.51830643978E+01  0.51100000000E-03 0.  1.
         12    1    3    3    0    0  0.10285719003E+02 -0.74963486112E+01 -0.10511595388E+02  0.16507116511E+02  0.00000000000E+00 0. -1.
</event>
<event>
 7    1  0.9953837E-014  0.5052887E+02  0.7816164E-02  0.1300439E+00
        -11   -1    0    0    0    0  0.00000000000E+00  0.00000000000E+00  0.45593999997E+02  0.45594000000E+02  0.51100000000E-03 0. -1.
         11   -1    0    0    0    0 -0.00000000000E+00 -0.00000000000E+00 -0.45593999997E+02  0.45594000000E+02  0.51100000000E-03 0.  1.
    9900012    2    1    2    0    0  0.79144439638E+01  0.25489512338E+01 -0.39799861725E+02  0.50528873485E+02  0.30000041444E+02 0.  0.
         12    1    1    2    0    0 -0.79144439638E+01 -0.25489512338E+01  0.39799861725E+02  0.40659126515E+02  0.00000000000E+00 0. -1.
         11    1    3    3    0    0  0.54433566360E+01  0.11828783479E+02 -0.24098358190E+02  0.27391259880E+02  0.51100000000E-03 0. -1.
        -11    1    3    3    0    0  0.57967639972E+01 -0.11579970909E+02 -0.12073113208E+02  0.17704752522E+02  0.51100000000E-03 0.  1.
        -12    1    3    3    0    0 -0.33256766695E+01  0.23001386638E+01 -0.36283903270E+01  0.54328610831E+01  0.00000000000E+00 0.  1.
</event>
<event>
 7    1  0.9953837E-014  0.5052887E+02  0.7816164E-02  0.1300439E+00
        -11   -1    0    0    0    0  0.00000000000E+00  0.00000000000E+00  0.45593999997E+02  0.45594000000E+02  0.51100000000E-03 0. -1.
         11   -1    0    0    0    0 -0.00000000000E+00 -0.00000000000E+00 -0.45593999997E+02  0.45594000000E+02  0.51100000000E-03 0.  1.
    9900012    2    1    2    0    0  0.36484078373E+01  0.24985168928E+02  0.31868411653E+02  0.50528865634E+02  0.30000017582E+02 0.  0.
        -12    1    1    2    0    0 -0.36484078373E+01 -0.24985168928E+02 -0.31868411653E+02  0.40659134366E+02  0.00000000000E+00 0.  1.
         11    1    3    3    0    0  0.22882443893E+01  0.22904243435E+02  0.16006780805E+02  0.28036716314E+02  0.51100000000E-03 0. -1.
        -11    1    3    3    0    0 -0.40705185360E+01  0.92876108859E+00  0.16391958304E+02  0.16915318962E+02  0.51100000000E-03 0.  1.
        -12    1    3    3    0    0  0.54306819840E+01  0.11521644046E+01 -0.53032745606E+00  0.55768303575E+01  0.00000000000E+00 0.  1.
</event>
<event>
 7    1  0.9953837E-014  0.5052887E+02  0.7816164E-02  0.1300439E+00
        -11   -1    0    0    0    0  0.00000000000E+00  0.00000000000E+00  0.45593999997E+02  0.45594000000E+02  0.51100000000E-03 0.  1.
         11   -1    0    0    0    0 -0.00000000000E+00 -0.00000000000E+00 -0.45593999997E+02  0.45594000000E+02  0.51100000000E-03 0. -1.
    9900012    2    1    2    0    0  0.32671310010E+02 -0.20577361377E+02 -0.12740597235E+02  0.50528866747E+02  0.30000020963E+02 0.  0.
        -12    1    1    2    0    0 -0.32671310010E+02  0.20577361377E+02  0.12740597235E+02  0.40659133253E+02  0.00000000000E+00 0.  1.
         11    1    3    3    0    0 -0.52773081383E-01 -0.36890742696E+01 -0.10330524761E+02  0.10969585045E+02  0.51100000000E-03 0. -1.
        -11    1    3    3    0    0  0.30227867517E+02 -0.94997806040E+01 -0.20724854874E+01  0.31753188856E+02  0.51100000000E-03 0.  1.
        -12    1    3    3    0    0  0.24962155738E+01 -0.73885065037E+01 -0.33758698709E+00  0.78060928459E+01  0.00000000000E+00 0.  1.
</event>
<event>
 7    1  0.9953837E-014  0.5052885E+02  0.7816164E-02  0.1300439E+00
        -11   -1    0    0    0    0  0.00000000000E+00  0.00000000000E+00  0.45593999997E+02  0.45594000000E+02  0.51100000000E-03 0.  1.
         11   -1    0    0    0    0 -0.00000000000E+00 -0.00000000000E+00 -0.45593999997E+02  0.45594000000E+02  0.51100000000E-03 0. -1.
    9900012    2    1    2    0    0  0.13818500151E+02 -0.26600056435E+02  0.27470935496E+02  0.50528852864E+02  0.29999978765E+02 0.  0.
        -12    1    1    2    0    0 -0.13818500151E+02  0.26600056435E+02 -0.27470935496E+02  0.40659147136E+02  0.00000000000E+00 0.  1.
         11    1    3    3    0    0  0.10993571638E+02 -0.31970204079E+02  0.18785008488E+02  0.38675950026E+02  0.51100000000E-03 0. -1.
        -11    1    3    3    0    0 -0.69164479742E+00  0.40617331520E+01  0.32496573824E+01  0.52475062733E+01  0.51100000000E-03 0.  1.
         12    1    3    3    0    0  0.35165733109E+01  0.13084144923E+01  0.54362696256E+01  0.66053965647E+01  0.00000000000E+00 0. -1.
</event>
<event>
 7    1  0.9953837E-014  0.5052885E+02  0.7816164E-02  0.1300439E+00
        -11   -1    0    0    0    0  0.00000000000E+00  0.00000000000E+00  0.45593999997E+02  0.45594000000E+02  0.51100000000E-03 0. -1.
         11   -1    0    0    0    0 -0.00000000000E+00 -0.00000000000E+00 -0.45593999997E+02  0.45594000000E+02  0.51100000000E-03 0.  1.
    9900012    2    1    2    0    0 -0.55399436511E-01 -0.36486617155E+02  0.17941306351E+02  0.50528846368E+02  0.29999959020E+02 0.  0.
        -12    1    1    2    0    0  0.55399436511E-01  0.36486617155E+02 -0.17941306351E+02  0.40659153632E+02  0.00000000000E+00 0.  1.
         11    1    3    3    0    0  0.77553655717E+01 -0.66378661769E-01  0.78980703640E+01  0.11069309690E+02  0.51100000000E-03 0. -1.
        -11    1    3    3    0    0 -0.22643428860E+01 -0.26528953509E+02  0.52002970666E+01  0.27128503697E+02  0.51100000000E-03 0.  1.
         12    1    3    3    0    0 -0.55464221222E+01 -0.98912849837E+01  0.48429389205E+01  0.12331032981E+02  0.00000000000E+00 0. -1.
</event>
<event>
 7    1  0.9953837E-014  0.5052886E+02  0.7816164E-02  0.1300439E+00
        -11   -1    0    0    0    0  0.00000000000E+00  0.00000000000E+00  0.45593999997E+02  0.45594000000E+02  0.51100000000E-03 0. -1.
         11   -1    0    0    0    0 -0.00000000000E+00 -0.00000000000E+00 -0.45593999997E+02  0.45594000000E+02  0.51100000000E-03 0.  1.
    9900012    2    1    2    0    0 -0.15637467808E+02  0.30918224907E+02  0.21276711996E+02  0.50528861984E+02  0.30000006488E+02 0.  0.
        -12    1    1    2    0    0  0.15637467808E+02 -0.30918224907E+02 -0.21276711996E+02  0.40659138016E+02  0.00000000000E+00 0.  1.
         11    1    3    3    0    0 -0.10470833047E+01  0.15660916901E+02  0.12990525915E+02  0.20374358037E+02  0.51100000000E-03 0. -1.
        -11    1    3    3    0    0 -0.12469936512E+02  0.17978938842E+02  0.78079772818E+00  0.21894090615E+02  0.51100000000E-03 0.  1.
        -12    1    3    3    0    0 -0.21204479908E+01 -0.27216308366E+01  0.75053883523E+01  0.82604133318E+01  0.00000000000E+00 0.  1.
</event>
<event>
 7    1  0.9953837E-014  0.5052887E+02  0.7816164E-02  0.1300439E+00
        -11   -1    0    0    0    0  0.00000000000E+00  0.00000000000E+00  0.45593999997E+02  0.45594000000E+02  0.51100000000E-03 0. -1.
         11   -1    0    0    0    0 -0.00000000000E+00 -0.00000000000E+00 -0.45593999997E+02  0.45594000000E+02  0.51100000000E-03 0.  1.
    9900012    2    1    2    0    0  0.10540189208E+02  0.18873805145E+02 -0.34436158199E+02  0.50528866946E+02  0.30000021568E+02 0.  0.
         12    1    1    2    0    0 -0.10540189208E+02 -0.18873805145E+02  0.34436158199E+02  0.40659133054E+02  0.00000000000E+00 0. -1.
         11    1    3    3    0    0 -0.27018304232E+01 -0.19667961437E+01 -0.21199598538E+01  0.39575756151E+01  0.51100000000E-03 0. -1.
        -11    1    3    3    0    0  0.16080231737E+02  0.67259274579E+01 -0.24849435947E+02  0.30353029833E+02  0.51100000000E-03 0.  1.
        -12    1    3    3    0    0 -0.28382121052E+01  0.14114673830E+02 -0.74667623982E+01  0.16218261498E+02  0.00000000000E+00 0.  1.
</event>
<event>
 7    1  0.9953837E-014  0.5052885E+02  0.7816164E-02  0.1300439E+00
        -11   -1    0    0    0    0  0.00000000000E+00  0.00000000000E+00  0.45593999997E+02  0.45594000000E+02  0.51100000000E-03 0. -1.
         11   -1    0    0    0    0 -0.00000000000E+00 -0.00000000000E+00 -0.45593999997E+02  0.45594000000E+02  0.51100000000E-03 0.  1.
    9900012    2    1    2    0    0  0.32229431388E+02  0.24786423226E+02  0.25111980691E+00  0.50528854841E+02  0.29999984774E+02 0.  0.
        -12    1    1    2    0    0 -0.32229431388E+02 -0.24786423226E+02 -0.25111980691E+00  0.40659145159E+02  0.00000000000E+00 0.  1.
         11    1    3    3    0    0  0.16286613240E+02  0.12628708546E+02  0.86253016738E+01  0.22341304340E+02  0.51100000000E-03 0. -1.
        -11    1    3    3    0    0 -0.61281815912E-01  0.93336838705E+01 -0.73922103498E+01  0.11906560552E+02  0.51100000000E-03 0.  1.
         12    1    3    3    0    0  0.16004099964E+02  0.28240308091E+01 -0.98197151707E+00  0.16280989949E+02  0.00000000000E+00 0. -1.
</event>
<event>
 7    1  0.9953837E-014  0.5052890E+02  0.7816164E-02  0.1300439E+00
        -11   -1    0    0    0    0  0.00000000000E+00  0.00000000000E+00  0.45593999997E+02  0.45594000000E+02  0.51100000000E-03 0.  1.
         11   -1    0    0    0    0 -0.00000000000E+00 -0.00000000000E+00 -0.45593999997E+02  0.45594000000E+02  0.51100000000E-03 0. -1.
    9900012    2    1    2    0    0 -0.32832310174E+02 -0.20549208220E+02 -0.12366547282E+02  0.50528904566E+02  0.30000135918E+02 0.  0.
         12    1    1    2    0    0  0.32832310174E+02  0.20549208220E+02  0.12366547282E+02  0.40659095434E+02  0.00000000000E+00 0. -1.
         11    1    3    3    0    0 -0.11007746592E+02 -0.15397765692E+02  0.58710504784E+01  0.19817439475E+02  0.51100000000E-03 0. -1.
        -11    1    3    3    0    0 -0.16989544296E+02 -0.70288110256E+01 -0.98728526922E+01  0.20869164343E+02  0.51100000000E-03 0.  1.
         12    1    3    3    0    0 -0.48350192863E+01  0.18773684983E+01 -0.83647450680E+01  0.98423007488E+01  0.00000000000E+00 0. -1.
</event>
<event>
 7    1  0.9953837E-014  0.5052886E+02  0.7816164E-02  0.1300439E+00
        -11   -1    0    0    0    0  0.00000000000E+00  0.00000000000E+00  0.45593999997E+02  0.45594000000E+02  0.51100000000E-03 0. -1.
         11   -1    0    0    0    0 -0.00000000000E+00 -0.00000000000E+00 -0.45593999997E+02  0.45594000000E+02  0.51100000000E-03 0.  1.
    9900012    2    1    2    0    0 -0.30413319833E+02 -0.61296484213E+01  0.26279709802E+02  0.50528858834E+02  0.29999996912E+02 0.  0.
        -12    1    1    2    0    0  0.30413319833E+02  0.61296484213E+01 -0.26279709802E+02  0.40659141166E+02  0.00000000000E+00 0.  1.
         11    1    3    3    0    0 -0.12938567231E+02 -0.11422140047E+02  0.68593266534E+01  0.18572080326E+02  0.51100000000E-03 0. -1.
        -11    1    3    3    0    0 -0.12113102524E+02  0.87470069990E+01  0.43021411661E+01  0.15548176841E+02  0.51100000000E-03 0.  1.
        -12    1    3    3    0    0 -0.53616500785E+01 -0.34545153737E+01  0.15118241983E+02  0.16408601668E+02  0.00000000000E+00 0.  1.
</event>
<event>
 7    1  0.9953837E-014  0.5052886E+02  0.7816164E-02  0.1300439E+00
        -11   -1    0    0    0    0  0.00000000000E+00  0.00000000000E+00  0.45593999997E+02  0.45594000000E+02  0.51100000000E-03 0. -1.
         11   -1    0    0    0    0 -0.00000000000E+00 -0.00000000000E+00 -0.45593999997E+02  0.45594000000E+02  0.51100000000E-03 0.  1.
    9900012    2    1    2    0    0  0.16677371210E+02 -0.29704731517E+00 -0.37080221821E+02  0.50528858372E+02  0.29999995508E+02 0.  0.
         12    1    1    2    0    0 -0.16677371210E+02  0.29704731517E+00  0.37080221821E+02  0.40659141628E+02  0.00000000000E+00 0. -1.
         11    1    3    3    0    0  0.92679855893E+01 -0.47364624776E+01 -0.52145874578E+01  0.11641372612E+02  0.51100000000E-03 0. -1.
        -11    1    3    3    0    0 -0.70365211602E+01 -0.23793225626E+00 -0.11505516518E+02  0.13488741691E+02  0.51100000000E-03 0.  1.
        -12    1    3    3    0    0  0.14445906781E+02  0.46773474186E+01 -0.20360117846E+02  0.25398744069E+02  0.00000000000E+00 0.  1.
</event>
<event>
 7    1  0.9953837E-014  0.5052885E+02  0.7816164E-02  0.1300439E+00
        -11   -1    0    0    0    0  0.00000000000E+00  0.00000000000E+00  0.45593999997E+02  0.45594000000E+02  0.51100000000E-03 0. -1.
         11   -1    0    0    0    0 -0.00000000000E+00 -0.00000000000E+00 -0.45593999997E+02  0.45594000000E+02  0.51100000000E-03 0.  1.
    9900012    2    1    2    0    0 -0.32414147345E+02  0.19352822382E+02 -0.15098266252E+02  0.50528851877E+02  0.29999975765E+02 0.  0.
         12    1    1    2    0    0  0.32414147345E+02 -0.19352822382E+02  0.15098266252E+02  0.40659148123E+02  0.00000000000E+00 0. -1.
         11    1    3    3    0    0 -0.18668433708E+02  0.55656083439E+01 -0.21028181824E+02  0.28664801489E+02  0.51100000000E-03 0.  1.
        -11    1    3    3    0    0 -0.20583025447E+01  0.73063712186E+01  0.31249826599E+01  0.82088480700E+01  0.51100000000E-03 0. -1.
         12    1    3    3    0    0 -0.11687411093E+02  0.64808428198E+01  0.28049329117E+01  0.13655202318E+02  0.00000000000E+00 0. -1.
</event>
<event>
 7    1  0.9953837E-014  0.5052886E+02  0.7816164E-02  0.1300439E+00
        -11   -1    0    0    0    0  0.00000000000E+00  0.00000000000E+00  0.45593999997E+02  0.45594000000E+02  0.51100000000E-03 0. -1.
         11   -1    0    0    0    0 -0.00000000000E+00 -0.00000000000E+00 -0.45593999997E+02  0.45594000000E+02  0.51100000000E-03 0.  1.
    9900012    2    1    2    0    0  0.78351577629E+01  0.12333315342E+02  0.37942920334E+02  0.50528861200E+02  0.30000004104E+02 0.  0.
        -12    1    1    2    0    0 -0.78351577629E+01 -0.12333315342E+02 -0.37942920334E+02  0.40659138800E+02  0.00000000000E+00 0.  1.
         11    1    3    3    0    0  0.26871393053E+01  0.49307382975E+01  0.22610904884E+02  0.23297766368E+02  0.51100000000E-03 0. -1.
        -11    1    3    3    0    0  0.47137408772E+01  0.99436961749E+01 -0.66808315214E+00  0.11024644304E+02  0.51100000000E-03 0.  1.
        -12    1    3    3    0    0  0.43427758038E+00 -0.25411191301E+01  0.16000098602E+02  0.16206450528E+02  0.00000000000E+00 0.  1.
</event>
<event>
 7    1  0.9953837E-014  0.5052885E+02  0.7816164E-02  0.1300439E+00
        -11   -1    0    0    0    0  0.00000000000E+00  0.00000000000E+00  0.45593999997E+02  0.45594000000E+02  0.51100000000E-03 0. -1.
         11   -1    0    0    0    0 -0.00000000000E+00 -0.00000000000E+00 -0.45593999997E+02  0.45594000000E+02  0.51100000000E-03 0.  1.
    9900012    2    1    2    0    0  0.34291093414E+02 -0.13021062553E+02 -0.17542494511E+02  0.50528852552E+02  0.29999977818E+02 0.  0.
         12    1    1    2    0    0 -0.34291093414E+02  0.13021062553E+02  0.17542494511E+02  0.40659147448E+02  0.00000000000E+00 0. -1.
         11    1    3    3    0    0 -0.51967857194E+01 -0.15708953640E+01 -0.24697385816E+01  0.59643862200E+01  0.51100000000E-03 0. -1.
        -11    1    3    3    0    0  0.25048717207E+02 -0.36561481088E+01 -0.11333248363E+02  0.27735323532E+02  0.51100000000E-03 0.  1.
         12    1    3    3    0    0  0.14439161927E+02 -0.77940190798E+01 -0.37395075658E+01  0.16829142800E+02  0.00000000000E+00 0. -1.
</event>
<event>
 7    1  0.9953837E-014  0.5052888E+02  0.7816164E-02  0.1300439E+00
        -11   -1    0    0    0    0  0.00000000000E+00  0.00000000000E+00  0.45593999997E+02  0.45594000000E+02  0.51100000000E-03 0. -1.
         11   -1    0    0    0    0 -0.00000000000E+00 -0.00000000000E+00 -0.45593999997E+02  0.45594000000E+02  0.51100000000E-03 0.  1.
    9900012    2    1    2    0    0 -0.15218923183E+02 -0.28197298592E+02 -0.25029202126E+02  0.50528877656E+02  0.30000054123E+02 0.  0.
         12    1    1    2    0    0  0.15218923183E+02  0.28197298592E+02  0.25029202126E+02  0.40659122344E+02  0.00000000000E+00 0. -1.
         11    1    3    3    0    0 -0.11335664066E+02 -0.30511955036E+02 -0.10866148437E+02  0.34315446406E+02  0.51100000000E-03 0. -1.
        -11    1    3    3    0    0  0.11201817432E+01 -0.12175215504E+01 -0.42540256927E+01  0.45644167994E+01  0.51100000000E-03 0.  1.
         12    1    3    3    0    0 -0.50034408599E+01  0.35321779949E+01 -0.99090279964E+01  0.11649014450E+02  0.00000000000E+00 0. -1.
</event>
<event>
 7    1  0.9953837E-014  0.5052885E+02  0.7816164E-02  0.1300439E+00
        -11   -1    0    0    0    0  0.00000000000E+00  0.00000000000E+00  0.45593999997E+02  0.45594000000E+02  0.51100000000E-03 0. -1.
         11   -1    0    0    0    0 -0.00000000000E+00 -0.00000000000E+00 -0.45593999997E+02  0.45594000000E+02  0.51100000000E-03 0.  1.
    9900012    2    1    2    0    0 -0.31340714261E+02  0.19835980657E+02 -0.16657131226E+02  0.50528849497E+02  0.29999968530E+02 0.  0.
         12    1    1    2    0    0  0.31340714261E+02 -0.19835980657E+02  0.16657131226E+02  0.40659150503E+02  0.00000000000E+00 0. -1.
         11    1    3    3    0    0 -0.65042787525E+01  0.16949382502E+02 -0.12891829971E+01  0.18200252810E+02  0.51100000000E-03 0. -1.
        -11    1    3    3    0    0 -0.13393145168E+02 -0.44668819151E+01 -0.42025059233E+01  0.14730594959E+02  0.51100000000E-03 0.  1.
        -12    1    3    3    0    0 -0.11443290340E+02  0.73534800700E+01 -0.11165442305E+02  0.17598001728E+02  0.00000000000E+00 0.  1.
</event>
<event>
 7    1  0.9953837E-014  0.5052886E+02  0.7816164E-02  0.1300439E+00
        -11   -1    0    0    0    0  0.00000000000E+00  0.00000000000E+00  0.45593999997E+02  0.45594000000E+02  0.51100000000E-03 0. -1.
         11   -1    0    0    0    0 -0.00000000000E+00 -0.00000000000E+00 -0.45593999997E+02  0.45594000000E+02  0.51100000000E-03 0.  1.
    9900012    2    1    2    0    0 -0.14566428201E+02 -0.15289648284E+02 -0.34744953555E+02  0.50528856223E+02  0.29999988974E+02 0.  0.
         12    1    1    2    0    0  0.14566428201E+02  0.15289648284E+02  0.34744953555E+02  0.40659143777E+02  0.00000000000E+00 0. -1.
         11    1    3    3    0    0  0.70629377636E+01 -0.40871136689E+01 -0.32362874312E+01  0.87785616472E+01  0.51100000000E-03 0. -1.
        -11    1    3    3    0    0 -0.10832333962E+02 -0.16178445356E+01 -0.21665649959E+02  0.24276681578E+02  0.51100000000E-03 0.  1.
        -12    1    3    3    0    0 -0.10797032003E+02 -0.95846900793E+01 -0.98430161641E+01  0.17473612998E+02  0.00000000000E+00 0.  1.
</event>
<event>
 7    1  0.9953837E-014  0.5052885E+02  0.7816164E-02  0.1300439E+00
        -11   -1    0    0    0    0  0.00000000000E+00  0.00000000000E+00  0.45593999997E+02  0.45594000000E+02  0.51100000000E-03 0. -1.
         11   -1    0    0    0    0 -0.00000000000E+00 -0.00000000000E+00 -0.45593999997E+02  0.45594000000E+02  0.51100000000E-03 0.  1.
    9900012    2    1    2    0    0 -0.22568647645E+02 -0.11789558453E+02 -0.31699035289E+02  0.50528851174E+02  0.29999973629E+02 0.  0.
         12    1    1    2    0    0  0.22568647645E+02  0.11789558453E+02  0.31699035289E+02  0.40659148826E+02  0.00000000000E+00 0. -1.
         11    1    3    3    0    0 -0.22609377389E+01  0.83721883185E+01 -0.15363044994E+01  0.88071339535E+01  0.51100000000E-03 0. -1.
        -11    1    3    3    0    0 -0.52469785235E+01 -0.32904897000E+01 -0.59134092948E+01  0.85630903207E+01  0.51100000000E-03 0.  1.
         12    1    3    3    0    0 -0.15060731382E+02 -0.16871257072E+02 -0.24249321494E+02  0.33158626900E+02  0.00000000000E+00 0. -1.
</event>
<event>
 7    1  0.9953837E-014  0.5052887E+02  0.7816164E-02  0.1300439E+00
        -11   -1    0    0    0    0  0.00000000000E+00  0.00000000000E+00  0.45593999997E+02  0.45594000000E+02  0.51100000000E-03 0. -1.
         11   -1    0    0    0    0 -0.00000000000E+00 -0.00000000000E+00 -0.45593999997E+02  0.45594000000E+02  0.51100000000E-03 0.  1.
    9900012    2    1    2    0    0 -0.20985157841E+02  0.99212337210E+01  0.33381993076E+02  0.50528865850E+02  0.30000018236E+02 0.  0.
        -12    1    1    2    0    0  0.20985157841E+02 -0.99212337210E+01 -0.33381993076E+02  0.40659134150E+02  0.00000000000E+00 0.  1.
         11    1    3    3    0    0 -0.41696103247E+01  0.43751231237E+01 -0.33128231411E+01  0.68921803541E+01  0.51100000000E-03 0.  1.
        -11    1    3    3    0    0 -0.14581737776E+02  0.63056224514E+01  0.15115155553E+02  0.21928426271E+02  0.51100000000E-03 0. -1.
         12    1    3    3    0    0 -0.22338097411E+01 -0.75951185418E+00  0.21579660663E+02  0.21708259224E+02  0.00000000000E+00 0. -1.
</event>
<event>
 7    1  0.9953837E-014  0.5052886E+02  0.7816164E-02  0.1300439E+00
        -11   -1    0    0    0    0  0.00000000000E+00  0.00000000000E+00  0.45593999997E+02  0.45594000000E+02  0.51100000000E-03 0. -1.
         11   -1    0    0    0    0 -0.00000000000E+00 -0.00000000000E+00 -0.45593999997E+02  0.45594000000E+02  0.51100000000E-03 0.  1.
    9900012    2    1    2    0    0 -0.20515089614E+02 -0.24810413352E+02 -0.24834246069E+02  0.50528864613E+02  0.30000014478E+02 0.  0.
         12    1    1    2    0    0  0.20515089614E+02  0.24810413352E+02  0.24834246069E+02  0.40659135387E+02  0.00000000000E+00 0. -1.
         11    1    3    3    0    0  0.36857448443E+00 -0.22397678467E+01  0.49102900083E+01  0.54095614780E+01  0.51100000000E-03 0. -1.
        -11    1    3    3    0    0 -0.13911415303E+02 -0.23012023517E+02 -0.24578369354E+02  0.36430439779E+02  0.51100000000E-03 0.  1.
        -12    1    3    3    0    0 -0.69722487954E+01  0.44137801144E+00 -0.51661667234E+01  0.86888633565E+01  0.00000000000E+00 0.  1.
</event>
<event>
 7    1  0.9953837E-014  0.5052885E+02  0.7816164E-02  0.1300439E+00
        -11   -1    0    0    0    0  0.00000000000E+00  0.00000000000E+00  0.45593999997E+02  0.45594000000E+02  0.51100000000E-03 0.  1.
         11   -1    0    0    0    0 -0.00000000000E+00 -0.00000000000E+00 -0.45593999997E+02  0.45594000000E+02  0.51100000000E-03 0. -1.
    9900012    2    1    2    0    0 -0.23702870857E+02  0.31456451943E+02 -0.10091193765E+02  0.50528847927E+02  0.29999963760E+02 0.  0.
         12    1    1    2    0    0  0.23702870857E+02 -0.31456451943E+02  0.10091193765E+02  0.40659152073E+02  0.00000000000E+00 0. -1.
         11    1    3    3    0    0  0.25695034084E+01 -0.28319859395E+01  0.12996206492E+00  0.38261446035E+01  0.51100000000E-03 0. -1.
        -11    1    3    3    0    0 -0.83594321540E+01  0.21091889624E+02 -0.90385779602E+01  0.24422199033E+02  0.51100000000E-03 0.  1.
         12    1    3    3    0    0 -0.17912942111E+02  0.13196548259E+02 -0.11825778701E+01  0.22280504290E+02  0.00000000000E+00 0. -1.
</event>
<event>
 7    1  0.9953837E-014  0.5052886E+02  0.7816164E-02  0.1300439E+00
        -11   -1    0    0    0    0  0.00000000000E+00  0.00000000000E+00  0.45593999997E+02  0.45594000000E+02  0.51100000000E-03 0. -1.
         11   -1    0    0    0    0 -0.00000000000E+00 -0.00000000000E+00 -0.45593999997E+02  0.45594000000E+02  0.51100000000E-03 0.  1.
    9900012    2    1    2    0    0 -0.92360635465E+01 -0.80023217918E+01  0.38779160377E+02  0.50528864453E+02  0.30000013990E+02 0.  0.
        -12    1    1    2    0    0  0.92360635465E+01  0.80023217918E+01 -0.38779160377E+02  0.40659135547E+02  0.00000000000E+00 0.  1.
         11    1    3    3    0    0 -0.15568655606E+02 -0.11935916432E+02  0.25345583668E+02  0.32050705923E+02  0.51100000000E-03 0. -1.
        -11    1    3    3    0    0  0.39077523565E+01  0.42488442660E+01  0.14650556145E+02  0.15746809255E+02  0.51100000000E-03 0.  1.
        -12    1    3    3    0    0  0.24248397028E+01 -0.31524962591E+00 -0.12169794364E+01  0.27313492745E+01  0.00000000000E+00 0.  1.
</event>
<event>
 7    1  0.9953837E-014  0.5052892E+02  0.7816164E-02  0.1300439E+00
        -11   -1    0    0    0    0  0.00000000000E+00  0.00000000000E+00  0.45593999997E+02  0.45594000000E+02  0.51100000000E-03 0. -1.
         11   -1    0    0    0    0 -0.00000000000E+00 -0.00000000000E+00 -0.45593999997E+02  0.45594000000E+02  0.51100000000E-03 0.  1.
    9900012    2    1    2    0    0  0.13645731461E+02 -0.20973680870E+02 -0.32047771481E+02  0.50528918194E+02  0.30000177343E+02 0.  0.
         12    1    1    2    0    0 -0.13645731461E+02  0.20973680870E+02  0.32047771481E+02  0.40659081806E+02  0.00000000000E+00 0. -1.
         11    1    3    3    0    0  0.71911161422E+01 -0.30058684992E+01  0.35773728344E+01  0.85758377703E+01  0.51100000000E-03 0. -1.
        -11    1    3    3    0    0  0.74016557485E+01 -0.49889072037E+01 -0.17437514335E+02  0.19589298337E+02  0.51100000000E-03 0.  1.
         12    1    3    3    0    0 -0.94704042927E+00 -0.12978905167E+02 -0.18187629981E+02  0.22363782087E+02  0.00000000000E+00 0. -1.
</event>
<event>
 7    1  0.9953837E-014  0.5052886E+02  0.7816164E-02  0.1300439E+00
        -11   -1    0    0    0    0  0.00000000000E+00  0.00000000000E+00  0.45593999997E+02  0.45594000000E+02  0.51100000000E-03 0. -1.
         11   -1    0    0    0    0 -0.00000000000E+00 -0.00000000000E+00 -0.45593999997E+02  0.45594000000E+02  0.51100000000E-03 0.  1.
    9900012    2    1    2    0    0  0.25724296079E+02 -0.26592289143E+02 -0.16860504816E+02  0.50528857445E+02  0.29999992691E+02 0.  0.
         12    1    1    2    0    0 -0.25724296079E+02  0.26592289143E+02  0.16860504816E+02  0.40659142555E+02  0.00000000000E+00 0. -1.
         11    1    3    3    0    0  0.90498095935E+00  0.92523127604E+00 -0.57250079464E+01  0.58694769527E+01  0.51100000000E-03 0. -1.
        -11    1    3    3    0    0  0.16373181553E+02 -0.26543566794E+02 -0.69494582519E+00  0.31194950910E+02  0.51100000000E-03 0.  1.
        -12    1    3    3    0    0  0.84461335667E+01 -0.97395362560E+00 -0.10440551044E+02  0.13464429583E+02  0.00000000000E+00 0.  1.
</event>
<event>
 7    1  0.9953837E-014  0.5052885E+02  0.7816164E-02  0.1300439E+00
        -11   -1    0    0    0    0  0.00000000000E+00  0.00000000000E+00  0.45593999997E+02  0.45594000000E+02  0.51100000000E-03 0. -1.
         11   -1    0    0    0    0 -0.00000000000E+00 -0.00000000000E+00 -0.45593999997E+02  0.45594000000E+02  0.51100000000E-03 0.  1.
    9900012    2    1    2    0    0  0.19887517868E+02  0.60702453139E+01 -0.34940022764E+02  0.50528850527E+02  0.29999971663E+02 0.  0.
         12    1    1    2    0    0 -0.19887517868E+02 -0.60702453139E+01  0.34940022764E+02  0.40659149473E+02  0.00000000000E+00 0. -1.
         11    1    3    3    0    0 -0.75628399276E+01  0.27594132740E+01 -0.63510466389E+01  0.10254106644E+02  0.51100000000E-03 0. -1.
        -11    1    3    3    0    0  0.91124488585E+01 -0.18181518697E+01 -0.10312403567E+02  0.13881212771E+02  0.51100000000E-03 0.  1.
         12    1    3    3    0    0  0.18337908937E+02  0.51289839096E+01 -0.18276572558E+02  0.26393531113E+02  0.00000000000E+00 0. -1.
</event>
<event>
 7    1  0.9953837E-014  0.5052886E+02  0.7816164E-02  0.1300439E+00
        -11   -1    0    0    0    0  0.00000000000E+00  0.00000000000E+00  0.45593999997E+02  0.45594000000E+02  0.51100000000E-03 0. -1.
         11   -1    0    0    0    0 -0.00000000000E+00 -0.00000000000E+00 -0.45593999997E+02  0.45594000000E+02  0.51100000000E-03 0.  1.
    9900012    2    1    2    0    0  0.26694717467E+02  0.22227487485E+02  0.21130463379E+02  0.50528860521E+02  0.30000002040E+02 0.  0.
        -12    1    1    2    0    0 -0.26694717467E+02 -0.22227487485E+02 -0.21130463379E+02  0.40659139479E+02  0.00000000000E+00 0.  1.
         11    1    3    3    0    0  0.20342476523E+02  0.82663660547E+01  0.18833074092E+02  0.28928080456E+02  0.51100000000E-03 0. -1.
        -11    1    3    3    0    0  0.91080573514E+01  0.14821145800E+02 -0.73808355088E+00  0.17411715571E+02  0.51100000000E-03 0.  1.
        -12    1    3    3    0    0 -0.27558164077E+01 -0.86002436924E+00  0.30354728384E+01  0.41890644948E+01  0.00000000000E+00 0.  1.
</event>
<event>
 7    1  0.9953837E-014  0.5052886E+02  0.7816164E-02  0.1300439E+00
        -11   -1    0    0    0    0  0.00000000000E+00  0.00000000000E+00  0.45593999997E+02  0.45594000000E+02  0.51100000000E-03 0. -1.
         11   -1    0    0    0    0 -0.00000000000E+00 -0.00000000000E+00 -0.45593999997E+02  0.45594000000E+02  0.51100000000E-03 0.  1.
    9900012    2    1    2    0    0  0.29475671585E+02  0.12332349369E+02  0.25144858272E+02  0.50528856454E+02  0.29999989678E+02 0.  0.
        -12    1    1    2    0    0 -0.29475671585E+02 -0.12332349369E+02 -0.25144858272E+02  0.40659143546E+02  0.00000000000E+00 0.  1.
         11    1    3    3    0    0  0.15635966744E+02  0.10001356048E+02  0.22224084455E+02  0.28955491862E+02  0.51100000000E-03 0. -1.
        -11    1    3    3    0    0 -0.17805930775E+01  0.49118440343E+01 -0.86299825167E+00  0.52954215855E+01  0.51100000000E-03 0.  1.
        -12    1    3    3    0    0  0.15620297919E+02 -0.25808507130E+01  0.37837720686E+01  0.16277943007E+02  0.00000000000E+00 0.  1.
</event>
<event>
 7    1  0.9953837E-014  0.5052886E+02  0.7816164E-02  0.1300439E+00
        -11   -1    0    0    0    0  0.00000000000E+00  0.00000000000E+00  0.45593999997E+02  0.45594000000E+02  0.51100000000E-03 0. -1.
         11   -1    0    0    0    0 -0.00000000000E+00 -0.00000000000E+00 -0.45593999997E+02  0.45594000000E+02  0.51100000000E-03 0.  1.
    9900012    2    1    2    0    0 -0.14551350874E+02  0.26602130447E+02  0.27087829548E+02  0.50528859992E+02  0.30000000432E+02 0.  0.
        -12    1    1    2    0    0  0.14551350874E+02 -0.26602130447E+02 -0.27087829548E+02  0.40659140008E+02  0.00000000000E+00 0.  1.
         11    1    3    3    0    0 -0.17721055285E+02  0.25917646572E+02  0.10561875588E+02  0.33125721432E+02  0.51100000000E-03 0. -1.
        -11    1    3    3    0    0 -0.26040952426E+00 -0.10831528652E+01  0.75660302574E+01  0.76476040278E+01  0.51100000000E-03 0.  1.
         12    1    3    3    0    0  0.34301139352E+01  0.17676367407E+01  0.89599237022E+01  0.97555345320E+01  0.00000000000E+00 0. -1.
</event>
<event>
 7    1  0.9953837E-014  0.5052886E+02  0.7816164E-02  0.1300439E+00
        -11   -1    0    0    0    0  0.00000000000E+00  0.00000000000E+00  0.45593999997E+02  0.45594000000E+02  0.51100000000E-03 0. -1.
         11   -1    0    0    0    0 -0.00000000000E+00 -0.00000000000E+00 -0.45593999997E+02  0.45594000000E+02  0.51100000000E-03 0.  1.
    9900012    2    1    2    0    0  0.11103857800E+02 -0.30380693572E+02 -0.24635008825E+02  0.50528857612E+02  0.29999993196E+02 0.  0.
         12    1    1    2    0    0 -0.11103857800E+02  0.30380693572E+02  0.24635008825E+02  0.40659142388E+02  0.00000000000E+00 0. -1.
         11    1    3    3    0    0  0.15754776148E+01 -0.15053251353E+02  0.27804515559E+01  0.15388743195E+02  0.51100000000E-03 0. -1.
        -11    1    3    3    0    0  0.15961346520E+01  0.59185867160E+00 -0.10356869853E+02  0.10495841840E+02  0.51100000000E-03 0.  1.
        -12    1    3    3    0    0  0.79322455335E+01 -0.15919300891E+02 -0.17058590528E+02  0.24644272577E+02  0.00000000000E+00 0.  1.
</event>
<event>
 7    1  0.9953837E-014  0.5052886E+02  0.7816164E-02  0.1300439E+00
        -11   -1    0    0    0    0  0.00000000000E+00  0.00000000000E+00  0.45593999997E+02  0.45594000000E+02  0.51100000000E-03 0. -1.
         11   -1    0    0    0    0 -0.00000000000E+00 -0.00000000000E+00 -0.45593999997E+02  0.45594000000E+02  0.51100000000E-03 0.  1.
    9900012    2    1    2    0    0  0.39983874519E+01  0.89236442207E+01 -0.39465769016E+02  0.50528862621E+02  0.30000008422E+02 0.  0.
         12    1    1    2    0    0 -0.39983874519E+01 -0.89236442207E+01  0.39465769016E+02  0.40659137379E+02  0.00000000000E+00 0. -1.
         11    1    3    3    0    0  0.39572149997E+00 -0.67622537810E-01  0.41009869953E+01  0.41205901167E+01  0.51100000000E-03 0. -1.
        -11    1    3    3    0    0  0.60359803284E+01 -0.23563204878E+00 -0.22207400680E+02  0.23014283091E+02  0.51100000000E-03 0.  1.
         12    1    3    3    0    0 -0.24333143765E+01  0.92268988073E+01 -0.21359355332E+02  0.23393989413E+02  0.00000000000E+00 0. -1.
</event>
<event>
 7    1  0.9953837E-014  0.5052886E+02  0.7816164E-02  0.1300439E+00
        -11   -1    0    0    0    0  0.00000000000E+00  0.00000000000E+00  0.45593999997E+02  0.45594000000E+02  0.51100000000E-03 0. -1.
         11   -1    0    0    0    0 -0.00000000000E+00 -0.00000000000E+00 -0.45593999997E+02  0.45594000000E+02  0.51100000000E-03 0.  1.
    9900012    2    1    2    0    0 -0.82775181886E+01 -0.16394280161E+01 -0.39773865431E+02  0.50528863230E+02  0.30000010272E+02 0.  0.
         12    1    1    2    0    0  0.82775181886E+01  0.16394280161E+01  0.39773865431E+02  0.40659136770E+02  0.00000000000E+00 0. -1.
         11    1    3    3    0    0 -0.88892836834E+01 -0.11354012914E+02 -0.24478218570E+02  0.28409789831E+02  0.51100000000E-03 0. -1.
        -11    1    3    3    0    0  0.23781944120E+01  0.91229096729E+01 -0.33137260734E+01  0.99932012044E+01  0.51100000000E-03 0.  1.
         12    1    3    3    0    0 -0.17664289172E+01  0.59167522457E+00 -0.11981920788E+02  0.12125872194E+02  0.00000000000E+00 0. -1.
</event>
<event>
 7    1  0.9953837E-014  0.5052887E+02  0.7816164E-02  0.1300439E+00
        -11   -1    0    0    0    0  0.00000000000E+00  0.00000000000E+00  0.45593999997E+02  0.45594000000E+02  0.51100000000E-03 0.  1.
         11   -1    0    0    0    0 -0.00000000000E+00 -0.00000000000E+00 -0.45593999997E+02  0.45594000000E+02  0.51100000000E-03 0. -1.
    9900012    2    1    2    0    0 -0.98880845718E+01  0.37707207810E+02 -0.11556698277E+02  0.50528868032E+02  0.30000024870E+02 0.  0.
         12    1    1    2    0    0  0.98880845718E+01 -0.37707207810E+02  0.11556698277E+02  0.40659131968E+02  0.00000000000E+00 0. -1.
         11    1    3    3    0    0 -0.15561142433E+02  0.13143352307E+02 -0.10303528003E+02  0.22826728921E+02  0.51100000000E-03 0. -1.
        -11    1    3    3    0    0 -0.16937044851E+01  0.17065866531E+02 -0.36953810125E+00  0.17153687476E+02  0.51100000000E-03 0.  1.
         12    1    3    3    0    0  0.73667623459E+01  0.74979889719E+01 -0.88363217269E+00  0.10548451635E+02  0.00000000000E+00 0. -1.
</event>
<event>
 7    1  0.9953837E-014  0.5052886E+02  0.7816164E-02  0.1300439E+00
        -11   -1    0    0    0    0  0.00000000000E+00  0.00000000000E+00  0.45593999997E+02  0.45594000000E+02  0.51100000000E-03 0.  1.
         11   -1    0    0    0    0 -0.00000000000E+00 -0.00000000000E+00 -0.45593999997E+02  0.45594000000E+02  0.51100000000E-03 0. -1.
    9900012    2    1    2    0    0  0.30939642474E+02 -0.19864427743E+02 -0.17358241440E+02  0.50528861890E+02  0.30000006201E+02 0.  0.
         12    1    1    2    0    0 -0.30939642474E+02  0.19864427743E+02  0.17358241440E+02  0.40659138110E+02  0.00000000000E+00 0. -1.
         11    1    3    3    0    0  0.25455753800E+02 -0.25345197892E+02 -0.20969510243E+02  0.41594408493E+02  0.51100000000E-03 0. -1.
        -11    1    3    3    0    0  0.33531399881E+01  0.15363171613E+01  0.16836633784E+01  0.40544470440E+01  0.51100000000E-03 0.  1.
         12    1    3    3    0    0  0.21307486854E+01  0.39444529882E+01  0.19276054247E+01  0.48800063534E+01  0.00000000000E+00 0. -1.
</event>
<event>
 7    1  0.9953837E-014  0.5052891E+02  0.7816164E-02  0.1300439E+00
        -11   -1    0    0    0    0  0.00000000000E+00  0.00000000000E+00  0.45593999997E+02  0.45594000000E+02  0.51100000000E-03 0.  1.
         11   -1    0    0    0    0 -0.00000000000E+00 -0.00000000000E+00 -0.45593999997E+02  0.45594000000E+02  0.51100000000E-03 0. -1.
    9900012    2    1    2    0    0  0.37172356489E+02  0.12962848491E+01 -0.16422460354E+02  0.50528909436E+02  0.30000150722E+02 0.  0.
         12    1    1    2    0    0 -0.37172356489E+02 -0.12962848491E+01  0.16422460354E+02  0.40659090564E+02  0.00000000000E+00 0. -1.
         11    1    3    3    0    0  0.15740859250E+01  0.64039119536E+00 -0.40599384426E+01  0.44012438925E+01  0.51100000000E-03 0. -1.
        -11    1    3    3    0    0  0.27982683767E+02 -0.43278385406E+01  0.27893406214E+01  0.28452437481E+02  0.51100000000E-03 0.  1.
        -12    1    3    3    0    0  0.76155867972E+01  0.49837321943E+01 -0.15151862533E+02  0.17675228063E+02  0.00000000000E+00 0.  1.
</event>
<event>
 7    1  0.9953837E-014  0.5052884E+02  0.7816164E-02  0.1300439E+00
        -11   -1    0    0    0    0  0.00000000000E+00  0.00000000000E+00  0.45593999997E+02  0.45594000000E+02  0.51100000000E-03 0. -1.
         11   -1    0    0    0    0 -0.00000000000E+00 -0.00000000000E+00 -0.45593999997E+02  0.45594000000E+02  0.51100000000E-03 0.  1.
    9900012    2    1    2    0    0 -0.46108887463E+01 -0.21612439697E+01 -0.40339015051E+02  0.50528838599E+02  0.29999935405E+02 0.  0.
         12    1    1    2    0    0  0.46108887463E+01  0.21612439697E+01  0.40339015051E+02  0.40659161401E+02  0.00000000000E+00 0. -1.
         11    1    3    3    0    0  0.64361529474E+01 -0.58681635793E+01 -0.19856508971E+01  0.89332087350E+01  0.51100000000E-03 0. -1.
        -11    1    3    3    0    0 -0.11673534604E+02  0.23019805976E+01 -0.20704414127E+02  0.23879767366E+02  0.51100000000E-03 0.  1.
        -12    1    3    3    0    0  0.62649291071E+00  0.14049390120E+01 -0.17648950027E+02  0.17715862498E+02  0.00000000000E+00 0.  1.
</event>
<event>
 7    1  0.9953837E-014  0.5052886E+02  0.7816164E-02  0.1300439E+00
        -11   -1    0    0    0    0  0.00000000000E+00  0.00000000000E+00  0.45593999997E+02  0.45594000000E+02  0.51100000000E-03 0.  1.
         11   -1    0    0    0    0 -0.00000000000E+00 -0.00000000000E+00 -0.45593999997E+02  0.45594000000E+02  0.51100000000E-03 0. -1.
    9900012    2    1    2    0    0  0.36858602516E+02 -0.62254679214E+00 -0.17152895491E+02  0.50528856285E+02  0.29999989163E+02 0.  0.
         12    1    1    2    0    0 -0.36858602516E+02  0.62254679214E+00  0.17152895491E+02  0.40659143715E+02  0.00000000000E+00 0. -1.
         11    1    3    3    0    0 -0.70934808773E+00  0.40704348523E+00  0.39333098326E+01  0.40174352028E+01  0.51100000000E-03 0. -1.
        -11    1    3    3    0    0  0.33993865063E+02  0.45120438707E+01 -0.20351557102E+02  0.39876400020E+02  0.51100000000E-03 0.  1.
        -12    1    3    3    0    0  0.35740855407E+01 -0.55416341480E+01 -0.73464822088E+00  0.66350210618E+01  0.00000000000E+00 0.  1.
</event>
<event>
 7    1  0.9953837E-014  0.5052887E+02  0.7816164E-02  0.1300439E+00
        -11   -1    0    0    0    0  0.00000000000E+00  0.00000000000E+00  0.45593999997E+02  0.45594000000E+02  0.51100000000E-03 0. -1.
         11   -1    0    0    0    0 -0.00000000000E+00 -0.00000000000E+00 -0.45593999997E+02  0.45594000000E+02  0.51100000000E-03 0.  1.
    9900012    2    1    2    0    0  0.16476605555E+02 -0.24780786053E+02  0.27705583530E+02  0.50528865150E+02  0.30000016110E+02 0.  0.
        -12    1    1    2    0    0 -0.16476605555E+02  0.24780786053E+02 -0.27705583530E+02  0.40659134850E+02  0.00000000000E+00 0.  1.
         11    1    3    3    0    0  0.14835917829E+02 -0.98996177983E+01  0.16008872766E+02  0.23966453594E+02  0.51100000000E-03 0. -1.
        -11    1    3    3    0    0  0.21449536472E+01 -0.18379487216E+02  0.52901963952E+01  0.19245585329E+02  0.51100000000E-03 0.  1.
         12    1    3    3    0    0 -0.50426592174E+00  0.34983189615E+01  0.64065143693E+01  0.73168262273E+01  0.00000000000E+00 0. -1.
</event>
<event>
 7    1  0.9953837E-014  0.5052886E+02  0.7816164E-02  0.1300439E+00
        -11   -1    0    0    0    0  0.00000000000E+00  0.00000000000E+00  0.45593999997E+02  0.45594000000E+02  0.51100000000E-03 0.  1.
         11   -1    0    0    0    0 -0.00000000000E+00 -0.00000000000E+00 -0.45593999997E+02  0.45594000000E+02  0.51100000000E-03 0. -1.
    9900012    2    1    2    0    0  0.28947668186E+02  0.22323342606E+02 -0.17800746274E+02  0.50528859743E+02  0.29999999675E+02 0.  0.
         12    1    1    2    0    0 -0.28947668186E+02 -0.22323342606E+02  0.17800746274E+02  0.40659140257E+02  0.00000000000E+00 0. -1.
         11    1    3    3    0    0 -0.28622332879E+01  0.44130775321E+01 -0.10826406446E+02  0.12036557211E+02  0.51100000000E-03 0. -1.
        -11    1    3    3    0    0  0.15114642436E+02  0.32441845714E+01 -0.10528253088E+01  0.15494695573E+02  0.51100000000E-03 0.  1.
         12    1    3    3    0    0  0.16695259038E+02  0.14666080502E+02 -0.59215145190E+01  0.22997606959E+02  0.00000000000E+00 0. -1.
</event>
<event>
 7    1  0.9953837E-014  0.5052886E+02  0.7816164E-02  0.1300439E+00
        -11   -1    0    0    0    0  0.00000000000E+00  0.00000000000E+00  0.45593999997E+02  0.45594000000E+02  0.51100000000E-03 0. -1.
         11   -1    0    0    0    0 -0.00000000000E+00 -0.00000000000E+00 -0.45593999997E+02  0.45594000000E+02  0.51100000000E-03 0.  1.
    9900012    2    1    2    0    0 -0.16825268704E+02 -0.25680179093E+02  0.26657162223E+02  0.50528861261E+02  0.30000004289E+02 0.  0.
        -12    1    1    2    0    0  0.16825268704E+02  0.25680179093E+02 -0.26657162223E+02  0.40659138739E+02  0.00000000000E+00 0.  1.
         11    1    3    3    0    0 -0.60597134017E+01 -0.15868640237E+02 -0.25693799577E+01  0.17179510561E+02  0.51100000000E-03 0. -1.
        -11    1    3    3    0    0 -0.10279177314E+02 -0.74138796945E+01  0.27710306436E+02  0.30471104040E+02  0.51100000000E-03 0.  1.
        -12    1    3    3    0    0 -0.48637798862E+00 -0.23976591618E+01  0.15162357443E+01  0.28782466601E+01  0.00000000000E+00 0.  1.
</event>
<event>
 7    1  0.9953837E-014  0.5052884E+02  0.7816164E-02  0.1300439E+00
        -11   -1    0    0    0    0  0.00000000000E+00  0.00000000000E+00  0.45593999997E+02  0.45594000000E+02  0.51100000000E-03 0. -1.
         11   -1    0    0    0    0 -0.00000000000E+00 -0.00000000000E+00 -0.45593999997E+02  0.45594000000E+02  0.51100000000E-03 0.  1.
    9900012    2    1    2    0    0  0.23298526901E+02 -0.29577853627E+02 -0.15345900592E+02  0.50528838107E+02  0.29999933909E+02 0.  0.
         12    1    1    2    0    0 -0.23298526901E+02  0.29577853627E+02  0.15345900592E+02  0.40659161893E+02  0.00000000000E+00 0. -1.
         11    1    3    3    0    0 -0.19682439023E+01 -0.86441966654E+00 -0.11059349064E+02  0.11266339575E+02  0.51100000000E-03 0. -1.
        -11    1    3    3    0    0  0.52807850134E+01 -0.39621587076E+01 -0.34258941229E+01  0.74378856394E+01  0.51100000000E-03 0.  1.
         12    1    3    3    0    0  0.19985985789E+02 -0.24751275252E+02 -0.86065740471E+00  0.31824612893E+02  0.00000000000E+00 0. -1.
</event>
<event>
 7    1  0.9953837E-014  0.5052886E+02  0.7816164E-02  0.1300439E+00
        -11   -1    0    0    0    0  0.00000000000E+00  0.00000000000E+00  0.45593999997E+02  0.45594000000E+02  0.51100000000E-03 0. -1.
         11   -1    0    0    0    0 -0.00000000000E+00 -0.00000000000E+00 -0.45593999997E+02  0.45594000000E+02  0.51100000000E-03 0.  1.
    9900012    2    1    2    0    0 -0.25540276562E+02  0.11178984188E+02 -0.29595444306E+02  0.50528859109E+02  0.29999997748E+02 0.  0.
         12    1    1    2    0    0  0.25540276562E+02 -0.11178984188E+02  0.29595444306E+02  0.40659140891E+02  0.00000000000E+00 0. -1.
         11    1    3    3    0    0 -0.11966047414E+01 -0.30623757529E+01 -0.11414081158E+01  0.34803478141E+01  0.51100000000E-03 0. -1.
        -11    1    3    3    0    0 -0.22662849631E+02  0.20401806258E+02 -0.26420198205E+02  0.40346813077E+02  0.51100000000E-03 0.  1.
        -12    1    3    3    0    0 -0.16808221898E+01 -0.61604463175E+01 -0.20338379847E+01  0.67016982185E+01  0.00000000000E+00 0.  1.
</event>
<event>
 7    1  0.9953837E-014  0.5052887E+02  0.7816164E-02  0.1300439E+00
        -11   -1    0    0    0    0  0.00000000000E+00  0.00000000000E+00  0.45593999997E+02  0.45594000000E+02  0.51100000000E-03 0. -1.
         11   -1    0    0    0    0 -0.00000000000E+00 -0.00000000000E+00 -0.45593999997E+02  0.45594000000E+02  0.51100000000E-03 0.  1.
    9900012    2    1    2    0    0  0.34749216929E+02  0.16768977770E+02  0.12824136297E+02  0.50528866163E+02  0.30000019189E+02 0.  0.
        -12    1    1    2    0    0 -0.34749216929E+02 -0.16768977770E+02 -0.12824136297E+02  0.40659133837E+02  0.00000000000E+00 0.  1.
         11    1    3    3    0    0  0.10244150369E+02 -0.12769450208E+01  0.59323441479E+01  0.11906549153E+02  0.51100000000E-03 0. -1.
        -11    1    3    3    0    0 -0.35423862882E+01  0.70239229441E+01  0.14973532201E+01  0.80078749407E+01  0.51100000000E-03 0.  1.
        -12    1    3    3    0    0  0.28047452848E+02  0.11021999847E+02  0.53944389287E+01  0.30614442069E+02  0.00000000000E+00 0.  1.
</event>
<event>
 7    1  0.9953837E-014  0.5052888E+02  0.7816164E-02  0.1300439E+00
        -11   -1    0    0    0    0  0.00000000000E+00  0.00000000000E+00  0.45593999997E+02  0.45594000000E+02  0.51100000000E-03 0.  1.
         11   -1    0    0    0    0 -0.00000000000E+00 -0.00000000000E+00 -0.45593999997E+02  0.45594000000E+02  0.51100000000E-03 0. -1.
    9900012    2    1    2    0    0 -0.16926532849E+02 -0.29865348463E+02 -0.21788010989E+02  0.50528880778E+02  0.30000063612E+02 0.  0.
         12    1    1    2    0    0  0.16926532849E+02  0.29865348463E+02  0.21788010989E+02  0.40659119222E+02  0.00000000000E+00 0. -1.
         11    1    3    3    0    0 -0.13119571451E+02 -0.86213588240E+01 -0.19802916587E+02  0.25270664586E+02  0.51100000000E-03 0. -1.
        -11    1    3    3    0    0 -0.45406723200E+01 -0.19227399235E+02  0.28571151810E+01  0.19961805877E+02  0.51100000000E-03 0.  1.
        -12    1    3    3    0    0  0.73371092195E+00 -0.20165904036E+01 -0.48422095829E+01  0.52964103143E+01  0.00000000000E+00 0.  1.
</event>
<event>
 7    1  0.1114911E-013  0.5052887E+02  0.7816164E-02  0.1300439E+00
        -11   -1    0    0    0    0  0.00000000000E+00  0.00000000000E+00  0.45593999997E+02  0.45594000000E+02  0.51100000000E-03 0. -1.
         11   -1    0    0    0    0 -0.00000000000E+00 -0.00000000000E+00 -0.45593999997E+02  0.45594000000E+02  0.51100000000E-03 0.  1.
    9900012    2    1    2    0    0  0.13019949970E+02  0.36948971169E+00  0.38516348810E+02  0.50528871314E+02  0.30000034845E+02 0.  0.
        -12    1    1    2    0    0 -0.13019949970E+02 -0.36948971169E+00 -0.38516348810E+02  0.40659128686E+02  0.00000000000E+00 0.  1.
         11    1    3    3    0    0  0.16794470297E+02 -0.54811835144E+01  0.35093753301E+02  0.39289554926E+02  0.51100000000E-03 0. -1.
        -11    1    3    3    0    0  0.72056838303E+00 -0.72646305847E+00 -0.15434147123E+01  0.18517820080E+01  0.51100000000E-03 0.  1.
         12    1    3    3    0    0 -0.44950887095E+01  0.65771362845E+01  0.49660102217E+01  0.93875343799E+01  0.00000000000E+00 0. -1.
</event>
<event>
 7    1  0.9953837E-014  0.5052895E+02  0.7816164E-02  0.1300438E+00
        -11   -1    0    0    0    0  0.00000000000E+00  0.00000000000E+00  0.45593999997E+02  0.45594000000E+02  0.51100000000E-03 0. -1.
         11   -1    0    0    0    0 -0.00000000000E+00 -0.00000000000E+00 -0.45593999997E+02  0.45594000000E+02  0.51100000000E-03 0.  1.
    9900012    2    1    2    0    0 -0.16855250119E+02  0.45554853508E+01  0.36719296345E+02  0.50528946550E+02  0.30000263533E+02 0.  0.
        -12    1    1    2    0    0  0.16855250119E+02 -0.45554853508E+01 -0.36719296345E+02  0.40659053450E+02  0.00000000000E+00 0.  1.
         11    1    3    3    0    0 -0.78346326473E+01 -0.11907585427E+02  0.19617634385E+02  0.24249198719E+02  0.51100000000E-03 0. -1.
        -11    1    3    3    0    0 -0.51123784578E+01  0.98850462649E+01  0.14325334085E+02  0.18140169515E+02  0.51100000000E-03 0.  1.
         12    1    3    3    0    0 -0.39082390134E+01  0.65780245126E+01  0.27763278758E+01  0.81395783152E+01  0.00000000000E+00 0. -1.
</event>
<event>
 7    1  0.9953837E-014  0.5052887E+02  0.7816164E-02  0.1300439E+00
        -11   -1    0    0    0    0  0.00000000000E+00  0.00000000000E+00  0.45593999997E+02  0.45594000000E+02  0.51100000000E-03 0. -1.
         11   -1    0    0    0    0 -0.00000000000E+00 -0.00000000000E+00 -0.45593999997E+02  0.45594000000E+02  0.51100000000E-03 0.  1.
    9900012    2    1    2    0    0  0.16000534159E+02  0.10846904358E+02 -0.35769998813E+02  0.50528865201E+02  0.30000016265E+02 0.  0.
         12    1    1    2    0    0 -0.16000534159E+02 -0.10846904358E+02  0.35769998813E+02  0.40659134799E+02  0.00000000000E+00 0. -1.
         11    1    3    3    0    0  0.99805397448E+01 -0.44455113076E+01 -0.42165860174E+01  0.11711248537E+02  0.51100000000E-03 0. -1.
        -11    1    3    3    0    0 -0.52246892568E+01  0.64673953660E+01 -0.11796125600E+02  0.14431672117E+02  0.51100000000E-03 0.  1.
        -12    1    3    3    0    0  0.11244683671E+02  0.88250202995E+01 -0.19757287195E+02  0.24385944547E+02  0.00000000000E+00 0.  1.
</event>
<event>
 7    1  0.9953837E-014  0.5052889E+02  0.7816164E-02  0.1300439E+00
        -11   -1    0    0    0    0  0.00000000000E+00  0.00000000000E+00  0.45593999997E+02  0.45594000000E+02  0.51100000000E-03 0. -1.
         11   -1    0    0    0    0 -0.00000000000E+00 -0.00000000000E+00 -0.45593999997E+02  0.45594000000E+02  0.51100000000E-03 0.  1.
    9900012    2    1    2    0    0 -0.54427844972E+01 -0.39969044290E+02  0.51004896112E+01  0.50528887875E+02  0.30000085184E+02 0.  0.
         12    1    1    2    0    0  0.54427844972E+01  0.39969044290E+02 -0.51004896112E+01  0.40659112125E+02  0.00000000000E+00 0. -1.
         11    1    3    3    0    0 -0.11678294927E+02 -0.38319364617E+01  0.14104363779E+01  0.12371565805E+02  0.51100000000E-03 0. -1.
        -11    1    3    3    0    0 -0.98565175871E-01 -0.11707527171E+02 -0.29242223565E+01  0.12067600599E+02  0.51100000000E-03 0.  1.
         12    1    3    3    0    0  0.63340756053E+01 -0.24429580657E+02  0.66142755898E+01  0.26089721471E+02  0.00000000000E+00 0. -1.
</event>
<event>
 7    1  0.9953837E-014  0.5052886E+02  0.7816164E-02  0.1300439E+00
        -11   -1    0    0    0    0  0.00000000000E+00  0.00000000000E+00  0.45593999997E+02  0.45594000000E+02  0.51100000000E-03 0.  1.
         11   -1    0    0    0    0 -0.00000000000E+00 -0.00000000000E+00 -0.45593999997E+02  0.45594000000E+02  0.51100000000E-03 0. -1.
    9900012    2    1    2    0    0 -0.38485378504E+02 -0.76795134206E+01  0.10633257558E+02  0.50528862635E+02  0.30000008465E+02 0.  0.
        -12    1    1    2    0    0  0.38485378504E+02  0.76795134206E+01 -0.10633257558E+02  0.40659137365E+02  0.00000000000E+00 0.  1.
         11    1    3    3    0    0 -0.16828546155E+02 -0.14049499698E+02  0.73754911240E+01  0.23129770363E+02  0.51100000000E-03 0. -1.
        -11    1    3    3    0    0 -0.20721631126E+01  0.52163794318E+01  0.52424435318E+01  0.76803443143E+01  0.51100000000E-03 0.  1.
        -12    1    3    3    0    0 -0.19584669236E+02  0.11536068453E+01 -0.19846770974E+01  0.19718747958E+02  0.00000000000E+00 0.  1.
</event>
<event>
 7    1  0.9953837E-014  0.5052883E+02  0.7816164E-02  0.1300439E+00
        -11   -1    0    0    0    0  0.00000000000E+00  0.00000000000E+00  0.45593999997E+02  0.45594000000E+02  0.51100000000E-03 0. -1.
         11   -1    0    0    0    0 -0.00000000000E+00 -0.00000000000E+00 -0.45593999997E+02  0.45594000000E+02  0.51100000000E-03 0.  1.
    9900012    2    1    2    0    0 -0.24838361331E+01 -0.83116165613E+01 -0.39722982849E+02  0.50528834020E+02  0.29999921487E+02 0.  0.
         12    1    1    2    0    0  0.24838361331E+01  0.83116165613E+01  0.39722982849E+02  0.40659165980E+02  0.00000000000E+00 0. -1.
         11    1    3    3    0    0 -0.57487337355E+01 -0.63669919731E+01 -0.77643252331E+01  0.11570275404E+02  0.51100000000E-03 0. -1.
        -11    1    3    3    0    0  0.10274060552E+02  0.56567578801E+01 -0.14288708596E+02  0.18485735678E+02  0.51100000000E-03 0.  1.
        -12    1    3    3    0    0 -0.70091629499E+01 -0.76013824683E+01 -0.17669949020E+02  0.20472822938E+02  0.00000000000E+00 0.  1.
</event>
<event>
 7    1  0.9953837E-014  0.5052887E+02  0.7816164E-02  0.1300439E+00
        -11   -1    0    0    0    0  0.00000000000E+00  0.00000000000E+00  0.45593999997E+02  0.45594000000E+02  0.51100000000E-03 0.  1.
         11   -1    0    0    0    0 -0.00000000000E+00 -0.00000000000E+00 -0.45593999997E+02  0.45594000000E+02  0.51100000000E-03 0. -1.
    9900012    2    1    2    0    0 -0.21586821093E+02 -0.32409077454E+02  0.11697255804E+02  0.50528868926E+02  0.30000027588E+02 0.  0.
        -12    1    1    2    0    0  0.21586821093E+02  0.32409077454E+02 -0.11697255804E+02  0.40659131074E+02  0.00000000000E+00 0.  1.
         11    1    3    3    0    0 -0.48407858435E+01 -0.15277885447E+02 -0.73819408235E+01  0.17644830458E+02  0.51100000000E-03 0. -1.
        -11    1    3    3    0    0 -0.13425234696E+02 -0.15434226540E+02  0.20436508932E+02  0.28915448693E+02  0.51100000000E-03 0.  1.
        -12    1    3    3    0    0 -0.33208005528E+01 -0.16969654679E+01 -0.13573123043E+01  0.39685897750E+01  0.00000000000E+00 0.  1.
</event>
<event>
 7    1  0.9953837E-014  0.5052887E+02  0.7816164E-02  0.1300439E+00
        -11   -1    0    0    0    0  0.00000000000E+00  0.00000000000E+00  0.45593999997E+02  0.45594000000E+02  0.51100000000E-03 0. -1.
         11   -1    0    0    0    0 -0.00000000000E+00 -0.00000000000E+00 -0.45593999997E+02  0.45594000000E+02  0.51100000000E-03 0.  1.
    9900012    2    1    2    0    0 -0.22696670680E+02 -0.30924094694E+02 -0.13480603471E+02  0.50528866185E+02  0.30000019257E+02 0.  0.
         12    1    1    2    0    0  0.22696670680E+02  0.30924094694E+02  0.13480603471E+02  0.40659133815E+02  0.00000000000E+00 0. -1.
         11    1    3    3    0    0  0.16530142240E+01 -0.14736978598E+02  0.43990610291E+01  0.15468119874E+02  0.51100000000E-03 0. -1.
        -11    1    3    3    0    0 -0.10812731465E+02 -0.45415359193E+01 -0.38234238789E+01  0.12335285998E+02  0.51100000000E-03 0.  1.
         12    1    3    3    0    0 -0.13536953440E+02 -0.11645580177E+02 -0.14056240621E+02  0.22725460314E+02  0.00000000000E+00 0. -1.
</event>
<event>
 7    1  0.9953837E-014  0.5052885E+02  0.7816164E-02  0.1300439E+00
        -11   -1    0    0    0    0  0.00000000000E+00  0.00000000000E+00  0.45593999997E+02  0.45594000000E+02  0.51100000000E-03 0. -1.
         11   -1    0    0    0    0 -0.00000000000E+00 -0.00000000000E+00 -0.45593999997E+02  0.45594000000E+02  0.51100000000E-03 0.  1.
    9900012    2    1    2    0    0  0.58224391245E+01  0.29503342774E+02  0.27364545320E+02  0.50528851303E+02  0.29999974020E+02 0.  0.
        -12    1    1    2    0    0 -0.58224391245E+01 -0.29503342774E+02 -0.27364545320E+02  0.40659148697E+02  0.00000000000E+00 0.  1.
         11    1    3    3    0    0  0.13069391824E+02  0.15454584653E+02  0.26330135348E+01  0.20410437281E+02  0.51100000000E-03 0.  1.
        -11    1    3    3    0    0 -0.40096696116E+01  0.13031714201E+02  0.21317311992E+02  0.25304758767E+02  0.51100000000E-03 0. -1.
        -12    1    3    3    0    0 -0.32372830878E+01  0.10170439202E+01  0.34142197929E+01  0.48136552557E+01  0.00000000000E+00 0.  1.
</event>
<event>
 7    1  0.9953837E-014  0.5052886E+02  0.7816164E-02  0.1300439E+00
        -11   -1    0    0    0    0  0.00000000000E+00  0.00000000000E+00  0.45593999997E+02  0.45594000000E+02  0.51100000000E-03 0. -1.
         11   -1    0    0    0    0 -0.00000000000E+00 -0.00000000000E+00 -0.45593999997E+02  0.45594000000E+02  0.51100000000E-03 0.  1.
    9900012    2    1    2    0    0 -0.15072528067E+02  0.36955323818E+01 -0.37580946509E+02  0.50528860776E+02  0.30000002814E+02 0.  0.
         12    1    1    2    0    0  0.15072528067E+02 -0.36955323818E+01  0.37580946509E+02  0.40659139224E+02  0.00000000000E+00 0. -1.
         11    1    3    3    0    0 -0.39566273134E+01  0.13617440213E+01 -0.31201549988E+02  0.31480882586E+02  0.51100000000E-03 0. -1.
        -11    1    3    3    0    0 -0.86143219831E+01  0.78967868115E+01 -0.29593851833E+01  0.12055029909E+02  0.51100000000E-03 0.  1.
        -12    1    3    3    0    0 -0.25015787703E+01 -0.55629984510E+01 -0.34200113385E+01  0.69929482814E+01  0.00000000000E+00 0.  1.
</event>
<event>
 7    1  0.9953837E-014  0.5052885E+02  0.7816164E-02  0.1300439E+00
        -11   -1    0    0    0    0  0.00000000000E+00  0.00000000000E+00  0.45593999997E+02  0.45594000000E+02  0.51100000000E-03 0. -1.
         11   -1    0    0    0    0 -0.00000000000E+00 -0.00000000000E+00 -0.45593999997E+02  0.45594000000E+02  0.51100000000E-03 0.  1.
    9900012    2    1    2    0    0 -0.19054543804E+01 -0.89384222250E+01  0.39618690280E+02  0.50528846445E+02  0.29999959255E+02 0.  0.
        -12    1    1    2    0    0  0.19054543804E+01  0.89384222250E+01 -0.39618690280E+02  0.40659153555E+02  0.00000000000E+00 0.  1.
         11    1    3    3    0    0 -0.16953256168E+01  0.66071945299E+01  0.68029282797E+01  0.96337418453E+01  0.51100000000E-03 0. -1.
        -11    1    3    3    0    0  0.87230016304E+01 -0.11252818561E+02  0.16386956174E+02  0.21708270680E+02  0.51100000000E-03 0.  1.
        -12    1    3    3    0    0 -0.89331303941E+01 -0.42927981940E+01  0.16428805827E+02  0.19186833920E+02  0.00000000000E+00 0.  1.
</event>
<event>
 7    1  0.9953837E-014  0.5052886E+02  0.7816164E-02  0.1300439E+00
        -11   -1    0    0    0    0  0.00000000000E+00  0.00000000000E+00  0.45593999997E+02  0.45594000000E+02  0.51100000000E-03 0. -1.
         11   -1    0    0    0    0 -0.00000000000E+00 -0.00000000000E+00 -0.45593999997E+02  0.45594000000E+02  0.51100000000E-03 0.  1.
    9900012    2    1    2    0    0 -0.19978046763E+02 -0.26659569249E+01  0.35311981136E+02  0.50528859693E+02  0.29999999523E+02 0.  0.
        -12    1    1    2    0    0  0.19978046763E+02  0.26659569249E+01 -0.35311981136E+02  0.40659140307E+02  0.00000000000E+00 0.  1.
         11    1    3    3    0    0 -0.41349465595E+01 -0.12378151654E+02  0.18952645083E+02  0.23011283696E+02  0.51100000000E-03 0. -1.
        -11    1    3    3    0    0 -0.13588675668E+02  0.11468503796E+02  0.96640821459E+01  0.20237914164E+02  0.51100000000E-03 0.  1.
        -12    1    3    3    0    0 -0.22544245355E+01 -0.17563090671E+01  0.66952539067E+01  0.72796618329E+01  0.00000000000E+00 0.  1.
</event>
<event>
 7    1  0.9953837E-014  0.5052887E+02  0.7816164E-02  0.1300439E+00
        -11   -1    0    0    0    0  0.00000000000E+00  0.00000000000E+00  0.45593999997E+02  0.45594000000E+02  0.51100000000E-03 0. -1.
         11   -1    0    0    0    0 -0.00000000000E+00 -0.00000000000E+00 -0.45593999997E+02  0.45594000000E+02  0.51100000000E-03 0.  1.
    9900012    2    1    2    0    0  0.93169751990E+01 -0.23271445176E+02 -0.32012481804E+02  0.50528865987E+02  0.30000018655E+02 0.  0.
         12    1    1    2    0    0 -0.93169751990E+01  0.23271445176E+02  0.32012481804E+02  0.40659134013E+02  0.00000000000E+00 0. -1.
         11    1    3    3    0    0 -0.24293854027E+01 -0.53731499427E+01  0.33738514665E+01  0.67937859637E+01  0.51100000000E-03 0. -1.
        -11    1    3    3    0    0  0.10823850612E+02 -0.97213270691E+01 -0.31367808224E+02  0.34577439684E+02  0.51100000000E-03 0.  1.
        -12    1    3    3    0    0  0.92250998934E+00 -0.81769681641E+01 -0.40185250462E+01  0.91576403393E+01  0.00000000000E+00 0.  1.
</event>
<event>
 7    1  0.9953837E-014  0.5052883E+02  0.7816164E-02  0.1300439E+00
        -11   -1    0    0    0    0  0.00000000000E+00  0.00000000000E+00  0.45593999997E+02  0.45594000000E+02  0.51100000000E-03 0. -1.
         11   -1    0    0    0    0 -0.00000000000E+00 -0.00000000000E+00 -0.45593999997E+02  0.45594000000E+02  0.51100000000E-03 0.  1.
    9900012    2    1    2    0    0  0.13680776909E+02  0.19298877616E+02 -0.33068982764E+02  0.50528831844E+02  0.29999914872E+02 0.  0.
         12    1    1    2    0    0 -0.13680776909E+02 -0.19298877616E+02  0.33068982764E+02  0.40659168156E+02  0.00000000000E+00 0. -1.
         11    1    3    3    0    0 -0.58789669495E+01  0.21086028366E+01 -0.13234690834E+01  0.63843581504E+01  0.51100000000E-03 0. -1.
        -11    1    3    3    0    0  0.13546840221E+02  0.90125180981E+01 -0.29588862767E+02  0.33767486767E+02  0.51100000000E-03 0.  1.
        -12    1    3    3    0    0  0.60129036381E+01  0.81777566817E+01 -0.21566509134E+01  0.10376986926E+02  0.00000000000E+00 0.  1.
</event>
<event>
 7    1  0.9953837E-014  0.5052888E+02  0.7816164E-02  0.1300439E+00
        -11   -1    0    0    0    0  0.00000000000E+00  0.00000000000E+00  0.45593999997E+02  0.45594000000E+02  0.51100000000E-03 0. -1.
         11   -1    0    0    0    0 -0.00000000000E+00 -0.00000000000E+00 -0.45593999997E+02  0.45594000000E+02  0.51100000000E-03 0.  1.
    9900012    2    1    2    0    0 -0.31228731910E+01 -0.17757402908E+02 -0.36442922665E+02  0.50528876702E+02  0.30000051223E+02 0.  0.
         12    1    1    2    0    0  0.31228731910E+01  0.17757402908E+02  0.36442922665E+02  0.40659123298E+02  0.00000000000E+00 0. -1.
         11    1    3    3    0    0 -0.21900060664E+01  0.56725757215E+01 -0.83213392684E+01  0.10306256807E+02  0.51100000000E-03 0. -1.
        -11    1    3    3    0    0 -0.11143569614E+01 -0.11271758750E+02 -0.21270580028E+01  0.11524700116E+02  0.51100000000E-03 0.  1.
        -12    1    3    3    0    0  0.18148983685E+00 -0.12158219880E+02 -0.25994525394E+02  0.28697919779E+02  0.00000000000E+00 0.  1.
</event>
<event>
 7    1  0.9953837E-014  0.5052886E+02  0.7816164E-02  0.1300439E+00
        -11   -1    0    0    0    0  0.00000000000E+00  0.00000000000E+00  0.45593999997E+02  0.45594000000E+02  0.51100000000E-03 0. -1.
         11   -1    0    0    0    0 -0.00000000000E+00 -0.00000000000E+00 -0.45593999997E+02  0.45594000000E+02  0.51100000000E-03 0.  1.
    9900012    2    1    2    0    0  0.12837226078E+02  0.28506095503E+02 -0.25995648896E+02  0.50528860613E+02  0.30000002319E+02 0.  0.
         12    1    1    2    0    0 -0.12837226078E+02 -0.28506095503E+02  0.25995648896E+02  0.40659139387E+02  0.00000000000E+00 0. -1.
         11    1    3    3    0    0  0.16954144794E+02  0.21532767452E+02 -0.10982521617E+02  0.29524885795E+02  0.51100000000E-03 0. -1.
        -11    1    3    3    0    0 -0.84758869128E+00  0.10062578743E+02 -0.92595136192E+01  0.13700820788E+02  0.51100000000E-03 0.  1.
         12    1    3    3    0    0 -0.32693300244E+01 -0.30892506927E+01 -0.57536136591E+01  0.73031540302E+01  0.00000000000E+00 0. -1.
</event>
<event>
 7    1  0.9953837E-014  0.5052886E+02  0.7816164E-02  0.1300439E+00
        -11   -1    0    0    0    0  0.00000000000E+00  0.00000000000E+00  0.45593999997E+02  0.45594000000E+02  0.51100000000E-03 0. -1.
         11   -1    0    0    0    0 -0.00000000000E+00 -0.00000000000E+00 -0.45593999997E+02  0.45594000000E+02  0.51100000000E-03 0.  1.
    9900012    2    1    2    0    0 -0.26834104480E+02 -0.81697257284E+01 -0.29433862021E+02  0.50528858160E+02  0.29999994862E+02 0.  0.
         12    1    1    2    0    0  0.26834104480E+02  0.81697257284E+01  0.29433862021E+02  0.40659141840E+02  0.00000000000E+00 0. -1.
         11    1    3    3    0    0 -0.12021033839E+02  0.76749182830E+01 -0.17662234069E+02  0.22701632932E+02  0.51100000000E-03 0. -1.
        -11    1    3    3    0    0 -0.71636500360E+01 -0.78181926189E+01  0.13036462058E+01  0.10683703073E+02  0.51100000000E-03 0.  1.
        -12    1    3    3    0    0 -0.76494206047E+01 -0.80264513925E+01 -0.13075274158E+02  0.17143522154E+02  0.00000000000E+00 0.  1.
</event>
<event>
 7    1  0.1003957E-013  0.5052889E+02  0.7816164E-02  0.1300439E+00
        -11   -1    0    0    0    0  0.00000000000E+00  0.00000000000E+00  0.45593999997E+02  0.45594000000E+02  0.51100000000E-03 0. -1.
         11   -1    0    0    0    0 -0.00000000000E+00 -0.00000000000E+00 -0.45593999997E+02  0.45594000000E+02  0.51100000000E-03 0.  1.
    9900012    2    1    2    0    0  0.46018651152E+01  0.21453968005E+02  0.34230293667E+02  0.50528893883E+02  0.30000103446E+02 0.  0.
        -12    1    1    2    0    0 -0.46018651152E+01 -0.21453968005E+02 -0.34230293667E+02  0.40659106117E+02  0.00000000000E+00 0.  1.
         11    1    3    3    0    0 -0.55516879376E+01  0.47074970177E+01  0.26883854549E+02  0.27851811481E+02  0.51100000000E-03 0. -1.
        -11    1    3    3    0    0  0.27513667419E+01  0.16858636589E+01 -0.16630781889E+01  0.36301493837E+01  0.51100000000E-03 0.  1.
         12    1    3    3    0    0  0.74021863109E+01  0.15060607328E+02  0.90095173078E+01  0.19046933018E+02  0.00000000000E+00 0. -1.
</event>
<event>
 7    1  0.9953837E-014  0.5052885E+02  0.7816164E-02  0.1300439E+00
        -11   -1    0    0    0    0  0.00000000000E+00  0.00000000000E+00  0.45593999997E+02  0.45594000000E+02  0.51100000000E-03 0. -1.
         11   -1    0    0    0    0 -0.00000000000E+00 -0.00000000000E+00 -0.45593999997E+02  0.45594000000E+02  0.51100000000E-03 0.  1.
    9900012    2    1    2    0    0 -0.32278610565E+01  0.13593566140E+02  0.38183268088E+02  0.50528854789E+02  0.29999984615E+02 0.  0.
        -12    1    1    2    0    0  0.32278610565E+01 -0.13593566140E+02 -0.38183268088E+02  0.40659145211E+02  0.00000000000E+00 0.  1.
         11    1    3    3    0    0 -0.80682547389E+01  0.19928070447E+02  0.26660746518E+02  0.34249381475E+02  0.51100000000E-03 0. -1.
        -11    1    3    3    0    0  0.52953231946E+01 -0.22963398975E+01  0.23217859366E+01  0.62212791977E+01  0.51100000000E-03 0.  1.
        -12    1    3    3    0    0 -0.45492951223E+00 -0.40381644097E+01  0.92007356339E+01  0.10058194116E+02  0.00000000000E+00 0.  1.
</event>
<event>
 7    1  0.9953837E-014  0.5052886E+02  0.7816164E-02  0.1300439E+00
        -11   -1    0    0    0    0  0.00000000000E+00  0.00000000000E+00  0.45593999997E+02  0.45594000000E+02  0.51100000000E-03 0. -1.
         11   -1    0    0    0    0 -0.00000000000E+00 -0.00000000000E+00 -0.45593999997E+02  0.45594000000E+02  0.51100000000E-03 0.  1.
    9900012    2    1    2    0    0 -0.11410612993E+02  0.15813167876E+02  0.35677822861E+02  0.50528863128E+02  0.30000009962E+02 0.  0.
        -12    1    1    2    0    0  0.11410612993E+02 -0.15813167876E+02 -0.35677822861E+02  0.40659136872E+02  0.00000000000E+00 0.  1.
         11    1    3    3    0    0 -0.13343511568E+01  0.11207481301E+02  0.11008758599E+02  0.15766448435E+02  0.51100000000E-03 0. -1.
        -11    1    3    3    0    0 -0.15444063478E+02 -0.17174117380E+01  0.12060733025E+02  0.19670533321E+02  0.51100000000E-03 0.  1.
        -12    1    3    3    0    0  0.53678016413E+01  0.63230983125E+01  0.12608331237E+02  0.15091881371E+02  0.00000000000E+00 0.  1.
</event>
<event>
 7    1  0.9953837E-014  0.5052887E+02  0.7816164E-02  0.1300439E+00
        -11   -1    0    0    0    0  0.00000000000E+00  0.00000000000E+00  0.45593999997E+02  0.45594000000E+02  0.51100000000E-03 0.  1.
         11   -1    0    0    0    0 -0.00000000000E+00 -0.00000000000E+00 -0.45593999997E+02  0.45594000000E+02  0.51100000000E-03 0. -1.
    9900012    2    1    2    0    0  0.17263487831E+02  0.36525139445E+02  0.45881842800E+01  0.50528865005E+02  0.30000015668E+02 0.  0.
         12    1    1    2    0    0 -0.17263487831E+02 -0.36525139445E+02 -0.45881842800E+01  0.40659134995E+02  0.00000000000E+00 0. -1.
         11    1    3    3    0    0  0.98599719968E+01  0.34131427198E+02  0.62024153189E+01  0.36064432984E+02  0.51100000000E-03 0.  1.
        -11    1    3    3    0    0  0.10524135007E+02  0.22909548812E+01  0.34889033369E+00  0.10776252440E+02  0.51100000000E-03 0. -1.
        -12    1    3    3    0    0 -0.31206191730E+01  0.10275736562E+00 -0.19631213726E+01  0.36881795811E+01  0.00000000000E+00 0.  1.
</event>
<event>
 7    1  0.9953837E-014  0.5052889E+02  0.7816164E-02  0.1300439E+00
        -11   -1    0    0    0    0  0.00000000000E+00  0.00000000000E+00  0.45593999997E+02  0.45594000000E+02  0.51100000000E-03 0. -1.
         11   -1    0    0    0    0 -0.00000000000E+00 -0.00000000000E+00 -0.45593999997E+02  0.45594000000E+02  0.51100000000E-03 0.  1.
    9900012    2    1    2    0    0  0.14820488892E+02 -0.53768812713E+01  0.37478070281E+02  0.50528886690E+02  0.30000081582E+02 0.  0.
        -12    1    1    2    0    0 -0.14820488892E+02  0.53768812713E+01 -0.37478070281E+02  0.40659113310E+02  0.00000000000E+00 0.  1.
         11    1    3    3    0    0  0.10405865111E+02 -0.10741499161E+02  0.33195779541E+01  0.15319315618E+02  0.51100000000E-03 0.  1.
        -11    1    3    3    0    0 -0.82944279932E+00 -0.88680112629E-02  0.64009192104E+01  0.64544419587E+01  0.51100000000E-03 0. -1.
         12    1    3    3    0    0  0.52440665802E+01  0.53734859011E+01  0.27757573116E+02  0.28755129114E+02  0.00000000000E+00 0. -1.
</event>
<event>
 7    1  0.9953837E-014  0.5052885E+02  0.7816164E-02  0.1300439E+00
        -11   -1    0    0    0    0  0.00000000000E+00  0.00000000000E+00  0.45593999997E+02  0.45594000000E+02  0.51100000000E-03 0. -1.
         11   -1    0    0    0    0 -0.00000000000E+00 -0.00000000000E+00 -0.45593999997E+02  0.45594000000E+02  0.51100000000E-03 0.  1.
    9900012    2    1    2    0    0 -0.27901129330E+02  0.15597915048E+02 -0.25127636248E+02  0.50528854963E+02  0.29999985145E+02 0.  0.
         12    1    1    2    0    0  0.27901129330E+02 -0.15597915048E+02  0.25127636248E+02  0.40659145037E+02  0.00000000000E+00 0. -1.
         11    1    3    3    0    0 -0.30553355860E+01 -0.58467926884E+01 -0.18656015091E+01  0.68556932207E+01  0.51100000000E-03 0. -1.
        -11    1    3    3    0    0 -0.20453285980E+02  0.20266947808E+02 -0.11398601257E+02  0.30967954271E+02  0.51100000000E-03 0.  1.
        -12    1    3    3    0    0 -0.43925077642E+01  0.11777599276E+01 -0.11863433482E+02  0.12705207471E+02  0.00000000000E+00 0.  1.
</event>
<event>
 7    1  0.9953837E-014  0.5052886E+02  0.7816164E-02  0.1300439E+00
        -11   -1    0    0    0    0  0.00000000000E+00  0.00000000000E+00  0.45593999997E+02  0.45594000000E+02  0.51100000000E-03 0.  1.
         11   -1    0    0    0    0 -0.00000000000E+00 -0.00000000000E+00 -0.45593999997E+02  0.45594000000E+02  0.51100000000E-03 0. -1.
    9900012    2    1    2    0    0 -0.13915254017E+02 -0.35410234327E+02 -0.14340395933E+02  0.50528856564E+02  0.29999990013E+02 0.  0.
         12    1    1    2    0    0  0.13915254017E+02  0.35410234327E+02  0.14340395933E+02  0.40659143436E+02  0.00000000000E+00 0. -1.
         11    1    3    3    0    0 -0.49076299310E+01 -0.15915979541E+02  0.80207578371E+01  0.18486097285E+02  0.51100000000E-03 0. -1.
        -11    1    3    3    0    0 -0.52637869873E+01 -0.10212385211E+02 -0.62583926616E+01  0.13083109115E+02  0.51100000000E-03 0.  1.
         12    1    3    3    0    0 -0.37438370983E+01 -0.92818695743E+01 -0.16102761109E+02  0.18959650164E+02  0.00000000000E+00 0. -1.
</event>
<event>
 7    1  0.9953837E-014  0.5052886E+02  0.7816164E-02  0.1300439E+00
        -11   -1    0    0    0    0  0.00000000000E+00  0.00000000000E+00  0.45593999997E+02  0.45594000000E+02  0.51100000000E-03 0.  1.
         11   -1    0    0    0    0 -0.00000000000E+00 -0.00000000000E+00 -0.45593999997E+02  0.45594000000E+02  0.51100000000E-03 0. -1.
    9900012    2    1    2    0    0  0.78655014019E+01  0.33955641130E+02 -0.20935951295E+02  0.50528859165E+02  0.29999997916E+02 0.  0.
         12    1    1    2    0    0 -0.78655014019E+01 -0.33955641130E+02  0.20935951295E+02  0.40659140835E+02  0.00000000000E+00 0. -1.
         11    1    3    3    0    0  0.14811018471E+00  0.42381948269E-01 -0.21955989765E+01  0.22009970429E+01  0.51100000000E-03 0. -1.
        -11    1    3    3    0    0  0.55612036632E+01 -0.16557052904E+01  0.30540520604E+01  0.65571015274E+01  0.51100000000E-03 0.  1.
        -12    1    3    3    0    0  0.21561875541E+01  0.35568964472E+02 -0.21794404379E+02  0.41770760594E+02  0.00000000000E+00 0.  1.
</event>
<event>
 7    1  0.9953837E-014  0.5052886E+02  0.7816164E-02  0.1300439E+00
        -11   -1    0    0    0    0  0.00000000000E+00  0.00000000000E+00  0.45593999997E+02  0.45594000000E+02  0.51100000000E-03 0. -1.
         11   -1    0    0    0    0 -0.00000000000E+00 -0.00000000000E+00 -0.45593999997E+02  0.45594000000E+02  0.51100000000E-03 0.  1.
    9900012    2    1    2    0    0  0.34437053973E+02  0.16729411851E+02 -0.13688750984E+02  0.50528858214E+02  0.29999995028E+02 0.  0.
         12    1    1    2    0    0 -0.34437053973E+02 -0.16729411851E+02  0.13688750984E+02  0.40659141786E+02  0.00000000000E+00 0. -1.
         11    1    3    3    0    0  0.79360733297E+01  0.15581165694E+02  0.26374350307E+01  0.17683609589E+02  0.51100000000E-03 0. -1.
        -11    1    3    3    0    0  0.84305651294E+01 -0.88951279645E+00 -0.11017092320E+02  0.13901150487E+02  0.51100000000E-03 0.  1.
         12    1    3    3    0    0  0.18070415514E+02  0.20377589530E+01 -0.53090936948E+01  0.18944098138E+02  0.00000000000E+00 0. -1.
</event>
<event>
 7    1  0.9953837E-014  0.5052885E+02  0.7816164E-02  0.1300439E+00
        -11   -1    0    0    0    0  0.00000000000E+00  0.00000000000E+00  0.45593999997E+02  0.45594000000E+02  0.51100000000E-03 0. -1.
         11   -1    0    0    0    0 -0.00000000000E+00 -0.00000000000E+00 -0.45593999997E+02  0.45594000000E+02  0.51100000000E-03 0.  1.
    9900012    2    1    2    0    0  0.96178172574E+01 -0.82392670567E+00 -0.39496643869E+02  0.50528854154E+02  0.29999982687E+02 0.  0.
         12    1    1    2    0    0 -0.96178172574E+01  0.82392670567E+00  0.39496643869E+02  0.40659145846E+02  0.00000000000E+00 0. -1.
         11    1    3    3    0    0  0.62186811379E-01 -0.64730469233E+01 -0.16826912060E+02  0.18029120151E+02  0.51100000000E-03 0. -1.
        -11    1    3    3    0    0 -0.28639614961E+01  0.94939610929E+01 -0.69974935980E+01  0.12136823703E+02  0.51100000000E-03 0.  1.
        -12    1    3    3    0    0  0.12419591942E+02 -0.38448408753E+01 -0.15672238211E+02  0.20362910300E+02  0.00000000000E+00 0.  1.
</event>
<event>
 7    1  0.9953837E-014  0.5052887E+02  0.7816164E-02  0.1300439E+00
        -11   -1    0    0    0    0  0.00000000000E+00  0.00000000000E+00  0.45593999997E+02  0.45594000000E+02  0.51100000000E-03 0. -1.
         11   -1    0    0    0    0 -0.00000000000E+00 -0.00000000000E+00 -0.45593999997E+02  0.45594000000E+02  0.51100000000E-03 0.  1.
    9900012    2    1    2    0    0  0.73190361095E+01 -0.13783910163E+02 -0.37544645136E+02  0.50528870061E+02  0.30000031039E+02 0.  0.
         12    1    1    2    0    0 -0.73190361095E+01  0.13783910163E+02  0.37544645136E+02  0.40659129939E+02  0.00000000000E+00 0. -1.
         11    1    3    3    0    0 -0.22250454667E+01 -0.15990571915E+02 -0.13049777477E+02  0.20759236738E+02  0.51100000000E-03 0. -1.
        -11    1    3    3    0    0  0.90422432586E+01 -0.27536522913E+00 -0.25490889177E+02  0.27048538232E+02  0.51100000000E-03 0.  1.
         12    1    3    3    0    0  0.50183831762E+00  0.24820269812E+01  0.99602151789E+00  0.27210950914E+01  0.00000000000E+00 0. -1.
</event>
<event>
 7    1  0.9953837E-014  0.5052886E+02  0.7816164E-02  0.1300439E+00
        -11   -1    0    0    0    0  0.00000000000E+00  0.00000000000E+00  0.45593999997E+02  0.45594000000E+02  0.51100000000E-03 0.  1.
         11   -1    0    0    0    0 -0.00000000000E+00 -0.00000000000E+00 -0.45593999997E+02  0.45594000000E+02  0.51100000000E-03 0. -1.
    9900012    2    1    2    0    0 -0.19771497763E+02  0.20894760859E+02 -0.28734345464E+02  0.50528858785E+02  0.29999996762E+02 0.  0.
         12    1    1    2    0    0  0.19771497763E+02 -0.20894760859E+02  0.28734345464E+02  0.40659141215E+02  0.00000000000E+00 0. -1.
         11    1    3    3    0    0 -0.76965932798E+01  0.21191939116E+02 -0.16908257659E+02  0.28181997958E+02  0.51100000000E-03 0.  1.
        -11    1    3    3    0    0 -0.15066120585E+01 -0.58232890605E+01 -0.73333169731E+00  0.60595669001E+01  0.51100000000E-03 0. -1.
         12    1    3    3    0    0 -0.10568292424E+02  0.55261108041E+01 -0.11092756107E+02  0.16287293926E+02  0.00000000000E+00 0. -1.
</event>
<event>
 7    1  0.9953837E-014  0.5052887E+02  0.7816164E-02  0.1300439E+00
        -11   -1    0    0    0    0  0.00000000000E+00  0.00000000000E+00  0.45593999997E+02  0.45594000000E+02  0.51100000000E-03 0.  1.
         11   -1    0    0    0    0 -0.00000000000E+00 -0.00000000000E+00 -0.45593999997E+02  0.45594000000E+02  0.51100000000E-03 0. -1.
    9900012    2    1    2    0    0 -0.15844647362E+02  0.31553600711E+02  0.20161415656E+02  0.50528865121E+02  0.30000016023E+02 0.  0.
        -12    1    1    2    0    0  0.15844647362E+02 -0.31553600711E+02 -0.20161415656E+02  0.40659134879E+02  0.00000000000E+00 0.  1.
         11    1    3    3    0    0 -0.37687549137E+01  0.39746354681E+01 -0.44351577899E+01  0.70478270116E+01  0.51100000000E-03 0. -1.
        -11    1    3    3    0    0 -0.99462932614E+01  0.30131363536E+02  0.24611898188E+02  0.40156859325E+02  0.51100000000E-03 0.  1.
        -12    1    3    3    0    0 -0.21295991869E+01 -0.25523982931E+01 -0.15324742609E-01  0.33241787844E+01  0.00000000000E+00 0.  1.
</event>
<event>
 7    1  0.9953837E-014  0.5052886E+02  0.7816164E-02  0.1300439E+00
        -11   -1    0    0    0    0  0.00000000000E+00  0.00000000000E+00  0.45593999997E+02  0.45594000000E+02  0.51100000000E-03 0. -1.
         11   -1    0    0    0    0 -0.00000000000E+00 -0.00000000000E+00 -0.45593999997E+02  0.45594000000E+02  0.51100000000E-03 0.  1.
    9900012    2    1    2    0    0  0.19360781175E+02 -0.21692464615E+02  0.28421165385E+02  0.50528861905E+02  0.30000006246E+02 0.  0.
        -12    1    1    2    0    0 -0.19360781175E+02  0.21692464615E+02 -0.28421165385E+02  0.40659138095E+02  0.00000000000E+00 0.  1.
         11    1    3    3    0    0  0.15358107742E+02 -0.88102452807E+01  0.16758809615E+02  0.24379286193E+02  0.51100000000E-03 0. -1.
        -11    1    3    3    0    0 -0.35671235352E+01 -0.12837756292E+02  0.14002069703E+01  0.13397497407E+02  0.51100000000E-03 0.  1.
        -12    1    3    3    0    0  0.75697969684E+01 -0.44463042079E-01  0.10262148800E+02  0.12752078305E+02  0.00000000000E+00 0.  1.
</event>
<event>
 7    1  0.9953837E-014  0.5052882E+02  0.7816164E-02  0.1300439E+00
        -11   -1    0    0    0    0  0.00000000000E+00  0.00000000000E+00  0.45593999997E+02  0.45594000000E+02  0.51100000000E-03 0. -1.
         11   -1    0    0    0    0 -0.00000000000E+00 -0.00000000000E+00 -0.45593999997E+02  0.45594000000E+02  0.51100000000E-03 0.  1.
    9900012    2    1    2    0    0 -0.23188593211E+02 -0.84815158268E+00 -0.33387702980E+02  0.50528819899E+02  0.29999878565E+02 0.  0.
         12    1    1    2    0    0  0.23188593211E+02  0.84815158268E+00  0.33387702980E+02  0.40659180101E+02  0.00000000000E+00 0. -1.
         11    1    3    3    0    0 -0.63836249081E+01  0.13621505302E+02 -0.95295725869E+01  0.17807549736E+02  0.51100000000E-03 0. -1.
        -11    1    3    3    0    0 -0.46792951518E+01 -0.42727027541E+01 -0.89547986136E+01  0.10969968569E+02  0.51100000000E-03 0.  1.
         12    1    3    3    0    0 -0.12125673151E+02 -0.10196954130E+02 -0.14903331779E+02  0.21751301594E+02  0.00000000000E+00 0. -1.
</event>
<event>
 7    1  0.9953837E-014  0.5052884E+02  0.7816164E-02  0.1300439E+00
        -11   -1    0    0    0    0  0.00000000000E+00  0.00000000000E+00  0.45593999997E+02  0.45594000000E+02  0.51100000000E-03 0. -1.
         11   -1    0    0    0    0 -0.00000000000E+00 -0.00000000000E+00 -0.45593999997E+02  0.45594000000E+02  0.51100000000E-03 0.  1.
    9900012    2    1    2    0    0 -0.75037287187E+00  0.20082458635E+02 -0.35345423694E+02  0.50528841371E+02  0.29999943832E+02 0.  0.
         12    1    1    2    0    0  0.75037287187E+00 -0.20082458635E+02  0.35345423694E+02  0.40659158629E+02  0.00000000000E+00 0. -1.
         11    1    3    3    0    0 -0.86392058722E+00 -0.24519136834E+01  0.41548697151E+01  0.49011408981E+01  0.51100000000E-03 0. -1.
        -11    1    3    3    0    0  0.15932204539E+01  0.15538390721E+02 -0.25415109327E+02  0.29831321123E+02  0.51100000000E-03 0.  1.
        -12    1    3    3    0    0 -0.14796727386E+01  0.69959815983E+01 -0.14085184082E+02  0.15796379350E+02  0.00000000000E+00 0.  1.
</event>
<event>
 7    1  0.9953837E-014  0.5052885E+02  0.7816164E-02  0.1300439E+00
        -11   -1    0    0    0    0  0.00000000000E+00  0.00000000000E+00  0.45593999997E+02  0.45594000000E+02  0.51100000000E-03 0. -1.
         11   -1    0    0    0    0 -0.00000000000E+00 -0.00000000000E+00 -0.45593999997E+02  0.45594000000E+02  0.51100000000E-03 0.  1.
    9900012    2    1    2    0    0  0.25535146167E+02 -0.84514190007E+01 -0.30490918768E+02  0.50528852195E+02  0.29999976733E+02 0.  0.
         12    1    1    2    0    0 -0.25535146167E+02  0.84514190007E+01  0.30490918768E+02  0.40659147805E+02  0.00000000000E+00 0. -1.
         11    1    3    3    0    0  0.74094334101E+01 -0.10372250558E+02 -0.20244974749E+01  0.12906660118E+02  0.51100000000E-03 0. -1.
        -11    1    3    3    0    0  0.20315003929E+02  0.48842339987E+01 -0.24729029369E+02  0.32374064005E+02  0.51100000000E-03 0.  1.
        -12    1    3    3    0    0 -0.21892911731E+01 -0.29634024410E+01 -0.37373919244E+01  0.52481280724E+01  0.00000000000E+00 0.  1.
</event>
<event>
 7    1  0.9953837E-014  0.5052886E+02  0.7816164E-02  0.1300439E+00
        -11   -1    0    0    0    0  0.00000000000E+00  0.00000000000E+00  0.45593999997E+02  0.45594000000E+02  0.51100000000E-03 0.  1.
         11   -1    0    0    0    0 -0.00000000000E+00 -0.00000000000E+00 -0.45593999997E+02  0.45594000000E+02  0.51100000000E-03 0. -1.
    9900012    2    1    2    0    0  0.12653637536E+02  0.36050928253E+02  0.13906170740E+02  0.50528861354E+02  0.30000004572E+02 0.  0.
        -12    1    1    2    0    0 -0.12653637536E+02 -0.36050928253E+02 -0.13906170740E+02  0.40659138646E+02  0.00000000000E+00 0.  1.
         11    1    3    3    0    0 -0.40786484435E+01  0.27286927673E+02  0.64367162905E+01  0.28330956776E+02  0.51100000000E-03 0. -1.
        -11    1    3    3    0    0  0.30102920307E+01  0.49026710263E+01  0.52166778737E+01  0.77660652586E+01  0.51100000000E-03 0.  1.
         12    1    3    3    0    0  0.13721993949E+02  0.38613295533E+01  0.22527765760E+01  0.14431839320E+02  0.00000000000E+00 0. -1.
</event>
<event>
 7    1  0.9953837E-014  0.5052879E+02  0.7816164E-02  0.1300439E+00
        -11   -1    0    0    0    0  0.00000000000E+00  0.00000000000E+00  0.45593999997E+02  0.45594000000E+02  0.51100000000E-03 0. -1.
         11   -1    0    0    0    0 -0.00000000000E+00 -0.00000000000E+00 -0.45593999997E+02  0.45594000000E+02  0.51100000000E-03 0.  1.
    9900012    2    1    2    0    0  0.99663414065E+01  0.25121076247E+02 -0.30377205950E+02  0.50528793489E+02  0.29999798288E+02 0.  0.
         12    1    1    2    0    0 -0.99663414065E+01 -0.25121076247E+02  0.30377205950E+02  0.40659206511E+02  0.00000000000E+00 0. -1.
         11    1    3    3    0    0 -0.48079255887E+01  0.98108857504E+01  0.88722985087E+00  0.10961605938E+02  0.51100000000E-03 0. -1.
        -11    1    3    3    0    0  0.76140563594E+01  0.51547347206E+00 -0.12259204459E+02  0.14440486882E+02  0.51100000000E-03 0.  1.
         12    1    3    3    0    0  0.71602106358E+01  0.14794717024E+02 -0.19005231341E+02  0.25126700669E+02  0.00000000000E+00 0. -1.
</event>
<event>
 7    1  0.9953837E-014  0.5052886E+02  0.7816164E-02  0.1300439E+00
        -11   -1    0    0    0    0  0.00000000000E+00  0.00000000000E+00  0.45593999997E+02  0.45594000000E+02  0.51100000000E-03 0. -1.
         11   -1    0    0    0    0 -0.00000000000E+00 -0.00000000000E+00 -0.45593999997E+02  0.45594000000E+02  0.51100000000E-03 0.  1.
    9900012    2    1    2    0    0 -0.17349749290E+02  0.84027217200E+01  0.35798684590E+02  0.50528863867E+02  0.30000012210E+02 0.  0.
        -12    1    1    2    0    0  0.17349749290E+02 -0.84027217200E+01 -0.35798684590E+02  0.40659136133E+02  0.00000000000E+00 0.  1.
         11    1    3    3    0    0 -0.20064572715E+02 -0.30726547815E+01  0.13610294521E+02  0.24439075327E+02  0.51100000000E-03 0. -1.
        -11    1    3    3    0    0 -0.21728916442E+01  0.49963131283E+01  0.70154111155E+01  0.88826007652E+01  0.51100000000E-03 0.  1.
         12    1    3    3    0    0  0.48877150691E+01  0.64790633732E+01  0.15172978953E+02  0.17207187775E+02  0.00000000000E+00 0. -1.
</event>
<event>
 7    1  0.9953837E-014  0.5052887E+02  0.7816164E-02  0.1300439E+00
        -11   -1    0    0    0    0  0.00000000000E+00  0.00000000000E+00  0.45593999997E+02  0.45594000000E+02  0.51100000000E-03 0.  1.
         11   -1    0    0    0    0 -0.00000000000E+00 -0.00000000000E+00 -0.45593999997E+02  0.45594000000E+02  0.51100000000E-03 0. -1.
    9900012    2    1    2    0    0  0.16486971297E+02  0.36869700735E+02 -0.46871747987E+01  0.50528872336E+02  0.30000037953E+02 0.  0.
        -12    1    1    2    0    0 -0.16486971297E+02 -0.36869700735E+02  0.46871747987E+01  0.40659127664E+02  0.00000000000E+00 0.  1.
         11    1    3    3    0    0  0.15210747361E+01  0.10176100824E+02 -0.28745459078E+01  0.10683150789E+02  0.51100000000E-03 0. -1.
        -11    1    3    3    0    0  0.16642662212E+02  0.46295943347E+01 -0.36010759379E+01  0.17645937136E+02  0.51100000000E-03 0.  1.
        -12    1    3    3    0    0 -0.16767656520E+01  0.22064005576E+02  0.17884470470E+01  0.22199784412E+02  0.00000000000E+00 0.  1.
</event>
<event>
 7    1  0.9953837E-014  0.5052886E+02  0.7816164E-02  0.1300439E+00
        -11   -1    0    0    0    0  0.00000000000E+00  0.00000000000E+00  0.45593999997E+02  0.45594000000E+02  0.51100000000E-03 0. -1.
         11   -1    0    0    0    0 -0.00000000000E+00 -0.00000000000E+00 -0.45593999997E+02  0.45594000000E+02  0.51100000000E-03 0.  1.
    9900012    2    1    2    0    0  0.26971531961E+01 -0.30268166530E+02  0.27013491654E+02  0.50528864842E+02  0.30000015174E+02 0.  0.
        -12    1    1    2    0    0 -0.26971531961E+01  0.30268166530E+02 -0.27013491654E+02  0.40659135158E+02  0.00000000000E+00 0.  1.
         11    1    3    3    0    0 -0.62799996723E+00  0.27237812692E+01  0.12482584455E+02  0.12791727143E+02  0.51100000000E-03 0. -1.
        -11    1    3    3    0    0  0.66246617849E+01 -0.27298230529E+02  0.13136144424E+02  0.31010285783E+02  0.51100000000E-03 0.  1.
         12    1    3    3    0    0 -0.32995086215E+01 -0.56937172704E+01  0.13947627744E+01  0.67268519156E+01  0.00000000000E+00 0. -1.
</event>
<event>
 7    1  0.9953837E-014  0.5052886E+02  0.7816164E-02  0.1300439E+00
        -11   -1    0    0    0    0  0.00000000000E+00  0.00000000000E+00  0.45593999997E+02  0.45594000000E+02  0.51100000000E-03 0. -1.
         11   -1    0    0    0    0 -0.00000000000E+00 -0.00000000000E+00 -0.45593999997E+02  0.45594000000E+02  0.51100000000E-03 0.  1.
    9900012    2    1    2    0    0  0.82036571968E+01 -0.21939081381E+02 -0.33234661741E+02  0.50528855589E+02  0.29999987048E+02 0.  0.
         12    1    1    2    0    0 -0.82036571968E+01  0.21939081381E+02  0.33234661741E+02  0.40659144411E+02  0.00000000000E+00 0. -1.
         11    1    3    3    0    0  0.41598646489E+01  0.13925545428E+01 -0.10061650474E+02  0.10976360625E+02  0.51100000000E-03 0. -1.
        -11    1    3    3    0    0  0.13951643368E+01 -0.20712989519E+02 -0.54790653368E+01  0.21470784232E+02  0.51100000000E-03 0.  1.
        -12    1    3    3    0    0  0.26486282111E+01 -0.26186464049E+01 -0.17693945930E+02  0.18081710732E+02  0.00000000000E+00 0.  1.
</event>
<event>
 7    1  0.9953837E-014  0.5052886E+02  0.7816164E-02  0.1300439E+00
        -11   -1    0    0    0    0  0.00000000000E+00  0.00000000000E+00  0.45593999997E+02  0.45594000000E+02  0.51100000000E-03 0. -1.
         11   -1    0    0    0    0 -0.00000000000E+00 -0.00000000000E+00 -0.45593999997E+02  0.45594000000E+02  0.51100000000E-03 0.  1.
    9900012    2    1    2    0    0  0.25033089101E+02  0.72088033036E+01 -0.31217672867E+02  0.50528862106E+02  0.30000006858E+02 0.  0.
         12    1    1    2    0    0 -0.25033089101E+02 -0.72088033036E+01  0.31217672867E+02  0.40659137894E+02  0.00000000000E+00 0. -1.
         11    1    3    3    0    0  0.13892878667E+02 -0.98329493850E+01 -0.12318410267E+02  0.21010526006E+02  0.51100000000E-03 0. -1.
        -11    1    3    3    0    0  0.94183505012E+01  0.12471322135E+02 -0.19039719489E+02  0.24632298318E+02  0.51100000000E-03 0.  1.
         12    1    3    3    0    0  0.17218599325E+01  0.45704305535E+01  0.14045688867E+00  0.48860377822E+01  0.00000000000E+00 0. -1.
</event>
<event>
 7    1  0.9953837E-014  0.5052886E+02  0.7816164E-02  0.1300439E+00
        -11   -1    0    0    0    0  0.00000000000E+00  0.00000000000E+00  0.45593999997E+02  0.45594000000E+02  0.51100000000E-03 0. -1.
         11   -1    0    0    0    0 -0.00000000000E+00 -0.00000000000E+00 -0.45593999997E+02  0.45594000000E+02  0.51100000000E-03 0.  1.
    9900012    2    1    2    0    0  0.37550795531E+01  0.13445754493E+01 -0.40463032265E+02  0.50528862212E+02  0.30000007180E+02 0.  0.
         12    1    1    2    0    0 -0.37550795531E+01 -0.13445754493E+01  0.40463032265E+02  0.40659137788E+02  0.00000000000E+00 0. -1.
         11    1    3    3    0    0  0.43391979209E+01 -0.38081421148E+01  0.29606439238E+01  0.64881428520E+01  0.51100000000E-03 0. -1.
        -11    1    3    3    0    0 -0.42830983919E+00  0.13687880027E+01 -0.31443765405E+02  0.31476458076E+02  0.51100000000E-03 0.  1.
         12    1    3    3    0    0 -0.15580852865E+00  0.37839295614E+01 -0.11979910784E+02  0.12564261284E+02  0.00000000000E+00 0. -1.
</event>
<event>
 7    1  0.9953837E-014  0.5052886E+02  0.7816164E-02  0.1300439E+00
        -11   -1    0    0    0    0  0.00000000000E+00  0.00000000000E+00  0.45593999997E+02  0.45594000000E+02  0.51100000000E-03 0. -1.
         11   -1    0    0    0    0 -0.00000000000E+00 -0.00000000000E+00 -0.45593999997E+02  0.45594000000E+02  0.51100000000E-03 0.  1.
    9900012    2    1    2    0    0 -0.22275897118E+02 -0.29475582902E+02  0.16974678359E+02  0.50528864677E+02  0.30000014672E+02 0.  0.
        -12    1    1    2    0    0  0.22275897118E+02  0.29475582902E+02 -0.16974678359E+02  0.40659135323E+02  0.00000000000E+00 0.  1.
         11    1    3    3    0    0 -0.25196327198E+02 -0.25850555174E+02  0.12347469673E+02  0.38151882190E+02  0.51100000000E-03 0. -1.
        -11    1    3    3    0    0  0.34562846281E+01  0.16804349411E+00  0.70436691019E+01  0.78477650783E+01  0.51100000000E-03 0.  1.
         12    1    3    3    0    0 -0.53585454823E+00 -0.37930712222E+01 -0.24164604155E+01  0.45292174084E+01  0.00000000000E+00 0. -1.
</event>
<event>
 7    1  0.9953837E-014  0.5052886E+02  0.7816164E-02  0.1300439E+00
        -11   -1    0    0    0    0  0.00000000000E+00  0.00000000000E+00  0.45593999997E+02  0.45594000000E+02  0.51100000000E-03 0. -1.
         11   -1    0    0    0    0 -0.00000000000E+00 -0.00000000000E+00 -0.45593999997E+02  0.45594000000E+02  0.51100000000E-03 0.  1.
    9900012    2    1    2    0    0  0.68107109587E+01  0.42099941933E+01  0.39862963809E+02  0.50528859349E+02  0.29999998477E+02 0.  0.
        -12    1    1    2    0    0 -0.68107109587E+01 -0.42099941933E+01 -0.39862963809E+02  0.40659140651E+02  0.00000000000E+00 0.  1.
         11    1    3    3    0    0  0.68924224787E+01  0.67987077890E+01  0.23292514241E+02  0.25224375813E+02  0.51100000000E-03 0. -1.
        -11    1    3    3    0    0 -0.65088319942E+01  0.47919076131E+01  0.31055646790E+01  0.86586260306E+01  0.51100000000E-03 0.  1.
        -12    1    3    3    0    0  0.64271204742E+01 -0.73806212087E+01  0.13464884889E+02  0.16645857505E+02  0.00000000000E+00 0.  1.
</event>
<event>
 7    1  0.9953837E-014  0.5052885E+02  0.7816164E-02  0.1300439E+00
        -11   -1    0    0    0    0  0.00000000000E+00  0.00000000000E+00  0.45593999997E+02  0.45594000000E+02  0.51100000000E-03 0. -1.
         11   -1    0    0    0    0 -0.00000000000E+00 -0.00000000000E+00 -0.45593999997E+02  0.45594000000E+02  0.51100000000E-03 0.  1.
    9900012    2    1    2    0    0 -0.35174492539E+02 -0.16245379850E+02  0.12329186755E+02  0.50528854191E+02  0.29999982800E+02 0.  0.
        -12    1    1    2    0    0  0.35174492539E+02  0.16245379850E+02 -0.12329186755E+02  0.40659145809E+02  0.00000000000E+00 0.  1.
         11    1    3    3    0    0 -0.60589384892E+01 -0.76389448881E+01 -0.52783658705E+01  0.11087171016E+02  0.51100000000E-03 0. -1.
        -11    1    3    3    0    0 -0.18334619283E+02  0.38825494883E+01  0.82784065151E+01  0.20488154369E+02  0.51100000000E-03 0.  1.
        -12    1    3    3    0    0 -0.10780934767E+02 -0.12488984450E+02  0.93291461104E+01  0.18953528806E+02  0.00000000000E+00 0.  1.
</event>
<event>
 7    1  0.9953837E-014  0.5052872E+02  0.7816164E-02  0.1300439E+00
        -11   -1    0    0    0    0  0.00000000000E+00  0.00000000000E+00  0.45593999997E+02  0.45594000000E+02  0.51100000000E-03 0. -1.
         11   -1    0    0    0    0 -0.00000000000E+00 -0.00000000000E+00 -0.45593999997E+02  0.45594000000E+02  0.51100000000E-03 0.  1.
    9900012    2    1    2    0    0  0.90015228754E+01  0.31093847150E+01 -0.39528233756E+02  0.50528721216E+02  0.29999578605E+02 0.  0.
         12    1    1    2    0    0 -0.90015228754E+01 -0.31093847150E+01  0.39528233756E+02  0.40659278784E+02  0.00000000000E+00 0. -1.
         11    1    3    3    0    0 -0.46217205443E+00  0.55790124047E+00  0.34661747988E+01  0.35410767853E+01  0.51100000000E-03 0. -1.
        -11    1    3    3    0    0 -0.38871247241E+01 -0.39884310348E+00 -0.18756010945E+02  0.19158725461E+02  0.51100000000E-03 0.  1.
         12    1    3    3    0    0  0.13350819654E+02  0.29503265780E+01 -0.24238397610E+02  0.27828918970E+02  0.00000000000E+00 0. -1.
</event>
<event>
 7    1  0.9953837E-014  0.5052886E+02  0.7816164E-02  0.1300439E+00
        -11   -1    0    0    0    0  0.00000000000E+00  0.00000000000E+00  0.45593999997E+02  0.45594000000E+02  0.51100000000E-03 0. -1.
         11   -1    0    0    0    0 -0.00000000000E+00 -0.00000000000E+00 -0.45593999997E+02  0.45594000000E+02  0.51100000000E-03 0.  1.
    9900012    2    1    2    0    0  0.23847993241E+01 -0.37884013993E+02  0.14569834026E+02  0.50528857761E+02  0.29999993651E+02 0.  0.
        -12    1    1    2    0    0 -0.23847993241E+01  0.37884013993E+02 -0.14569834026E+02  0.40659142239E+02  0.00000000000E+00 0.  1.
         11    1    3    3    0    0  0.49314849850E+01  0.22797856365E-01  0.50905700511E+01  0.70875925113E+01  0.51100000000E-03 0. -1.
        -11    1    3    3    0    0 -0.44747299585E+01 -0.39300048845E+02  0.10387211408E+02  0.40895124508E+02  0.51100000000E-03 0.  1.
        -12    1    3    3    0    0  0.19280442977E+01  0.13932369954E+01 -0.90794743297E+00  0.25461407424E+01  0.00000000000E+00 0.  1.
</event>
<event>
 7    1  0.9953837E-014  0.5052886E+02  0.7816164E-02  0.1300439E+00
        -11   -1    0    0    0    0  0.00000000000E+00  0.00000000000E+00  0.45593999997E+02  0.45594000000E+02  0.51100000000E-03 0. -1.
         11   -1    0    0    0    0 -0.00000000000E+00 -0.00000000000E+00 -0.45593999997E+02  0.45594000000E+02  0.51100000000E-03 0.  1.
    9900012    2    1    2    0    0  0.23226865507E+01 -0.32517792527E+02 -0.24297406504E+02  0.50528859988E+02  0.30000000421E+02 0.  0.
         12    1    1    2    0    0 -0.23226865507E+01  0.32517792527E+02  0.24297406504E+02  0.40659140012E+02  0.00000000000E+00 0. -1.
         11    1    3    3    0    0  0.41088041731E+01 -0.32392958136E+02 -0.13392233355E+02  0.35292179347E+02  0.51100000000E-03 0. -1.
        -11    1    3    3    0    0  0.40086746835E+00  0.42715230955E+01 -0.13568033416E+01  0.44997244195E+01  0.51100000000E-03 0.  1.
        -12    1    3    3    0    0 -0.21869850907E+01 -0.43963574867E+01 -0.95483698076E+01  0.10736956222E+02  0.00000000000E+00 0.  1.
</event>
<event>
 7    1  0.9953837E-014  0.5052888E+02  0.7816164E-02  0.1300439E+00
        -11   -1    0    0    0    0  0.00000000000E+00  0.00000000000E+00  0.45593999997E+02  0.45594000000E+02  0.51100000000E-03 0. -1.
         11   -1    0    0    0    0 -0.00000000000E+00 -0.00000000000E+00 -0.45593999997E+02  0.45594000000E+02  0.51100000000E-03 0.  1.
    9900012    2    1    2    0    0 -0.90627676137E+01 -0.71658082925E+01 -0.38983088990E+02  0.50528883034E+02  0.30000070469E+02 0.  0.
         12    1    1    2    0    0  0.90627676137E+01  0.71658082925E+01  0.38983088990E+02  0.40659116966E+02  0.00000000000E+00 0. -1.
         11    1    3    3    0    0  0.30473435371E+00 -0.29445451009E+01 -0.22335890813E+01  0.37083863503E+01  0.51100000000E-03 0. -1.
        -11    1    3    3    0    0 -0.10524905452E+02  0.66365360814E+01 -0.52909605340E+01  0.13520780657E+02  0.51100000000E-03 0.  1.
        -12    1    3    3    0    0  0.11574034850E+01 -0.10857799273E+02 -0.31458539374E+02  0.33299716026E+02  0.00000000000E+00 0.  1.
</event>
<event>
 7    1  0.9953837E-014  0.5052887E+02  0.7816164E-02  0.1300439E+00
        -11   -1    0    0    0    0  0.00000000000E+00  0.00000000000E+00  0.45593999997E+02  0.45594000000E+02  0.51100000000E-03 0. -1.
         11   -1    0    0    0    0 -0.00000000000E+00 -0.00000000000E+00 -0.45593999997E+02  0.45594000000E+02  0.51100000000E-03 0.  1.
    9900012    2    1    2    0    0  0.17779438112E+02  0.12692877873E+02  0.34292089562E+02  0.50528868494E+02  0.30000026275E+02 0.  0.
        -12    1    1    2    0    0 -0.17779438112E+02 -0.12692877873E+02 -0.34292089562E+02  0.40659131506E+02  0.00000000000E+00 0.  1.
         11    1    3    3    0    0  0.15834764699E+02 -0.47089688288E+01  0.17604715112E+02  0.24142082655E+02  0.51100000000E-03 0. -1.
        -11    1    3    3    0    0  0.25449111510E+01  0.18765358060E+02  0.15215270164E+02  0.24292379100E+02  0.51100000000E-03 0.  1.
         12    1    3    3    0    0 -0.60023773730E+00 -0.13635113575E+01  0.14721042853E+01  0.20944067394E+01  0.00000000000E+00 0. -1.
</event>
<event>
 7    1  0.1388839E-013  0.5052886E+02  0.7816164E-02  0.1300439E+00
        -11   -1    0    0    0    0  0.00000000000E+00  0.00000000000E+00  0.45593999997E+02  0.45594000000E+02  0.51100000000E-03 0. -1.
         11   -1    0    0    0    0 -0.00000000000E+00 -0.00000000000E+00 -0.45593999997E+02  0.45594000000E+02  0.51100000000E-03 0.  1.
    9900012    2    1    2    0    0  0.24247315587E+02 -0.99004560256E+01  0.31100069596E+02  0.50528859926E+02  0.30000000230E+02 0.  0.
        -12    1    1    2    0    0 -0.24247315587E+02  0.99004560256E+01 -0.31100069596E+02  0.40659140074E+02  0.00000000000E+00 0.  1.
         11    1    3    3    0    0  0.16013070038E+02 -0.12738761472E+01  0.30538415162E+02  0.34505593363E+02  0.51100000000E-03 0. -1.
        -11    1    3    3    0    0  0.27516560083E+00  0.71139018083E+00 -0.31210024117E+01  0.32128567369E+01  0.51100000000E-03 0.  1.
         12    1    3    3    0    0  0.79590799484E+01 -0.93379700592E+01  0.36826568456E+01  0.12810409825E+02  0.00000000000E+00 0. -1.
</event>
<event>
 7    1  0.9953837E-014  0.5052888E+02  0.7816164E-02  0.1300439E+00
        -11   -1    0    0    0    0  0.00000000000E+00  0.00000000000E+00  0.45593999997E+02  0.45594000000E+02  0.51100000000E-03 0. -1.
         11   -1    0    0    0    0 -0.00000000000E+00 -0.00000000000E+00 -0.45593999997E+02  0.45594000000E+02  0.51100000000E-03 0.  1.
    9900012    2    1    2    0    0  0.14508974448E+02  0.16306537405E+02 -0.34303802908E+02  0.50528875617E+02  0.30000047925E+02 0.  0.
         12    1    1    2    0    0 -0.14508974448E+02 -0.16306537405E+02  0.34303802908E+02  0.40659124383E+02  0.00000000000E+00 0. -1.
         11    1    3    3    0    0 -0.12759065539E+01 -0.44436351532E+01  0.33891536520E+00  0.46355900159E+01  0.51100000000E-03 0. -1.
        -11    1    3    3    0    0  0.63254268889E+01  0.17505480489E+02 -0.28858721216E+02  0.34340627002E+02  0.51100000000E-03 0.  1.
         12    1    3    3    0    0  0.94594541127E+01  0.32446920698E+01 -0.57839970573E+01  0.11552658599E+02  0.00000000000E+00 0. -1.
</event>
<event>
 7    1  0.9953837E-014  0.5052884E+02  0.7816164E-02  0.1300439E+00
        -11   -1    0    0    0    0  0.00000000000E+00  0.00000000000E+00  0.45593999997E+02  0.45594000000E+02  0.51100000000E-03 0. -1.
         11   -1    0    0    0    0 -0.00000000000E+00 -0.00000000000E+00 -0.45593999997E+02  0.45594000000E+02  0.51100000000E-03 0.  1.
    9900012    2    1    2    0    0  0.78040505545E+01 -0.20430781702E+02 -0.34276041987E+02  0.50528842356E+02  0.29999946826E+02 0.  0.
         12    1    1    2    0    0 -0.78040505545E+01  0.20430781702E+02  0.34276041987E+02  0.40659157644E+02  0.00000000000E+00 0. -1.
         11    1    3    3    0    0 -0.59903056584E+01 -0.10723744164E+02 -0.45576582668E+01  0.13101705993E+02  0.51100000000E-03 0. -1.
        -11    1    3    3    0    0  0.15406995465E+02 -0.11175338218E+02 -0.20580078417E+02  0.28032183673E+02  0.51100000000E-03 0.  1.
        -12    1    3    3    0    0 -0.16126392526E+01  0.14683006803E+01 -0.91383053033E+01  0.93949526909E+01  0.00000000000E+00 0.  1.
</event>
<event>
 7    1  0.9953837E-014  0.5052886E+02  0.7816164E-02  0.1300439E+00
        -11   -1    0    0    0    0  0.00000000000E+00  0.00000000000E+00  0.45593999997E+02  0.45594000000E+02  0.51100000000E-03 0. -1.
         11   -1    0    0    0    0 -0.00000000000E+00 -0.00000000000E+00 -0.45593999997E+02  0.45594000000E+02  0.51100000000E-03 0.  1.
    9900012    2    1    2    0    0 -0.99539834243E+01  0.23762520699E+02 -0.31455148334E+02  0.50528861634E+02  0.30000005422E+02 0.  0.
         12    1    1    2    0    0  0.99539834243E+01 -0.23762520699E+02  0.31455148334E+02  0.40659138366E+02  0.00000000000E+00 0. -1.
         11    1    3    3    0    0 -0.35323377078E+00  0.84518610975E+00  0.13359225602E+01  0.16198157318E+01  0.51100000000E-03 0. -1.
        -11    1    3    3    0    0 -0.18627707641E+02  0.15706774038E+02 -0.18870237778E+02  0.30818502831E+02  0.51100000000E-03 0.  1.
        -12    1    3    3    0    0  0.90269579876E+01  0.72105605513E+01 -0.13920833116E+02  0.18090543071E+02  0.00000000000E+00 0.  1.
</event>
<event>
 7    1  0.9953837E-014  0.5052892E+02  0.7816164E-02  0.1300439E+00
        -11   -1    0    0    0    0  0.00000000000E+00  0.00000000000E+00  0.45593999997E+02  0.45594000000E+02  0.51100000000E-03 0. -1.
         11   -1    0    0    0    0 -0.00000000000E+00 -0.00000000000E+00 -0.45593999997E+02  0.45594000000E+02  0.51100000000E-03 0.  1.
    9900012    2    1    2    0    0  0.39013424068E+01  0.29097912594E+02 -0.28129194825E+02  0.50528922398E+02  0.30000190121E+02 0.  0.
         12    1    1    2    0    0 -0.39013424068E+01 -0.29097912594E+02  0.28129194825E+02  0.40659077602E+02  0.00000000000E+00 0. -1.
         11    1    3    3    0    0  0.11208814399E+01 -0.40512028805E+01  0.34073092663E-01  0.42035438879E+01  0.51100000000E-03 0. -1.
        -11    1    3    3    0    0 -0.11669203937E+01  0.21786111759E+02 -0.87902686155E+01  0.23521589899E+02  0.51100000000E-03 0.  1.
        -12    1    3    3    0    0  0.39473813606E+01  0.11363003715E+02 -0.19372999302E+02  0.22803788611E+02  0.00000000000E+00 0.  1.
</event>
<event>
 7    1  0.9953837E-014  0.5052886E+02  0.7816164E-02  0.1300439E+00
        -11   -1    0    0    0    0  0.00000000000E+00  0.00000000000E+00  0.45593999997E+02  0.45594000000E+02  0.51100000000E-03 0. -1.
         11   -1    0    0    0    0 -0.00000000000E+00 -0.00000000000E+00 -0.45593999997E+02  0.45594000000E+02  0.51100000000E-03 0.  1.
    9900012    2    1    2    0    0  0.32750951547E+01 -0.46549325896E+01 -0.40258797568E+02  0.50528862929E+02  0.30000009360E+02 0.  0.
         12    1    1    2    0    0 -0.32750951547E+01  0.46549325896E+01  0.40258797568E+02  0.40659137071E+02  0.00000000000E+00 0. -1.
         11    1    3    3    0    0 -0.69810871532E+01 -0.61737243023E+01 -0.10767657345E+02  0.14240537018E+02  0.51100000000E-03 0. -1.
        -11    1    3    3    0    0  0.68711300409E+01 -0.36946016520E+01 -0.29024722627E+02  0.30054900320E+02  0.51100000000E-03 0.  1.
        -12    1    3    3    0    0  0.33850522670E+01  0.52133933647E+01 -0.46641759583E+00  0.62334255910E+01  0.00000000000E+00 0.  1.
</event>
<event>
 7    1  0.9953837E-014  0.5052889E+02  0.7816164E-02  0.1300439E+00
        -11   -1    0    0    0    0  0.00000000000E+00  0.00000000000E+00  0.45593999997E+02  0.45594000000E+02  0.51100000000E-03 0. -1.
         11   -1    0    0    0    0 -0.00000000000E+00 -0.00000000000E+00 -0.45593999997E+02  0.45594000000E+02  0.51100000000E-03 0.  1.
    9900012    2    1    2    0    0 -0.14109473721E+00  0.14133838670E+02 -0.38123198689E+02  0.50528885627E+02  0.30000078352E+02 0.  0.
         12    1    1    2    0    0  0.14109473721E+00 -0.14133838670E+02  0.38123198689E+02  0.40659114373E+02  0.00000000000E+00 0. -1.
         11    1    3    3    0    0  0.10307079162E+02 -0.10924173609E+01 -0.21676496092E+02  0.24027062651E+02  0.51100000000E-03 0. -1.
        -11    1    3    3    0    0 -0.57549375984E+00  0.68063671822E+01 -0.20742107182E+01  0.71386397619E+01  0.51100000000E-03 0.  1.
         12    1    3    3    0    0 -0.98726801396E+01  0.84198888491E+01 -0.14372491880E+02  0.19363183215E+02  0.00000000000E+00 0. -1.
</event>
<event>
 7    1  0.9953837E-014  0.5052887E+02  0.7816164E-02  0.1300439E+00
        -11   -1    0    0    0    0  0.00000000000E+00  0.00000000000E+00  0.45593999997E+02  0.45594000000E+02  0.51100000000E-03 0. -1.
         11   -1    0    0    0    0 -0.00000000000E+00 -0.00000000000E+00 -0.45593999997E+02  0.45594000000E+02  0.51100000000E-03 0.  1.
    9900012    2    1    2    0    0 -0.68227302633E+01 -0.53733007830E+01  0.39720811294E+02  0.50528869913E+02  0.30000030588E+02 0.  0.
        -12    1    1    2    0    0  0.68227302633E+01  0.53733007830E+01 -0.39720811294E+02  0.40659130087E+02  0.00000000000E+00 0.  1.
         11    1    3    3    0    0 -0.75914921841E+01 -0.87992435956E+01  0.99680949336E+01  0.15310792217E+02  0.51100000000E-03 0. -1.
        -11    1    3    3    0    0  0.83279122461E+01 -0.73712351948E+00  0.22299907795E+02  0.23815611715E+02  0.51100000000E-03 0.  1.
        -12    1    3    3    0    0 -0.75591503253E+01  0.41630663321E+01  0.74528085660E+01  0.11402465981E+02  0.00000000000E+00 0.  1.
</event>
<event>
 7    1  0.9953837E-014  0.5052887E+02  0.7816164E-02  0.1300439E+00
        -11   -1    0    0    0    0  0.00000000000E+00  0.00000000000E+00  0.45593999997E+02  0.45594000000E+02  0.51100000000E-03 0. -1.
         11   -1    0    0    0    0 -0.00000000000E+00 -0.00000000000E+00 -0.45593999997E+02  0.45594000000E+02  0.51100000000E-03 0.  1.
    9900012    2    1    2    0    0  0.13421209619E+02 -0.12284033100E+02 -0.36361227826E+02  0.50528865407E+02  0.30000016890E+02 0.  0.
         12    1    1    2    0    0 -0.13421209619E+02  0.12284033100E+02  0.36361227826E+02  0.40659134593E+02  0.00000000000E+00 0. -1.
         11    1    3    3    0    0  0.12677820409E+02 -0.61591378574E+01 -0.33379617408E+01  0.14484615919E+02  0.51100000000E-03 0. -1.
        -11    1    3    3    0    0  0.53396996474E+01 -0.16874109814E+01 -0.25800935836E+02  0.26401667342E+02  0.51100000000E-03 0.  1.
         12    1    3    3    0    0 -0.45963104375E+01 -0.44374842607E+01 -0.72223302492E+01  0.96425821454E+01  0.00000000000E+00 0. -1.
</event>
<event>
 7    1  0.9953837E-014  0.5052886E+02  0.7816164E-02  0.1300439E+00
        -11   -1    0    0    0    0  0.00000000000E+00  0.00000000000E+00  0.45593999997E+02  0.45594000000E+02  0.51100000000E-03 0. -1.
         11   -1    0    0    0    0 -0.00000000000E+00 -0.00000000000E+00 -0.45593999997E+02  0.45594000000E+02  0.51100000000E-03 0.  1.
    9900012    2    1    2    0    0 -0.11122837441E+02 -0.14936880156E+02 -0.36143295443E+02  0.50528859490E+02  0.29999998907E+02 0.  0.
         12    1    1    2    0    0  0.11122837441E+02  0.14936880156E+02  0.36143295443E+02  0.40659140510E+02  0.00000000000E+00 0. -1.
         11    1    3    3    0    0  0.95117113222E+00 -0.11456293939E+02 -0.49895144264E+00  0.11506535106E+02  0.51100000000E-03 0. -1.
        -11    1    3    3    0    0 -0.13492350344E+02 -0.43946865903E+01 -0.32122491294E+02  0.35117107444E+02  0.51100000000E-03 0.  1.
         12    1    3    3    0    0  0.14183417709E+01  0.91410037336E+00 -0.35218527056E+01  0.39052169404E+01  0.00000000000E+00 0. -1.
</event>
<event>
 7    1  0.9953837E-014  0.5052885E+02  0.7816164E-02  0.1300439E+00
        -11   -1    0    0    0    0  0.00000000000E+00  0.00000000000E+00  0.45593999997E+02  0.45594000000E+02  0.51100000000E-03 0. -1.
         11   -1    0    0    0    0 -0.00000000000E+00 -0.00000000000E+00 -0.45593999997E+02  0.45594000000E+02  0.51100000000E-03 0.  1.
    9900012    2    1    2    0    0 -0.13420597402E+02 -0.22863220758E+01 -0.38312230705E+02  0.50528846973E+02  0.29999960859E+02 0.  0.
         12    1    1    2    0    0  0.13420597402E+02  0.22863220758E+01  0.38312230705E+02  0.40659153027E+02  0.00000000000E+00 0. -1.
         11    1    3    3    0    0  0.61888121971E+01  0.36065001692E+01 -0.19503791114E+02  0.20777538544E+02  0.51100000000E-03 0. -1.
        -11    1    3    3    0    0 -0.12389775093E+02 -0.24215271529E+01 -0.45923877279E+01  0.13433552989E+02  0.51100000000E-03 0.  1.
         12    1    3    3    0    0 -0.72196345061E+01 -0.34712950921E+01 -0.14216051864E+02  0.16317755440E+02  0.00000000000E+00 0. -1.
</event>
<event>
 7    1  0.9953837E-014  0.5052886E+02  0.7816164E-02  0.1300439E+00
        -11   -1    0    0    0    0  0.00000000000E+00  0.00000000000E+00  0.45593999997E+02  0.45594000000E+02  0.51100000000E-03 0. -1.
         11   -1    0    0    0    0 -0.00000000000E+00 -0.00000000000E+00 -0.45593999997E+02  0.45594000000E+02  0.51100000000E-03 0.  1.
    9900012    2    1    2    0    0  0.17000031035E+01 -0.44570940928E+01  0.40378338738E+02  0.50528856655E+02  0.29999990287E+02 0.  0.
        -12    1    1    2    0    0 -0.17000031035E+01  0.44570940928E+01 -0.40378338738E+02  0.40659143345E+02  0.00000000000E+00 0.  1.
         11    1    3    3    0    0 -0.67105346792E+01 -0.27847245592E+01  0.36923767715E+02  0.37631776322E+02  0.51100000000E-03 0. -1.
        -11    1    3    3    0    0  0.55267591699E+01  0.11049195791E+00 -0.24828461915E+01  0.60598515549E+01  0.51100000000E-03 0.  1.
         12    1    3    3    0    0  0.28837786128E+01 -0.17828614915E+01  0.59374172145E+01  0.68372287781E+01  0.00000000000E+00 0. -1.
</event>
<event>
 7    1  0.9953837E-014  0.5052886E+02  0.7816164E-02  0.1300439E+00
        -11   -1    0    0    0    0  0.00000000000E+00  0.00000000000E+00  0.45593999997E+02  0.45594000000E+02  0.51100000000E-03 0. -1.
         11   -1    0    0    0    0 -0.00000000000E+00 -0.00000000000E+00 -0.45593999997E+02  0.45594000000E+02  0.51100000000E-03 0.  1.
    9900012    2    1    2    0    0 -0.87065080974E+01 -0.81384398800E+00  0.39707680478E+02  0.50528861861E+02  0.30000006113E+02 0.  0.
        -12    1    1    2    0    0  0.87065080974E+01  0.81384398800E+00 -0.39707680478E+02  0.40659138139E+02  0.00000000000E+00 0.  1.
         11    1    3    3    0    0 -0.92497744540E+01 -0.69742220978E+01  0.25268535290E+02  0.27797427530E+02  0.51100000000E-03 0. -1.
        -11    1    3    3    0    0 -0.17112061509E+01  0.11555958857E+02  0.90225276742E+01  0.14760569687E+02  0.51100000000E-03 0.  1.
        -12    1    3    3    0    0  0.22544725076E+01 -0.53955807472E+01  0.54166175130E+01  0.79708646437E+01  0.00000000000E+00 0.  1.
</event>
<event>
 7    1  0.9953837E-014  0.5052886E+02  0.7816164E-02  0.1300439E+00
        -11   -1    0    0    0    0  0.00000000000E+00  0.00000000000E+00  0.45593999997E+02  0.45594000000E+02  0.51100000000E-03 0. -1.
         11   -1    0    0    0    0 -0.00000000000E+00 -0.00000000000E+00 -0.45593999997E+02  0.45594000000E+02  0.51100000000E-03 0.  1.
    9900012    2    1    2    0    0 -0.12376850897E+02  0.37629587274E+02 -0.91647843411E+01  0.50528861439E+02  0.30000004830E+02 0.  0.
         12    1    1    2    0    0  0.12376850897E+02 -0.37629587274E+02  0.91647843411E+01  0.40659138561E+02  0.00000000000E+00 0. -1.
         11    1    3    3    0    0 -0.26840898290E+00  0.30837669143E+02 -0.52496747469E+01  0.31282470599E+02  0.51100000000E-03 0. -1.
        -11    1    3    3    0    0 -0.13862284929E+02  0.85008875429E+01 -0.26030982660E+01  0.16468277181E+02  0.51100000000E-03 0.  1.
         12    1    3    3    0    0  0.17538430156E+01 -0.17089694123E+01 -0.13120113283E+01  0.27781136588E+01  0.00000000000E+00 0. -1.
</event>
<event>
 7    1  0.9953837E-014  0.5052884E+02  0.7816164E-02  0.1300439E+00
        -11   -1    0    0    0    0  0.00000000000E+00  0.00000000000E+00  0.45593999997E+02  0.45594000000E+02  0.51100000000E-03 0. -1.
         11   -1    0    0    0    0 -0.00000000000E+00 -0.00000000000E+00 -0.45593999997E+02  0.45594000000E+02  0.51100000000E-03 0.  1.
    9900012    2    1    2    0    0 -0.71472017918E+01 -0.34354825691E+02 -0.20538523803E+02  0.50528837420E+02  0.29999931821E+02 0.  0.
         12    1    1    2    0    0  0.71472017918E+01  0.34354825691E+02  0.20538523803E+02  0.40659162580E+02  0.00000000000E+00 0. -1.
         11    1    3    3    0    0 -0.86613019936E+01 -0.48252875491E+01  0.31348675524E+01  0.10398506960E+02  0.51100000000E-03 0. -1.
        -11    1    3    3    0    0  0.41161687870E+01 -0.20703428235E+02 -0.22504105879E+02  0.30854652288E+02  0.51100000000E-03 0.  1.
        -12    1    3    3    0    0 -0.26020685852E+01 -0.88261099076E+01 -0.11692854758E+01  0.92756781718E+01  0.00000000000E+00 0.  1.
</event>
<event>
 7    1  0.9953837E-014  0.5052886E+02  0.7816164E-02  0.1300439E+00
        -11   -1    0    0    0    0  0.00000000000E+00  0.00000000000E+00  0.45593999997E+02  0.45594000000E+02  0.51100000000E-03 0. -1.
         11   -1    0    0    0    0 -0.00000000000E+00 -0.00000000000E+00 -0.45593999997E+02  0.45594000000E+02  0.51100000000E-03 0.  1.
    9900012    2    1    2    0    0  0.22523994094E+02  0.16226277426E+02  0.29707632552E+02  0.50528858089E+02  0.29999994648E+02 0.  0.
        -12    1    1    2    0    0 -0.22523994094E+02 -0.16226277426E+02 -0.29707632552E+02  0.40659141911E+02  0.00000000000E+00 0.  1.
         11    1    3    3    0    0  0.12812494551E+02  0.19640670042E+01 -0.17131121576E+01  0.13074873970E+02  0.51100000000E-03 0. -1.
        -11    1    3    3    0    0  0.73893693968E+01  0.15660232618E+02  0.24330721161E+02  0.29863517177E+02  0.51100000000E-03 0.  1.
        -12    1    3    3    0    0  0.23221301466E+01 -0.13980221956E+01  0.70900235484E+01  0.75904669418E+01  0.00000000000E+00 0.  1.
</event>
<event>
 7    1  0.9953837E-014  0.5052886E+02  0.7816164E-02  0.1300439E+00
        -11   -1    0    0    0    0  0.00000000000E+00  0.00000000000E+00  0.45593999997E+02  0.45594000000E+02  0.51100000000E-03 0. -1.
         11   -1    0    0    0    0 -0.00000000000E+00 -0.00000000000E+00 -0.45593999997E+02  0.45594000000E+02  0.51100000000E-03 0.  1.
    9900012    2    1    2    0    0 -0.66451837635E+01  0.32571869833E+02 -0.23411124842E+02  0.50528856649E+02  0.29999990269E+02 0.  0.
         12    1    1    2    0    0  0.66451837635E+01 -0.32571869833E+02  0.23411124842E+02  0.40659143351E+02  0.00000000000E+00 0. -1.
         11    1    3    3    0    0 -0.59492929263E+01  0.77438255325E+01 -0.30009995096E+01  0.10216012848E+02  0.51100000000E-03 0. -1.
        -11    1    3    3    0    0 -0.43184672861E+01  0.13832841528E+01 -0.15417051643E+02  0.16070100074E+02  0.51100000000E-03 0.  1.
        -12    1    3    3    0    0  0.36225764488E+01  0.23444760148E+02 -0.49930736898E+01  0.24242743727E+02  0.00000000000E+00 0.  1.
</event>
<event>
 7    1  0.9953837E-014  0.5052885E+02  0.7816164E-02  0.1300439E+00
        -11   -1    0    0    0    0  0.00000000000E+00  0.00000000000E+00  0.45593999997E+02  0.45594000000E+02  0.51100000000E-03 0. -1.
         11   -1    0    0    0    0 -0.00000000000E+00 -0.00000000000E+00 -0.45593999997E+02  0.45594000000E+02  0.51100000000E-03 0.  1.
    9900012    2    1    2    0    0 -0.16951759634E+02 -0.24173483930E+02  0.27954367350E+02  0.50528854239E+02  0.29999982946E+02 0.  0.
        -12    1    1    2    0    0  0.16951759634E+02  0.24173483930E+02 -0.27954367350E+02  0.40659145761E+02  0.00000000000E+00 0.  1.
         11    1    3    3    0    0 -0.27418614411E+01 -0.33733303084E+01  0.11093572151E+02  0.11914885852E+02  0.51100000000E-03 0. -1.
        -11    1    3    3    0    0 -0.16316947367E+02 -0.25107133303E+02  0.14567883551E+02  0.33299161333E+02  0.51100000000E-03 0.  1.
        -12    1    3    3    0    0  0.21070491734E+01  0.43069796817E+01  0.22929116481E+01  0.53148070542E+01  0.00000000000E+00 0.  1.
</event>
<event>
 7    1  0.9953837E-014  0.5052883E+02  0.7816164E-02  0.1300439E+00
        -11   -1    0    0    0    0  0.00000000000E+00  0.00000000000E+00  0.45593999997E+02  0.45594000000E+02  0.51100000000E-03 0. -1.
         11   -1    0    0    0    0 -0.00000000000E+00 -0.00000000000E+00 -0.45593999997E+02  0.45594000000E+02  0.51100000000E-03 0.  1.
    9900012    2    1    2    0    0 -0.33097370681E+02  0.75007366377E+01 -0.22393542849E+02  0.50528834276E+02  0.29999922264E+02 0.  0.
         12    1    1    2    0    0  0.33097370681E+02 -0.75007366377E+01  0.22393542849E+02  0.40659165724E+02  0.00000000000E+00 0. -1.
         11    1    3    3    0    0 -0.12313181797E+01  0.30743513514E+01  0.29973730970E+01  0.44667691272E+01  0.51100000000E-03 0. -1.
        -11    1    3    3    0    0 -0.27650316595E+02 -0.22172096147E+01 -0.26195046208E+02  0.38152804253E+02  0.51100000000E-03 0.  1.
        -12    1    3    3    0    0 -0.42157359060E+01  0.66435949009E+01  0.80413026137E+00  0.79092608955E+01  0.00000000000E+00 0.  1.
</event>
<event>
 7    1  0.9953837E-014  0.5052886E+02  0.7816164E-02  0.1300439E+00
        -11   -1    0    0    0    0  0.00000000000E+00  0.00000000000E+00  0.45593999997E+02  0.45594000000E+02  0.51100000000E-03 0. -1.
         11   -1    0    0    0    0 -0.00000000000E+00 -0.00000000000E+00 -0.45593999997E+02  0.45594000000E+02  0.51100000000E-03 0.  1.
    9900012    2    1    2    0    0 -0.21190842069E+02  0.34581481571E+02 -0.28696772077E+01  0.50528859545E+02  0.29999999073E+02 0.  0.
         12    1    1    2    0    0  0.21190842069E+02 -0.34581481571E+02  0.28696772077E+01  0.40659140455E+02  0.00000000000E+00 0. -1.
         11    1    3    3    0    0 -0.11675476006E+02 -0.17334860380E+01 -0.25434643749E+01  0.12074391293E+02  0.51100000000E-03 0.  1.
        -11    1    3    3    0    0 -0.45305702788E+01  0.22099761462E+02  0.37024625968E+01  0.22861184424E+02  0.51100000000E-03 0. -1.
        -12    1    3    3    0    0 -0.49847957849E+01  0.14215206147E+02 -0.40286754296E+01  0.15593283828E+02  0.00000000000E+00 0.  1.
</event>
<event>
 7    1  0.9953837E-014  0.5052886E+02  0.7816164E-02  0.1300439E+00
        -11   -1    0    0    0    0  0.00000000000E+00  0.00000000000E+00  0.45593999997E+02  0.45594000000E+02  0.51100000000E-03 0. -1.
         11   -1    0    0    0    0 -0.00000000000E+00 -0.00000000000E+00 -0.45593999997E+02  0.45594000000E+02  0.51100000000E-03 0.  1.
    9900012    2    1    2    0    0 -0.11129066011E+01 -0.16378023925E+02 -0.37197946582E+02  0.50528862543E+02  0.30000008187E+02 0.  0.
         12    1    1    2    0    0  0.11129066011E+01  0.16378023925E+02  0.37197946582E+02  0.40659137457E+02  0.00000000000E+00 0. -1.
         11    1    3    3    0    0  0.49972914919E+01  0.18271005330E+01 -0.22915994398E+01  0.57933277886E+01  0.51100000000E-03 0. -1.
        -11    1    3    3    0    0 -0.12469227363E+02 -0.16695058952E+02 -0.22204190355E+02  0.30450495793E+02  0.51100000000E-03 0.  1.
        -12    1    3    3    0    0  0.63590292703E+01 -0.15100655059E+01 -0.12702156787E+02  0.14285038962E+02  0.00000000000E+00 0.  1.
</event>
<event>
 7    1  0.9953837E-014  0.5052887E+02  0.7816164E-02  0.1300439E+00
        -11   -1    0    0    0    0  0.00000000000E+00  0.00000000000E+00  0.45593999997E+02  0.45594000000E+02  0.51100000000E-03 0. -1.
         11   -1    0    0    0    0 -0.00000000000E+00 -0.00000000000E+00 -0.45593999997E+02  0.45594000000E+02  0.51100000000E-03 0.  1.
    9900012    2    1    2    0    0 -0.21197775689E+02 -0.28418823286E+02  0.19904505193E+02  0.50528873864E+02  0.30000042596E+02 0.  0.
        -12    1    1    2    0    0  0.21197775689E+02  0.28418823286E+02 -0.19904505193E+02  0.40659126136E+02  0.00000000000E+00 0.  1.
         11    1    3    3    0    0 -0.46704390115E+00 -0.23547814545E+02  0.12176865299E+02  0.26514029279E+02  0.51100000000E-03 0. -1.
        -11    1    3    3    0    0 -0.81018877778E+01 -0.77477086896E-01  0.66176127660E+01  0.10461328178E+02  0.51100000000E-03 0.  1.
         12    1    3    3    0    0 -0.12628844010E+02 -0.47935316544E+01  0.11100271289E+01  0.13553516407E+02  0.00000000000E+00 0. -1.
</event>
<event>
 7    1  0.9953837E-014  0.5052882E+02  0.7816164E-02  0.1300439E+00
        -11   -1    0    0    0    0  0.00000000000E+00  0.00000000000E+00  0.45593999997E+02  0.45594000000E+02  0.51100000000E-03 0. -1.
         11   -1    0    0    0    0 -0.00000000000E+00 -0.00000000000E+00 -0.45593999997E+02  0.45594000000E+02  0.51100000000E-03 0.  1.
    9900012    2    1    2    0    0  0.44355217238E+01 -0.37460126212E+02 -0.15173450990E+02  0.50528824852E+02  0.29999893621E+02 0.  0.
         12    1    1    2    0    0 -0.44355217238E+01  0.37460126212E+02  0.15173450990E+02  0.40659175148E+02  0.00000000000E+00 0. -1.
         11    1    3    3    0    0 -0.29443141638E+00 -0.67816089511E+01 -0.14047004035E+02  0.15601129204E+02  0.51100000000E-03 0. -1.
        -11    1    3    3    0    0  0.15950753150E+01 -0.16230606326E+02  0.73472076118E+01  0.17887378425E+02  0.51100000000E-03 0.  1.
        -12    1    3    3    0    0  0.31348778252E+01 -0.14447910934E+02 -0.84736545674E+01  0.17040317223E+02  0.00000000000E+00 0.  1.
</event>
<event>
 7    1  0.9953837E-014  0.5052886E+02  0.7816164E-02  0.1300439E+00
        -11   -1    0    0    0    0  0.00000000000E+00  0.00000000000E+00  0.45593999997E+02  0.45594000000E+02  0.51100000000E-03 0. -1.
         11   -1    0    0    0    0 -0.00000000000E+00 -0.00000000000E+00 -0.45593999997E+02  0.45594000000E+02  0.51100000000E-03 0.  1.
    9900012    2    1    2    0    0 -0.88726123682E+01  0.11140292882E+01 -0.39663599794E+02  0.50528862527E+02  0.30000008136E+02 0.  0.
         12    1    1    2    0    0  0.88726123682E+01 -0.11140292882E+01  0.39663599794E+02  0.40659137473E+02  0.00000000000E+00 0. -1.
         11    1    3    3    0    0 -0.12290811279E+02 -0.40938285807E+01 -0.38825557736E+01  0.13523968128E+02  0.51100000000E-03 0. -1.
        -11    1    3    3    0    0  0.53608781367E+01  0.22600110710E+01 -0.19712313747E+02  0.20552906801E+02  0.51100000000E-03 0.  1.
        -12    1    3    3    0    0 -0.19426792259E+01  0.29478467979E+01 -0.16068730273E+02  0.16451987598E+02  0.00000000000E+00 0.  1.
</event>
<event>
 7    1  0.9953837E-014  0.5052887E+02  0.7816164E-02  0.1300439E+00
        -11   -1    0    0    0    0  0.00000000000E+00  0.00000000000E+00  0.45593999997E+02  0.45594000000E+02  0.51100000000E-03 0.  1.
         11   -1    0    0    0    0 -0.00000000000E+00 -0.00000000000E+00 -0.45593999997E+02  0.45594000000E+02  0.51100000000E-03 0. -1.
    9900012    2    1    2    0    0 -0.22588756566E+02 -0.12315193885E+02 -0.31484111879E+02  0.50528865425E+02  0.30000016945E+02 0.  0.
         12    1    1    2    0    0  0.22588756566E+02  0.12315193885E+02  0.31484111879E+02  0.40659134575E+02  0.00000000000E+00 0. -1.
         11    1    3    3    0    0 -0.80041917258E+01  0.31533722247E+01 -0.11554974123E+02  0.14405841482E+02  0.51100000000E-03 0. -1.
        -11    1    3    3    0    0 -0.55077684541E+01 -0.13584166077E+02 -0.58230410448E+00  0.14669838434E+02  0.51100000000E-03 0.  1.
        -12    1    3    3    0    0 -0.90767963861E+01 -0.18844000328E+01 -0.19346833651E+02  0.21453185508E+02  0.00000000000E+00 0.  1.
</event>
<event>
 7    1  0.9953837E-014  0.5052886E+02  0.7816164E-02  0.1300439E+00
        -11   -1    0    0    0    0  0.00000000000E+00  0.00000000000E+00  0.45593999997E+02  0.45594000000E+02  0.51100000000E-03 0. -1.
         11   -1    0    0    0    0 -0.00000000000E+00 -0.00000000000E+00 -0.45593999997E+02  0.45594000000E+02  0.51100000000E-03 0.  1.
    9900012    2    1    2    0    0 -0.85735035540E+01  0.24417564759E+02 -0.31359902076E+02  0.50528857238E+02  0.29999992061E+02 0.  0.
         12    1    1    2    0    0  0.85735035540E+01 -0.24417564759E+02  0.31359902076E+02  0.40659142762E+02  0.00000000000E+00 0. -1.
         11    1    3    3    0    0 -0.18181791306E+02  0.22981080120E+02 -0.20665607656E+02  0.35857703756E+02  0.51100000000E-03 0.  1.
        -11    1    3    3    0    0  0.49889627311E+01 -0.54224035042E+00 -0.53556530419E+01  0.73394000774E+01  0.51100000000E-03 0. -1.
        -12    1    3    3    0    0  0.46193250207E+01  0.19787249890E+01 -0.53386413777E+01  0.73317534048E+01  0.00000000000E+00 0.  1.
</event>
<event>
 7    1  0.9953837E-014  0.5052885E+02  0.7816164E-02  0.1300439E+00
        -11   -1    0    0    0    0  0.00000000000E+00  0.00000000000E+00  0.45593999997E+02  0.45594000000E+02  0.51100000000E-03 0. -1.
         11   -1    0    0    0    0 -0.00000000000E+00 -0.00000000000E+00 -0.45593999997E+02  0.45594000000E+02  0.51100000000E-03 0.  1.
    9900012    2    1    2    0    0 -0.12870290818E+02  0.23758480521E+00  0.38567674969E+02  0.50528851155E+02  0.29999973571E+02 0.  0.
        -12    1    1    2    0    0  0.12870290818E+02 -0.23758480521E+00 -0.38567674969E+02  0.40659148845E+02  0.00000000000E+00 0.  1.
         11    1    3    3    0    0 -0.54572933156E+01  0.19897603151E+01  0.36766527393E+02  0.37222556780E+02  0.51100000000E-03 0. -1.
        -11    1    3    3    0    0  0.33725334885E+00 -0.95516607106E+00 -0.36562301403E+01  0.37939558701E+01  0.51100000000E-03 0.  1.
         12    1    3    3    0    0 -0.77502508510E+01 -0.79700943885E+00  0.54573777165E+01  0.95123385053E+01  0.00000000000E+00 0. -1.
</event>
<event>
 7    1  0.9953837E-014  0.5052887E+02  0.7816164E-02  0.1300439E+00
        -11   -1    0    0    0    0  0.00000000000E+00  0.00000000000E+00  0.45593999997E+02  0.45594000000E+02  0.51100000000E-03 0. -1.
         11   -1    0    0    0    0 -0.00000000000E+00 -0.00000000000E+00 -0.45593999997E+02  0.45594000000E+02  0.51100000000E-03 0.  1.
    9900012    2    1    2    0    0 -0.52790139147E+01 -0.28990676458E+02 -0.28014950839E+02  0.50528870891E+02  0.30000033559E+02 0.  0.
         12    1    1    2    0    0  0.52790139147E+01  0.28990676458E+02  0.28014950839E+02  0.40659129109E+02  0.00000000000E+00 0. -1.
         11    1    3    3    0    0  0.16803156095E+01 -0.60191983837E+00  0.22864812891E+00  0.17994577704E+01  0.51100000000E-03 0. -1.
        -11    1    3    3    0    0 -0.76171323996E+01 -0.30779199321E+02 -0.31461128981E+02  0.44667465273E+02  0.51100000000E-03 0.  1.
        -12    1    3    3    0    0  0.65780287539E+00  0.23904427015E+01  0.32175300131E+01  0.40619478477E+01  0.00000000000E+00 0.  1.
</event>
<event>
 7    1  0.9953837E-014  0.5052886E+02  0.7816164E-02  0.1300439E+00
        -11   -1    0    0    0    0  0.00000000000E+00  0.00000000000E+00  0.45593999997E+02  0.45594000000E+02  0.51100000000E-03 0. -1.
         11   -1    0    0    0    0 -0.00000000000E+00 -0.00000000000E+00 -0.45593999997E+02  0.45594000000E+02  0.51100000000E-03 0.  1.
    9900012    2    1    2    0    0  0.35088261737E+01  0.34375424139E+02 -0.21428580929E+02  0.50528859251E+02  0.29999998178E+02 0.  0.
         12    1    1    2    0    0 -0.35088261737E+01 -0.34375424139E+02  0.21428580929E+02  0.40659140749E+02  0.00000000000E+00 0. -1.
         11    1    3    3    0    0 -0.52790317170E+01  0.21249534849E+02  0.12129295956E+01  0.21929024274E+02  0.51100000000E-03 0. -1.
        -11    1    3    3    0    0  0.56477524002E+01  0.32292597529E+01 -0.12469318225E+02  0.14064463125E+02  0.51100000000E-03 0.  1.
         12    1    3    3    0    0  0.31401054905E+01  0.98966295378E+01 -0.10172192299E+02  0.14535371852E+02  0.00000000000E+00 0. -1.
</event>
<event>
 7    1  0.9953837E-014  0.5052879E+02  0.7816164E-02  0.1300439E+00
        -11   -1    0    0    0    0  0.00000000000E+00  0.00000000000E+00  0.45593999997E+02  0.45594000000E+02  0.51100000000E-03 0. -1.
         11   -1    0    0    0    0 -0.00000000000E+00 -0.00000000000E+00 -0.45593999997E+02  0.45594000000E+02  0.51100000000E-03 0.  1.
    9900012    2    1    2    0    0  0.12733020300E+02 -0.23374221225E+02  0.30735765170E+02  0.50528790903E+02  0.29999790427E+02 0.  0.
        -12    1    1    2    0    0 -0.12733020300E+02  0.23374221225E+02 -0.30735765170E+02  0.40659209097E+02  0.00000000000E+00 0.  1.
         11    1    3    3    0    0 -0.47785142323E+00 -0.19547708840E+02  0.21936842548E+02  0.29386499011E+02  0.51100000000E-03 0.  1.
        -11    1    3    3    0    0  0.14046871372E+02 -0.70602461855E+01  0.61583107239E+01  0.16884503628E+02  0.51100000000E-03 0. -1.
         12    1    3    3    0    0 -0.83599964853E+00  0.32337338005E+01  0.26406118980E+01  0.42577882640E+01  0.00000000000E+00 0. -1.
</event>
<event>
 7    1  0.9953837E-014  0.5052886E+02  0.7816164E-02  0.1300439E+00
        -11   -1    0    0    0    0  0.00000000000E+00  0.00000000000E+00  0.45593999997E+02  0.45594000000E+02  0.51100000000E-03 0. -1.
         11   -1    0    0    0    0 -0.00000000000E+00 -0.00000000000E+00 -0.45593999997E+02  0.45594000000E+02  0.51100000000E-03 0.  1.
    9900012    2    1    2    0    0 -0.63319106760E+01  0.36703894197E+02 -0.16306350797E+02  0.50528855662E+02  0.29999987270E+02 0.  0.
         12    1    1    2    0    0  0.63319106760E+01 -0.36703894197E+02  0.16306350797E+02  0.40659144338E+02  0.00000000000E+00 0. -1.
         11    1    3    3    0    0 -0.11793730237E+02  0.18522336259E+02 -0.19334878263E+01  0.22043307121E+02  0.51100000000E-03 0. -1.
        -11    1    3    3    0    0  0.95323867998E+01  0.11925148538E+02 -0.41372335550E+01  0.15817467164E+02  0.51100000000E-03 0.  1.
        -12    1    3    3    0    0 -0.40705672389E+01  0.62564093995E+01 -0.10235629416E+02  0.12668081376E+02  0.00000000000E+00 0.  1.
</event>
<event>
 7    1  0.9953837E-014  0.5052886E+02  0.7816164E-02  0.1300439E+00
        -11   -1    0    0    0    0  0.00000000000E+00  0.00000000000E+00  0.45593999997E+02  0.45594000000E+02  0.51100000000E-03 0.  1.
         11   -1    0    0    0    0 -0.00000000000E+00 -0.00000000000E+00 -0.45593999997E+02  0.45594000000E+02  0.51100000000E-03 0. -1.
    9900012    2    1    2    0    0 -0.17439560311E+02  0.35953173071E+02 -0.75097828341E+01  0.50528858888E+02  0.29999997077E+02 0.  0.
         12    1    1    2    0    0  0.17439560311E+02 -0.35953173071E+02  0.75097828341E+01  0.40659141112E+02  0.00000000000E+00 0. -1.
         11    1    3    3    0    0 -0.17293653120E+01 -0.23670786591E+01 -0.80370339130E+01  0.85549798445E+01  0.51100000000E-03 0. -1.
        -11    1    3    3    0    0 -0.12280294316E+02  0.23299650592E+02 -0.17659328709E+01  0.26396929090E+02  0.51100000000E-03 0.  1.
        -12    1    3    3    0    0 -0.34299006833E+01  0.15020601138E+02  0.22931839498E+01  0.15576949954E+02  0.00000000000E+00 0.  1.
</event>
<event>
 7    1  0.1483753E-013  0.5052887E+02  0.7816164E-02  0.1300439E+00
        -11   -1    0    0    0    0  0.00000000000E+00  0.00000000000E+00  0.45593999997E+02  0.45594000000E+02  0.51100000000E-03 0. -1.
         11   -1    0    0    0    0 -0.00000000000E+00 -0.00000000000E+00 -0.45593999997E+02  0.45594000000E+02  0.51100000000E-03 0.  1.
    9900012    2    1    2    0    0  0.96983897510E+01 -0.28581810831E+02  0.27243096144E+02  0.50528868656E+02  0.30000026767E+02 0.  0.
        -12    1    1    2    0    0 -0.96983897510E+01  0.28581810831E+02 -0.27243096144E+02  0.40659131344E+02  0.00000000000E+00 0.  1.
         11    1    3    3    0    0  0.11860085644E+02 -0.30601371385E+01  0.39108657728E+01  0.12857719165E+02  0.51100000000E-03 0. -1.
        -11    1    3    3    0    0 -0.70543592390E+01 -0.64506556510E+01  0.50863625117E+01  0.10828020431E+02  0.51100000000E-03 0.  1.
         12    1    3    3    0    0  0.48926633464E+01 -0.19071018041E+02  0.18245867859E+02  0.26843129059E+02  0.00000000000E+00 0. -1.
</event>
<event>
 7    1  0.9953837E-014  0.5052885E+02  0.7816164E-02  0.1300439E+00
        -11   -1    0    0    0    0  0.00000000000E+00  0.00000000000E+00  0.45593999997E+02  0.45594000000E+02  0.51100000000E-03 0. -1.
         11   -1    0    0    0    0 -0.00000000000E+00 -0.00000000000E+00 -0.45593999997E+02  0.45594000000E+02  0.51100000000E-03 0.  1.
    9900012    2    1    2    0    0  0.58568269662E+01  0.25623674123E+02 -0.31020816479E+02  0.50528854009E+02  0.29999982246E+02 0.  0.
         12    1    1    2    0    0 -0.58568269662E+01 -0.25623674123E+02  0.31020816479E+02  0.40659145991E+02  0.00000000000E+00 0. -1.
         11    1    3    3    0    0 -0.37444183357E+01 -0.19799099421E+01  0.25261166355E+01  0.49317317008E+01  0.51100000000E-03 0. -1.
        -11    1    3    3    0    0  0.69162272297E+01  0.19273018062E+02 -0.15992227671E+02  0.25981431263E+02  0.51100000000E-03 0.  1.
        -12    1    3    3    0    0  0.26850180722E+01  0.83305660033E+01 -0.17554705444E+02  0.19615691046E+02  0.00000000000E+00 0.  1.
</event>
<event>
 7    1  0.9953837E-014  0.5052888E+02  0.7816164E-02  0.1300439E+00
        -11   -1    0    0    0    0  0.00000000000E+00  0.00000000000E+00  0.45593999997E+02  0.45594000000E+02  0.51100000000E-03 0. -1.
         11   -1    0    0    0    0 -0.00000000000E+00 -0.00000000000E+00 -0.45593999997E+02  0.45594000000E+02  0.51100000000E-03 0.  1.
    9900012    2    1    2    0    0 -0.17918670856E+02  0.15354365712E+02  0.33110849063E+02  0.50528884942E+02  0.30000076268E+02 0.  0.
        -12    1    1    2    0    0  0.17918670856E+02 -0.15354365712E+02 -0.33110849063E+02  0.40659115058E+02  0.00000000000E+00 0.  1.
         11    1    3    3    0    0 -0.15280607913E+02  0.50800746088E+01  0.45316341114E+01  0.16728414276E+02  0.51100000000E-03 0. -1.
        -11    1    3    3    0    0 -0.72839138324E+00  0.48089944400E+01  0.27480742786E+02  0.27907852047E+02  0.51100000000E-03 0.  1.
        -12    1    3    3    0    0 -0.19096715606E+01  0.54652966636E+01  0.10984721652E+01  0.58926186190E+01  0.00000000000E+00 0.  1.
</event>
<event>
 7    1  0.9953837E-014  0.5052885E+02  0.7816164E-02  0.1300439E+00
        -11   -1    0    0    0    0  0.00000000000E+00  0.00000000000E+00  0.45593999997E+02  0.45594000000E+02  0.51100000000E-03 0.  1.
         11   -1    0    0    0    0 -0.00000000000E+00 -0.00000000000E+00 -0.45593999997E+02  0.45594000000E+02  0.51100000000E-03 0. -1.
    9900012    2    1    2    0    0 -0.22675701385E+02 -0.20194197918E+01 -0.33688285980E+02  0.50528854634E+02  0.29999984146E+02 0.  0.
         12    1    1    2    0    0  0.22675701385E+02  0.20194197918E+01  0.33688285980E+02  0.40659145366E+02  0.00000000000E+00 0. -1.
         11    1    3    3    0    0  0.24049242382E+00 -0.90039012778E+01 -0.43560410278E+01  0.10005157096E+02  0.51100000000E-03 0. -1.
        -11    1    3    3    0    0 -0.82486313495E+01  0.26209757170E+01 -0.21825143427E+02  0.23478635367E+02  0.51100000000E-03 0.  1.
        -12    1    3    3    0    0 -0.14667562459E+02  0.43635057690E+01 -0.75071015260E+01  0.17045062171E+02  0.00000000000E+00 0.  1.
</event>
<event>
 7    1  0.9953837E-014  0.5052895E+02  0.7816164E-02  0.1300438E+00
        -11   -1    0    0    0    0  0.00000000000E+00  0.00000000000E+00  0.45593999997E+02  0.45594000000E+02  0.51100000000E-03 0.  1.
         11   -1    0    0    0    0 -0.00000000000E+00 -0.00000000000E+00 -0.45593999997E+02  0.45594000000E+02  0.51100000000E-03 0. -1.
    9900012    2    1    2    0    0 -0.48621768931E+01 -0.31321708680E+02  0.25465043229E+02  0.50528946575E+02  0.30000263608E+02 0.  0.
        -12    1    1    2    0    0  0.48621768931E+01  0.31321708680E+02 -0.25465043229E+02  0.40659053425E+02  0.00000000000E+00 0.  1.
         11    1    3    3    0    0  0.78175357276E+01 -0.52308861206E+01  0.30954893607E+01  0.99024284447E+01  0.51100000000E-03 0. -1.
        -11    1    3    3    0    0 -0.95800873999E+01 -0.20925080304E+02  0.25064011337E+02  0.34027073411E+02  0.51100000000E-03 0.  1.
        -12    1    3    3    0    0 -0.30996252207E+01 -0.51657422548E+01 -0.26944574690E+01  0.65994447194E+01  0.00000000000E+00 0.  1.
</event>
<event>
 7    1  0.9953837E-014  0.5052886E+02  0.7816164E-02  0.1300439E+00
        -11   -1    0    0    0    0  0.00000000000E+00  0.00000000000E+00  0.45593999997E+02  0.45594000000E+02  0.51100000000E-03 0. -1.
         11   -1    0    0    0    0 -0.00000000000E+00 -0.00000000000E+00 -0.45593999997E+02  0.45594000000E+02  0.51100000000E-03 0.  1.
    9900012    2    1    2    0    0  0.11613032608E+02  0.61156875859E+01 -0.38482487868E+02  0.50528855475E+02  0.29999986701E+02 0.  0.
         12    1    1    2    0    0 -0.11613032608E+02 -0.61156875859E+01  0.38482487868E+02  0.40659144525E+02  0.00000000000E+00 0. -1.
         11    1    3    3    0    0 -0.45453747298E+01  0.84719431094E+01 -0.28656464123E+02  0.30226266521E+02  0.51100000000E-03 0. -1.
        -11    1    3    3    0    0  0.12083035282E+02 -0.34237735362E+00 -0.10094985978E+02  0.15748831894E+02  0.51100000000E-03 0.  1.
         12    1    3    3    0    0  0.40753720560E+01 -0.20138781699E+01  0.26896223276E+00  0.45537570599E+01  0.00000000000E+00 0. -1.
</event>
<event>
 7    1  0.9953837E-014  0.5052886E+02  0.7816164E-02  0.1300439E+00
        -11   -1    0    0    0    0  0.00000000000E+00  0.00000000000E+00  0.45593999997E+02  0.45594000000E+02  0.51100000000E-03 0. -1.
         11   -1    0    0    0    0 -0.00000000000E+00 -0.00000000000E+00 -0.45593999997E+02  0.45594000000E+02  0.51100000000E-03 0.  1.
    9900012    2    1    2    0    0  0.37762015347E+02  0.14095588368E+02 -0.53394995305E+01  0.50528859948E+02  0.30000000298E+02 0.  0.
         12    1    1    2    0    0 -0.37762015347E+02 -0.14095588368E+02  0.53394995305E+01  0.40659140052E+02  0.00000000000E+00 0. -1.
         11    1    3    3    0    0  0.52954302663E+01 -0.56591977583E+01  0.23798293951E+01  0.81075081982E+01  0.51100000000E-03 0. -1.
        -11    1    3    3    0    0  0.88771942880E+01  0.10526411199E+02 -0.99566217406E+01  0.16992475626E+02  0.51100000000E-03 0.  1.
         12    1    3    3    0    0  0.23589390793E+02  0.92283749279E+01  0.22372928150E+01  0.25428876124E+02  0.00000000000E+00 0. -1.
</event>
<event>
 7    1  0.9953837E-014  0.5052886E+02  0.7816164E-02  0.1300439E+00
        -11   -1    0    0    0    0  0.00000000000E+00  0.00000000000E+00  0.45593999997E+02  0.45594000000E+02  0.51100000000E-03 0. -1.
         11   -1    0    0    0    0 -0.00000000000E+00 -0.00000000000E+00 -0.45593999997E+02  0.45594000000E+02  0.51100000000E-03 0.  1.
    9900012    2    1    2    0    0  0.17642298203E+02 -0.98378680143E+01  0.35286417727E+02  0.50528860696E+02  0.30000002571E+02 0.  0.
        -12    1    1    2    0    0 -0.17642298203E+02  0.98378680143E+01 -0.35286417727E+02  0.40659139304E+02  0.00000000000E+00 0.  1.
         11    1    3    3    0    0  0.16813554789E+02 -0.22542997953E+01  0.63177307221E+01  0.18102243340E+02  0.51100000000E-03 0. -1.
        -11    1    3    3    0    0  0.57971123394E+01 -0.54659805163E+01  0.23173238486E+02  0.24504743146E+02  0.51100000000E-03 0.  1.
        -12    1    3    3    0    0 -0.49683689253E+01 -0.21175877028E+01  0.57954485189E+01  0.79218742096E+01  0.00000000000E+00 0.  1.
</event>
<event>
 7    1  0.9953837E-014  0.5052886E+02  0.7816164E-02  0.1300439E+00
        -11   -1    0    0    0    0  0.00000000000E+00  0.00000000000E+00  0.45593999997E+02  0.45594000000E+02  0.51100000000E-03 0. -1.
         11   -1    0    0    0    0 -0.00000000000E+00 -0.00000000000E+00 -0.45593999997E+02  0.45594000000E+02  0.51100000000E-03 0.  1.
    9900012    2    1    2    0    0  0.41568072443E+01 -0.38778206800E+02  0.11495083319E+02  0.50528864377E+02  0.30000013761E+02 0.  0.
        -12    1    1    2    0    0 -0.41568072443E+01  0.38778206800E+02 -0.11495083319E+02  0.40659135623E+02  0.00000000000E+00 0.  1.
         11    1    3    3    0    0  0.10043890327E+02 -0.34274760145E+02  0.94518884710E+01  0.36945596650E+02  0.51100000000E-03 0. -1.
        -11    1    3    3    0    0 -0.52690920719E+01  0.78638578894E+00  0.51564843300E+01  0.74142474182E+01  0.51100000000E-03 0.  1.
        -12    1    3    3    0    0 -0.61799101085E+00 -0.52898324439E+01 -0.31132894818E+01  0.61690203089E+01  0.00000000000E+00 0.  1.
</event>
<event>
 7    1  0.9953837E-014  0.5052887E+02  0.7816164E-02  0.1300439E+00
        -11   -1    0    0    0    0  0.00000000000E+00  0.00000000000E+00  0.45593999997E+02  0.45594000000E+02  0.51100000000E-03 0. -1.
         11   -1    0    0    0    0 -0.00000000000E+00 -0.00000000000E+00 -0.45593999997E+02  0.45594000000E+02  0.51100000000E-03 0.  1.
    9900012    2    1    2    0    0  0.31208810568E+02 -0.52546474342E+01  0.25525748859E+02  0.50528867797E+02  0.30000024155E+02 0.  0.
        -12    1    1    2    0    0 -0.31208810568E+02  0.52546474342E+01 -0.25525748859E+02  0.40659132203E+02  0.00000000000E+00 0.  1.
         11    1    3    3    0    0  0.24958609814E+02  0.51350702692E+01  0.11807558635E+02  0.28084151967E+02  0.51100000000E-03 0. -1.
        -11    1    3    3    0    0  0.87045805887E+01 -0.74369282700E+01  0.42236120350E+01  0.12203135835E+02  0.51100000000E-03 0.  1.
         12    1    3    3    0    0 -0.24543798351E+01 -0.29527894333E+01  0.94945781891E+01  0.10241579995E+02  0.00000000000E+00 0. -1.
</event>
<event>
 7    1  0.9953837E-014  0.5052884E+02  0.7816164E-02  0.1300439E+00
        -11   -1    0    0    0    0  0.00000000000E+00  0.00000000000E+00  0.45593999997E+02  0.45594000000E+02  0.51100000000E-03 0. -1.
         11   -1    0    0    0    0 -0.00000000000E+00 -0.00000000000E+00 -0.45593999997E+02  0.45594000000E+02  0.51100000000E-03 0.  1.
    9900012    2    1    2    0    0  0.11164620176E+02 -0.12234414215E-01 -0.39096275460E+02  0.50528835619E+02  0.29999926346E+02 0.  0.
         12    1    1    2    0    0 -0.11164620176E+02  0.12234414215E-01  0.39096275460E+02  0.40659164381E+02  0.00000000000E+00 0. -1.
         11    1    3    3    0    0  0.14312741895E+02 -0.60511146331E+01 -0.96233647936E+01  0.18277847769E+02  0.51100000000E-03 0. -1.
        -11    1    3    3    0    0  0.17665292877E+01  0.75923435356E+01 -0.20021926396E+02  0.21485852158E+02  0.51100000000E-03 0.  1.
         12    1    3    3    0    0 -0.49146510060E+01 -0.15534633167E+01 -0.94509842704E+01  0.10765135692E+02  0.00000000000E+00 0. -1.
</event>
<event>
 7    1  0.9953837E-014  0.5052883E+02  0.7816164E-02  0.1300439E+00
        -11   -1    0    0    0    0  0.00000000000E+00  0.00000000000E+00  0.45593999997E+02  0.45594000000E+02  0.51100000000E-03 0. -1.
         11   -1    0    0    0    0 -0.00000000000E+00 -0.00000000000E+00 -0.45593999997E+02  0.45594000000E+02  0.51100000000E-03 0.  1.
    9900012    2    1    2    0    0 -0.36345520125E+01  0.69205916134E+01 -0.39900673026E+02  0.50528828039E+02  0.29999903307E+02 0.  0.
         12    1    1    2    0    0  0.36345520125E+01 -0.69205916134E+01  0.39900673026E+02  0.40659171961E+02  0.00000000000E+00 0. -1.
         11    1    3    3    0    0 -0.80032069194E+01 -0.11396373801E+01 -0.36860052763E+02  0.37736104520E+02  0.51100000000E-03 0.  1.
        -11    1    3    3    0    0  0.59836985657E+01  0.30258128366E+01 -0.23454252079E-01  0.67052771912E+01  0.51100000000E-03 0. -1.
        -12    1    3    3    0    0 -0.16150436589E+01  0.50344161569E+01 -0.30171660109E+01  0.60874463281E+01  0.00000000000E+00 0.  1.
</event>
<event>
 7    1  0.9953837E-014  0.5052886E+02  0.7816164E-02  0.1300439E+00
        -11   -1    0    0    0    0  0.00000000000E+00  0.00000000000E+00  0.45593999997E+02  0.45594000000E+02  0.51100000000E-03 0. -1.
         11   -1    0    0    0    0 -0.00000000000E+00 -0.00000000000E+00 -0.45593999997E+02  0.45594000000E+02  0.51100000000E-03 0.  1.
    9900012    2    1    2    0    0  0.14764164766E+02 -0.86709063352E+01 -0.36878185199E+02  0.50528859312E+02  0.29999998364E+02 0.  0.
         12    1    1    2    0    0 -0.14764164766E+02  0.86709063352E+01  0.36878185199E+02  0.40659140688E+02  0.00000000000E+00 0. -1.
         11    1    3    3    0    0  0.11709615278E+02 -0.72290690474E+01 -0.79152793174E+01  0.15875332318E+02  0.51100000000E-03 0. -1.
        -11    1    3    3    0    0  0.55738664263E+01  0.75015209090E+01 -0.18010626902E+02  0.20290970518E+02  0.51100000000E-03 0.  1.
        -12    1    3    3    0    0 -0.25193169387E+01 -0.89433581968E+01 -0.10952278980E+02  0.14362556476E+02  0.00000000000E+00 0.  1.
</event>
<event>
 7    1  0.9953837E-014  0.5052881E+02  0.7816164E-02  0.1300439E+00
        -11   -1    0    0    0    0  0.00000000000E+00  0.00000000000E+00  0.45593999997E+02  0.45594000000E+02  0.51100000000E-03 0. -1.
         11   -1    0    0    0    0 -0.00000000000E+00 -0.00000000000E+00 -0.45593999997E+02  0.45594000000E+02  0.51100000000E-03 0.  1.
    9900012    2    1    2    0    0  0.15754670881E+02 -0.36016740386E+02  0.10380492768E+02  0.50528808263E+02  0.29999843195E+02 0.  0.
         12    1    1    2    0    0 -0.15754670881E+02  0.36016740386E+02 -0.10380492768E+02  0.40659191737E+02  0.00000000000E+00 0. -1.
         11    1    3    3    0    0 -0.58310889029E+01 -0.86852427303E+01  0.72209240993E+01  0.12711285702E+02  0.51100000000E-03 0. -1.
        -11    1    3    3    0    0  0.23509471632E+02 -0.24002924892E+02  0.15042252469E+01  0.33631805685E+02  0.51100000000E-03 0.  1.
        -12    1    3    3    0    0 -0.19237118487E+01 -0.33285727643E+01  0.16553434219E+01  0.41857168763E+01  0.00000000000E+00 0.  1.
</event>
<event>
 7    1  0.9953837E-014  0.5052886E+02  0.7816164E-02  0.1300439E+00
        -11   -1    0    0    0    0  0.00000000000E+00  0.00000000000E+00  0.45593999997E+02  0.45594000000E+02  0.51100000000E-03 0. -1.
         11   -1    0    0    0    0 -0.00000000000E+00 -0.00000000000E+00 -0.45593999997E+02  0.45594000000E+02  0.51100000000E-03 0.  1.
    9900012    2    1    2    0    0  0.10202599084E+02 -0.24674419703E+02  0.30663422975E+02  0.50528861737E+02  0.30000005737E+02 0.  0.
        -12    1    1    2    0    0 -0.10202599084E+02  0.24674419703E+02 -0.30663422975E+02  0.40659138263E+02  0.00000000000E+00 0.  1.
         11    1    3    3    0    0  0.55543590584E+01 -0.27100465217E+02  0.26710941665E+02  0.38454655432E+02  0.51100000000E-03 0. -1.
        -11    1    3    3    0    0  0.21808079159E+01  0.27819109713E+01 -0.30327020404E+01  0.46574922163E+01  0.51100000000E-03 0.  1.
         12    1    3    3    0    0  0.24674321101E+01 -0.35586545723E+00  0.69851833505E+01  0.74167140892E+01  0.00000000000E+00 0. -1.
</event>
<event>
 7    1  0.9953837E-014  0.5052882E+02  0.7816164E-02  0.1300439E+00
        -11   -1    0    0    0    0  0.00000000000E+00  0.00000000000E+00  0.45593999997E+02  0.45594000000E+02  0.51100000000E-03 0.  1.
         11   -1    0    0    0    0 -0.00000000000E+00 -0.00000000000E+00 -0.45593999997E+02  0.45594000000E+02  0.51100000000E-03 0. -1.
    9900012    2    1    2    0    0  0.17377867748E+01  0.31588055305E+02 -0.25541013619E+02  0.50528824928E+02  0.29999893852E+02 0.  0.
         12    1    1    2    0    0 -0.17377867748E+01 -0.31588055305E+02  0.25541013619E+02  0.40659175072E+02  0.00000000000E+00 0. -1.
         11    1    3    3    0    0  0.40743848052E+01  0.16124687321E+02 -0.28101751526E+02  0.32654472769E+02  0.51100000000E-03 0. -1.
        -11    1    3    3    0    0 -0.48953752622E+01  0.54247866261E+01  0.15119841448E+01  0.74618432851E+01  0.51100000000E-03 0.  1.
         12    1    3    3    0    0  0.25587772318E+01  0.10038581358E+02  0.10487537625E+01  0.10412508874E+02  0.00000000000E+00 0. -1.
</event>
<event>
 7    1  0.1417232E-013  0.5052886E+02  0.7816164E-02  0.1300439E+00
        -11   -1    0    0    0    0  0.00000000000E+00  0.00000000000E+00  0.45593999997E+02  0.45594000000E+02  0.51100000000E-03 0. -1.
         11   -1    0    0    0    0 -0.00000000000E+00 -0.00000000000E+00 -0.45593999997E+02  0.45594000000E+02  0.51100000000E-03 0.  1.
    9900012    2    1    2    0    0 -0.96133323140E+01 -0.26710695810E+02  0.29108210729E+02  0.50528863749E+02  0.30000011852E+02 0.  0.
        -12    1    1    2    0    0  0.96133323140E+01  0.26710695810E+02 -0.29108210729E+02  0.40659136251E+02  0.00000000000E+00 0.  1.
         11    1    3    3    0    0 -0.17244741242E+02 -0.12614609246E+02  0.17922427502E+02  0.27887683209E+02  0.51100000000E-03 0. -1.
        -11    1    3    3    0    0  0.34093242822E+01 -0.31865380302E+01 -0.19446451732E+01  0.50556069656E+01  0.51100000000E-03 0.  1.
         12    1    3    3    0    0  0.42220846461E+01 -0.10909548534E+02  0.13130428401E+02  0.17585573575E+02  0.00000000000E+00 0. -1.
</event>
<event>
 7    1  0.9953837E-014  0.5052886E+02  0.7816164E-02  0.1300439E+00
        -11   -1    0    0    0    0  0.00000000000E+00  0.00000000000E+00  0.45593999997E+02  0.45594000000E+02  0.51100000000E-03 0. -1.
         11   -1    0    0    0    0 -0.00000000000E+00 -0.00000000000E+00 -0.45593999997E+02  0.45594000000E+02  0.51100000000E-03 0.  1.
    9900012    2    1    2    0    0  0.14742147983E+02 -0.14555931828E+02  0.34985129380E+02  0.50528863804E+02  0.30000012017E+02 0.  0.
        -12    1    1    2    0    0 -0.14742147983E+02  0.14555931828E+02 -0.34985129380E+02  0.40659136196E+02  0.00000000000E+00 0.  1.
         11    1    3    3    0    0  0.10819359751E+02 -0.15325438220E+02  0.72711226523E+01  0.20119563289E+02  0.51100000000E-03 0. -1.
        -11    1    3    3    0    0  0.78804458933E+00 -0.40121090739E+00 -0.10945067767E+01  0.14070997877E+01  0.51100000000E-03 0.  1.
         12    1    3    3    0    0  0.31347436431E+01  0.11707172992E+01  0.28808513504E+02  0.29002200727E+02  0.00000000000E+00 0. -1.
</event>
<event>
 7    1  0.9953837E-014  0.5052886E+02  0.7816164E-02  0.1300439E+00
        -11   -1    0    0    0    0  0.00000000000E+00  0.00000000000E+00  0.45593999997E+02  0.45594000000E+02  0.51100000000E-03 0. -1.
         11   -1    0    0    0    0 -0.00000000000E+00 -0.00000000000E+00 -0.45593999997E+02  0.45594000000E+02  0.51100000000E-03 0.  1.
    9900012    2    1    2    0    0 -0.74578312818E+01 -0.22937430792E+02 -0.32732557248E+02  0.50528864707E+02  0.30000014765E+02 0.  0.
         12    1    1    2    0    0  0.74578312818E+01  0.22937430792E+02  0.32732557248E+02  0.40659135293E+02  0.00000000000E+00 0. -1.
         11    1    3    3    0    0 -0.44634122093E+01 -0.20313507843E+02 -0.33565589916E+02  0.39486826615E+02  0.51100000000E-03 0.  1.
        -11    1    3    3    0    0 -0.29627059596E+00 -0.49564630901E+01  0.39190921472E+01  0.63256293085E+01  0.51100000000E-03 0. -1.
        -12    1    3    3    0    0 -0.26981484766E+01  0.23325401410E+01 -0.30860594791E+01  0.47164087842E+01  0.00000000000E+00 0.  1.
</event>
<event>
 7    1  0.9953837E-014  0.5052886E+02  0.7816164E-02  0.1300439E+00
        -11   -1    0    0    0    0  0.00000000000E+00  0.00000000000E+00  0.45593999997E+02  0.45594000000E+02  0.51100000000E-03 0. -1.
         11   -1    0    0    0    0 -0.00000000000E+00 -0.00000000000E+00 -0.45593999997E+02  0.45594000000E+02  0.51100000000E-03 0.  1.
    9900012    2    1    2    0    0  0.37133391174E+02  0.16561221783E+02 -0.53025328911E-01  0.50528860576E+02  0.30000002207E+02 0.  0.
         12    1    1    2    0    0 -0.37133391174E+02 -0.16561221783E+02  0.53025328911E-01  0.40659139424E+02  0.00000000000E+00 0. -1.
         11    1    3    3    0    0  0.15939110845E+02 -0.19782194311E+01 -0.97176331378E+01  0.18772346702E+02  0.51100000000E-03 0. -1.
        -11    1    3    3    0    0  0.77203718195E+01  0.14078763037E+02  0.50468210836E+01  0.16831105519E+02  0.51100000000E-03 0.  1.
        -12    1    3    3    0    0  0.13473908509E+02  0.44606781776E+01  0.46177867253E+01  0.14925408355E+02  0.00000000000E+00 0.  1.
</event>
<event>
 7    1  0.9953837E-014  0.5052886E+02  0.7816164E-02  0.1300439E+00
        -11   -1    0    0    0    0  0.00000000000E+00  0.00000000000E+00  0.45593999997E+02  0.45594000000E+02  0.51100000000E-03 0. -1.
         11   -1    0    0    0    0 -0.00000000000E+00 -0.00000000000E+00 -0.45593999997E+02  0.45594000000E+02  0.51100000000E-03 0.  1.
    9900012    2    1    2    0    0 -0.17458817699E+02  0.19874950313E+02 -0.30876226299E+02  0.50528864300E+02  0.30000013526E+02 0.  0.
         12    1    1    2    0    0  0.17458817699E+02 -0.19874950313E+02  0.30876226299E+02  0.40659135700E+02  0.00000000000E+00 0. -1.
         11    1    3    3    0    0 -0.17158678899E+02  0.14769868429E+01 -0.20322625994E+02  0.26638522468E+02  0.51100000000E-03 0.  1.
        -11    1    3    3    0    0 -0.31244437274E+01  0.17761667035E+02 -0.70946714181E+01  0.19379714324E+02  0.51100000000E-03 0. -1.
        -12    1    3    3    0    0  0.28243049276E+01  0.63629643484E+00 -0.34589288868E+01  0.45106275086E+01  0.00000000000E+00 0.  1.
</event>
<event>
 7    1  0.9953837E-014  0.5052886E+02  0.7816164E-02  0.1300439E+00
        -11   -1    0    0    0    0  0.00000000000E+00  0.00000000000E+00  0.45593999997E+02  0.45594000000E+02  0.51100000000E-03 0. -1.
         11   -1    0    0    0    0 -0.00000000000E+00 -0.00000000000E+00 -0.45593999997E+02  0.45594000000E+02  0.51100000000E-03 0.  1.
    9900012    2    1    2    0    0  0.11427184550E+02 -0.24749177194E+02  0.30167262652E+02  0.50528855217E+02  0.29999985919E+02 0.  0.
        -12    1    1    2    0    0 -0.11427184550E+02  0.24749177194E+02 -0.30167262652E+02  0.40659144783E+02  0.00000000000E+00 0.  1.
         11    1    3    3    0    0 -0.28670283637E+01 -0.43788353881E+01  0.16037666829E+02  0.16870115843E+02  0.51100000000E-03 0. -1.
        -11    1    3    3    0    0  0.97966190151E+01 -0.49584491184E+01 -0.17020356676E+01  0.11111115491E+02  0.51100000000E-03 0.  1.
        -12    1    3    3    0    0  0.44975938986E+01 -0.15411892688E+02  0.15831631491E+02  0.22547623883E+02  0.00000000000E+00 0.  1.
</event>
<event>
 7    1  0.9953837E-014  0.5052888E+02  0.7816164E-02  0.1300439E+00
        -11   -1    0    0    0    0  0.00000000000E+00  0.00000000000E+00  0.45593999997E+02  0.45594000000E+02  0.51100000000E-03 0.  1.
         11   -1    0    0    0    0 -0.00000000000E+00 -0.00000000000E+00 -0.45593999997E+02  0.45594000000E+02  0.51100000000E-03 0. -1.
    9900012    2    1    2    0    0  0.19220066213E+02  0.23831853958E+02 -0.26754360294E+02  0.50528880445E+02  0.30000062600E+02 0.  0.
         12    1    1    2    0    0 -0.19220066213E+02 -0.23831853958E+02  0.26754360294E+02  0.40659119555E+02  0.00000000000E+00 0. -1.
         11    1    3    3    0    0  0.13230335269E+01  0.57748141133E+01 -0.14969607132E+02  0.16099317803E+02  0.51100000000E-03 0. -1.
        -11    1    3    3    0    0  0.39693246946E+01  0.28960055264E+01  0.56242717190E+01  0.74682540911E+01  0.51100000000E-03 0.  1.
        -12    1    3    3    0    0  0.13927707991E+02  0.15161034318E+02 -0.17409024880E+02  0.26961308551E+02  0.00000000000E+00 0.  1.
</event>
<event>
 7    1  0.9953837E-014  0.5052886E+02  0.7816164E-02  0.1300439E+00
        -11   -1    0    0    0    0  0.00000000000E+00  0.00000000000E+00  0.45593999997E+02  0.45594000000E+02  0.51100000000E-03 0. -1.
         11   -1    0    0    0    0 -0.00000000000E+00 -0.00000000000E+00 -0.45593999997E+02  0.45594000000E+02  0.51100000000E-03 0.  1.
    9900012    2    1    2    0    0 -0.23032350189E+01  0.10054105070E+02 -0.39329073409E+02  0.50528856680E+02  0.29999990364E+02 0.  0.
         12    1    1    2    0    0  0.23032350189E+01 -0.10054105070E+02  0.39329073409E+02  0.40659143320E+02  0.00000000000E+00 0. -1.
         11    1    3    3    0    0  0.64856424362E+00 -0.55741942245E+01 -0.70204262602E+01  0.89876950308E+01  0.51100000000E-03 0. -1.
        -11    1    3    3    0    0  0.29816875045E+01  0.12644636850E+02 -0.32391028939E+02  0.34899227175E+02  0.51100000000E-03 0.  1.
        -12    1    3    3    0    0 -0.59334867670E+01  0.29836624449E+01  0.82381789988E-01  0.66419344742E+01  0.00000000000E+00 0.  1.
</event>
<event>
 7    1  0.9953837E-014  0.5052887E+02  0.7816164E-02  0.1300439E+00
        -11   -1    0    0    0    0  0.00000000000E+00  0.00000000000E+00  0.45593999997E+02  0.45594000000E+02  0.51100000000E-03 0. -1.
         11   -1    0    0    0    0 -0.00000000000E+00 -0.00000000000E+00 -0.45593999997E+02  0.45594000000E+02  0.51100000000E-03 0.  1.
    9900012    2    1    2    0    0  0.10345030316E+02 -0.26971512038E+02  0.28612633529E+02  0.50528869275E+02  0.30000028647E+02 0.  0.
        -12    1    1    2    0    0 -0.10345030316E+02  0.26971512038E+02 -0.28612633529E+02  0.40659130725E+02  0.00000000000E+00 0.  1.
         11    1    3    3    0    0  0.47873588858E-01 -0.13842851587E+02  0.81283239327E+01  0.16052927526E+02  0.51100000000E-03 0. -1.
        -11    1    3    3    0    0  0.70778572710E+01  0.27699654401E+01 -0.87989262026E+00  0.76513386654E+01  0.51100000000E-03 0.  1.
        -12    1    3    3    0    0  0.32192994559E+01 -0.15898625891E+02  0.21364202217E+02  0.26824603083E+02  0.00000000000E+00 0.  1.
</event>
<event>
 7    1  0.1079762E-013  0.5052886E+02  0.7816164E-02  0.1300439E+00
        -11   -1    0    0    0    0  0.00000000000E+00  0.00000000000E+00  0.45593999997E+02  0.45594000000E+02  0.51100000000E-03 0. -1.
         11   -1    0    0    0    0 -0.00000000000E+00 -0.00000000000E+00 -0.45593999997E+02  0.45594000000E+02  0.51100000000E-03 0.  1.
    9900012    2    1    2    0    0  0.96449050271E+01 -0.35502065491E+02  0.17313140247E+02  0.50528859917E+02  0.30000000204E+02 0.  0.
        -12    1    1    2    0    0 -0.96449050271E+01  0.35502065491E+02 -0.17313140247E+02  0.40659140083E+02  0.00000000000E+00 0.  1.
         11    1    3    3    0    0  0.15484538030E+00 -0.29657559214E+02  0.13498151668E+02  0.32585194404E+02  0.51100000000E-03 0. -1.
        -11    1    3    3    0    0  0.10669263828E+01 -0.79510043168E+00 -0.47375923100E+01  0.49209041608E+01  0.51100000000E-03 0.  1.
         12    1    3    3    0    0  0.84231332640E+01 -0.50494058446E+01  0.85525808891E+01  0.13022761352E+02  0.00000000000E+00 0. -1.
</event>
<event>
 7    1  0.9953837E-014  0.5052886E+02  0.7816164E-02  0.1300439E+00
        -11   -1    0    0    0    0  0.00000000000E+00  0.00000000000E+00  0.45593999997E+02  0.45594000000E+02  0.51100000000E-03 0. -1.
         11   -1    0    0    0    0 -0.00000000000E+00 -0.00000000000E+00 -0.45593999997E+02  0.45594000000E+02  0.51100000000E-03 0.  1.
    9900012    2    1    2    0    0 -0.80752720531E+01 -0.43281659981E+01  0.39613411559E+02  0.50528863081E+02  0.30000009821E+02 0.  0.
        -12    1    1    2    0    0  0.80752720531E+01  0.43281659981E+01 -0.39613411559E+02  0.40659136919E+02  0.00000000000E+00 0.  1.
         11    1    3    3    0    0 -0.13103114504E+02 -0.14518726919E+00  0.33840127565E+02  0.36288661080E+02  0.51100000000E-03 0. -1.
        -11    1    3    3    0    0  0.84229820345E+01 -0.32042947278E+01  0.23337604552E+01  0.93091658692E+01  0.51100000000E-03 0.  1.
        -12    1    3    3    0    0 -0.33951395835E+01 -0.97868400113E+00  0.34395235386E+01  0.49310361323E+01  0.00000000000E+00 0.  1.
</event>
<event>
 7    1  0.9953837E-014  0.5052890E+02  0.7816164E-02  0.1300439E+00
        -11   -1    0    0    0    0  0.00000000000E+00  0.00000000000E+00  0.45593999997E+02  0.45594000000E+02  0.51100000000E-03 0. -1.
         11   -1    0    0    0    0 -0.00000000000E+00 -0.00000000000E+00 -0.45593999997E+02  0.45594000000E+02  0.51100000000E-03 0.  1.
    9900012    2    1    2    0    0  0.31759382541E+01  0.34741068828E+02  0.20883822564E+02  0.50528899026E+02  0.30000119080E+02 0.  0.
        -12    1    1    2    0    0 -0.31759382541E+01 -0.34741068828E+02 -0.20883822564E+02  0.40659100974E+02  0.00000000000E+00 0.  1.
         11    1    3    3    0    0 -0.19185532005E+01  0.67189231041E+01  0.24720878799E+01  0.74118818669E+01  0.51100000000E-03 0. -1.
        -11    1    3    3    0    0  0.15226226963E+02  0.10635550086E+02  0.62106254060E+01  0.19583788738E+02  0.51100000000E-03 0.  1.
        -12    1    3    3    0    0 -0.10131735508E+02  0.17386595638E+02  0.12201109278E+02  0.23533228421E+02  0.00000000000E+00 0.  1.
</event>
<event>
 7    1  0.9953837E-014  0.5052885E+02  0.7816164E-02  0.1300439E+00
        -11   -1    0    0    0    0  0.00000000000E+00  0.00000000000E+00  0.45593999997E+02  0.45594000000E+02  0.51100000000E-03 0. -1.
         11   -1    0    0    0    0 -0.00000000000E+00 -0.00000000000E+00 -0.45593999997E+02  0.45594000000E+02  0.51100000000E-03 0.  1.
    9900012    2    1    2    0    0  0.25721757787E+02  0.31043786793E+02 -0.52764334971E+01  0.50528852536E+02  0.29999977768E+02 0.  0.
         12    1    1    2    0    0 -0.25721757787E+02 -0.31043786793E+02  0.52764334971E+01  0.40659147464E+02  0.00000000000E+00 0. -1.
         11    1    3    3    0    0  0.36593298047E+01  0.11662241828E+02 -0.56080415949E+01  0.13448000218E+02  0.51100000000E-03 0. -1.
        -11    1    3    3    0    0  0.18698871335E+02  0.19552849733E+01 -0.29537327447E+01  0.19031433628E+02  0.51100000000E-03 0.  1.
        -12    1    3    3    0    0  0.33635566467E+01  0.17426259991E+02  0.32853408424E+01  0.18049418690E+02  0.00000000000E+00 0.  1.
</event>
<event>
 7    1  0.9953837E-014  0.5052886E+02  0.7816164E-02  0.1300439E+00
        -11   -1    0    0    0    0  0.00000000000E+00  0.00000000000E+00  0.45593999997E+02  0.45594000000E+02  0.51100000000E-03 0. -1.
         11   -1    0    0    0    0 -0.00000000000E+00 -0.00000000000E+00 -0.45593999997E+02  0.45594000000E+02  0.51100000000E-03 0.  1.
    9900012    2    1    2    0    0  0.24960846229E+02 -0.33563965159E+01 -0.31919524833E+02  0.50528864402E+02  0.30000013836E+02 0.  0.
         12    1    1    2    0    0 -0.24960846229E+02  0.33563965159E+01  0.31919524833E+02  0.40659135598E+02  0.00000000000E+00 0. -1.
         11    1    3    3    0    0  0.12415876662E+02  0.98012301126E+01 -0.86747143514E+01  0.18040753153E+02  0.51100000000E-03 0. -1.
        -11    1    3    3    0    0  0.10995121885E+02 -0.12028845035E+02 -0.25030357284E+02  0.29868120198E+02  0.51100000000E-03 0.  1.
        -12    1    3    3    0    0  0.15498476825E+01 -0.11287815937E+01  0.17855468022E+01  0.26199910511E+01  0.00000000000E+00 0.  1.
</event>
<event>
 7    1  0.9953837E-014  0.5052886E+02  0.7816164E-02  0.1300439E+00
        -11   -1    0    0    0    0  0.00000000000E+00  0.00000000000E+00  0.45593999997E+02  0.45594000000E+02  0.51100000000E-03 0. -1.
         11   -1    0    0    0    0 -0.00000000000E+00 -0.00000000000E+00 -0.45593999997E+02  0.45594000000E+02  0.51100000000E-03 0.  1.
    9900012    2    1    2    0    0 -0.30222540582E+02 -0.25183989973E+01  0.27081751258E+02  0.50528861496E+02  0.30000005002E+02 0.  0.
        -12    1    1    2    0    0  0.30222540582E+02  0.25183989973E+01 -0.27081751258E+02  0.40659138504E+02  0.00000000000E+00 0.  1.
         11    1    3    3    0    0 -0.21488407338E+02 -0.46595007597E+01  0.27049085708E+02  0.34858508791E+02  0.51100000000E-03 0. -1.
        -11    1    3    3    0    0 -0.26020592502E+01  0.51229947197E+01 -0.46557372563E+01  0.73953821335E+01  0.51100000000E-03 0.  1.
        -12    1    3    3    0    0 -0.61320739941E+01 -0.29818929574E+01  0.46884028060E+01  0.82749705709E+01  0.00000000000E+00 0.  1.
</event>
<event>
 7    1  0.9953837E-014  0.5052886E+02  0.7816164E-02  0.1300439E+00
        -11   -1    0    0    0    0  0.00000000000E+00  0.00000000000E+00  0.45593999997E+02  0.45594000000E+02  0.51100000000E-03 0. -1.
         11   -1    0    0    0    0 -0.00000000000E+00 -0.00000000000E+00 -0.45593999997E+02  0.45594000000E+02  0.51100000000E-03 0.  1.
    9900012    2    1    2    0    0  0.27999627882E+02 -0.48037237442E+00 -0.29478053957E+02  0.50528860999E+02  0.30000003494E+02 0.  0.
         12    1    1    2    0    0 -0.27999627882E+02  0.48037237442E+00  0.29478053957E+02  0.40659139001E+02  0.00000000000E+00 0. -1.
         11    1    3    3    0    0 -0.89905966129E+00 -0.96333931750E+01 -0.52586276891E+01  0.11011981555E+02  0.51100000000E-03 0. -1.
        -11    1    3    3    0    0  0.25281520765E+02  0.93514312590E+01 -0.18312560030E+02  0.32587642042E+02  0.51100000000E-03 0.  1.
        -12    1    3    3    0    0  0.36171667786E+01 -0.19841045840E+00 -0.59068662382E+01  0.69292374018E+01  0.00000000000E+00 0.  1.
</event>
<event>
 7    1  0.1252703E-013  0.5052888E+02  0.7816164E-02  0.1300439E+00
        -11   -1    0    0    0    0  0.00000000000E+00  0.00000000000E+00  0.45593999997E+02  0.45594000000E+02  0.51100000000E-03 0. -1.
         11   -1    0    0    0    0 -0.00000000000E+00 -0.00000000000E+00 -0.45593999997E+02  0.45594000000E+02  0.51100000000E-03 0.  1.
    9900012    2    1    2    0    0  0.14445887138E+01  0.15988468182E+02  0.37355675134E+02  0.50528875365E+02  0.30000047160E+02 0.  0.
        -12    1    1    2    0    0 -0.14445887138E+01 -0.15988468182E+02 -0.37355675134E+02  0.40659124635E+02  0.00000000000E+00 0.  1.
         11    1    3    3    0    0  0.45171833272E+01  0.15281054391E+02  0.34363291583E+02  0.37878112112E+02  0.51100000000E-03 0. -1.
        -11    1    3    3    0    0  0.25887087172E+01  0.30008353345E+00 -0.32814746808E+01  0.41904103966E+01  0.51100000000E-03 0.  1.
         12    1    3    3    0    0 -0.56613033306E+01  0.40733025754E+00  0.62738582325E+01  0.84603528568E+01  0.00000000000E+00 0. -1.
</event>
<event>
 7    1  0.9953837E-014  0.5052887E+02  0.7816164E-02  0.1300439E+00
        -11   -1    0    0    0    0  0.00000000000E+00  0.00000000000E+00  0.45593999997E+02  0.45594000000E+02  0.51100000000E-03 0. -1.
         11   -1    0    0    0    0 -0.00000000000E+00 -0.00000000000E+00 -0.45593999997E+02  0.45594000000E+02  0.51100000000E-03 0.  1.
    9900012    2    1    2    0    0 -0.78981637829E+01 -0.30472755688E+02  0.25733144791E+02  0.50528873458E+02  0.30000041362E+02 0.  0.
        -12    1    1    2    0    0  0.78981637829E+01  0.30472755688E+02 -0.25733144791E+02  0.40659126542E+02  0.00000000000E+00 0.  1.
         11    1    3    3    0    0  0.71759979812E+01 -0.11944748841E+02  0.14341619126E+02  0.19996349950E+02  0.51100000000E-03 0. -1.
        -11    1    3    3    0    0 -0.14844122331E+02 -0.10455083757E+02  0.12957493282E+02  0.22305904522E+02  0.51100000000E-03 0.  1.
         12    1    3    3    0    0 -0.23003943275E+00 -0.80729230899E+01 -0.15659676164E+01  0.82266189854E+01  0.00000000000E+00 0. -1.
</event>
<event>
 7    1  0.9953837E-014  0.5052886E+02  0.7816164E-02  0.1300439E+00
        -11   -1    0    0    0    0  0.00000000000E+00  0.00000000000E+00  0.45593999997E+02  0.45594000000E+02  0.51100000000E-03 0. -1.
         11   -1    0    0    0    0 -0.00000000000E+00 -0.00000000000E+00 -0.45593999997E+02  0.45594000000E+02  0.51100000000E-03 0.  1.
    9900012    2    1    2    0    0 -0.13659081746E+02  0.31524759592E+01  0.38166173336E+02  0.50528863192E+02  0.30000010159E+02 0.  0.
        -12    1    1    2    0    0  0.13659081746E+02 -0.31524759592E+01 -0.38166173336E+02  0.40659136808E+02  0.00000000000E+00 0.  1.
         11    1    3    3    0    0 -0.10606671776E+02 -0.41865857278E+01  0.32969350403E+02  0.34885628165E+02  0.51100000000E-03 0. -1.
        -11    1    3    3    0    0  0.27674069727E+01  0.21677963897E+01 -0.27912757046E+01  0.44887752071E+01  0.51100000000E-03 0.  1.
         12    1    3    3    0    0 -0.58198169430E+01  0.51712652973E+01  0.79880986381E+01  0.11154459820E+02  0.00000000000E+00 0. -1.
</event>
<event>
 7    1  0.9953837E-014  0.5052885E+02  0.7816164E-02  0.1300439E+00
        -11   -1    0    0    0    0  0.00000000000E+00  0.00000000000E+00  0.45593999997E+02  0.45594000000E+02  0.51100000000E-03 0. -1.
         11   -1    0    0    0    0 -0.00000000000E+00 -0.00000000000E+00 -0.45593999997E+02  0.45594000000E+02  0.51100000000E-03 0.  1.
    9900012    2    1    2    0    0 -0.21287963569E+02  0.75905844272E+01 -0.33798999305E+02  0.50528847047E+02  0.29999961084E+02 0.  0.
         12    1    1    2    0    0  0.21287963569E+02 -0.75905844272E+01  0.33798999305E+02  0.40659152953E+02  0.00000000000E+00 0. -1.
         11    1    3    3    0    0 -0.16776900945E+02  0.11290547138E+02 -0.16260958067E+02  0.25949173735E+02  0.51100000000E-03 0. -1.
        -11    1    3    3    0    0  0.53824658231E+01 -0.53761370226E+00 -0.11131357759E+02  0.12376069354E+02  0.51100000000E-03 0.  1.
        -12    1    3    3    0    0 -0.98935284473E+01 -0.31623490081E+01 -0.64066834784E+01  0.12203603959E+02  0.00000000000E+00 0.  1.
</event>
<event>
 7    1  0.9953837E-014  0.5052886E+02  0.7816164E-02  0.1300439E+00
        -11   -1    0    0    0    0  0.00000000000E+00  0.00000000000E+00  0.45593999997E+02  0.45594000000E+02  0.51100000000E-03 0. -1.
         11   -1    0    0    0    0 -0.00000000000E+00 -0.00000000000E+00 -0.45593999997E+02  0.45594000000E+02  0.51100000000E-03 0.  1.
    9900012    2    1    2    0    0  0.43222588056E+01  0.20942528414E+02  0.34581707601E+02  0.50528856894E+02  0.29999991014E+02 0.  0.
        -12    1    1    2    0    0 -0.43222588056E+01 -0.20942528414E+02 -0.34581707601E+02  0.40659143106E+02  0.00000000000E+00 0.  1.
         11    1    3    3    0    0 -0.84035997162E+01  0.19528162299E+02  0.22576417136E+02  0.31010711406E+02  0.51100000000E-03 0. -1.
        -11    1    3    3    0    0  0.40267025406E+00 -0.24663657019E+00 -0.12542939049E+01  0.13402337081E+01  0.51100000000E-03 0.  1.
         12    1    3    3    0    0  0.12323188268E+02  0.16610026855E+01  0.13259584370E+02  0.18177911780E+02  0.00000000000E+00 0. -1.
</event>
<event>
 7    1  0.9953837E-014  0.5052883E+02  0.7816164E-02  0.1300439E+00
        -11   -1    0    0    0    0  0.00000000000E+00  0.00000000000E+00  0.45593999997E+02  0.45594000000E+02  0.51100000000E-03 0. -1.
         11   -1    0    0    0    0 -0.00000000000E+00 -0.00000000000E+00 -0.45593999997E+02  0.45594000000E+02  0.51100000000E-03 0.  1.
    9900012    2    1    2    0    0 -0.24776391425E+02 -0.13466592218E+02 -0.29290777591E+02  0.50528827235E+02  0.29999900865E+02 0.  0.
         12    1    1    2    0    0  0.24776391425E+02  0.13466592218E+02  0.29290777591E+02  0.40659172765E+02  0.00000000000E+00 0. -1.
         11    1    3    3    0    0 -0.78563882324E+01 -0.47258850168E+01 -0.14101508301E+01  0.92760633286E+01  0.51100000000E-03 0. -1.
        -11    1    3    3    0    0 -0.34622486092E+01  0.81184748654E+01 -0.85060032156E+01  0.12257605416E+02  0.51100000000E-03 0.  1.
        -12    1    3    3    0    0 -0.13457754583E+02 -0.16859182067E+02 -0.19374623545E+02  0.28995158491E+02  0.00000000000E+00 0.  1.
</event>
<event>
 7    1  0.9953837E-014  0.5052886E+02  0.7816164E-02  0.1300439E+00
        -11   -1    0    0    0    0  0.00000000000E+00  0.00000000000E+00  0.45593999997E+02  0.45594000000E+02  0.51100000000E-03 0. -1.
         11   -1    0    0    0    0 -0.00000000000E+00 -0.00000000000E+00 -0.45593999997E+02  0.45594000000E+02  0.51100000000E-03 0.  1.
    9900012    2    1    2    0    0 -0.37624127577E+01  0.38873193572E+02 -0.11308616233E+02  0.50528859215E+02  0.29999998070E+02 0.  0.
         12    1    1    2    0    0  0.37624127577E+01 -0.38873193572E+02  0.11308616233E+02  0.40659140785E+02  0.00000000000E+00 0. -1.
         11    1    3    3    0    0 -0.18009716609E+00  0.64398753862E+01  0.42654866590E+01  0.77265002865E+01  0.51100000000E-03 0. -1.
        -11    1    3    3    0    0 -0.11252893070E+02  0.90942354422E+01 -0.10065219937E+02  0.17625021230E+02  0.51100000000E-03 0.  1.
        -12    1    3    3    0    0  0.76705774782E+01  0.23339082744E+02 -0.55088829547E+01  0.25177337698E+02  0.00000000000E+00 0.  1.
</event>
<event>
 7    1  0.1927499E-013  0.5052886E+02  0.7816164E-02  0.1300439E+00
        -11   -1    0    0    0    0  0.00000000000E+00  0.00000000000E+00  0.45593999997E+02  0.45594000000E+02  0.51100000000E-03 0. -1.
         11   -1    0    0    0    0 -0.00000000000E+00 -0.00000000000E+00 -0.45593999997E+02  0.45594000000E+02  0.51100000000E-03 0.  1.
    9900012    2    1    2    0    0  0.81190743486E-01 -0.53891757428E+01  0.40300319354E+02  0.50528861456E+02  0.30000004882E+02 0.  0.
        -12    1    1    2    0    0 -0.81190743486E-01  0.53891757428E+01 -0.40300319354E+02  0.40659138544E+02  0.00000000000E+00 0.  1.
         11    1    3    3    0    0 -0.75765332145E+00  0.73606464941E+01  0.28604518907E+02  0.29546093778E+02  0.51100000000E-03 0. -1.
        -11    1    3    3    0    0  0.54071314084E+01 -0.65372359043E+01  0.22268927547E+01  0.87710646411E+01  0.51100000000E-03 0.  1.
         12    1    3    3    0    0 -0.45682873435E+01 -0.62125863326E+01  0.94689076922E+01  0.12211703037E+02  0.00000000000E+00 0. -1.
</event>
<event>
 7    1  0.9953837E-014  0.5052886E+02  0.7816164E-02  0.1300439E+00
        -11   -1    0    0    0    0  0.00000000000E+00  0.00000000000E+00  0.45593999997E+02  0.45594000000E+02  0.51100000000E-03 0. -1.
         11   -1    0    0    0    0 -0.00000000000E+00 -0.00000000000E+00 -0.45593999997E+02  0.45594000000E+02  0.51100000000E-03 0.  1.
    9900012    2    1    2    0    0  0.18169526195E+02 -0.21928739263E+02  0.29020069033E+02  0.50528859644E+02  0.29999999374E+02 0.  0.
        -12    1    1    2    0    0 -0.18169526195E+02  0.21928739263E+02 -0.29020069033E+02  0.40659140356E+02  0.00000000000E+00 0.  1.
         11    1    3    3    0    0  0.67988031255E+01 -0.18799919537E+02  0.87199456907E+01  0.21810505534E+02  0.51100000000E-03 0.  1.
        -11    1    3    3    0    0  0.11204702692E+02 -0.40859372429E+01  0.22967577218E+02  0.25879525674E+02  0.51100000000E-03 0. -1.
        -12    1    3    3    0    0  0.16602037742E+00  0.95711751644E+00 -0.26674538764E+01  0.28388284360E+01  0.00000000000E+00 0.  1.
</event>
<event>
 7    1  0.9953837E-014  0.5052887E+02  0.7816164E-02  0.1300439E+00
        -11   -1    0    0    0    0  0.00000000000E+00  0.00000000000E+00  0.45593999997E+02  0.45594000000E+02  0.51100000000E-03 0. -1.
         11   -1    0    0    0    0 -0.00000000000E+00 -0.00000000000E+00 -0.45593999997E+02  0.45594000000E+02  0.51100000000E-03 0.  1.
    9900012    2    1    2    0    0 -0.13241008087E+02 -0.20374420401E+02  0.32599445112E+02  0.50528866666E+02  0.30000020718E+02 0.  0.
        -12    1    1    2    0    0  0.13241008087E+02  0.20374420401E+02 -0.32599445112E+02  0.40659133334E+02  0.00000000000E+00 0.  1.
         11    1    3    3    0    0 -0.18397622746E+02 -0.17435438506E+02  0.29905636259E+02  0.39202220842E+02  0.51100000000E-03 0. -1.
        -11    1    3    3    0    0  0.67064848597E+01  0.85407149949E+00  0.78402977854E+00  0.68059591723E+01  0.51100000000E-03 0.  1.
        -12    1    3    3    0    0 -0.15498702016E+01 -0.37930533941E+01  0.19097790747E+01  0.45206866522E+01  0.00000000000E+00 0.  1.
</event>
<event>
 7    1  0.1157824E-013  0.5052886E+02  0.7816164E-02  0.1300439E+00
        -11   -1    0    0    0    0  0.00000000000E+00  0.00000000000E+00  0.45593999997E+02  0.45594000000E+02  0.51100000000E-03 0. -1.
         11   -1    0    0    0    0 -0.00000000000E+00 -0.00000000000E+00 -0.45593999997E+02  0.45594000000E+02  0.51100000000E-03 0.  1.
    9900012    2    1    2    0    0 -0.23358631099E+02  0.74696941322E+01  0.32430602400E+02  0.50528856511E+02  0.29999989850E+02 0.  0.
        -12    1    1    2    0    0  0.23358631099E+02 -0.74696941322E+01 -0.32430602400E+02  0.40659143489E+02  0.00000000000E+00 0.  1.
         11    1    3    3    0    0 -0.17651534931E+02  0.77354678845E+00  0.31122252433E+02  0.35787842305E+02  0.51100000000E-03 0. -1.
        -11    1    3    3    0    0  0.27482129081E+01 -0.11156958537E+01 -0.71971874830E+00  0.30521216823E+01  0.51100000000E-03 0.  1.
         12    1    3    3    0    0 -0.84553090762E+01  0.78118431974E+01  0.20280687153E+01  0.11688892524E+02  0.00000000000E+00 0. -1.
</event>
<event>
 7    1  0.9953837E-014  0.5052887E+02  0.7816164E-02  0.1300439E+00
        -11   -1    0    0    0    0  0.00000000000E+00  0.00000000000E+00  0.45593999997E+02  0.45594000000E+02  0.51100000000E-03 0. -1.
         11   -1    0    0    0    0 -0.00000000000E+00 -0.00000000000E+00 -0.45593999997E+02  0.45594000000E+02  0.51100000000E-03 0.  1.
    9900012    2    1    2    0    0  0.28450215858E+02 -0.17044762727E+01  0.28997322605E+02  0.50528871382E+02  0.30000035052E+02 0.  0.
        -12    1    1    2    0    0 -0.28450215858E+02  0.17044762727E+01 -0.28997322605E+02  0.40659128618E+02  0.00000000000E+00 0.  1.
         11    1    3    3    0    0  0.36032981303E+01  0.39006058587E+01  0.19780494774E+01  0.56666712872E+01  0.51100000000E-03 0. -1.
        -11    1    3    3    0    0  0.10360101149E+01 -0.76918203776E+00  0.19336430292E+02  0.19379434839E+02  0.51100000000E-03 0.  1.
        -12    1    3    3    0    0  0.23810907613E+02 -0.48359000937E+01  0.76828428357E+01  0.25482765256E+02  0.00000000000E+00 0.  1.
</event>
<event>
 7    1  0.9953837E-014  0.5052886E+02  0.7816164E-02  0.1300439E+00
        -11   -1    0    0    0    0  0.00000000000E+00  0.00000000000E+00  0.45593999997E+02  0.45594000000E+02  0.51100000000E-03 0. -1.
         11   -1    0    0    0    0 -0.00000000000E+00 -0.00000000000E+00 -0.45593999997E+02  0.45594000000E+02  0.51100000000E-03 0.  1.
    9900012    2    1    2    0    0  0.24916906478E+02  0.18018546478E+02 -0.26601601263E+02  0.50528862831E+02  0.30000009060E+02 0.  0.
         12    1    1    2    0    0 -0.24916906478E+02 -0.18018546478E+02  0.26601601263E+02  0.40659137169E+02  0.00000000000E+00 0. -1.
         11    1    3    3    0    0  0.14004787907E+02  0.67872842628E+01  0.10210123114E+01  0.15596274503E+02  0.51100000000E-03 0. -1.
        -11    1    3    3    0    0  0.82177468670E+01  0.14587529100E+02 -0.24231281605E+02  0.29453053785E+02  0.51100000000E-03 0.  1.
         12    1    3    3    0    0  0.26943717039E+01 -0.33562668840E+01 -0.33913319694E+01  0.54795345424E+01  0.00000000000E+00 0. -1.
</event>
<event>
 7    1  0.9953837E-014  0.5052885E+02  0.7816164E-02  0.1300439E+00
        -11   -1    0    0    0    0  0.00000000000E+00  0.00000000000E+00  0.45593999997E+02  0.45594000000E+02  0.51100000000E-03 0. -1.
         11   -1    0    0    0    0 -0.00000000000E+00 -0.00000000000E+00 -0.45593999997E+02  0.45594000000E+02  0.51100000000E-03 0.  1.
    9900012    2    1    2    0    0 -0.52032362614E+01  0.19149527981E+02 -0.35487858544E+02  0.50528853507E+02  0.29999980721E+02 0.  0.
         12    1    1    2    0    0  0.52032362614E+01 -0.19149527981E+02  0.35487858544E+02  0.40659146493E+02  0.00000000000E+00 0. -1.
         11    1    3    3    0    0 -0.22700665315E+00  0.23672099266E+02 -0.25547111918E+02  0.34829222547E+02  0.51100000000E-03 0. -1.
        -11    1    3    3    0    0 -0.66027060871E+00 -0.70634055157E+01 -0.65140173686E+01  0.96312033150E+01  0.51100000000E-03 0.  1.
         12    1    3    3    0    0 -0.43159589995E+01  0.25408342313E+01 -0.34267292576E+01  0.60684276449E+01  0.00000000000E+00 0. -1.
</event>
<event>
 7    1  0.9953837E-014  0.5052887E+02  0.7816164E-02  0.1300439E+00
        -11   -1    0    0    0    0  0.00000000000E+00  0.00000000000E+00  0.45593999997E+02  0.45594000000E+02  0.51100000000E-03 0. -1.
         11   -1    0    0    0    0 -0.00000000000E+00 -0.00000000000E+00 -0.45593999997E+02  0.45594000000E+02  0.51100000000E-03 0.  1.
    9900012    2    1    2    0    0  0.26453910669E+02  0.13029712765E+02  0.27992542826E+02  0.50528865008E+02  0.30000015678E+02 0.  0.
        -12    1    1    2    0    0 -0.26453910669E+02 -0.13029712765E+02 -0.27992542826E+02  0.40659134992E+02  0.00000000000E+00 0.  1.
         11    1    3    3    0    0  0.36294254831E+00  0.11373686741E+02  0.12236383503E+02  0.16709923963E+02  0.51100000000E-03 0. -1.
        -11    1    3    3    0    0 -0.67801603265E+00  0.21074121375E+01  0.40147579172E+01  0.45846671692E+01  0.51100000000E-03 0.  1.
         12    1    3    3    0    0  0.26768984154E+02 -0.45138611323E+00  0.11741401406E+02  0.29234273875E+02  0.00000000000E+00 0. -1.
</event>
<event>
 7    1  0.9953837E-014  0.5052886E+02  0.7816164E-02  0.1300439E+00
        -11   -1    0    0    0    0  0.00000000000E+00  0.00000000000E+00  0.45593999997E+02  0.45594000000E+02  0.51100000000E-03 0.  1.
         11   -1    0    0    0    0 -0.00000000000E+00 -0.00000000000E+00 -0.45593999997E+02  0.45594000000E+02  0.51100000000E-03 0. -1.
    9900012    2    1    2    0    0 -0.26134829492E+02 -0.27607217390E+02 -0.14421435734E+02  0.50528861135E+02  0.30000003907E+02 0.  0.
         12    1    1    2    0    0  0.26134829492E+02  0.27607217390E+02  0.14421435734E+02  0.40659138865E+02  0.00000000000E+00 0. -1.
         11    1    3    3    0    0 -0.12172483379E+02 -0.96715431547E+00 -0.15271673048E+02  0.19553228302E+02  0.51100000000E-03 0. -1.
        -11    1    3    3    0    0 -0.11879289359E+02 -0.21411461131E+02 -0.21809550688E+01  0.24583017485E+02  0.51100000000E-03 0.  1.
         12    1    3    3    0    0 -0.20830567537E+01 -0.52286019443E+01  0.30311923822E+01  0.63926153481E+01  0.00000000000E+00 0. -1.
</event>
<event>
 7    1  0.9953837E-014  0.5052887E+02  0.7816164E-02  0.1300439E+00
        -11   -1    0    0    0    0  0.00000000000E+00  0.00000000000E+00  0.45593999997E+02  0.45594000000E+02  0.51100000000E-03 0. -1.
         11   -1    0    0    0    0 -0.00000000000E+00 -0.00000000000E+00 -0.45593999997E+02  0.45594000000E+02  0.51100000000E-03 0.  1.
    9900012    2    1    2    0    0 -0.19334902994E+02 -0.17022973376E+02 -0.31457031779E+02  0.50528868864E+02  0.30000027400E+02 0.  0.
         12    1    1    2    0    0  0.19334902994E+02  0.17022973376E+02  0.31457031779E+02  0.40659131136E+02  0.00000000000E+00 0. -1.
         11    1    3    3    0    0 -0.52777323254E+01 -0.30554596180E+01 -0.16856300650E+02  0.17925545008E+02  0.51100000000E-03 0. -1.
        -11    1    3    3    0    0 -0.78171036641E+00 -0.15495644262E+02 -0.56155046745E+01  0.16500301670E+02  0.51100000000E-03 0.  1.
         12    1    3    3    0    0 -0.13275460303E+02  0.15281305036E+01 -0.89852264543E+01  0.16103022186E+02  0.00000000000E+00 0. -1.
</event>
<event>
 7    1  0.9953837E-014  0.5052886E+02  0.7816164E-02  0.1300439E+00
        -11   -1    0    0    0    0  0.00000000000E+00  0.00000000000E+00  0.45593999997E+02  0.45594000000E+02  0.51100000000E-03 0. -1.
         11   -1    0    0    0    0 -0.00000000000E+00 -0.00000000000E+00 -0.45593999997E+02  0.45594000000E+02  0.51100000000E-03 0.  1.
    9900012    2    1    2    0    0  0.38610837863E+00 -0.36017350497E+02 -0.18861787996E+02  0.50528860033E+02  0.30000000555E+02 0.  0.
         12    1    1    2    0    0 -0.38610837863E+00  0.36017350497E+02  0.18861787996E+02  0.40659139967E+02  0.00000000000E+00 0. -1.
         11    1    3    3    0    0 -0.82018397575E+00  0.14093744353E+00 -0.52013616437E+01  0.52675163338E+01  0.51100000000E-03 0. -1.
        -11    1    3    3    0    0 -0.13919937095E+01 -0.32998844511E+02 -0.19330909693E+02  0.38269380128E+02  0.51100000000E-03 0.  1.
        -12    1    3    3    0    0  0.25982860639E+01 -0.31594434293E+01  0.56704833411E+01  0.69919635707E+01  0.00000000000E+00 0.  1.
</event>
<event>
 7    1  0.9953837E-014  0.5052885E+02  0.7816164E-02  0.1300439E+00
        -11   -1    0    0    0    0  0.00000000000E+00  0.00000000000E+00  0.45593999997E+02  0.45594000000E+02  0.51100000000E-03 0. -1.
         11   -1    0    0    0    0 -0.00000000000E+00 -0.00000000000E+00 -0.45593999997E+02  0.45594000000E+02  0.51100000000E-03 0.  1.
    9900012    2    1    2    0    0  0.31158278483E+02  0.42950331979E+01  0.25765886062E+02  0.50528849582E+02  0.29999968788E+02 0.  0.
        -12    1    1    2    0    0 -0.31158278483E+02 -0.42950331979E+01 -0.25765886062E+02  0.40659150418E+02  0.00000000000E+00 0.  1.
         11    1    3    3    0    0  0.17217822145E+02  0.14410635275E+02  0.13160035411E+02  0.26025109812E+02  0.51100000000E-03 0. -1.
        -11    1    3    3    0    0  0.14697038416E+02 -0.77013512024E+01  0.13915026462E+02  0.21655062000E+02  0.51100000000E-03 0.  1.
         12    1    3    3    0    0 -0.75658207846E+00 -0.24142508749E+01 -0.13091758108E+01  0.28486777691E+01  0.00000000000E+00 0. -1.
</event>
<event>
 7    1  0.9953837E-014  0.5052886E+02  0.7816164E-02  0.1300439E+00
        -11   -1    0    0    0    0  0.00000000000E+00  0.00000000000E+00  0.45593999997E+02  0.45594000000E+02  0.51100000000E-03 0.  1.
         11   -1    0    0    0    0 -0.00000000000E+00 -0.00000000000E+00 -0.45593999997E+02  0.45594000000E+02  0.51100000000E-03 0. -1.
    9900012    2    1    2    0    0 -0.10447674707E+02 -0.30681798695E+02 -0.24548699248E+02  0.50528864339E+02  0.30000013644E+02 0.  0.
         12    1    1    2    0    0  0.10447674707E+02  0.30681798695E+02  0.24548699248E+02  0.40659135661E+02  0.00000000000E+00 0. -1.
         11    1    3    3    0    0  0.37646627158E+01 -0.16422181233E+02 -0.22936393228E+01  0.17003573254E+02  0.51100000000E-03 0. -1.
        -11    1    3    3    0    0 -0.66954389048E+01 -0.15824735168E+02 -0.17323255337E+02  0.24399719691E+02  0.51100000000E-03 0.  1.
         12    1    3    3    0    0 -0.75168985181E+01  0.15651177055E+01 -0.49318045878E+01  0.91255713934E+01  0.00000000000E+00 0. -1.
</event>
<event>
 7    1  0.9953837E-014  0.5052886E+02  0.7816164E-02  0.1300439E+00
        -11   -1    0    0    0    0  0.00000000000E+00  0.00000000000E+00  0.45593999997E+02  0.45594000000E+02  0.51100000000E-03 0. -1.
         11   -1    0    0    0    0 -0.00000000000E+00 -0.00000000000E+00 -0.45593999997E+02  0.45594000000E+02  0.51100000000E-03 0.  1.
    9900012    2    1    2    0    0  0.23259356157E+02  0.31598409356E+02  0.10663421366E+02  0.50528859848E+02  0.29999999994E+02 0.  0.
        -12    1    1    2    0    0 -0.23259356157E+02 -0.31598409356E+02 -0.10663421366E+02  0.40659140152E+02  0.00000000000E+00 0.  1.
         11    1    3    3    0    0  0.19320549867E+02  0.26783896588E+02  0.17896030296E+02  0.37562330388E+02  0.51100000000E-03 0. -1.
        -11    1    3    3    0    0  0.12515270022E+01  0.67730483399E+01 -0.66813638432E+01  0.95958911373E+01  0.51100000000E-03 0.  1.
        -12    1    3    3    0    0  0.26872792875E+01 -0.19585355714E+01 -0.55124508665E+00  0.33706383222E+01  0.00000000000E+00 0.  1.
</event>
<event>
 7    1  0.9953837E-014  0.5052884E+02  0.7816164E-02  0.1300439E+00
        -11   -1    0    0    0    0  0.00000000000E+00  0.00000000000E+00  0.45593999997E+02  0.45594000000E+02  0.51100000000E-03 0. -1.
         11   -1    0    0    0    0 -0.00000000000E+00 -0.00000000000E+00 -0.45593999997E+02  0.45594000000E+02  0.51100000000E-03 0.  1.
    9900012    2    1    2    0    0  0.27486342120E+02  0.81774634016E+01  0.28823557566E+02  0.50528838897E+02  0.29999936311E+02 0.  0.
        -12    1    1    2    0    0 -0.27486342120E+02 -0.81774634016E+01 -0.28823557566E+02  0.40659161103E+02  0.00000000000E+00 0.  1.
         11    1    3    3    0    0  0.24555592498E+02  0.30755414288E+01  0.13748623857E+02  0.28310081883E+02  0.51100000000E-03 0. -1.
        -11    1    3    3    0    0  0.37902600454E+01  0.21139072393E+01  0.17653699861E+02  0.18179323257E+02  0.51100000000E-03 0.  1.
        -12    1    3    3    0    0 -0.85951042333E+00  0.29880147334E+01 -0.25787661515E+01  0.40394337573E+01  0.00000000000E+00 0.  1.
</event>
<event>
 7    1  0.9953837E-014  0.5052886E+02  0.7816164E-02  0.1300439E+00
        -11   -1    0    0    0    0  0.00000000000E+00  0.00000000000E+00  0.45593999997E+02  0.45594000000E+02  0.51100000000E-03 0. -1.
         11   -1    0    0    0    0 -0.00000000000E+00 -0.00000000000E+00 -0.45593999997E+02  0.45594000000E+02  0.51100000000E-03 0.  1.
    9900012    2    1    2    0    0 -0.10840198222E+02  0.20166871523E+02 -0.33599893391E+02  0.50528862768E+02  0.30000008871E+02 0.  0.
         12    1    1    2    0    0  0.10840198222E+02 -0.20166871523E+02  0.33599893391E+02  0.40659137232E+02  0.00000000000E+00 0. -1.
         11    1    3    3    0    0 -0.98232706285E+01  0.30144456128E+01  0.22158405167E+00  0.10277773492E+02  0.51100000000E-03 0. -1.
        -11    1    3    3    0    0  0.18038396926E+01  0.62628332911E+00 -0.14688630112E+02  0.14812222091E+02  0.51100000000E-03 0.  1.
         12    1    3    3    0    0 -0.28207672863E+01  0.16526142581E+02 -0.19132847330E+02  0.25438867185E+02  0.00000000000E+00 0. -1.
</event>
<event>
 7    1  0.9953837E-014  0.5052885E+02  0.7816164E-02  0.1300439E+00
        -11   -1    0    0    0    0  0.00000000000E+00  0.00000000000E+00  0.45593999997E+02  0.45594000000E+02  0.51100000000E-03 0. -1.
         11   -1    0    0    0    0 -0.00000000000E+00 -0.00000000000E+00 -0.45593999997E+02  0.45594000000E+02  0.51100000000E-03 0.  1.
    9900012    2    1    2    0    0  0.20906385518E+01 -0.14871675842E+02  0.37783979336E+02  0.50528848430E+02  0.29999965288E+02 0.  0.
        -12    1    1    2    0    0 -0.20906385518E+01  0.14871675842E+02 -0.37783979336E+02  0.40659151570E+02  0.00000000000E+00 0.  1.
         11    1    3    3    0    0 -0.39600689632E+01 -0.37815503764E+00 -0.29394810020E+01  0.49462810522E+01  0.51100000000E-03 0. -1.
        -11    1    3    3    0    0  0.38632781478E+01 -0.61550624008E+01  0.49687481380E+01  0.88033044662E+01  0.51100000000E-03 0.  1.
         12    1    3    3    0    0  0.21874293673E+01 -0.83384584039E+01  0.35754712200E+02  0.36779262912E+02  0.00000000000E+00 0. -1.
</event>
<event>
 7    1  0.9953837E-014  0.5052886E+02  0.7816164E-02  0.1300439E+00
        -11   -1    0    0    0    0  0.00000000000E+00  0.00000000000E+00  0.45593999997E+02  0.45594000000E+02  0.51100000000E-03 0. -1.
         11   -1    0    0    0    0 -0.00000000000E+00 -0.00000000000E+00 -0.45593999997E+02  0.45594000000E+02  0.51100000000E-03 0.  1.
    9900012    2    1    2    0    0  0.55791031673E+00  0.30005563061E+02  0.27432108727E+02  0.50528859973E+02  0.30000000373E+02 0.  0.
        -12    1    1    2    0    0 -0.55791031673E+00 -0.30005563061E+02 -0.27432108727E+02  0.40659140027E+02  0.00000000000E+00 0.  1.
         11    1    3    3    0    0  0.20415078924E+01  0.59031034048E+00 -0.43484642430E+01  0.48399754449E+01  0.51100000000E-03 0. -1.
        -11    1    3    3    0    0  0.63849388150E+01  0.15634141011E+02  0.14914366871E+02  0.22530693471E+02  0.51100000000E-03 0.  1.
         12    1    3    3    0    0 -0.78685363907E+01  0.13781111709E+02  0.16866206099E+02  0.23158191057E+02  0.00000000000E+00 0. -1.
</event>
<event>
 7    1  0.9953837E-014  0.5052886E+02  0.7816164E-02  0.1300439E+00
        -11   -1    0    0    0    0  0.00000000000E+00  0.00000000000E+00  0.45593999997E+02  0.45594000000E+02  0.51100000000E-03 0. -1.
         11   -1    0    0    0    0 -0.00000000000E+00 -0.00000000000E+00 -0.45593999997E+02  0.45594000000E+02  0.51100000000E-03 0.  1.
    9900012    2    1    2    0    0 -0.97639982727E+01  0.31009744636E+02 -0.24417735565E+02  0.50528859148E+02  0.29999997867E+02 0.  0.
         12    1    1    2    0    0  0.97639982727E+01 -0.31009744636E+02  0.24417735565E+02  0.40659140852E+02  0.00000000000E+00 0. -1.
         11    1    3    3    0    0 -0.38193560032E+00  0.97361611597E+00 -0.10925615126E+02  0.10975557812E+02  0.51100000000E-03 0. -1.
        -11    1    3    3    0    0 -0.61075767391E+01  0.32453574014E+02 -0.11135958290E+02  0.34850344722E+02  0.51100000000E-03 0.  1.
        -12    1    3    3    0    0 -0.32744859333E+01 -0.24174454941E+01 -0.23561621489E+01  0.47029566144E+01  0.00000000000E+00 0.  1.
</event>
<event>
 7    1  0.9953837E-014  0.5052895E+02  0.7816164E-02  0.1300438E+00
        -11   -1    0    0    0    0  0.00000000000E+00  0.00000000000E+00  0.45593999997E+02  0.45594000000E+02  0.51100000000E-03 0. -1.
         11   -1    0    0    0    0 -0.00000000000E+00 -0.00000000000E+00 -0.45593999997E+02  0.45594000000E+02  0.51100000000E-03 0.  1.
    9900012    2    1    2    0    0 -0.17170026109E+02 -0.12330899461E+02  0.34731796970E+02  0.50528946902E+02  0.30000264601E+02 0.  0.
        -12    1    1    2    0    0  0.17170026109E+02  0.12330899461E+02 -0.34731796970E+02  0.40659053098E+02  0.00000000000E+00 0.  1.
         11    1    3    3    0    0 -0.36609917489E+00  0.20948766224E+01  0.17188542801E+02  0.17319599896E+02  0.51100000000E-03 0. -1.
        -11    1    3    3    0    0 -0.14247884143E+02 -0.11002313052E+02  0.32516439323E+01  0.18292793214E+02  0.51100000000E-03 0.  1.
        -12    1    3    3    0    0 -0.25560427911E+01 -0.34234630306E+01  0.14291610237E+02  0.14916553792E+02  0.00000000000E+00 0.  1.
</event>
<event>
 7    1  0.9953837E-014  0.5052888E+02  0.7816164E-02  0.1300439E+00
        -11   -1    0    0    0    0  0.00000000000E+00  0.00000000000E+00  0.45593999997E+02  0.45594000000E+02  0.51100000000E-03 0. -1.
         11   -1    0    0    0    0 -0.00000000000E+00 -0.00000000000E+00 -0.45593999997E+02  0.45594000000E+02  0.51100000000E-03 0.  1.
    9900012    2    1    2    0    0 -0.14752845516E+02  0.15715718502E+02 -0.34475112533E+02  0.50528884872E+02  0.30000076056E+02 0.  0.
         12    1    1    2    0    0  0.14752845516E+02 -0.15715718502E+02  0.34475112533E+02  0.40659115128E+02  0.00000000000E+00 0. -1.
         11    1    3    3    0    0 -0.77888917410E+01  0.11393954216E+02 -0.51309180077E+01  0.14724651001E+02  0.51100000000E-03 0. -1.
        -11    1    3    3    0    0 -0.26544745477E+01 -0.68164153195E+01 -0.17576414746E+02  0.19037859873E+02  0.51100000000E-03 0.  1.
        -12    1    3    3    0    0 -0.43094792273E+01  0.11138179605E+02 -0.11767779779E+02  0.16766373998E+02  0.00000000000E+00 0.  1.
</event>
<event>
 7    1  0.9953837E-014  0.5052886E+02  0.7816164E-02  0.1300439E+00
        -11   -1    0    0    0    0  0.00000000000E+00  0.00000000000E+00  0.45593999997E+02  0.45594000000E+02  0.51100000000E-03 0. -1.
         11   -1    0    0    0    0 -0.00000000000E+00 -0.00000000000E+00 -0.45593999997E+02  0.45594000000E+02  0.51100000000E-03 0.  1.
    9900012    2    1    2    0    0  0.11752398375E+02  0.60922609262E+01 -0.38443868094E+02  0.50528861977E+02  0.30000006464E+02 0.  0.
         12    1    1    2    0    0 -0.11752398375E+02 -0.60922609262E+01  0.38443868094E+02  0.40659138023E+02  0.00000000000E+00 0. -1.
         11    1    3    3    0    0  0.45241609106E+00  0.14410466951E+02 -0.13577110444E+02  0.19804145181E+02  0.51100000000E-03 0. -1.
        -11    1    3    3    0    0  0.27653095811E+01 -0.78060261439E+01 -0.17800534276E+02  0.19632625958E+02  0.51100000000E-03 0.  1.
         12    1    3    3    0    0  0.85346727031E+01 -0.51217988137E+00 -0.70662233745E+01  0.11092090838E+02  0.00000000000E+00 0. -1.
</event>
<event>
 7    1  0.9953837E-014  0.5052884E+02  0.7816164E-02  0.1300439E+00
        -11   -1    0    0    0    0  0.00000000000E+00  0.00000000000E+00  0.45593999997E+02  0.45594000000E+02  0.51100000000E-03 0. -1.
         11   -1    0    0    0    0 -0.00000000000E+00 -0.00000000000E+00 -0.45593999997E+02  0.45594000000E+02  0.51100000000E-03 0.  1.
    9900012    2    1    2    0    0  0.33254583453E+02 -0.13910458271E+02 -0.18809555179E+02  0.50528836998E+02  0.29999930540E+02 0.  0.
         12    1    1    2    0    0 -0.33254583453E+02  0.13910458271E+02  0.18809555179E+02  0.40659163002E+02  0.00000000000E+00 0. -1.
         11    1    3    3    0    0  0.36535514815E+01  0.28615837012E+01 -0.40210046001E+00  0.46581954390E+01  0.51100000000E-03 0. -1.
        -11    1    3    3    0    0  0.26010822211E+02 -0.14951420220E+02 -0.24386512598E+02  0.38662770666E+02  0.51100000000E-03 0.  1.
        -12    1    3    3    0    0  0.35902097608E+01 -0.18206217526E+01  0.59790578787E+01  0.72078708929E+01  0.00000000000E+00 0.  1.
</event>
<event>
 7    1  0.9953837E-014  0.5052887E+02  0.7816164E-02  0.1300439E+00
        -11   -1    0    0    0    0  0.00000000000E+00  0.00000000000E+00  0.45593999997E+02  0.45594000000E+02  0.51100000000E-03 0. -1.
         11   -1    0    0    0    0 -0.00000000000E+00 -0.00000000000E+00 -0.45593999997E+02  0.45594000000E+02  0.51100000000E-03 0.  1.
    9900012    2    1    2    0    0 -0.30876710876E+02 -0.54169880032E+01  0.25893041530E+02  0.50528872694E+02  0.30000039042E+02 0.  0.
        -12    1    1    2    0    0  0.30876710876E+02  0.54169880032E+01 -0.25893041530E+02  0.40659127306E+02  0.00000000000E+00 0.  1.
         11    1    3    3    0    0 -0.10965901095E+02  0.48826639443E+01  0.22429239018E+02  0.25439382013E+02  0.51100000000E-03 0. -1.
        -11    1    3    3    0    0 -0.19230960486E+02 -0.96908345742E+01  0.60323647992E+01  0.22363620934E+02  0.51100000000E-03 0.  1.
         12    1    3    3    0    0 -0.67984929580E+00 -0.60881737326E+00 -0.25685622869E+01  0.27258697476E+01  0.00000000000E+00 0. -1.
</event>
<event>
 7    1  0.9953837E-014  0.5052894E+02  0.7816164E-02  0.1300439E+00
        -11   -1    0    0    0    0  0.00000000000E+00  0.00000000000E+00  0.45593999997E+02  0.45594000000E+02  0.51100000000E-03 0. -1.
         11   -1    0    0    0    0 -0.00000000000E+00 -0.00000000000E+00 -0.45593999997E+02  0.45594000000E+02  0.51100000000E-03 0.  1.
    9900012    2    1    2    0    0  0.13414118591E+02 -0.25052127604E+02 -0.29079405516E+02  0.50528935817E+02  0.30000230910E+02 0.  0.
         12    1    1    2    0    0 -0.13414118591E+02  0.25052127604E+02  0.29079405516E+02  0.40659064183E+02  0.00000000000E+00 0. -1.
         11    1    3    3    0    0  0.84009723303E+01 -0.17006040767E+02 -0.95139232654E+00  0.18991758904E+02  0.51100000000E-03 0. -1.
        -11    1    3    3    0    0  0.79661195452E+01 -0.53032070790E+01 -0.23648400070E+02  0.25511367899E+02  0.51100000000E-03 0.  1.
        -12    1    3    3    0    0 -0.29529732840E+01 -0.27428797580E+01 -0.44796131189E+01  0.60258090144E+01  0.00000000000E+00 0.  1.
</event>
<event>
 7    1  0.9953837E-014  0.5052886E+02  0.7816164E-02  0.1300439E+00
        -11   -1    0    0    0    0  0.00000000000E+00  0.00000000000E+00  0.45593999997E+02  0.45594000000E+02  0.51100000000E-03 0. -1.
         11   -1    0    0    0    0 -0.00000000000E+00 -0.00000000000E+00 -0.45593999997E+02  0.45594000000E+02  0.51100000000E-03 0.  1.
    9900012    2    1    2    0    0 -0.51975644200E+01 -0.16914337191E+02 -0.36606778667E+02  0.50528859295E+02  0.29999998314E+02 0.  0.
         12    1    1    2    0    0  0.51975644200E+01  0.16914337191E+02  0.36606778667E+02  0.40659140705E+02  0.00000000000E+00 0. -1.
         11    1    3    3    0    0 -0.10337907188E+02 -0.12499222132E+02 -0.96786710844E+01  0.18888609085E+02  0.51100000000E-03 0. -1.
        -11    1    3    3    0    0  0.65045170812E+01  0.41367723029E+01 -0.15402208565E+02  0.17223520444E+02  0.51100000000E-03 0.  1.
        -12    1    3    3    0    0 -0.13641743128E+01 -0.85518873613E+01 -0.11525899017E+02  0.14416729766E+02  0.00000000000E+00 0.  1.
</event>
<event>
 7    1  0.9953837E-014  0.5052890E+02  0.7816164E-02  0.1300439E+00
        -11   -1    0    0    0    0  0.00000000000E+00  0.00000000000E+00  0.45593999997E+02  0.45594000000E+02  0.51100000000E-03 0. -1.
         11   -1    0    0    0    0 -0.00000000000E+00 -0.00000000000E+00 -0.45593999997E+02  0.45594000000E+02  0.51100000000E-03 0.  1.
    9900012    2    1    2    0    0  0.17613799138E+02  0.15880042085E+02  0.33026359174E+02  0.50528904375E+02  0.30000135339E+02 0.  0.
        -12    1    1    2    0    0 -0.17613799138E+02 -0.15880042085E+02 -0.33026359174E+02  0.40659095625E+02  0.00000000000E+00 0.  1.
         11    1    3    3    0    0  0.94881510044E+01  0.18518321993E+01  0.12893506637E+02  0.16115111096E+02  0.51100000000E-03 0. -1.
        -11    1    3    3    0    0  0.72068426517E+00  0.15597612735E+02  0.33026160142E+01  0.15959704935E+02  0.51100000000E-03 0.  1.
        -12    1    3    3    0    0  0.74049638686E+01 -0.15694028486E+01  0.16830236523E+02  0.18454088344E+02  0.00000000000E+00 0.  1.
</event>
<event>
 7    1  0.9953837E-014  0.5052887E+02  0.7816164E-02  0.1300439E+00
        -11   -1    0    0    0    0  0.00000000000E+00  0.00000000000E+00  0.45593999997E+02  0.45594000000E+02  0.51100000000E-03 0. -1.
         11   -1    0    0    0    0 -0.00000000000E+00 -0.00000000000E+00 -0.45593999997E+02  0.45594000000E+02  0.51100000000E-03 0.  1.
    9900012    2    1    2    0    0 -0.11098648477E+02  0.20134836124E+02 -0.33534658251E+02  0.50528869072E+02  0.30000028032E+02 0.  0.
         12    1    1    2    0    0  0.11098648477E+02 -0.20134836124E+02  0.33534658251E+02  0.40659130928E+02  0.00000000000E+00 0. -1.
         11    1    3    3    0    0 -0.43513534212E+01  0.22198256282E+02 -0.28501827275E+02  0.36387511825E+02  0.51100000000E-03 0. -1.
        -11    1    3    3    0    0 -0.86900734267E+01 -0.34976248387E+01 -0.64200981197E+01  0.11356426190E+02  0.51100000000E-03 0.  1.
        -12    1    3    3    0    0  0.19427783705E+01  0.14342046812E+01  0.13872671437E+01  0.27849310571E+01  0.00000000000E+00 0.  1.
</event>
<event>
 7    1  0.9953837E-014  0.5052887E+02  0.7816164E-02  0.1300439E+00
        -11   -1    0    0    0    0  0.00000000000E+00  0.00000000000E+00  0.45593999997E+02  0.45594000000E+02  0.51100000000E-03 0. -1.
         11   -1    0    0    0    0 -0.00000000000E+00 -0.00000000000E+00 -0.45593999997E+02  0.45594000000E+02  0.51100000000E-03 0.  1.
    9900012    2    1    2    0    0  0.15689995085E+02  0.24577890973E+02  0.28335774633E+02  0.50528870712E+02  0.30000033015E+02 0.  0.
        -12    1    1    2    0    0 -0.15689995085E+02 -0.24577890973E+02 -0.28335774633E+02  0.40659129288E+02  0.00000000000E+00 0.  1.
         11    1    3    3    0    0  0.80884676574E+01  0.13404375860E+02  0.18399772307E+02  0.24158895307E+02  0.51100000000E-03 0. -1.
        -11    1    3    3    0    0  0.30015533702E+01 -0.27137490407E+01 -0.43369081288E+01  0.59314862276E+01  0.51100000000E-03 0.  1.
        -12    1    3    3    0    0  0.45999740576E+01  0.13887264153E+02  0.14272910455E+02  0.20438489177E+02  0.00000000000E+00 0.  1.
</event>
<event>
 7    1  0.9953837E-014  0.5052886E+02  0.7816164E-02  0.1300439E+00
        -11   -1    0    0    0    0  0.00000000000E+00  0.00000000000E+00  0.45593999997E+02  0.45594000000E+02  0.51100000000E-03 0. -1.
         11   -1    0    0    0    0 -0.00000000000E+00 -0.00000000000E+00 -0.45593999997E+02  0.45594000000E+02  0.51100000000E-03 0.  1.
    9900012    2    1    2    0    0 -0.11110271600E+02  0.24376942426E+02  0.30585820775E+02  0.50528857245E+02  0.29999992083E+02 0.  0.
        -12    1    1    2    0    0  0.11110271600E+02 -0.24376942426E+02 -0.30585820775E+02  0.40659142755E+02  0.00000000000E+00 0.  1.
         11    1    3    3    0    0 -0.58036646442E+01  0.11735992330E+02  0.33363145397E+02  0.35840138257E+02  0.51100000000E-03 0. -1.
        -11    1    3    3    0    0 -0.41636139928E+01  0.42345012333E+01 -0.12439936978E+01  0.60674708699E+01  0.51100000000E-03 0.  1.
         12    1    3    3    0    0 -0.11429929634E+01  0.84064488626E+01 -0.15333309241E+01  0.86212481183E+01  0.00000000000E+00 0. -1.
</event>
<event>
 7    1  0.9953837E-014  0.5052886E+02  0.7816164E-02  0.1300439E+00
        -11   -1    0    0    0    0  0.00000000000E+00  0.00000000000E+00  0.45593999997E+02  0.45594000000E+02  0.51100000000E-03 0. -1.
         11   -1    0    0    0    0 -0.00000000000E+00 -0.00000000000E+00 -0.45593999997E+02  0.45594000000E+02  0.51100000000E-03 0.  1.
    9900012    2    1    2    0    0  0.22372048548E+02  0.17729356544E+02  0.28953881636E+02  0.50528857099E+02  0.29999991638E+02 0.  0.
        -12    1    1    2    0    0 -0.22372048548E+02 -0.17729356544E+02 -0.28953881636E+02  0.40659142901E+02  0.00000000000E+00 0.  1.
         11    1    3    3    0    0  0.90777027367E+00  0.97551680852E+01  0.16336485915E+02  0.19049097710E+02  0.51100000000E-03 0. -1.
        -11    1    3    3    0    0  0.23515421625E+02  0.36089232620E+01  0.11908714356E+02  0.26604827742E+02  0.51100000000E-03 0.  1.
        -12    1    3    3    0    0 -0.20511433514E+01  0.43652651965E+01  0.70868136471E+00  0.48749316467E+01  0.00000000000E+00 0.  1.
</event>
<event>
 7    1  0.9953837E-014  0.5052885E+02  0.7816164E-02  0.1300439E+00
        -11   -1    0    0    0    0  0.00000000000E+00  0.00000000000E+00  0.45593999997E+02  0.45594000000E+02  0.51100000000E-03 0. -1.
         11   -1    0    0    0    0 -0.00000000000E+00 -0.00000000000E+00 -0.45593999997E+02  0.45594000000E+02  0.51100000000E-03 0.  1.
    9900012    2    1    2    0    0  0.37267591903E+02  0.72490686014E+00 -0.16240928223E+02  0.50528847946E+02  0.29999963816E+02 0.  0.
         12    1    1    2    0    0 -0.37267591903E+02 -0.72490686014E+00  0.16240928223E+02  0.40659152054E+02  0.00000000000E+00 0. -1.
         11    1    3    3    0    0  0.86853678098E+01 -0.24785360818E+00 -0.58924052212E+01  0.10498451550E+02  0.51100000000E-03 0.  1.
        -11    1    3    3    0    0  0.19452784667E+02  0.71181299793E+01  0.48417598567E+01  0.21272546733E+02  0.51100000000E-03 0. -1.
        -12    1    3    3    0    0  0.91294394259E+01 -0.61453695110E+01 -0.15190282859E+02  0.18757849663E+02  0.00000000000E+00 0.  1.
</event>
<event>
 7    1  0.9953837E-014  0.5052887E+02  0.7816164E-02  0.1300439E+00
        -11   -1    0    0    0    0  0.00000000000E+00  0.00000000000E+00  0.45593999997E+02  0.45594000000E+02  0.51100000000E-03 0. -1.
         11   -1    0    0    0    0 -0.00000000000E+00 -0.00000000000E+00 -0.45593999997E+02  0.45594000000E+02  0.51100000000E-03 0.  1.
    9900012    2    1    2    0    0  0.21579062219E+02 -0.13854827822E+02 -0.31552385434E+02  0.50528865641E+02  0.30000017603E+02 0.  0.
         12    1    1    2    0    0 -0.21579062219E+02  0.13854827822E+02  0.31552385434E+02  0.40659134359E+02  0.00000000000E+00 0. -1.
         11    1    3    3    0    0 -0.45819396280E+01 -0.34554687489E+01  0.53449234515E+00  0.57636895612E+01  0.51100000000E-03 0. -1.
        -11    1    3    3    0    0  0.24396967612E+02 -0.42385065898E+01 -0.24504920399E+02  0.34837739461E+02  0.51100000000E-03 0.  1.
         12    1    3    3    0    0  0.17640342355E+01 -0.61608524830E+01 -0.75819573803E+01  0.99274366187E+01  0.00000000000E+00 0. -1.
</event>
<event>
 7    1  0.9953837E-014  0.5052887E+02  0.7816164E-02  0.1300439E+00
        -11   -1    0    0    0    0  0.00000000000E+00  0.00000000000E+00  0.45593999997E+02  0.45594000000E+02  0.51100000000E-03 0. -1.
         11   -1    0    0    0    0 -0.00000000000E+00 -0.00000000000E+00 -0.45593999997E+02  0.45594000000E+02  0.51100000000E-03 0.  1.
    9900012    2    1    2    0    0  0.76342197884E+01  0.21749197825E+02 -0.33494120245E+02  0.50528868076E+02  0.30000025005E+02 0.  0.
         12    1    1    2    0    0 -0.76342197884E+01 -0.21749197825E+02  0.33494120245E+02  0.40659131924E+02  0.00000000000E+00 0. -1.
         11    1    3    3    0    0 -0.13298089228E+01  0.12358679722E+02 -0.32441970501E+02  0.34741715652E+02  0.51100000000E-03 0. -1.
        -11    1    3    3    0    0  0.10429996922E+02  0.88353864669E+01 -0.21987908262E+01  0.13844983611E+02  0.51100000000E-03 0.  1.
         12    1    3    3    0    0 -0.14659682112E+01  0.55513163549E+00  0.11466410819E+01  0.19421688134E+01  0.00000000000E+00 0. -1.
</event>
<event>
 7    1  0.9953837E-014  0.5052886E+02  0.7816164E-02  0.1300439E+00
        -11   -1    0    0    0    0  0.00000000000E+00  0.00000000000E+00  0.45593999997E+02  0.45594000000E+02  0.51100000000E-03 0. -1.
         11   -1    0    0    0    0 -0.00000000000E+00 -0.00000000000E+00 -0.45593999997E+02  0.45594000000E+02  0.51100000000E-03 0.  1.
    9900012    2    1    2    0    0 -0.38314998857E+02  0.12996776202E+02  0.40262234048E+01  0.50528858298E+02  0.29999995282E+02 0.  0.
        -12    1    1    2    0    0  0.38314998857E+02 -0.12996776202E+02 -0.40262234048E+01  0.40659141702E+02  0.00000000000E+00 0.  1.
         11    1    3    3    0    0 -0.24964002686E+02  0.99228435698E+01  0.46871567145E+01  0.27269647833E+02  0.51100000000E-03 0. -1.
        -11    1    3    3    0    0 -0.13317069452E+01 -0.28180291775E+01  0.71227762062E+01  0.77748744670E+01  0.51100000000E-03 0.  1.
        -12    1    3    3    0    0 -0.12019289226E+02  0.58919618093E+01 -0.77837095159E+01  0.15484335998E+02  0.00000000000E+00 0.  1.
</event>
<event>
 7    1  0.9953837E-014  0.5052885E+02  0.7816164E-02  0.1300439E+00
        -11   -1    0    0    0    0  0.00000000000E+00  0.00000000000E+00  0.45593999997E+02  0.45594000000E+02  0.51100000000E-03 0.  1.
         11   -1    0    0    0    0 -0.00000000000E+00 -0.00000000000E+00 -0.45593999997E+02  0.45594000000E+02  0.51100000000E-03 0. -1.
    9900012    2    1    2    0    0  0.31066309306E+02 -0.33508572545E+01 -0.26015807856E+02  0.50528854944E+02  0.29999985089E+02 0.  0.
         12    1    1    2    0    0 -0.31066309306E+02  0.33508572545E+01  0.26015807856E+02  0.40659145056E+02  0.00000000000E+00 0. -1.
         11    1    3    3    0    0  0.31294074649E+01  0.94463104736E+01 -0.10847811716E+02  0.14720767369E+02  0.51100000000E-03 0. -1.
        -11    1    3    3    0    0  0.19639312672E+01  0.68532139993E+00 -0.39567296049E+01  0.44701678795E+01  0.51100000000E-03 0.  1.
         12    1    3    3    0    0  0.25972970574E+02 -0.13482489128E+02 -0.11211266535E+02  0.31337919696E+02  0.00000000000E+00 0. -1.
</event>
<event>
 7    1  0.9953837E-014  0.5052886E+02  0.7816164E-02  0.1300439E+00
        -11   -1    0    0    0    0  0.00000000000E+00  0.00000000000E+00  0.45593999997E+02  0.45594000000E+02  0.51100000000E-03 0.  1.
         11   -1    0    0    0    0 -0.00000000000E+00 -0.00000000000E+00 -0.45593999997E+02  0.45594000000E+02  0.51100000000E-03 0. -1.
    9900012    2    1    2    0    0 -0.29310261940E+02  0.19522440069E+01 -0.28111612343E+02  0.50528862526E+02  0.30000008133E+02 0.  0.
         12    1    1    2    0    0  0.29310261940E+02 -0.19522440069E+01  0.28111612343E+02  0.40659137474E+02  0.00000000000E+00 0. -1.
         11    1    3    3    0    0  0.74494979880E+00 -0.23977681029E+01 -0.92882830511E+01  0.96216653640E+01  0.51100000000E-03 0. -1.
        -11    1    3    3    0    0 -0.29598180557E+02  0.94852483960E+01 -0.15148362145E+02  0.34575932458E+02  0.51100000000E-03 0.  1.
        -12    1    3    3    0    0 -0.45703118159E+00 -0.51352362861E+01 -0.36749671469E+01  0.63312647035E+01  0.00000000000E+00 0.  1.
</event>
<event>
 7    1  0.9953837E-014  0.5052886E+02  0.7816164E-02  0.1300439E+00
        -11   -1    0    0    0    0  0.00000000000E+00  0.00000000000E+00  0.45593999997E+02  0.45594000000E+02  0.51100000000E-03 0. -1.
         11   -1    0    0    0    0 -0.00000000000E+00 -0.00000000000E+00 -0.45593999997E+02  0.45594000000E+02  0.51100000000E-03 0.  1.
    9900012    2    1    2    0    0  0.29020016454E+01 -0.42566242773E+01 -0.40331439696E+02  0.50528862137E+02  0.30000006952E+02 0.  0.
         12    1    1    2    0    0 -0.29020016454E+01  0.42566242773E+01  0.40331439696E+02  0.40659137863E+02  0.00000000000E+00 0. -1.
         11    1    3    3    0    0  0.16248750962E+01  0.21174382466E+01  0.40681031901E+01  0.48655141180E+01  0.51100000000E-03 0. -1.
        -11    1    3    3    0    0 -0.30812085470E+01 -0.41892710305E+00 -0.96414574365E+01  0.10130500866E+02  0.51100000000E-03 0.  1.
         12    1    3    3    0    0  0.43583350962E+01 -0.59551354209E+01 -0.34758085450E+02  0.35532847153E+02  0.00000000000E+00 0. -1.
</event>
<event>
 7    1  0.9953837E-014  0.5052886E+02  0.7816164E-02  0.1300439E+00
        -11   -1    0    0    0    0  0.00000000000E+00  0.00000000000E+00  0.45593999997E+02  0.45594000000E+02  0.51100000000E-03 0.  1.
         11   -1    0    0    0    0 -0.00000000000E+00 -0.00000000000E+00 -0.45593999997E+02  0.45594000000E+02  0.51100000000E-03 0. -1.
    9900012    2    1    2    0    0 -0.32968555384E+02  0.19915841115E+02  0.13023021932E+02  0.50528862384E+02  0.30000007702E+02 0.  0.
        -12    1    1    2    0    0  0.32968555384E+02 -0.19915841115E+02 -0.13023021932E+02  0.40659137616E+02  0.00000000000E+00 0.  1.
         11    1    3    3    0    0 -0.22691797490E+02  0.44551814825E+01  0.70549699422E+01  0.24177239638E+02  0.51100000000E-03 0. -1.
        -11    1    3    3    0    0 -0.10707471138E+02  0.19118844264E+02  0.44108433870E+01  0.22352531933E+02  0.51100000000E-03 0.  1.
         12    1    3    3    0    0  0.43071324386E+00 -0.36581846314E+01  0.15572086029E+01  0.39990908128E+01  0.00000000000E+00 0. -1.
</event>
<event>
 7    1  0.9953837E-014  0.5052886E+02  0.7816164E-02  0.1300439E+00
        -11   -1    0    0    0    0  0.00000000000E+00  0.00000000000E+00  0.45593999997E+02  0.45594000000E+02  0.51100000000E-03 0. -1.
         11   -1    0    0    0    0 -0.00000000000E+00 -0.00000000000E+00 -0.45593999997E+02  0.45594000000E+02  0.51100000000E-03 0.  1.
    9900012    2    1    2    0    0  0.27484580961E+02 -0.19995356044E+02  0.22314769583E+02  0.50528863321E+02  0.30000010551E+02 0.  0.
        -12    1    1    2    0    0 -0.27484580961E+02  0.19995356044E+02 -0.22314769583E+02  0.40659136679E+02  0.00000000000E+00 0.  1.
         11    1    3    3    0    0  0.14891670190E+02 -0.38678087096E+01  0.19537976654E+02  0.24868741771E+02  0.51100000000E-03 0.  1.
        -11    1    3    3    0    0  0.46601717741E+01 -0.15740852018E+02  0.54229739614E+01  0.17288732459E+02  0.51100000000E-03 0. -1.
        -12    1    3    3    0    0  0.79327389967E+01 -0.38669531682E+00 -0.26461810323E+01  0.83713890911E+01  0.00000000000E+00 0.  1.
</event>
<event>
 7    1  0.9953837E-014  0.5052880E+02  0.7816164E-02  0.1300439E+00
        -11   -1    0    0    0    0  0.00000000000E+00  0.00000000000E+00  0.45593999997E+02  0.45594000000E+02  0.51100000000E-03 0. -1.
         11   -1    0    0    0    0 -0.00000000000E+00 -0.00000000000E+00 -0.45593999997E+02  0.45594000000E+02  0.51100000000E-03 0.  1.
    9900012    2    1    2    0    0  0.51676610656E+01  0.26450872629E+02  0.30443669217E+02  0.50528802035E+02  0.29999824266E+02 0.  0.
        -12    1    1    2    0    0 -0.51676610656E+01 -0.26450872629E+02 -0.30443669217E+02  0.40659197965E+02  0.00000000000E+00 0.  1.
         11    1    3    3    0    0  0.85617905210E+01 -0.77195421001E+00  0.11090634173E+02  0.14032189311E+02  0.51100000000E-03 0. -1.
        -11    1    3    3    0    0 -0.34849520017E+01  0.12333041283E+02  0.17203058587E+02  0.21452133291E+02  0.51100000000E-03 0.  1.
         12    1    3    3    0    0  0.90822546305E-01  0.14889785556E+02  0.21499764570E+01  0.15044479433E+02  0.00000000000E+00 0. -1.
</event>
<event>
 7    1  0.9953837E-014  0.5052885E+02  0.7816164E-02  0.1300439E+00
        -11   -1    0    0    0    0  0.00000000000E+00  0.00000000000E+00  0.45593999997E+02  0.45594000000E+02  0.51100000000E-03 0. -1.
         11   -1    0    0    0    0 -0.00000000000E+00 -0.00000000000E+00 -0.45593999997E+02  0.45594000000E+02  0.51100000000E-03 0.  1.
    9900012    2    1    2    0    0  0.16360164098E+02  0.30144894627E+02  0.21835675645E+02  0.50528851309E+02  0.29999974039E+02 0.  0.
        -12    1    1    2    0    0 -0.16360164098E+02 -0.30144894627E+02 -0.21835675645E+02  0.40659148691E+02  0.00000000000E+00 0.  1.
         11    1    3    3    0    0  0.79245729335E+01  0.61104703460E+01  0.52929503573E+01  0.11320425247E+02  0.51100000000E-03 0. -1.
        -11    1    3    3    0    0 -0.58485456316E+01  0.18530602517E+02  0.13337758965E+02  0.23568719314E+02  0.51100000000E-03 0.  1.
        -12    1    3    3    0    0  0.14284136796E+02  0.55038217635E+01  0.32049663232E+01  0.15639706748E+02  0.00000000000E+00 0.  1.
</event>
<event>
 7    1  0.9953837E-014  0.5052886E+02  0.7816164E-02  0.1300439E+00
        -11   -1    0    0    0    0  0.00000000000E+00  0.00000000000E+00  0.45593999997E+02  0.45594000000E+02  0.51100000000E-03 0. -1.
         11   -1    0    0    0    0 -0.00000000000E+00 -0.00000000000E+00 -0.45593999997E+02  0.45594000000E+02  0.51100000000E-03 0.  1.
    9900012    2    1    2    0    0  0.46331659505E+01  0.61757014508E+01 -0.39919415889E+02  0.50528864740E+02  0.30000014864E+02 0.  0.
         12    1    1    2    0    0 -0.46331659505E+01 -0.61757014508E+01  0.39919415889E+02  0.40659135260E+02  0.00000000000E+00 0. -1.
         11    1    3    3    0    0 -0.62627319728E+01  0.13626213815E+02 -0.13438633812E+02  0.20136841701E+02  0.51100000000E-03 0. -1.
        -11    1    3    3    0    0  0.64947184554E+01 -0.77397459147E+01 -0.21390416371E+02  0.23656604731E+02  0.51100000000E-03 0.  1.
         12    1    3    3    0    0  0.44011794680E+01  0.28923355031E+00 -0.50903657061E+01  0.67354183075E+01  0.00000000000E+00 0. -1.
</event>
<event>
 7    1  0.1200799E-013  0.5052886E+02  0.7816164E-02  0.1300439E+00
        -11   -1    0    0    0    0  0.00000000000E+00  0.00000000000E+00  0.45593999997E+02  0.45594000000E+02  0.51100000000E-03 0. -1.
         11   -1    0    0    0    0 -0.00000000000E+00 -0.00000000000E+00 -0.45593999997E+02  0.45594000000E+02  0.51100000000E-03 0.  1.
    9900012    2    1    2    0    0  0.28984017380E+02 -0.11131955169E+02  0.26252077952E+02  0.50528864665E+02  0.30000014636E+02 0.  0.
        -12    1    1    2    0    0 -0.28984017380E+02  0.11131955169E+02 -0.26252077952E+02  0.40659135335E+02  0.00000000000E+00 0.  1.
         11    1    3    3    0    0  0.11669616784E+02 -0.16087856092E+02  0.13597860647E+02  0.24081131285E+02  0.51100000000E-03 0. -1.
        -11    1    3    3    0    0  0.97002330957E+00  0.64372505876E+01  0.55896820009E+01  0.85804245514E+01  0.51100000000E-03 0.  1.
         12    1    3    3    0    0  0.16344377287E+02 -0.14813496640E+01  0.70645353047E+01  0.17867308829E+02  0.00000000000E+00 0. -1.
</event>
<event>
 7    1  0.9953837E-014  0.5052885E+02  0.7816164E-02  0.1300439E+00
        -11   -1    0    0    0    0  0.00000000000E+00  0.00000000000E+00  0.45593999997E+02  0.45594000000E+02  0.51100000000E-03 0. -1.
         11   -1    0    0    0    0 -0.00000000000E+00 -0.00000000000E+00 -0.45593999997E+02  0.45594000000E+02  0.51100000000E-03 0.  1.
    9900012    2    1    2    0    0 -0.90789013573E+01  0.17035885984E+02 -0.35784335099E+02  0.50528849743E+02  0.29999969279E+02 0.  0.
         12    1    1    2    0    0  0.90789013573E+01 -0.17035885984E+02  0.35784335099E+02  0.40659150257E+02  0.00000000000E+00 0. -1.
         11    1    3    3    0    0  0.28814302204E+01  0.17587654057E+02 -0.23393323030E+02  0.29408770426E+02  0.51100000000E-03 0. -1.
        -11    1    3    3    0    0 -0.61066415128E+01  0.72952773324E+00  0.12005904833E+01  0.62661550451E+01  0.51100000000E-03 0.  1.
        -12    1    3    3    0    0 -0.58536900649E+01 -0.12812958061E+01 -0.13591602553E+02  0.14853924272E+02  0.00000000000E+00 0.  1.
</event>
<event>
 7    1  0.9953837E-014  0.5052885E+02  0.7816164E-02  0.1300439E+00
        -11   -1    0    0    0    0  0.00000000000E+00  0.00000000000E+00  0.45593999997E+02  0.45594000000E+02  0.51100000000E-03 0. -1.
         11   -1    0    0    0    0 -0.00000000000E+00 -0.00000000000E+00 -0.45593999997E+02  0.45594000000E+02  0.51100000000E-03 0.  1.
    9900012    2    1    2    0    0 -0.42561534257E+01  0.21774613405E+02 -0.34072240510E+02  0.50528853375E+02  0.29999980318E+02 0.  0.
         12    1    1    2    0    0  0.42561534257E+01 -0.21774613405E+02  0.34072240510E+02  0.40659146625E+02  0.00000000000E+00 0. -1.
         11    1    3    3    0    0  0.14105110003E+01  0.18820751766E+02 -0.33121754650E+02  0.38121658800E+02  0.51100000000E-03 0. -1.
        -11    1    3    3    0    0 -0.77645742621E+01  0.27841966811E+01  0.22741813751E+01  0.85564166460E+01  0.51100000000E-03 0.  1.
         12    1    3    3    0    0  0.20979098361E+01  0.16966495772E+00 -0.32246672349E+01  0.38507779284E+01  0.00000000000E+00 0. -1.
</event>
<event>
 7    1  0.9953837E-014  0.5052887E+02  0.7816164E-02  0.1300439E+00
        -11   -1    0    0    0    0  0.00000000000E+00  0.00000000000E+00  0.45593999997E+02  0.45594000000E+02  0.51100000000E-03 0. -1.
         11   -1    0    0    0    0 -0.00000000000E+00 -0.00000000000E+00 -0.45593999997E+02  0.45594000000E+02  0.51100000000E-03 0.  1.
    9900012    2    1    2    0    0 -0.14472208376E+02  0.15588830271E+02  0.34651238440E+02  0.50528871014E+02  0.30000033934E+02 0.  0.
        -12    1    1    2    0    0  0.14472208376E+02 -0.15588830271E+02 -0.34651238440E+02  0.40659128986E+02  0.00000000000E+00 0.  1.
         11    1    3    3    0    0 -0.17738655150E+02  0.43005821873E+01  0.72906348761E+01  0.19654725916E+02  0.51100000000E-03 0. -1.
        -11    1    3    3    0    0 -0.88795736277E+00  0.15384765111E+01  0.28599366919E+00  0.17992139654E+01  0.51100000000E-03 0.  1.
         12    1    3    3    0    0  0.41544041365E+01  0.97497715724E+01  0.27074609895E+02  0.29074931133E+02  0.00000000000E+00 0. -1.
</event>
<event>
 7    1  0.9953837E-014  0.5052887E+02  0.7816164E-02  0.1300439E+00
        -11   -1    0    0    0    0  0.00000000000E+00  0.00000000000E+00  0.45593999997E+02  0.45594000000E+02  0.51100000000E-03 0.  1.
         11   -1    0    0    0    0 -0.00000000000E+00 -0.00000000000E+00 -0.45593999997E+02  0.45594000000E+02  0.51100000000E-03 0. -1.
    9900012    2    1    2    0    0 -0.39060458070E+02  0.11077739766E+02 -0.21746022672E+01  0.50528873128E+02  0.30000040360E+02 0.  0.
        -12    1    1    2    0    0  0.39060458070E+02 -0.11077739766E+02  0.21746022672E+01  0.40659126872E+02  0.00000000000E+00 0.  1.
         11    1    3    3    0    0 -0.33280689818E+02  0.11149809854E+02  0.38650351409E+01  0.35310920003E+02  0.51100000000E-03 0. -1.
        -11    1    3    3    0    0  0.27750191844E+01  0.23114600195E+01  0.11516723933E+01  0.37907688478E+01  0.51100000000E-03 0.  1.
         12    1    3    3    0    0 -0.85547874364E+01 -0.23835301076E+01 -0.71913098014E+01  0.11427184278E+02  0.00000000000E+00 0. -1.
</event>
<event>
 7    1  0.9953837E-014  0.5052888E+02  0.7816164E-02  0.1300439E+00
        -11   -1    0    0    0    0  0.00000000000E+00  0.00000000000E+00  0.45593999997E+02  0.45594000000E+02  0.51100000000E-03 0.  1.
         11   -1    0    0    0    0 -0.00000000000E+00 -0.00000000000E+00 -0.45593999997E+02  0.45594000000E+02  0.51100000000E-03 0. -1.
    9900012    2    1    2    0    0 -0.17182865189E+01  0.38795439026E+02  0.12046793774E+02  0.50528882473E+02  0.30000068766E+02 0.  0.
         12    1    1    2    0    0  0.17182865189E+01 -0.38795439026E+02 -0.12046793774E+02  0.40659117527E+02  0.00000000000E+00 0. -1.
         11    1    3    3    0    0 -0.54210143009E+01  0.79405447419E+01 -0.46834418866E+01  0.10694590923E+02  0.51100000000E-03 0. -1.
        -11    1    3    3    0    0  0.65911669245E+01  0.22888819607E+02  0.19643320491E+02  0.30873962891E+02  0.51100000000E-03 0.  1.
        -12    1    3    3    0    0 -0.28884391425E+01  0.79660746778E+01 -0.29130848306E+01  0.89603286593E+01  0.00000000000E+00 0.  1.
</event>
<event>
 7    1  0.9953837E-014  0.5052884E+02  0.7816164E-02  0.1300439E+00
        -11   -1    0    0    0    0  0.00000000000E+00  0.00000000000E+00  0.45593999997E+02  0.45594000000E+02  0.51100000000E-03 0. -1.
         11   -1    0    0    0    0 -0.00000000000E+00 -0.00000000000E+00 -0.45593999997E+02  0.45594000000E+02  0.51100000000E-03 0.  1.
    9900012    2    1    2    0    0 -0.28257130635E+02 -0.78628809016E+01  0.28158067542E+02  0.50528842415E+02  0.29999947004E+02 0.  0.
        -12    1    1    2    0    0  0.28257130635E+02  0.78628809016E+01 -0.28158067542E+02  0.40659157585E+02  0.00000000000E+00 0.  1.
         11    1    3    3    0    0 -0.22649873832E+02 -0.11816235830E+02  0.96364092911E+01  0.27303856835E+02  0.51100000000E-03 0. -1.
        -11    1    3    3    0    0 -0.40127356792E+01  0.81995634534E+01  0.97914943680E+01  0.13386868591E+02  0.51100000000E-03 0.  1.
        -12    1    3    3    0    0 -0.15945211242E+01 -0.42462085249E+01  0.87301638832E+01  0.98381169885E+01  0.00000000000E+00 0.  1.
</event>
<event>
 7    1  0.9953837E-014  0.5052886E+02  0.7816164E-02  0.1300439E+00
        -11   -1    0    0    0    0  0.00000000000E+00  0.00000000000E+00  0.45593999997E+02  0.45594000000E+02  0.51100000000E-03 0. -1.
         11   -1    0    0    0    0 -0.00000000000E+00 -0.00000000000E+00 -0.45593999997E+02  0.45594000000E+02  0.51100000000E-03 0.  1.
    9900012    2    1    2    0    0  0.62596981100E+01  0.20282769695E+02 -0.34678398310E+02  0.50528857409E+02  0.29999992579E+02 0.  0.
         12    1    1    2    0    0 -0.62596981100E+01 -0.20282769695E+02  0.34678398310E+02  0.40659142591E+02  0.00000000000E+00 0. -1.
         11    1    3    3    0    0 -0.65283150605E+01 -0.14699988041E+01 -0.24997217888E+01  0.71434167802E+01  0.51100000000E-03 0. -1.
        -11    1    3    3    0    0  0.11676442785E+02  0.12180113701E+02 -0.11067798072E+02  0.20178965293E+02  0.51100000000E-03 0.  1.
        -12    1    3    3    0    0  0.11115703859E+01  0.95726547983E+01 -0.21110878449E+02  0.23206475335E+02  0.00000000000E+00 0.  1.
</event>
<event>
 7    1  0.9953837E-014  0.5052883E+02  0.7816164E-02  0.1300439E+00
        -11   -1    0    0    0    0  0.00000000000E+00  0.00000000000E+00  0.45593999997E+02  0.45594000000E+02  0.51100000000E-03 0. -1.
         11   -1    0    0    0    0 -0.00000000000E+00 -0.00000000000E+00 -0.45593999997E+02  0.45594000000E+02  0.51100000000E-03 0.  1.
    9900012    2    1    2    0    0 -0.60182002805E+01 -0.19141322672E+02  0.35363240899E+02  0.50528834057E+02  0.29999921601E+02 0.  0.
        -12    1    1    2    0    0  0.60182002805E+01  0.19141322672E+02 -0.35363240899E+02  0.40659165943E+02  0.00000000000E+00 0.  1.
         11    1    3    3    0    0 -0.43892802132E+01 -0.15601093962E+02  0.33874039203E+02  0.37551437333E+02  0.51100000000E-03 0. -1.
        -11    1    3    3    0    0 -0.11562963939E+01  0.41866467359E+01 -0.16191117060E+01  0.46353592331E+01  0.51100000000E-03 0.  1.
        -12    1    3    3    0    0 -0.47262367337E+00 -0.77268754466E+01  0.31083134025E+01  0.83420374917E+01  0.00000000000E+00 0.  1.
</event>
<event>
 7    1  0.9953837E-014  0.5052881E+02  0.7816164E-02  0.1300439E+00
        -11   -1    0    0    0    0  0.00000000000E+00  0.00000000000E+00  0.45593999997E+02  0.45594000000E+02  0.51100000000E-03 0.  1.
         11   -1    0    0    0    0 -0.00000000000E+00 -0.00000000000E+00 -0.45593999997E+02  0.45594000000E+02  0.51100000000E-03 0. -1.
    9900012    2    1    2    0    0 -0.23712738774E+02  0.32982333287E+02 -0.17440322722E+01  0.50528807463E+02  0.29999840764E+02 0.  0.
         12    1    1    2    0    0  0.23712738774E+02 -0.32982333287E+02  0.17440322722E+01  0.40659192537E+02  0.00000000000E+00 0. -1.
         11    1    3    3    0    0 -0.24042454461E+02  0.23988443245E+02  0.57158257909E+01  0.34440611066E+02  0.51100000000E-03 0. -1.
        -11    1    3    3    0    0  0.16753842973E+01  0.75113612362E+01  0.66089680216E+00  0.77242633959E+01  0.51100000000E-03 0.  1.
         12    1    3    3    0    0 -0.13456686101E+01  0.14825288052E+01 -0.81207548653E+01  0.83639330012E+01  0.00000000000E+00 0. -1.
</event>
<event>
 7    1  0.9953837E-014  0.5052886E+02  0.7816164E-02  0.1300439E+00
        -11   -1    0    0    0    0  0.00000000000E+00  0.00000000000E+00  0.45593999997E+02  0.45594000000E+02  0.51100000000E-03 0. -1.
         11   -1    0    0    0    0 -0.00000000000E+00 -0.00000000000E+00 -0.45593999997E+02  0.45594000000E+02  0.51100000000E-03 0.  1.
    9900012    2    1    2    0    0  0.95271338626E+01  0.55992367207E+00  0.39523232498E+02  0.50528859561E+02  0.29999999122E+02 0.  0.
        -12    1    1    2    0    0 -0.95271338626E+01 -0.55992367207E+00 -0.39523232498E+02  0.40659140439E+02  0.00000000000E+00 0.  1.
         11    1    3    3    0    0  0.93741188618E+00  0.12302483762E+02  0.20676773795E+02  0.24078181463E+02  0.51100000000E-03 0.  1.
        -11    1    3    3    0    0  0.53439048715E+01 -0.10262276719E+02  0.19641196379E+02  0.22795794309E+02  0.51100000000E-03 0. -1.
        -12    1    3    3    0    0  0.32458171049E+01 -0.14802833704E+01 -0.79473767568E+00  0.36548837886E+01  0.00000000000E+00 0.  1.
</event>
<event>
 7    1  0.9953837E-014  0.5052887E+02  0.7816164E-02  0.1300439E+00
        -11   -1    0    0    0    0  0.00000000000E+00  0.00000000000E+00  0.45593999997E+02  0.45594000000E+02  0.51100000000E-03 0. -1.
         11   -1    0    0    0    0 -0.00000000000E+00 -0.00000000000E+00 -0.45593999997E+02  0.45594000000E+02  0.51100000000E-03 0.  1.
    9900012    2    1    2    0    0 -0.29507348565E+01  0.29908705915E+02 -0.27384806952E+02  0.50528866001E+02  0.30000018697E+02 0.  0.
         12    1    1    2    0    0  0.29507348565E+01 -0.29908705915E+02  0.27384806952E+02  0.40659133999E+02  0.00000000000E+00 0. -1.
         11    1    3    3    0    0 -0.62317095743E+01 -0.39775502581E+01 -0.29436813186E+01  0.79574097696E+01  0.51100000000E-03 0. -1.
        -11    1    3    3    0    0  0.40841931496E+01  0.15875281961E+02 -0.15003233239E+02  0.22221661029E+02  0.51100000000E-03 0.  1.
         12    1    3    3    0    0 -0.80321843176E+00  0.18010974212E+02 -0.94378923951E+01  0.20349795202E+02  0.00000000000E+00 0. -1.
</event>
<event>
 7    1  0.9953837E-014  0.5052889E+02  0.7816164E-02  0.1300439E+00
        -11   -1    0    0    0    0  0.00000000000E+00  0.00000000000E+00  0.45593999997E+02  0.45594000000E+02  0.51100000000E-03 0. -1.
         11   -1    0    0    0    0 -0.00000000000E+00 -0.00000000000E+00 -0.45593999997E+02  0.45594000000E+02  0.51100000000E-03 0.  1.
    9900012    2    1    2    0    0  0.13270928008E+02  0.34294636848E+02  0.17347137740E+02  0.50528894814E+02  0.30000106277E+02 0.  0.
        -12    1    1    2    0    0 -0.13270928008E+02 -0.34294636848E+02 -0.17347137740E+02  0.40659105186E+02  0.00000000000E+00 0.  1.
         11    1    3    3    0    0 -0.87105829690E+01  0.11283107685E+02  0.47898985740E+01  0.15037483277E+02  0.51100000000E-03 0. -1.
        -11    1    3    3    0    0  0.98249891386E+01  0.12866768417E+02  0.16675133357E+01  0.16274665651E+02  0.51100000000E-03 0.  1.
        -12    1    3    3    0    0  0.12156521838E+02  0.10144760747E+02  0.10889725830E+02  0.19216745886E+02  0.00000000000E+00 0.  1.
</event>
<event>
 7    1  0.9953837E-014  0.5052886E+02  0.7816164E-02  0.1300439E+00
        -11   -1    0    0    0    0  0.00000000000E+00  0.00000000000E+00  0.45593999997E+02  0.45594000000E+02  0.51100000000E-03 0. -1.
         11   -1    0    0    0    0 -0.00000000000E+00 -0.00000000000E+00 -0.45593999997E+02  0.45594000000E+02  0.51100000000E-03 0.  1.
    9900012    2    1    2    0    0  0.11894662163E+02  0.18785333414E+02  0.34041059113E+02  0.50528862712E+02  0.30000008701E+02 0.  0.
        -12    1    1    2    0    0 -0.11894662163E+02 -0.18785333414E+02 -0.34041059113E+02  0.40659137288E+02  0.00000000000E+00 0.  1.
         11    1    3    3    0    0  0.11801790430E+02  0.43909900169E+01  0.38588362841E+01  0.13170181031E+02  0.51100000000E-03 0. -1.
        -11    1    3    3    0    0  0.23817867248E+01  0.25384349153E+01  0.23098621410E+02  0.23359427886E+02  0.51100000000E-03 0.  1.
         12    1    3    3    0    0 -0.22889149914E+01  0.11855908482E+02  0.70836014182E+01  0.13999253795E+02  0.00000000000E+00 0. -1.
</event>
<event>
 7    1  0.9953837E-014  0.5052886E+02  0.7816164E-02  0.1300439E+00
        -11   -1    0    0    0    0  0.00000000000E+00  0.00000000000E+00  0.45593999997E+02  0.45594000000E+02  0.51100000000E-03 0.  1.
         11   -1    0    0    0    0 -0.00000000000E+00 -0.00000000000E+00 -0.45593999997E+02  0.45594000000E+02  0.51100000000E-03 0. -1.
    9900012    2    1    2    0    0 -0.35110031686E+02  0.63062091070E+01  0.19511104656E+02  0.50528858307E+02  0.29999995311E+02 0.  0.
        -12    1    1    2    0    0  0.35110031686E+02 -0.63062091070E+01 -0.19511104656E+02  0.40659141693E+02  0.00000000000E+00 0.  1.
         11    1    3    3    0    0 -0.35378775844E+02  0.15666466833E+01  0.11112082569E+02  0.37115906850E+02  0.51100000000E-03 0. -1.
        -11    1    3    3    0    0  0.33535489504E+01 -0.12445064530E+01  0.40233335280E+01  0.53835211352E+01  0.51100000000E-03 0.  1.
         12    1    3    3    0    0 -0.30848047922E+01  0.59840688767E+01  0.43756885595E+01  0.80294303220E+01  0.00000000000E+00 0. -1.
</event>
<event>
 7    1  0.9953837E-014  0.5052886E+02  0.7816164E-02  0.1300439E+00
        -11   -1    0    0    0    0  0.00000000000E+00  0.00000000000E+00  0.45593999997E+02  0.45594000000E+02  0.51100000000E-03 0. -1.
         11   -1    0    0    0    0 -0.00000000000E+00 -0.00000000000E+00 -0.45593999997E+02  0.45594000000E+02  0.51100000000E-03 0.  1.
    9900012    2    1    2    0    0 -0.19192508554E+02 -0.20895570230E+02  0.29123677517E+02  0.50528857954E+02  0.29999994237E+02 0.  0.
        -12    1    1    2    0    0  0.19192508554E+02  0.20895570230E+02 -0.29123677517E+02  0.40659142046E+02  0.00000000000E+00 0.  1.
         11    1    3    3    0    0 -0.67274963480E+01 -0.16632159213E+02  0.10206208939E+02  0.20641090775E+02  0.51100000000E-03 0. -1.
        -11    1    3    3    0    0 -0.20426143679E+01 -0.85224014347E+00  0.18790713307E+02  0.18920610286E+02  0.51100000000E-03 0.  1.
        -12    1    3    3    0    0 -0.10422397838E+02 -0.34111708732E+01  0.12675527032E+00  0.10967156894E+02  0.00000000000E+00 0.  1.
</event>
<event>
 7    1  0.9953837E-014  0.5052889E+02  0.7816164E-02  0.1300439E+00
        -11   -1    0    0    0    0  0.00000000000E+00  0.00000000000E+00  0.45593999997E+02  0.45594000000E+02  0.51100000000E-03 0. -1.
         11   -1    0    0    0    0 -0.00000000000E+00 -0.00000000000E+00 -0.45593999997E+02  0.45594000000E+02  0.51100000000E-03 0.  1.
    9900012    2    1    2    0    0 -0.16755010024E+02 -0.28207258864E+02  0.24016319605E+02  0.50528887603E+02  0.30000084359E+02 0.  0.
        -12    1    1    2    0    0  0.16755010024E+02  0.28207258864E+02 -0.24016319605E+02  0.40659112397E+02  0.00000000000E+00 0.  1.
         11    1    3    3    0    0 -0.69499825067E+01 -0.18023725239E+02  0.18823345332E+02  0.26971749259E+02  0.51100000000E-03 0. -1.
        -11    1    3    3    0    0 -0.19861392114E+01  0.50019269339E+01  0.34398096344E+01  0.63871991202E+01  0.51100000000E-03 0.  1.
        -12    1    3    3    0    0 -0.78188883056E+01 -0.15185460559E+02  0.17531646384E+01  0.17169939225E+02  0.00000000000E+00 0.  1.
</event>
<event>
 7    1  0.9953837E-014  0.5052886E+02  0.7816164E-02  0.1300439E+00
        -11   -1    0    0    0    0  0.00000000000E+00  0.00000000000E+00  0.45593999997E+02  0.45594000000E+02  0.51100000000E-03 0. -1.
         11   -1    0    0    0    0 -0.00000000000E+00 -0.00000000000E+00 -0.45593999997E+02  0.45594000000E+02  0.51100000000E-03 0.  1.
    9900012    2    1    2    0    0  0.23630881805E+02  0.10828257422E+02 -0.31264935654E+02  0.50528856685E+02  0.29999990379E+02 0.  0.
         12    1    1    2    0    0 -0.23630881805E+02 -0.10828257422E+02  0.31264935654E+02  0.40659143315E+02  0.00000000000E+00 0. -1.
         11    1    3    3    0    0 -0.36695248624E+01  0.77351595261E+01 -0.21868389728E+01  0.88363097821E+01  0.51100000000E-03 0. -1.
        -11    1    3    3    0    0  0.24298216799E+02  0.62380328314E+01 -0.21900952512E+02  0.33301172869E+02  0.51100000000E-03 0.  1.
        -12    1    3    3    0    0  0.30021898676E+01 -0.31449349356E+01 -0.71771441697E+01  0.83913740343E+01  0.00000000000E+00 0.  1.
</event>
<event>
 7    1  0.9953837E-014  0.5052887E+02  0.7816164E-02  0.1300439E+00
        -11   -1    0    0    0    0  0.00000000000E+00  0.00000000000E+00  0.45593999997E+02  0.45594000000E+02  0.51100000000E-03 0. -1.
         11   -1    0    0    0    0 -0.00000000000E+00 -0.00000000000E+00 -0.45593999997E+02  0.45594000000E+02  0.51100000000E-03 0.  1.
    9900012    2    1    2    0    0  0.18955401644E+02  0.34491302981E+02  0.10208221093E+02  0.50528868053E+02  0.30000024934E+02 0.  0.
        -12    1    1    2    0    0 -0.18955401644E+02 -0.34491302981E+02 -0.10208221093E+02  0.40659131947E+02  0.00000000000E+00 0.  1.
         11    1    3    3    0    0  0.19440542662E+02  0.19787634992E+02  0.38161314843E+01  0.28000858153E+02  0.51100000000E-03 0. -1.
        -11    1    3    3    0    0 -0.71901692257E+01  0.25012367373E+01  0.14232082099E+01  0.77446911223E+01  0.51100000000E-03 0.  1.
        -12    1    3    3    0    0  0.67050282084E+01  0.12202431252E+02  0.49688813985E+01  0.14783318777E+02  0.00000000000E+00 0.  1.
</event>
<event>
 7    1  0.9953837E-014  0.5052885E+02  0.7816164E-02  0.1300439E+00
        -11   -1    0    0    0    0  0.00000000000E+00  0.00000000000E+00  0.45593999997E+02  0.45594000000E+02  0.51100000000E-03 0. -1.
         11   -1    0    0    0    0 -0.00000000000E+00 -0.00000000000E+00 -0.45593999997E+02  0.45594000000E+02  0.51100000000E-03 0.  1.
    9900012    2    1    2    0    0 -0.13519773204E+02 -0.16749497280E+02 -0.34494012610E+02  0.50528845649E+02  0.29999956834E+02 0.  0.
         12    1    1    2    0    0  0.13519773204E+02  0.16749497280E+02  0.34494012610E+02  0.40659154351E+02  0.00000000000E+00 0. -1.
         11    1    3    3    0    0 -0.13723395311E+02 -0.15500711759E+02 -0.36800573871E+02  0.42224233343E+02  0.51100000000E-03 0. -1.
        -11    1    3    3    0    0  0.35832490340E+01 -0.11133700481E+01 -0.65495886244E+00  0.38089680855E+01  0.51100000000E-03 0.  1.
         12    1    3    3    0    0 -0.33796269275E+01 -0.13541547276E+00  0.29615201234E+01  0.44956442209E+01  0.00000000000E+00 0. -1.
</event>
<event>
 7    1  0.9953837E-014  0.5052886E+02  0.7816164E-02  0.1300439E+00
        -11   -1    0    0    0    0  0.00000000000E+00  0.00000000000E+00  0.45593999997E+02  0.45594000000E+02  0.51100000000E-03 0.  1.
         11   -1    0    0    0    0 -0.00000000000E+00 -0.00000000000E+00 -0.45593999997E+02  0.45594000000E+02  0.51100000000E-03 0. -1.
    9900012    2    1    2    0    0 -0.22814614297E+02  0.25754120333E+02 -0.21665270801E+02  0.50528864513E+02  0.30000014174E+02 0.  0.
        -12    1    1    2    0    0  0.22814614297E+02 -0.25754120333E+02  0.21665270801E+02  0.40659135487E+02  0.00000000000E+00 0.  1.
         11    1    3    3    0    0 -0.18787572133E+02  0.25842039232E+02 -0.13887328316E+02  0.34837361357E+02  0.51100000000E-03 0. -1.
        -11    1    3    3    0    0 -0.27012376124E+01 -0.12065673007E+01  0.33268651009E+01  0.44520243654E+01  0.51100000000E-03 0.  1.
         12    1    3    3    0    0 -0.13258045517E+01  0.11186484015E+01 -0.11104807586E+02  0.11239478790E+02  0.00000000000E+00 0. -1.
</event>
<event>
 7    1  0.9953837E-014  0.5052886E+02  0.7816164E-02  0.1300439E+00
        -11   -1    0    0    0    0  0.00000000000E+00  0.00000000000E+00  0.45593999997E+02  0.45594000000E+02  0.51100000000E-03 0. -1.
         11   -1    0    0    0    0 -0.00000000000E+00 -0.00000000000E+00 -0.45593999997E+02  0.45594000000E+02  0.51100000000E-03 0.  1.
    9900012    2    1    2    0    0 -0.31209578134E+02 -0.15134107510E+02 -0.21215249049E+02  0.50528858720E+02  0.29999996565E+02 0.  0.
         12    1    1    2    0    0  0.31209578134E+02  0.15134107510E+02  0.21215249049E+02  0.40659141280E+02  0.00000000000E+00 0. -1.
         11    1    3    3    0    0 -0.11079639849E+02 -0.17273128474E+01  0.60422637631E+01  0.12737777691E+02  0.51100000000E-03 0. -1.
        -11    1    3    3    0    0 -0.68181410153E+01 -0.81874848318E+01 -0.61673669073E+01  0.12310904500E+02  0.51100000000E-03 0.  1.
         12    1    3    3    0    0 -0.13311797269E+02 -0.52193098312E+01 -0.21090145905E+02  0.25480176529E+02  0.00000000000E+00 0. -1.
</event>
<event>
 7    1  0.9953837E-014  0.5052885E+02  0.7816164E-02  0.1300439E+00
        -11   -1    0    0    0    0  0.00000000000E+00  0.00000000000E+00  0.45593999997E+02  0.45594000000E+02  0.51100000000E-03 0. -1.
         11   -1    0    0    0    0 -0.00000000000E+00 -0.00000000000E+00 -0.45593999997E+02  0.45594000000E+02  0.51100000000E-03 0.  1.
    9900012    2    1    2    0    0 -0.26804302538E+02  0.27580516104E+02  0.13191322411E+02  0.50528849861E+02  0.29999969638E+02 0.  0.
        -12    1    1    2    0    0  0.26804302538E+02 -0.27580516104E+02 -0.13191322411E+02  0.40659150139E+02  0.00000000000E+00 0.  1.
         11    1    3    3    0    0 -0.18517448969E+02  0.65319935058E+00  0.83474226790E+01  0.20322451903E+02  0.51100000000E-03 0. -1.
        -11    1    3    3    0    0 -0.39876256567E+01  0.19012840831E+01  0.51877250995E+00  0.44480517893E+01  0.51100000000E-03 0.  1.
         12    1    3    3    0    0 -0.42992279116E+01  0.25026032670E+02  0.43251272218E+01  0.25758346168E+02  0.00000000000E+00 0. -1.
</event>
<event>
 7    1  0.9953837E-014  0.5052886E+02  0.7816164E-02  0.1300439E+00
        -11   -1    0    0    0    0  0.00000000000E+00  0.00000000000E+00  0.45593999997E+02  0.45594000000E+02  0.51100000000E-03 0.  1.
         11   -1    0    0    0    0 -0.00000000000E+00 -0.00000000000E+00 -0.45593999997E+02  0.45594000000E+02  0.51100000000E-03 0. -1.
    9900012    2    1    2    0    0  0.11300303142E+02 -0.38710239654E+02 -0.51947970799E+01  0.50528862997E+02  0.30000009565E+02 0.  0.
        -12    1    1    2    0    0 -0.11300303142E+02  0.38710239654E+02  0.51947970799E+01  0.40659137003E+02  0.00000000000E+00 0.  1.
         11    1    3    3    0    0 -0.62737364418E+01 -0.20364970795E+01  0.24356749512E+00  0.66004859429E+01  0.51100000000E-03 0. -1.
        -11    1    3    3    0    0  0.10608081398E+02 -0.28199532285E+02 -0.10420829187E+02  0.31880067334E+02  0.51100000000E-03 0.  1.
        -12    1    3    3    0    0  0.69659581864E+01 -0.84742102894E+01  0.49824646124E+01  0.12048309720E+02  0.00000000000E+00 0.  1.
</event>
<event>
 7    1  0.9953837E-014  0.5052887E+02  0.7816164E-02  0.1300439E+00
        -11   -1    0    0    0    0  0.00000000000E+00  0.00000000000E+00  0.45593999997E+02  0.45594000000E+02  0.51100000000E-03 0. -1.
         11   -1    0    0    0    0 -0.00000000000E+00 -0.00000000000E+00 -0.45593999997E+02  0.45594000000E+02  0.51100000000E-03 0.  1.
    9900012    2    1    2    0    0 -0.20581935033E+00 -0.77507230986E+01 -0.39913014905E+02  0.50528870288E+02  0.30000031727E+02 0.  0.
         12    1    1    2    0    0  0.20581935033E+00  0.77507230986E+01  0.39913014905E+02  0.40659129712E+02  0.00000000000E+00 0. -1.
         11    1    3    3    0    0  0.10221194501E+01  0.13884905023E+01 -0.23053363170E+02  0.23117746165E+02  0.51100000000E-03 0. -1.
        -11    1    3    3    0    0 -0.58220345087E+01 -0.10841398916E+02 -0.29367141685E+01  0.12651336160E+02  0.51100000000E-03 0.  1.
        -12    1    3    3    0    0  0.45940957083E+01  0.17021853149E+01 -0.13922937566E+02  0.14759787962E+02  0.00000000000E+00 0.  1.
</event>
<event>
 7    1  0.9953837E-014  0.5052886E+02  0.7816164E-02  0.1300439E+00
        -11   -1    0    0    0    0  0.00000000000E+00  0.00000000000E+00  0.45593999997E+02  0.45594000000E+02  0.51100000000E-03 0. -1.
         11   -1    0    0    0    0 -0.00000000000E+00 -0.00000000000E+00 -0.45593999997E+02  0.45594000000E+02  0.51100000000E-03 0.  1.
    9900012    2    1    2    0    0 -0.27427438323E+01 -0.25137348226E+02  0.31839552815E+02  0.50528855358E+02  0.29999986346E+02 0.  0.
        -12    1    1    2    0    0  0.27427438323E+01  0.25137348226E+02 -0.31839552815E+02  0.40659144642E+02  0.00000000000E+00 0.  1.
         11    1    3    3    0    0 -0.50403531638E+01 -0.18559867353E+02  0.21187660940E+02  0.28614521009E+02  0.51100000000E-03 0. -1.
        -11    1    3    3    0    0  0.24640555073E+01  0.59404024699E+01  0.21487260878E+01  0.67806323532E+01  0.51100000000E-03 0.  1.
        -12    1    3    3    0    0 -0.16644617576E+00 -0.12517883342E+02  0.85031657872E+01  0.15133701996E+02  0.00000000000E+00 0.  1.
</event>
<event>
 7    1  0.9953837E-014  0.5052887E+02  0.7816164E-02  0.1300439E+00
        -11   -1    0    0    0    0  0.00000000000E+00  0.00000000000E+00  0.45593999997E+02  0.45594000000E+02  0.51100000000E-03 0. -1.
         11   -1    0    0    0    0 -0.00000000000E+00 -0.00000000000E+00 -0.45593999997E+02  0.45594000000E+02  0.51100000000E-03 0.  1.
    9900012    2    1    2    0    0 -0.42205535714E+01  0.39641515247E+02 -0.79938947476E+01  0.50528866256E+02  0.30000019472E+02 0.  0.
         12    1    1    2    0    0  0.42205535714E+01 -0.39641515247E+02  0.79938947476E+01  0.40659133744E+02  0.00000000000E+00 0. -1.
         11    1    3    3    0    0  0.61983978414E+01  0.15340651516E+01 -0.28235948292E+01  0.69818464399E+01  0.51100000000E-03 0. -1.
        -11    1    3    3    0    0 -0.82589528519E+01  0.24347383275E+02 -0.11600310739E+02  0.28205896264E+02  0.51100000000E-03 0.  1.
        -12    1    3    3    0    0 -0.21599985610E+01  0.13760066821E+02  0.64300108204E+01  0.15341123553E+02  0.00000000000E+00 0.  1.
</event>
<event>
 7    1  0.9953837E-014  0.5052885E+02  0.7816164E-02  0.1300439E+00
        -11   -1    0    0    0    0  0.00000000000E+00  0.00000000000E+00  0.45593999997E+02  0.45594000000E+02  0.51100000000E-03 0. -1.
         11   -1    0    0    0    0 -0.00000000000E+00 -0.00000000000E+00 -0.45593999997E+02  0.45594000000E+02  0.51100000000E-03 0.  1.
    9900012    2    1    2    0    0  0.16159002988E+02 -0.17915943102E+02  0.32727234668E+02  0.50528852397E+02  0.29999977345E+02 0.  0.
        -12    1    1    2    0    0 -0.16159002988E+02  0.17915943102E+02 -0.32727234668E+02  0.40659147603E+02  0.00000000000E+00 0.  1.
         11    1    3    3    0    0  0.84033746243E+01 -0.70573254095E+01  0.78559105969E+01  0.13495846716E+02  0.51100000000E-03 0. -1.
        -11    1    3    3    0    0 -0.58214712118E+01 -0.77195137907E+01  0.20098349528E+02  0.22303005946E+02  0.51100000000E-03 0.  1.
        -12    1    3    3    0    0  0.13577099575E+02 -0.31391039022E+01  0.47729745436E+01  0.14729999735E+02  0.00000000000E+00 0.  1.
</event>
<event>
 7    1  0.9953837E-014  0.5052886E+02  0.7816164E-02  0.1300439E+00
        -11   -1    0    0    0    0  0.00000000000E+00  0.00000000000E+00  0.45593999997E+02  0.45594000000E+02  0.51100000000E-03 0. -1.
         11   -1    0    0    0    0 -0.00000000000E+00 -0.00000000000E+00 -0.45593999997E+02  0.45594000000E+02  0.51100000000E-03 0.  1.
    9900012    2    1    2    0    0 -0.69815330421E+00  0.54738781937E+01 -0.40282937953E+02  0.50528857724E+02  0.29999993537E+02 0.  0.
         12    1    1    2    0    0  0.69815330421E+00 -0.54738781937E+01  0.40282937953E+02  0.40659142276E+02  0.00000000000E+00 0. -1.
         11    1    3    3    0    0  0.85477903860E+01 -0.10725767117E+01 -0.13741781197E+02  0.16218868395E+02  0.51100000000E-03 0. -1.
        -11    1    3    3    0    0 -0.10040636932E+02 -0.28847507726E+01 -0.20703396214E+02  0.23189799311E+02  0.51100000000E-03 0.  1.
         12    1    3    3    0    0  0.79469324197E+00  0.94312056780E+01 -0.58377605426E+01  0.11120190018E+02  0.00000000000E+00 0. -1.
</event>
<event>
 7    1  0.9953837E-014  0.5052886E+02  0.7816164E-02  0.1300439E+00
        -11   -1    0    0    0    0  0.00000000000E+00  0.00000000000E+00  0.45593999997E+02  0.45594000000E+02  0.51100000000E-03 0. -1.
         11   -1    0    0    0    0 -0.00000000000E+00 -0.00000000000E+00 -0.45593999997E+02  0.45594000000E+02  0.51100000000E-03 0.  1.
    9900012    2    1    2    0    0  0.69146344538E+01  0.26762978563E+02 -0.29817723662E+02  0.50528857909E+02  0.29999994101E+02 0.  0.
         12    1    1    2    0    0 -0.69146344538E+01 -0.26762978563E+02  0.29817723662E+02  0.40659142091E+02  0.00000000000E+00 0. -1.
         11    1    3    3    0    0  0.15872780420E+02  0.99360938489E+01 -0.79071213483E+01  0.20327166244E+02  0.51100000000E-03 0. -1.
        -11    1    3    3    0    0 -0.45679166273E+01  0.15428889034E+02 -0.18138462474E+02  0.24247067871E+02  0.51100000000E-03 0.  1.
         12    1    3    3    0    0 -0.43902293386E+01  0.13979956794E+01 -0.37721398400E+01  0.59546237948E+01  0.00000000000E+00 0. -1.
</event>
<event>
 7    1  0.9953837E-014  0.5052886E+02  0.7816164E-02  0.1300439E+00
        -11   -1    0    0    0    0  0.00000000000E+00  0.00000000000E+00  0.45593999997E+02  0.45594000000E+02  0.51100000000E-03 0. -1.
         11   -1    0    0    0    0 -0.00000000000E+00 -0.00000000000E+00 -0.45593999997E+02  0.45594000000E+02  0.51100000000E-03 0.  1.
    9900012    2    1    2    0    0 -0.38519822724E+01 -0.17692655733E+02 -0.36404638902E+02  0.50528861201E+02  0.30000004107E+02 0.  0.
         12    1    1    2    0    0  0.38519822724E+01  0.17692655733E+02  0.36404638902E+02  0.40659138799E+02  0.00000000000E+00 0. -1.
         11    1    3    3    0    0 -0.16501519787E+01  0.63231253434E+01 -0.12925883033E+01  0.66615088714E+01  0.51100000000E-03 0. -1.
        -11    1    3    3    0    0 -0.10572173905E+01 -0.62747152482E+01 -0.18393824876E+02  0.19463364403E+02  0.51100000000E-03 0.  1.
         12    1    3    3    0    0 -0.11446129032E+01 -0.17741065828E+02 -0.16718225723E+02  0.24403987927E+02  0.00000000000E+00 0. -1.
</event>
<event>
 7    1  0.9953837E-014  0.5052886E+02  0.7816164E-02  0.1300439E+00
        -11   -1    0    0    0    0  0.00000000000E+00  0.00000000000E+00  0.45593999997E+02  0.45594000000E+02  0.51100000000E-03 0. -1.
         11   -1    0    0    0    0 -0.00000000000E+00 -0.00000000000E+00 -0.45593999997E+02  0.45594000000E+02  0.51100000000E-03 0.  1.
    9900012    2    1    2    0    0  0.24773545424E+02 -0.11957378931E+02  0.29940911033E+02  0.50528860594E+02  0.30000002262E+02 0.  0.
        -12    1    1    2    0    0 -0.24773545424E+02  0.11957378931E+02 -0.29940911033E+02  0.40659139406E+02  0.00000000000E+00 0.  1.
         11    1    3    3    0    0  0.99661473175E+01  0.38779707659E+01 -0.14263996468E+01  0.10788761089E+02  0.51100000000E-03 0. -1.
        -11    1    3    3    0    0 -0.92519368897E+00 -0.54824012298E+01  0.75479240404E+01  0.93746394164E+01  0.51100000000E-03 0.  1.
         12    1    3    3    0    0  0.15732591795E+02 -0.10352948467E+02  0.23819386639E+02  0.30365460089E+02  0.00000000000E+00 0. -1.
</event>
<event>
 7    1  0.9953837E-014  0.5052886E+02  0.7816164E-02  0.1300439E+00
        -11   -1    0    0    0    0  0.00000000000E+00  0.00000000000E+00  0.45593999997E+02  0.45594000000E+02  0.51100000000E-03 0. -1.
         11   -1    0    0    0    0 -0.00000000000E+00 -0.00000000000E+00 -0.45593999997E+02  0.45594000000E+02  0.51100000000E-03 0.  1.
    9900012    2    1    2    0    0 -0.31224844887E+01  0.23331062058E+02  0.33152334829E+02  0.50528859936E+02  0.30000000260E+02 0.  0.
        -12    1    1    2    0    0  0.31224844887E+01 -0.23331062058E+02 -0.33152334829E+02  0.40659140064E+02  0.00000000000E+00 0.  1.
         11    1    3    3    0    0 -0.22880119216E+01 -0.36032677477E+01  0.30596732666E+01  0.52516795194E+01  0.51100000000E-03 0. -1.
        -11    1    3    3    0    0  0.46847621951E+01  0.23395630328E+02  0.30481415434E+02  0.38709420073E+02  0.51100000000E-03 0.  1.
        -12    1    3    3    0    0 -0.55192347621E+01  0.35386994776E+01 -0.38875387117E+00  0.65677603431E+01  0.00000000000E+00 0.  1.
</event>
<event>
 7    1  0.9953837E-014  0.5052886E+02  0.7816164E-02  0.1300439E+00
        -11   -1    0    0    0    0  0.00000000000E+00  0.00000000000E+00  0.45593999997E+02  0.45594000000E+02  0.51100000000E-03 0. -1.
         11   -1    0    0    0    0 -0.00000000000E+00 -0.00000000000E+00 -0.45593999997E+02  0.45594000000E+02  0.51100000000E-03 0.  1.
    9900012    2    1    2    0    0  0.17095047948E+02  0.20414451312E+02  0.30727428605E+02  0.50528863814E+02  0.30000012050E+02 0.  0.
        -12    1    1    2    0    0 -0.17095047948E+02 -0.20414451312E+02 -0.30727428605E+02  0.40659136186E+02  0.00000000000E+00 0.  1.
         11    1    3    3    0    0  0.12018361824E+02  0.15610449089E+02  0.24719119106E+02  0.31609523744E+02  0.51100000000E-03 0. -1.
        -11    1    3    3    0    0 -0.43627402504E+00  0.50455239641E+01 -0.46767632474E+01  0.68934579008E+01  0.51100000000E-03 0.  1.
        -12    1    3    3    0    0  0.55129601490E+01 -0.24152174168E+00  0.10685072746E+02  0.12025882169E+02  0.00000000000E+00 0.  1.
</event>
<event>
 7    1  0.9953837E-014  0.5052885E+02  0.7816164E-02  0.1300439E+00
        -11   -1    0    0    0    0  0.00000000000E+00  0.00000000000E+00  0.45593999997E+02  0.45594000000E+02  0.51100000000E-03 0. -1.
         11   -1    0    0    0    0 -0.00000000000E+00 -0.00000000000E+00 -0.45593999997E+02  0.45594000000E+02  0.51100000000E-03 0.  1.
    9900012    2    1    2    0    0 -0.10587740152E+02 -0.65417816048E+01 -0.38707509163E+02  0.50528850800E+02  0.29999972492E+02 0.  0.
         12    1    1    2    0    0  0.10587740152E+02  0.65417816048E+01  0.38707509163E+02  0.40659149200E+02  0.00000000000E+00 0. -1.
         11    1    3    3    0    0 -0.41140903423E+01  0.92472876884E+01 -0.10651593068E+02  0.14693348975E+02  0.51100000000E-03 0. -1.
        -11    1    3    3    0    0  0.12556987594E+01 -0.12035956500E+02 -0.94930989135E+01  0.15380505696E+02  0.51100000000E-03 0.  1.
        -12    1    3    3    0    0 -0.77293485691E+01 -0.37531127934E+01 -0.18562817181E+02  0.20454996129E+02  0.00000000000E+00 0.  1.
</event>
<event>
 7    1  0.9953837E-014  0.5052886E+02  0.7816164E-02  0.1300439E+00
        -11   -1    0    0    0    0  0.00000000000E+00  0.00000000000E+00  0.45593999997E+02  0.45594000000E+02  0.51100000000E-03 0. -1.
         11   -1    0    0    0    0 -0.00000000000E+00 -0.00000000000E+00 -0.45593999997E+02  0.45594000000E+02  0.51100000000E-03 0.  1.
    9900012    2    1    2    0    0  0.18004626609E+02  0.15682439053E+02 -0.32909877417E+02  0.50528861967E+02  0.30000006435E+02 0.  0.
         12    1    1    2    0    0 -0.18004626609E+02 -0.15682439053E+02  0.32909877417E+02  0.40659138033E+02  0.00000000000E+00 0. -1.
         11    1    3    3    0    0 -0.63259003785E+01 -0.10526913885E+01 -0.12583098405E+02  0.14123014568E+02  0.51100000000E-03 0. -1.
        -11    1    3    3    0    0  0.64337247384E+01  0.38779406132E+01 -0.86858250824E+01  0.11483675154E+02  0.51100000000E-03 0.  1.
         12    1    3    3    0    0  0.17896802250E+02  0.12857189828E+02 -0.11640953929E+02  0.24922172245E+02  0.00000000000E+00 0. -1.
</event>
<event>
 7    1  0.9953837E-014  0.5052886E+02  0.7816164E-02  0.1300439E+00
        -11   -1    0    0    0    0  0.00000000000E+00  0.00000000000E+00  0.45593999997E+02  0.45594000000E+02  0.51100000000E-03 0. -1.
         11   -1    0    0    0    0 -0.00000000000E+00 -0.00000000000E+00 -0.45593999997E+02  0.45594000000E+02  0.51100000000E-03 0.  1.
    9900012    2    1    2    0    0  0.37235932161E+02  0.99864228473E+01 -0.12919849837E+02  0.50528858285E+02  0.29999995243E+02 0.  0.
         12    1    1    2    0    0 -0.37235932161E+02 -0.99864228473E+01  0.12919849837E+02  0.40659141715E+02  0.00000000000E+00 0. -1.
         11    1    3    3    0    0 -0.67221258668E+00  0.39456412921E+01  0.61596385807E+01  0.73458221237E+01  0.51100000000E-03 0. -1.
        -11    1    3    3    0    0  0.24419131488E+02  0.13437530415E+01 -0.12058212103E+02  0.27267198871E+02  0.51100000000E-03 0.  1.
         12    1    3    3    0    0  0.13489013259E+02  0.46970285138E+01 -0.70212763154E+01  0.15915837291E+02  0.00000000000E+00 0. -1.
</event>
<event>
 7    1  0.9953837E-014  0.5052885E+02  0.7816164E-02  0.1300439E+00
        -11   -1    0    0    0    0  0.00000000000E+00  0.00000000000E+00  0.45593999997E+02  0.45594000000E+02  0.51100000000E-03 0. -1.
         11   -1    0    0    0    0 -0.00000000000E+00 -0.00000000000E+00 -0.45593999997E+02  0.45594000000E+02  0.51100000000E-03 0.  1.
    9900012    2    1    2    0    0 -0.25181609214E+02  0.12890542583E+02  0.29204223020E+02  0.50528853761E+02  0.29999981492E+02 0.  0.
        -12    1    1    2    0    0  0.25181609214E+02 -0.12890542583E+02 -0.29204223020E+02  0.40659146239E+02  0.00000000000E+00 0.  1.
         11    1    3    3    0    0 -0.18785326782E+01  0.49293049287E+01 -0.42608211394E+01  0.67809681570E+01  0.51100000000E-03 0.  1.
        -11    1    3    3    0    0 -0.14867021627E+02  0.11577939123E+02  0.24594459641E+02  0.30983293106E+02  0.51100000000E-03 0. -1.
         12    1    3    3    0    0 -0.84360549092E+01 -0.36167014690E+01  0.88705845178E+01  0.12764592498E+02  0.00000000000E+00 0. -1.
</event>
<event>
 7    1  0.9953837E-014  0.5052886E+02  0.7816164E-02  0.1300439E+00
        -11   -1    0    0    0    0  0.00000000000E+00  0.00000000000E+00  0.45593999997E+02  0.45594000000E+02  0.51100000000E-03 0. -1.
         11   -1    0    0    0    0 -0.00000000000E+00 -0.00000000000E+00 -0.45593999997E+02  0.45594000000E+02  0.51100000000E-03 0.  1.
    9900012    2    1    2    0    0  0.27199620955E+02  0.15458098245E+02  0.25969081149E+02  0.50528863793E+02  0.30000011984E+02 0.  0.
        -12    1    1    2    0    0 -0.27199620955E+02 -0.15458098245E+02 -0.25969081149E+02  0.40659136207E+02  0.00000000000E+00 0.  1.
         11    1    3    3    0    0  0.20236453170E+02  0.77024370150E+01  0.23457955776E+02  0.31923616060E+02  0.51100000000E-03 0. -1.
        -11    1    3    3    0    0 -0.30679976310E+01 -0.18038192596E+01  0.31231818968E+01  0.47350436964E+01  0.51100000000E-03 0.  1.
        -12    1    3    3    0    0  0.10031165415E+02  0.95594804893E+01 -0.61205652431E+00  0.13870204036E+02  0.00000000000E+00 0.  1.
</event>
<event>
 7    1  0.9953837E-014  0.5052885E+02  0.7816164E-02  0.1300439E+00
        -11   -1    0    0    0    0  0.00000000000E+00  0.00000000000E+00  0.45593999997E+02  0.45594000000E+02  0.51100000000E-03 0. -1.
         11   -1    0    0    0    0 -0.00000000000E+00 -0.00000000000E+00 -0.45593999997E+02  0.45594000000E+02  0.51100000000E-03 0.  1.
    9900012    2    1    2    0    0  0.59027729492E+01  0.21123327642E+02 -0.34236362502E+02  0.50528853224E+02  0.29999979860E+02 0.  0.
         12    1    1    2    0    0 -0.59027729492E+01 -0.21123327642E+02  0.34236362502E+02  0.40659146776E+02  0.00000000000E+00 0. -1.
         11    1    3    3    0    0 -0.45186712045E+01 -0.25006213293E+01 -0.39872755408E+01  0.65245584515E+01  0.51100000000E-03 0. -1.
        -11    1    3    3    0    0  0.14720355109E+02  0.19991908801E+02 -0.29115813391E+02  0.38263505612E+02  0.51100000000E-03 0.  1.
        -12    1    3    3    0    0 -0.42989109553E+01  0.36320401708E+01 -0.11332735706E+01  0.57407891609E+01  0.00000000000E+00 0.  1.
</event>
<event>
 7    1  0.9953837E-014  0.5052886E+02  0.7816164E-02  0.1300439E+00
        -11   -1    0    0    0    0  0.00000000000E+00  0.00000000000E+00  0.45593999997E+02  0.45594000000E+02  0.51100000000E-03 0. -1.
         11   -1    0    0    0    0 -0.00000000000E+00 -0.00000000000E+00 -0.45593999997E+02  0.45594000000E+02  0.51100000000E-03 0.  1.
    9900012    2    1    2    0    0  0.13589709668E+02 -0.13790994291E+02  0.35753235169E+02  0.50528861330E+02  0.30000004498E+02 0.  0.
        -12    1    1    2    0    0 -0.13589709668E+02  0.13790994291E+02 -0.35753235169E+02  0.40659138670E+02  0.00000000000E+00 0.  1.
         11    1    3    3    0    0  0.67074014651E+01 -0.10211061023E+02  0.97992399502E+00  0.12256233227E+02  0.51100000000E-03 0. -1.
        -11    1    3    3    0    0 -0.24626204457E+01 -0.52341842809E+01  0.19033844345E+02  0.19893426436E+02  0.51100000000E-03 0.  1.
         12    1    3    3    0    0  0.93449286482E+01  0.16542510133E+01  0.15739466828E+02  0.18379201667E+02  0.00000000000E+00 0. -1.
</event>
<event>
 7    1  0.9953837E-014  0.5052885E+02  0.7816164E-02  0.1300439E+00
        -11   -1    0    0    0    0  0.00000000000E+00  0.00000000000E+00  0.45593999997E+02  0.45594000000E+02  0.51100000000E-03 0. -1.
         11   -1    0    0    0    0 -0.00000000000E+00 -0.00000000000E+00 -0.45593999997E+02  0.45594000000E+02  0.51100000000E-03 0.  1.
    9900012    2    1    2    0    0  0.19141406137E+02  0.78636867771E+01 -0.34999076097E+02  0.50528851874E+02  0.29999975757E+02 0.  0.
         12    1    1    2    0    0 -0.19141406137E+02 -0.78636867771E+01  0.34999076097E+02  0.40659148126E+02  0.00000000000E+00 0. -1.
         11    1    3    3    0    0  0.14996966121E+02 -0.17341346307E+01 -0.48434612228E+01  0.15854820486E+02  0.51100000000E-03 0. -1.
        -11    1    3    3    0    0  0.86268311676E+01  0.59174655988E+01 -0.24183448757E+02  0.26349151962E+02  0.51100000000E-03 0.  1.
         12    1    3    3    0    0 -0.44823911518E+01  0.36803558090E+01 -0.59721661179E+01  0.83248794261E+01  0.00000000000E+00 0. -1.
</event>
<event>
 7    1  0.9953837E-014  0.5052886E+02  0.7816164E-02  0.1300439E+00
        -11   -1    0    0    0    0  0.00000000000E+00  0.00000000000E+00  0.45593999997E+02  0.45594000000E+02  0.51100000000E-03 0. -1.
         11   -1    0    0    0    0 -0.00000000000E+00 -0.00000000000E+00 -0.45593999997E+02  0.45594000000E+02  0.51100000000E-03 0.  1.
    9900012    2    1    2    0    0  0.15566088136E+01  0.28353051809E+02  0.29100630725E+02  0.50528864662E+02  0.30000014625E+02 0.  0.
        -12    1    1    2    0    0 -0.15566088136E+01 -0.28353051809E+02 -0.29100630725E+02  0.40659135338E+02  0.00000000000E+00 0.  1.
         11    1    3    3    0    0 -0.53341613860E+01  0.38171853609E+00  0.15727074180E+02  0.16611437303E+02  0.51100000000E-03 0. -1.
        -11    1    3    3    0    0  0.55689383107E+00  0.20982392787E+02  0.12535811437E+02  0.24448261829E+02  0.51100000000E-03 0.  1.
         12    1    3    3    0    0  0.63338763685E+01  0.69889404864E+01  0.83774510750E+00  0.94691655303E+01  0.00000000000E+00 0. -1.
</event>
<event>
 7    1  0.9953837E-014  0.5052895E+02  0.7816164E-02  0.1300438E+00
        -11   -1    0    0    0    0  0.00000000000E+00  0.00000000000E+00  0.45593999997E+02  0.45594000000E+02  0.51100000000E-03 0. -1.
         11   -1    0    0    0    0 -0.00000000000E+00 -0.00000000000E+00 -0.45593999997E+02  0.45594000000E+02  0.51100000000E-03 0.  1.
    9900012    2    1    2    0    0 -0.10005899825E+02 -0.14912498272E+02 -0.36478183127E+02  0.50528948360E+02  0.30000269034E+02 0.  0.
         12    1    1    2    0    0  0.10005899825E+02  0.14912498272E+02  0.36478183127E+02  0.40659051640E+02  0.00000000000E+00 0. -1.
         11    1    3    3    0    0  0.78584862656E+01 -0.10494921516E+02 -0.13505970704E+02  0.18823135470E+02  0.51100000000E-03 0. -1.
        -11    1    3    3    0    0 -0.12388252787E+02 -0.77021647520E+01 -0.11496727988E+02  0.18573284676E+02  0.51100000000E-03 0.  1.
         12    1    3    3    0    0 -0.54761333034E+01  0.32845879958E+01 -0.11475484435E+02  0.13132528213E+02  0.00000000000E+00 0. -1.
</event>
<event>
 7    1  0.9953837E-014  0.5052886E+02  0.7816164E-02  0.1300439E+00
        -11   -1    0    0    0    0  0.00000000000E+00  0.00000000000E+00  0.45593999997E+02  0.45594000000E+02  0.51100000000E-03 0. -1.
         11   -1    0    0    0    0 -0.00000000000E+00 -0.00000000000E+00 -0.45593999997E+02  0.45594000000E+02  0.51100000000E-03 0.  1.
    9900012    2    1    2    0    0 -0.13745839023E+02  0.24379474968E+02  0.29493371577E+02  0.50528857644E+02  0.29999993294E+02 0.  0.
        -12    1    1    2    0    0  0.13745839023E+02 -0.24379474968E+02 -0.29493371577E+02  0.40659142356E+02  0.00000000000E+00 0.  1.
         11    1    3    3    0    0 -0.90518552621E+01  0.14586622922E+02  0.16312307280E+02  0.23681153287E+02  0.51100000000E-03 0. -1.
        -11    1    3    3    0    0 -0.28623386330E+01 -0.25975632666E+01 -0.40153482531E+01  0.55734494910E+01  0.51100000000E-03 0.  1.
        -12    1    3    3    0    0 -0.18316451276E+01  0.12390415312E+02  0.17196412550E+02  0.21274254866E+02  0.00000000000E+00 0.  1.
</event>
<event>
 7    1  0.9953837E-014  0.5052886E+02  0.7816164E-02  0.1300439E+00
        -11   -1    0    0    0    0  0.00000000000E+00  0.00000000000E+00  0.45593999997E+02  0.45594000000E+02  0.51100000000E-03 0. -1.
         11   -1    0    0    0    0 -0.00000000000E+00 -0.00000000000E+00 -0.45593999997E+02  0.45594000000E+02  0.51100000000E-03 0.  1.
    9900012    2    1    2    0    0  0.21025389340E+02 -0.19747985879E+02  0.28655116765E+02  0.50528860068E+02  0.30000000662E+02 0.  0.
        -12    1    1    2    0    0 -0.21025389340E+02  0.19747985879E+02 -0.28655116765E+02  0.40659139932E+02  0.00000000000E+00 0.  1.
         11    1    3    3    0    0  0.10167206700E+02 -0.26142772503E+02  0.21149145199E+02  0.35129802008E+02  0.51100000000E-03 0. -1.
        -11    1    3    3    0    0  0.73428709417E+01  0.51863041221E+01  0.28281347581E+01  0.94241100686E+01  0.51100000000E-03 0.  1.
         12    1    3    3    0    0  0.35153116986E+01  0.12084825011E+01  0.46778368085E+01  0.59749479914E+01  0.00000000000E+00 0. -1.
</event>
<event>
 7    1  0.9953837E-014  0.5052885E+02  0.7816164E-02  0.1300439E+00
        -11   -1    0    0    0    0  0.00000000000E+00  0.00000000000E+00  0.45593999997E+02  0.45594000000E+02  0.51100000000E-03 0. -1.
         11   -1    0    0    0    0 -0.00000000000E+00 -0.00000000000E+00 -0.45593999997E+02  0.45594000000E+02  0.51100000000E-03 0.  1.
    9900012    2    1    2    0    0  0.19445162875E+02  0.27850645763E+02  0.22347124252E+02  0.50528846160E+02  0.29999958386E+02 0.  0.
        -12    1    1    2    0    0 -0.19445162875E+02 -0.27850645763E+02 -0.22347124252E+02  0.40659153840E+02  0.00000000000E+00 0.  1.
         11    1    3    3    0    0  0.91384786436E+01  0.82085864189E+01  0.18685568084E+02  0.22361644345E+02  0.51100000000E-03 0. -1.
        -11    1    3    3    0    0 -0.44436873404E+01  0.72259539600E+01 -0.28197632497E+00  0.84876544887E+01  0.51100000000E-03 0.  1.
        -12    1    3    3    0    0  0.14750371572E+02  0.12416105385E+02  0.39435324930E+01  0.19679547326E+02  0.00000000000E+00 0.  1.
</event>
<event>
 7    1  0.9953837E-014  0.5052886E+02  0.7816164E-02  0.1300439E+00
        -11   -1    0    0    0    0  0.00000000000E+00  0.00000000000E+00  0.45593999997E+02  0.45594000000E+02  0.51100000000E-03 0.  1.
         11   -1    0    0    0    0 -0.00000000000E+00 -0.00000000000E+00 -0.45593999997E+02  0.45594000000E+02  0.51100000000E-03 0. -1.
    9900012    2    1    2    0    0  0.12061567450E+01 -0.39891431655E+02 -0.77707570877E+01  0.50528858355E+02  0.29999995456E+02 0.  0.
        -12    1    1    2    0    0 -0.12061567450E+01  0.39891431655E+02  0.77707570877E+01  0.40659141645E+02  0.00000000000E+00 0.  1.
         11    1    3    3    0    0  0.75671359674E+01 -0.13867249049E+02 -0.93887080266E+01  0.18376887158E+02  0.51100000000E-03 0. -1.
        -11    1    3    3    0    0 -0.20549788588E+01 -0.14747219889E+02  0.95672793181E+01  0.17698482036E+02  0.51100000000E-03 0.  1.
        -12    1    3    3    0    0 -0.43060003636E+01 -0.11276962718E+02 -0.79493283792E+01  0.14453489162E+02  0.00000000000E+00 0.  1.
</event>
<event>
 7    1  0.9953837E-014  0.5052886E+02  0.7816164E-02  0.1300439E+00
        -11   -1    0    0    0    0  0.00000000000E+00  0.00000000000E+00  0.45593999997E+02  0.45594000000E+02  0.51100000000E-03 0. -1.
         11   -1    0    0    0    0 -0.00000000000E+00 -0.00000000000E+00 -0.45593999997E+02  0.45594000000E+02  0.51100000000E-03 0.  1.
    9900012    2    1    2    0    0  0.10141131491E+02 -0.21447160483E+02 -0.33020334090E+02  0.50528859525E+02  0.29999999013E+02 0.  0.
         12    1    1    2    0    0 -0.10141131491E+02  0.21447160483E+02  0.33020334090E+02  0.40659140475E+02  0.00000000000E+00 0. -1.
         11    1    3    3    0    0  0.12004161262E+02 -0.74307752173E+01 -0.23992980422E+02  0.27838452143E+02  0.51100000000E-03 0.  1.
        -11    1    3    3    0    0  0.66842795027E-01 -0.58807316515E+01  0.40696674019E+01  0.71518994497E+01  0.51100000000E-03 0. -1.
        -12    1    3    3    0    0 -0.19298725657E+01 -0.81356536143E+01 -0.13097021070E+02  0.15538507933E+02  0.00000000000E+00 0.  1.
</event>
<event>
 7    1  0.9953837E-014  0.5052884E+02  0.7816164E-02  0.1300439E+00
        -11   -1    0    0    0    0  0.00000000000E+00  0.00000000000E+00  0.45593999997E+02  0.45594000000E+02  0.51100000000E-03 0. -1.
         11   -1    0    0    0    0 -0.00000000000E+00 -0.00000000000E+00 -0.45593999997E+02  0.45594000000E+02  0.51100000000E-03 0.  1.
    9900012    2    1    2    0    0 -0.56366333892E+01 -0.39101226289E+02 -0.96171659889E+01  0.50528838487E+02  0.29999935066E+02 0.  0.
         12    1    1    2    0    0  0.56366333892E+01  0.39101226289E+02  0.96171659889E+01  0.40659161513E+02  0.00000000000E+00 0. -1.
         11    1    3    3    0    0  0.97963189698E+01 -0.22049094227E+02 -0.38888536444E+00  0.24130512918E+02  0.51100000000E-03 0. -1.
        -11    1    3    3    0    0 -0.71783677615E+01 -0.19875205035E+01 -0.39313880120E+01  0.84222926471E+01  0.51100000000E-03 0.  1.
         12    1    3    3    0    0 -0.82545845975E+01 -0.15064611558E+02 -0.52968926125E+01  0.17976032923E+02  0.00000000000E+00 0. -1.
</event>
<event>
 7    1  0.9953837E-014  0.5052886E+02  0.7816164E-02  0.1300439E+00
        -11   -1    0    0    0    0  0.00000000000E+00  0.00000000000E+00  0.45593999997E+02  0.45594000000E+02  0.51100000000E-03 0. -1.
         11   -1    0    0    0    0 -0.00000000000E+00 -0.00000000000E+00 -0.45593999997E+02  0.45594000000E+02  0.51100000000E-03 0.  1.
    9900012    2    1    2    0    0 -0.17923960143E+02  0.17317662683E+02 -0.32124691719E+02  0.50528860731E+02  0.30000002679E+02 0.  0.
         12    1    1    2    0    0  0.17923960143E+02 -0.17317662683E+02  0.32124691719E+02  0.40659139269E+02  0.00000000000E+00 0. -1.
         11    1    3    3    0    0 -0.45725568516E+01 -0.64935913598E+00 -0.17458873448E+02  0.18059407681E+02  0.51100000000E-03 0. -1.
        -11    1    3    3    0    0 -0.11809132078E+02  0.21263782474E+02 -0.15356234329E+02  0.28764874040E+02  0.51100000000E-03 0.  1.
        -12    1    3    3    0    0 -0.15422712127E+01 -0.32967606547E+01  0.69041605805E+00  0.37045790100E+01  0.00000000000E+00 0.  1.
</event>
<event>
 7    1  0.9953837E-014  0.5052886E+02  0.7816164E-02  0.1300439E+00
        -11   -1    0    0    0    0  0.00000000000E+00  0.00000000000E+00  0.45593999997E+02  0.45594000000E+02  0.51100000000E-03 0. -1.
         11   -1    0    0    0    0 -0.00000000000E+00 -0.00000000000E+00 -0.45593999997E+02  0.45594000000E+02  0.51100000000E-03 0.  1.
    9900012    2    1    2    0    0  0.40547049690E+02 -0.14870023703E+01 -0.26251405592E+01  0.50528858622E+02  0.29999996268E+02 0.  0.
         12    1    1    2    0    0 -0.40547049690E+02  0.14870023703E+01  0.26251405592E+01  0.40659141378E+02  0.00000000000E+00 0. -1.
         11    1    3    3    0    0  0.39900732092E+02 -0.15860213844E+01 -0.31874957460E+01  0.40059256293E+02  0.51100000000E-03 0. -1.
        -11    1    3    3    0    0 -0.26960474351E+01  0.17361183786E+01 -0.36433966207E+01  0.48535675532E+01  0.51100000000E-03 0.  1.
        -12    1    3    3    0    0  0.33423650327E+01 -0.16370993644E+01  0.42057518075E+01  0.56160347762E+01  0.00000000000E+00 0.  1.
</event>
<event>
 7    1  0.9953837E-014  0.5052886E+02  0.7816164E-02  0.1300439E+00
        -11   -1    0    0    0    0  0.00000000000E+00  0.00000000000E+00  0.45593999997E+02  0.45594000000E+02  0.51100000000E-03 0. -1.
         11   -1    0    0    0    0 -0.00000000000E+00 -0.00000000000E+00 -0.45593999997E+02  0.45594000000E+02  0.51100000000E-03 0.  1.
    9900012    2    1    2    0    0 -0.14065967797E+02  0.90844476266E+01 -0.37051139343E+02  0.50528861232E+02  0.30000004200E+02 0.  0.
         12    1    1    2    0    0  0.14065967797E+02 -0.90844476266E+01  0.37051139343E+02  0.40659138768E+02  0.00000000000E+00 0. -1.
         11    1    3    3    0    0 -0.65827877737E+01 -0.96849603759E+01 -0.77830698135E+01  0.14060858023E+02  0.51100000000E-03 0. -1.
        -11    1    3    3    0    0 -0.52985405037E+01  0.93891788749E+01 -0.21658257753E+02  0.24193208563E+02  0.51100000000E-03 0.  1.
         12    1    3    3    0    0 -0.21846395196E+01  0.93802291276E+01 -0.76098117765E+01  0.12274794646E+02  0.00000000000E+00 0. -1.
</event>
<event>
 7    1  0.9953837E-014  0.5052885E+02  0.7816164E-02  0.1300439E+00
        -11   -1    0    0    0    0  0.00000000000E+00  0.00000000000E+00  0.45593999997E+02  0.45594000000E+02  0.51100000000E-03 0. -1.
         11   -1    0    0    0    0 -0.00000000000E+00 -0.00000000000E+00 -0.45593999997E+02  0.45594000000E+02  0.51100000000E-03 0.  1.
    9900012    2    1    2    0    0  0.39277602200E+02 -0.10507660695E+02 -0.16026640610E+00  0.50528847854E+02  0.29999963538E+02 0.  0.
        -12    1    1    2    0    0 -0.39277602200E+02  0.10507660695E+02  0.16026640610E+00  0.40659152146E+02  0.00000000000E+00 0.  1.
         11    1    3    3    0    0  0.67542453070E+01 -0.17898691840E+01  0.10272618563E+02  0.12423773733E+02  0.51100000000E-03 0. -1.
        -11    1    3    3    0    0  0.29100448495E+02 -0.12260524285E+02 -0.10157336013E+02  0.33171192826E+02  0.51100000000E-03 0.  1.
        -12    1    3    3    0    0  0.34229083979E+01  0.35427327735E+01 -0.27554895625E+00  0.49338812949E+01  0.00000000000E+00 0.  1.
</event>
<event>
 7    1  0.9953837E-014  0.5052885E+02  0.7816164E-02  0.1300439E+00
        -11   -1    0    0    0    0  0.00000000000E+00  0.00000000000E+00  0.45593999997E+02  0.45594000000E+02  0.51100000000E-03 0. -1.
         11   -1    0    0    0    0 -0.00000000000E+00 -0.00000000000E+00 -0.45593999997E+02  0.45594000000E+02  0.51100000000E-03 0.  1.
    9900012    2    1    2    0    0 -0.28761863981E+02 -0.11090330586E+02 -0.26512755635E+02  0.50528850187E+02  0.29999970628E+02 0.  0.
         12    1    1    2    0    0  0.28761863981E+02  0.11090330586E+02  0.26512755635E+02  0.40659149813E+02  0.00000000000E+00 0. -1.
         11    1    3    3    0    0 -0.22789246306E+02 -0.65632678472E+01 -0.30595477620E+01  0.23912069438E+02  0.51100000000E-03 0. -1.
        -11    1    3    3    0    0 -0.79654788427E+01 -0.12953370789E+01 -0.19650676078E+02  0.21243253562E+02  0.51100000000E-03 0.  1.
         12    1    3    3    0    0  0.19928611679E+01 -0.32317256595E+01 -0.38025317951E+01  0.53735271866E+01  0.00000000000E+00 0. -1.
</event>
<event>
 7    1  0.9953837E-014  0.5052885E+02  0.7816164E-02  0.1300439E+00
        -11   -1    0    0    0    0  0.00000000000E+00  0.00000000000E+00  0.45593999997E+02  0.45594000000E+02  0.51100000000E-03 0. -1.
         11   -1    0    0    0    0 -0.00000000000E+00 -0.00000000000E+00 -0.45593999997E+02  0.45594000000E+02  0.51100000000E-03 0.  1.
    9900012    2    1    2    0    0 -0.14045108887E+02 -0.22220257835E+02  0.31018722323E+02  0.50528854947E+02  0.29999985096E+02 0.  0.
        -12    1    1    2    0    0  0.14045108887E+02  0.22220257835E+02 -0.31018722323E+02  0.40659145053E+02  0.00000000000E+00 0.  1.
         11    1    3    3    0    0 -0.12122108125E+01 -0.90555549189E+00  0.86092816549E+01  0.87412365645E+01  0.51100000000E-03 0. -1.
        -11    1    3    3    0    0 -0.19261444549E+02 -0.18573766911E+02  0.12181871250E+02  0.29400443037E+02  0.51100000000E-03 0.  1.
        -12    1    3    3    0    0  0.64285464743E+01 -0.27409354316E+01  0.10227569419E+02  0.12387175345E+02  0.00000000000E+00 0.  1.
</event>
<event>
 7    1  0.9953837E-014  0.5052884E+02  0.7816164E-02  0.1300439E+00
        -11   -1    0    0    0    0  0.00000000000E+00  0.00000000000E+00  0.45593999997E+02  0.45594000000E+02  0.51100000000E-03 0. -1.
         11   -1    0    0    0    0 -0.00000000000E+00 -0.00000000000E+00 -0.45593999997E+02  0.45594000000E+02  0.51100000000E-03 0.  1.
    9900012    2    1    2    0    0  0.52297609954E+01 -0.30173112619E+02  0.26746965371E+02  0.50528840125E+02  0.29999940044E+02 0.  0.
        -12    1    1    2    0    0 -0.52297609954E+01  0.30173112619E+02 -0.26746965371E+02  0.40659159875E+02  0.00000000000E+00 0.  1.
         11    1    3    3    0    0  0.12437267932E+01 -0.75712558998E+01  0.96587728594E+01  0.12335423205E+02  0.51100000000E-03 0. -1.
        -11    1    3    3    0    0 -0.58942328620E+01 -0.14825775625E+01 -0.35643102244E+01  0.70458728982E+01  0.51100000000E-03 0.  1.
        -12    1    3    3    0    0  0.98802670642E+01 -0.21119279157E+02  0.20652502736E+02  0.31147544022E+02  0.00000000000E+00 0.  1.
</event>
<event>
 7    1  0.9953837E-014  0.5052886E+02  0.7816164E-02  0.1300439E+00
        -11   -1    0    0    0    0  0.00000000000E+00  0.00000000000E+00  0.45593999997E+02  0.45594000000E+02  0.51100000000E-03 0. -1.
         11   -1    0    0    0    0 -0.00000000000E+00 -0.00000000000E+00 -0.45593999997E+02  0.45594000000E+02  0.51100000000E-03 0.  1.
    9900012    2    1    2    0    0  0.12808399862E+02 -0.22976857340E+02 -0.31002816464E+02  0.50528859466E+02  0.29999998833E+02 0.  0.
         12    1    1    2    0    0 -0.12808399862E+02  0.22976857340E+02  0.31002816464E+02  0.40659140534E+02  0.00000000000E+00 0. -1.
         11    1    3    3    0    0  0.39754159177E+01  0.32542116553E+01  0.34951250593E+01  0.62136723970E+01  0.51100000000E-03 0. -1.
        -11    1    3    3    0    0  0.45197092021E+01 -0.12054504686E+02 -0.13965665333E+02  0.18994174448E+02  0.51100000000E-03 0.  1.
         12    1    3    3    0    0  0.43132747421E+01 -0.14176564309E+02 -0.20532276191E+02  0.25321012621E+02  0.00000000000E+00 0. -1.
</event>
<event>
 7    1  0.9953837E-014  0.5052886E+02  0.7816164E-02  0.1300439E+00
        -11   -1    0    0    0    0  0.00000000000E+00  0.00000000000E+00  0.45593999997E+02  0.45594000000E+02  0.51100000000E-03 0. -1.
         11   -1    0    0    0    0 -0.00000000000E+00 -0.00000000000E+00 -0.45593999997E+02  0.45594000000E+02  0.51100000000E-03 0.  1.
    9900012    2    1    2    0    0 -0.19021951373E+02 -0.29569139237E+01 -0.35813237320E+02  0.50528856608E+02  0.29999990146E+02 0.  0.
         12    1    1    2    0    0  0.19021951373E+02  0.29569139237E+01  0.35813237320E+02  0.40659143392E+02  0.00000000000E+00 0. -1.
         11    1    3    3    0    0 -0.19659577089E+02 -0.77287247716E+01 -0.11618471516E+02  0.24108526262E+02  0.51100000000E-03 0.  1.
        -11    1    3    3    0    0  0.42180881402E+01 -0.40965726773E+00 -0.11328404765E+02  0.12095157768E+02  0.51100000000E-03 0. -1.
        -12    1    3    3    0    0 -0.35804624243E+01  0.51814681157E+01 -0.12866361039E+02  0.14325172578E+02  0.00000000000E+00 0.  1.
</event>
<event>
 7    1  0.9953837E-014  0.5052885E+02  0.7816164E-02  0.1300439E+00
        -11   -1    0    0    0    0  0.00000000000E+00  0.00000000000E+00  0.45593999997E+02  0.45594000000E+02  0.51100000000E-03 0. -1.
         11   -1    0    0    0    0 -0.00000000000E+00 -0.00000000000E+00 -0.45593999997E+02  0.45594000000E+02  0.51100000000E-03 0.  1.
    9900012    2    1    2    0    0  0.20484929253E+01  0.89437178291E+01  0.39610355887E+02  0.50528847213E+02  0.29999961589E+02 0.  0.
        -12    1    1    2    0    0 -0.20484929253E+01 -0.89437178291E+01 -0.39610355887E+02  0.40659152787E+02  0.00000000000E+00 0.  1.
         11    1    3    3    0    0 -0.64514964605E+01 -0.18515306437E+01  0.30136162663E+01  0.73574353932E+01  0.51100000000E-03 0. -1.
        -11    1    3    3    0    0  0.78957781171E+01  0.11813015788E+02  0.12147806273E+02  0.18693845286E+02  0.51100000000E-03 0.  1.
        -12    1    3    3    0    0  0.60421126876E+00 -0.10177673151E+01  0.24448933348E+02  0.24477566534E+02  0.00000000000E+00 0.  1.
</event>
<event>
 7    1  0.9953837E-014  0.5052887E+02  0.7816164E-02  0.1300439E+00
        -11   -1    0    0    0    0  0.00000000000E+00  0.00000000000E+00  0.45593999997E+02  0.45594000000E+02  0.51100000000E-03 0. -1.
         11   -1    0    0    0    0 -0.00000000000E+00 -0.00000000000E+00 -0.45593999997E+02  0.45594000000E+02  0.51100000000E-03 0.  1.
    9900012    2    1    2    0    0  0.20471516886E+02 -0.14555994066E+02 -0.31971942617E+02  0.50528867182E+02  0.30000022285E+02 0.  0.
         12    1    1    2    0    0 -0.20471516886E+02  0.14555994066E+02  0.31971942617E+02  0.40659132818E+02  0.00000000000E+00 0. -1.
         11    1    3    3    0    0 -0.20185758109E+01 -0.12691887171E+02 -0.41387234889E+01  0.13501395507E+02  0.51100000000E-03 0. -1.
        -11    1    3    3    0    0  0.16889879212E+02 -0.36307218373E+01 -0.25291885276E+02  0.30628901743E+02  0.51100000000E-03 0.  1.
         12    1    3    3    0    0  0.56002134845E+01  0.17666149424E+01 -0.25413338513E+01  0.63985699317E+01  0.00000000000E+00 0. -1.
</event>
<event>
 7    1  0.9953837E-014  0.5052890E+02  0.7816164E-02  0.1300439E+00
        -11   -1    0    0    0    0  0.00000000000E+00  0.00000000000E+00  0.45593999997E+02  0.45594000000E+02  0.51100000000E-03 0. -1.
         11   -1    0    0    0    0 -0.00000000000E+00 -0.00000000000E+00 -0.45593999997E+02  0.45594000000E+02  0.51100000000E-03 0.  1.
    9900012    2    1    2    0    0  0.73182913961E+01  0.39586211113E+02  0.57041349347E+01  0.50528897027E+02  0.30000113002E+02 0.  0.
        -12    1    1    2    0    0 -0.73182913961E+01 -0.39586211113E+02 -0.57041349347E+01  0.40659102973E+02  0.00000000000E+00 0.  1.
         11    1    3    3    0    0  0.17194808155E+02  0.13407899859E+02  0.44301755405E+01  0.22249936218E+02  0.51100000000E-03 0. -1.
        -11    1    3    3    0    0 -0.41169237167E+01  0.12227974137E+02 -0.13028261880E+01  0.12968028714E+02  0.51100000000E-03 0.  1.
         12    1    3    3    0    0 -0.57595930421E+01  0.13950337117E+02  0.25767855822E+01  0.15310932095E+02  0.00000000000E+00 0. -1.
</event>
<event>
 7    1  0.9953837E-014  0.5052886E+02  0.7816164E-02  0.1300439E+00
        -11   -1    0    0    0    0  0.00000000000E+00  0.00000000000E+00  0.45593999997E+02  0.45594000000E+02  0.51100000000E-03 0. -1.
         11   -1    0    0    0    0 -0.00000000000E+00 -0.00000000000E+00 -0.45593999997E+02  0.45594000000E+02  0.51100000000E-03 0.  1.
    9900012    2    1    2    0    0  0.16459323929E+02 -0.24447851994E+02  0.28009979342E+02  0.50528858912E+02  0.29999997147E+02 0.  0.
        -12    1    1    2    0    0 -0.16459323929E+02  0.24447851994E+02 -0.28009979342E+02  0.40659141088E+02  0.00000000000E+00 0.  1.
         11    1    3    3    0    0  0.99124637895E+01 -0.14187356294E+02 -0.17368804647E+01  0.17394101615E+02  0.51100000000E-03 0. -1.
        -11    1    3    3    0    0  0.53547055942E+01 -0.18963252638E+01  0.80631267698E+01  0.98632111948E+01  0.51100000000E-03 0.  1.
         12    1    3    3    0    0  0.11921545449E+01 -0.83641704367E+01  0.21683733037E+02  0.23271546102E+02  0.00000000000E+00 0. -1.
</event>
<event>
 7    1  0.9953837E-014  0.5052886E+02  0.7816164E-02  0.1300439E+00
        -11   -1    0    0    0    0  0.00000000000E+00  0.00000000000E+00  0.45593999997E+02  0.45594000000E+02  0.51100000000E-03 0. -1.
         11   -1    0    0    0    0 -0.00000000000E+00 -0.00000000000E+00 -0.45593999997E+02  0.45594000000E+02  0.51100000000E-03 0.  1.
    9900012    2    1    2    0    0 -0.33180666247E+02  0.10771203447E+02 -0.20885171465E+02  0.50528858059E+02  0.29999994555E+02 0.  0.
         12    1    1    2    0    0  0.33180666247E+02 -0.10771203447E+02  0.20885171465E+02  0.40659141941E+02  0.00000000000E+00 0. -1.
         11    1    3    3    0    0  0.95719109779E+00  0.30953462428E+00  0.32299886489E+01  0.33830243000E+01  0.51100000000E-03 0. -1.
        -11    1    3    3    0    0 -0.27938791186E+02  0.12532448777E+02 -0.26185017666E+02  0.40290116353E+02  0.51100000000E-03 0.  1.
         12    1    3    3    0    0 -0.61990661586E+01 -0.20707799544E+01  0.20698575527E+01  0.68557174057E+01  0.00000000000E+00 0. -1.
</event>
<event>
 7    1  0.9953837E-014  0.5052886E+02  0.7816164E-02  0.1300439E+00
        -11   -1    0    0    0    0  0.00000000000E+00  0.00000000000E+00  0.45593999997E+02  0.45594000000E+02  0.51100000000E-03 0. -1.
         11   -1    0    0    0    0 -0.00000000000E+00 -0.00000000000E+00 -0.45593999997E+02  0.45594000000E+02  0.51100000000E-03 0.  1.
    9900012    2    1    2    0    0  0.17474247666E+02  0.11244157260E+02 -0.34948322356E+02  0.50528860321E+02  0.30000001432E+02 0.  0.
         12    1    1    2    0    0 -0.17474247666E+02 -0.11244157260E+02  0.34948322356E+02  0.40659139679E+02  0.00000000000E+00 0. -1.
         11    1    3    3    0    0 -0.14039536625E+01 -0.19719206072E+01 -0.12210212423E+02  0.12447844972E+02  0.51100000000E-03 0. -1.
        -11    1    3    3    0    0  0.17034161051E+02  0.10205650698E+02 -0.56692131758E+01  0.20650857783E+02  0.51100000000E-03 0.  1.
        -12    1    3    3    0    0  0.18440402773E+01  0.30104271694E+01 -0.17068896757E+02  0.17430157566E+02  0.00000000000E+00 0.  1.
</event>
<event>
 7    1  0.9953837E-014  0.5052886E+02  0.7816164E-02  0.1300439E+00
        -11   -1    0    0    0    0  0.00000000000E+00  0.00000000000E+00  0.45593999997E+02  0.45594000000E+02  0.51100000000E-03 0. -1.
         11   -1    0    0    0    0 -0.00000000000E+00 -0.00000000000E+00 -0.45593999997E+02  0.45594000000E+02  0.51100000000E-03 0.  1.
    9900012    2    1    2    0    0  0.28190512237E+02 -0.15043215656E+02  0.25142844502E+02  0.50528856537E+02  0.29999989930E+02 0.  0.
        -12    1    1    2    0    0 -0.28190512237E+02  0.15043215656E+02 -0.25142844502E+02  0.40659143463E+02  0.00000000000E+00 0.  1.
         11    1    3    3    0    0  0.20757993104E+02 -0.81682733965E+01  0.22022395229E+02  0.31346464871E+02  0.51100000000E-03 0. -1.
        -11    1    3    3    0    0 -0.38005926933E+01  0.15731793303E+01 -0.15133461980E+01  0.43828774797E+01  0.51100000000E-03 0.  1.
        -12    1    3    3    0    0  0.11233111826E+02 -0.84481215901E+01  0.46337954711E+01  0.14799514187E+02  0.00000000000E+00 0.  1.
</event>
<event>
 7    1  0.9953837E-014  0.5052885E+02  0.7816164E-02  0.1300439E+00
        -11   -1    0    0    0    0  0.00000000000E+00  0.00000000000E+00  0.45593999997E+02  0.45594000000E+02  0.51100000000E-03 0. -1.
         11   -1    0    0    0    0 -0.00000000000E+00 -0.00000000000E+00 -0.45593999997E+02  0.45594000000E+02  0.51100000000E-03 0.  1.
    9900012    2    1    2    0    0 -0.15222921717E+02 -0.17247019050E+02 -0.33525656438E+02  0.50528847878E+02  0.29999963609E+02 0.  0.
         12    1    1    2    0    0  0.15222921717E+02  0.17247019050E+02  0.33525656438E+02  0.40659152122E+02  0.00000000000E+00 0. -1.
         11    1    3    3    0    0  0.51586359262E+01 -0.65558240679E+01  0.16073769452E+00  0.83436317450E+01  0.51100000000E-03 0. -1.
        -11    1    3    3    0    0 -0.19040890683E+02 -0.54666033201E+01 -0.28450610308E+02  0.34668090473E+02  0.51100000000E-03 0.  1.
        -12    1    3    3    0    0 -0.13406669596E+01 -0.52245916620E+01 -0.52357838246E+01  0.75171256601E+01  0.00000000000E+00 0.  1.
</event>
<event>
 7    1  0.9953837E-014  0.5052886E+02  0.7816164E-02  0.1300439E+00
        -11   -1    0    0    0    0  0.00000000000E+00  0.00000000000E+00  0.45593999997E+02  0.45594000000E+02  0.51100000000E-03 0. -1.
         11   -1    0    0    0    0 -0.00000000000E+00 -0.00000000000E+00 -0.45593999997E+02  0.45594000000E+02  0.51100000000E-03 0.  1.
    9900012    2    1    2    0    0 -0.29502120879E+02 -0.15027384303E+01  0.27938004778E+02  0.50528862403E+02  0.30000007760E+02 0.  0.
        -12    1    1    2    0    0  0.29502120879E+02  0.15027384303E+01 -0.27938004778E+02  0.40659137597E+02  0.00000000000E+00 0.  1.
         11    1    3    3    0    0 -0.23847906674E+02 -0.13342909025E+02  0.14603854089E+02  0.30984325529E+02  0.51100000000E-03 0. -1.
        -11    1    3    3    0    0 -0.62979170521E+01  0.87465029959E+01  0.11956673175E+02  0.16097425494E+02  0.51100000000E-03 0.  1.
         12    1    3    3    0    0  0.64370284713E+00  0.30936675986E+01  0.13774775141E+01  0.34471113803E+01  0.00000000000E+00 0. -1.
</event>
<event>
 7    1  0.9953837E-014  0.5052886E+02  0.7816164E-02  0.1300439E+00
        -11   -1    0    0    0    0  0.00000000000E+00  0.00000000000E+00  0.45593999997E+02  0.45594000000E+02  0.51100000000E-03 0. -1.
         11   -1    0    0    0    0 -0.00000000000E+00 -0.00000000000E+00 -0.45593999997E+02  0.45594000000E+02  0.51100000000E-03 0.  1.
    9900012    2    1    2    0    0 -0.37834692009E+02 -0.63505647856E+01  0.13467445449E+02  0.50528859829E+02  0.29999999936E+02 0.  0.
        -12    1    1    2    0    0  0.37834692009E+02  0.63505647856E+01 -0.13467445449E+02  0.40659140171E+02  0.00000000000E+00 0.  1.
         11    1    3    3    0    0 -0.18381161544E+02 -0.31620647813E+01  0.20832453473E+02  0.27961703656E+02  0.51100000000E-03 0. -1.
        -11    1    3    3    0    0 -0.18843812597E+02 -0.17781252928E+01 -0.84070467143E+01  0.20710611711E+02  0.51100000000E-03 0.  1.
        -12    1    3    3    0    0 -0.60971786900E+00 -0.14103747114E+01  0.10420386901E+01  0.18565444617E+01  0.00000000000E+00 0.  1.
</event>
<event>
 7    1  0.9953837E-014  0.5052886E+02  0.7816164E-02  0.1300439E+00
        -11   -1    0    0    0    0  0.00000000000E+00  0.00000000000E+00  0.45593999997E+02  0.45594000000E+02  0.51100000000E-03 0. -1.
         11   -1    0    0    0    0 -0.00000000000E+00 -0.00000000000E+00 -0.45593999997E+02  0.45594000000E+02  0.51100000000E-03 0.  1.
    9900012    2    1    2    0    0 -0.20273750505E+02  0.21915687831E+02  0.27601512543E+02  0.50528858011E+02  0.29999994410E+02 0.  0.
        -12    1    1    2    0    0  0.20273750505E+02 -0.21915687831E+02 -0.27601512543E+02  0.40659141989E+02  0.00000000000E+00 0.  1.
         11    1    3    3    0    0 -0.27060000559E+02  0.16268876544E+02  0.26921370998E+02  0.41493134263E+02  0.51100000000E-03 0. -1.
        -11    1    3    3    0    0  0.59924987327E+01  0.45263189424E+01  0.11220986040E+01  0.75932015493E+01  0.51100000000E-03 0.  1.
         12    1    3    3    0    0  0.79375132080E+00  0.11204923439E+01 -0.44195705949E+00  0.14425221989E+01  0.00000000000E+00 0. -1.
</event>
<event>
 7    1  0.9953837E-014  0.5052886E+02  0.7816164E-02  0.1300439E+00
        -11   -1    0    0    0    0  0.00000000000E+00  0.00000000000E+00  0.45593999997E+02  0.45594000000E+02  0.51100000000E-03 0. -1.
         11   -1    0    0    0    0 -0.00000000000E+00 -0.00000000000E+00 -0.45593999997E+02  0.45594000000E+02  0.51100000000E-03 0.  1.
    9900012    2    1    2    0    0 -0.18465333609E+02  0.18838069841E+02  0.30940656776E+02  0.50528860039E+02  0.30000000573E+02 0.  0.
        -12    1    1    2    0    0  0.18465333609E+02 -0.18838069841E+02 -0.30940656776E+02  0.40659139961E+02  0.00000000000E+00 0.  1.
         11    1    3    3    0    0  0.40038922568E+01 -0.18247192409E+01  0.10696800772E+02  0.11566429895E+02  0.51100000000E-03 0. -1.
        -11    1    3    3    0    0 -0.18888993129E+02  0.88553928445E+01  0.11318783683E+02  0.23734508804E+02  0.51100000000E-03 0.  1.
        -12    1    3    3    0    0 -0.35802327376E+01  0.11807396238E+02  0.89250723220E+01  0.15227921339E+02  0.00000000000E+00 0.  1.
</event>
<event>
 7    1  0.9953837E-014  0.5052887E+02  0.7816164E-02  0.1300439E+00
        -11   -1    0    0    0    0  0.00000000000E+00  0.00000000000E+00  0.45593999997E+02  0.45594000000E+02  0.51100000000E-03 0. -1.
         11   -1    0    0    0    0 -0.00000000000E+00 -0.00000000000E+00 -0.45593999997E+02  0.45594000000E+02  0.51100000000E-03 0.  1.
    9900012    2    1    2    0    0  0.26491744601E+02  0.16038762027E+02 -0.26345979831E+02  0.50528867292E+02  0.30000022620E+02 0.  0.
         12    1    1    2    0    0 -0.26491744601E+02 -0.16038762027E+02  0.26345979831E+02  0.40659132708E+02  0.00000000000E+00 0. -1.
         11    1    3    3    0    0 -0.45077011373E+01  0.74640951363E+01 -0.61498949624E+01  0.10670205905E+02  0.51100000000E-03 0. -1.
        -11    1    3    3    0    0  0.23426290790E+02  0.33864314874E+01 -0.19472594411E+02  0.30650301006E+02  0.51100000000E-03 0.  1.
         12    1    3    3    0    0  0.75731549477E+01  0.51882354029E+01 -0.72349045753E+00  0.92083603806E+01  0.00000000000E+00 0. -1.
</event>
<event>
 7    1  0.9953837E-014  0.5052886E+02  0.7816164E-02  0.1300439E+00
        -11   -1    0    0    0    0  0.00000000000E+00  0.00000000000E+00  0.45593999997E+02  0.45594000000E+02  0.51100000000E-03 0.  1.
         11   -1    0    0    0    0 -0.00000000000E+00 -0.00000000000E+00 -0.45593999997E+02  0.45594000000E+02  0.51100000000E-03 0. -1.
    9900012    2    1    2    0    0 -0.33036847069E+02  0.23575409974E+02 -0.24356638947E+01  0.50528859843E+02  0.29999999978E+02 0.  0.
         12    1    1    2    0    0  0.33036847069E+02 -0.23575409974E+02  0.24356638947E+01  0.40659140157E+02  0.00000000000E+00 0. -1.
         11    1    3    3    0    0 -0.17172583234E+02  0.11219907891E+02 -0.15600241722E+02  0.25771136763E+02  0.51100000000E-03 0. -1.
        -11    1    3    3    0    0 -0.12555164754E+02  0.81122132501E+01  0.12191971182E+02  0.19289487483E+02  0.51100000000E-03 0.  1.
         12    1    3    3    0    0 -0.33090990814E+01  0.42432888327E+01  0.97260664604E+00  0.54682355962E+01  0.00000000000E+00 0. -1.
</event>
<event>
 7    1  0.9953837E-014  0.5052887E+02  0.7816164E-02  0.1300439E+00
        -11   -1    0    0    0    0  0.00000000000E+00  0.00000000000E+00  0.45593999997E+02  0.45594000000E+02  0.51100000000E-03 0. -1.
         11   -1    0    0    0    0 -0.00000000000E+00 -0.00000000000E+00 -0.45593999997E+02  0.45594000000E+02  0.51100000000E-03 0.  1.
    9900012    2    1    2    0    0 -0.26707988278E+02  0.15449699326E+02 -0.26479334629E+02  0.50528868068E+02  0.30000024978E+02 0.  0.
         12    1    1    2    0    0  0.26707988278E+02 -0.15449699326E+02  0.26479334629E+02  0.40659131932E+02  0.00000000000E+00 0. -1.
         11    1    3    3    0    0  0.19009005815E+01 -0.41503655259E+01 -0.85057804125E+01  0.96533547384E+01  0.51100000000E-03 0. -1.
        -11    1    3    3    0    0 -0.22683620417E+02  0.15894115958E+02 -0.19304137551E+02  0.33761209756E+02  0.51100000000E-03 0.  1.
         12    1    3    3    0    0 -0.59252684431E+01  0.37059488933E+01  0.13305833352E+01  0.71143035734E+01  0.00000000000E+00 0. -1.
</event>
<event>
 7    1  0.9953837E-014  0.5052886E+02  0.7816164E-02  0.1300439E+00
        -11   -1    0    0    0    0  0.00000000000E+00  0.00000000000E+00  0.45593999997E+02  0.45594000000E+02  0.51100000000E-03 0. -1.
         11   -1    0    0    0    0 -0.00000000000E+00 -0.00000000000E+00 -0.45593999997E+02  0.45594000000E+02  0.51100000000E-03 0.  1.
    9900012    2    1    2    0    0  0.20911825291E+02 -0.21634671267E+02  0.27345977062E+02  0.50528857125E+02  0.29999991717E+02 0.  0.
        -12    1    1    2    0    0 -0.20911825291E+02  0.21634671267E+02 -0.27345977062E+02  0.40659142875E+02  0.00000000000E+00 0.  1.
         11    1    3    3    0    0 -0.62707508560E+01  0.83567513888E-03  0.44925309145E+01  0.77139582106E+01  0.51100000000E-03 0. -1.
        -11    1    3    3    0    0  0.23257692867E+01  0.71411430032E+00  0.32630684268E+01  0.40702306849E+01  0.51100000000E-03 0.  1.
         12    1    3    3    0    0  0.24856806861E+02 -0.22349621242E+02  0.19590377721E+02  0.38744668230E+02  0.00000000000E+00 0. -1.
</event>
<event>
 7    1  0.9953837E-014  0.5052886E+02  0.7816164E-02  0.1300439E+00
        -11   -1    0    0    0    0  0.00000000000E+00  0.00000000000E+00  0.45593999997E+02  0.45594000000E+02  0.51100000000E-03 0. -1.
         11   -1    0    0    0    0 -0.00000000000E+00 -0.00000000000E+00 -0.45593999997E+02  0.45594000000E+02  0.51100000000E-03 0.  1.
    9900012    2    1    2    0    0  0.21335924842E+02  0.22685864891E+02 -0.26139918259E+02  0.50528862266E+02  0.30000007343E+02 0.  0.
         12    1    1    2    0    0 -0.21335924842E+02 -0.22685864891E+02  0.26139918259E+02  0.40659137734E+02  0.00000000000E+00 0. -1.
         11    1    3    3    0    0  0.10612584299E+01  0.26825307876E+01 -0.36833980865E+01  0.46786389694E+01  0.51100000000E-03 0. -1.
        -11    1    3    3    0    0 -0.15877090673E+01  0.17931193512E+02 -0.10690079784E+02  0.20936244336E+02  0.51100000000E-03 0.  1.
        -12    1    3    3    0    0  0.21862375479E+02  0.20721405918E+01 -0.11766440389E+02  0.24913978961E+02  0.00000000000E+00 0.  1.
</event>
<event>
 7    1  0.9953837E-014  0.5052886E+02  0.7816164E-02  0.1300439E+00
        -11   -1    0    0    0    0  0.00000000000E+00  0.00000000000E+00  0.45593999997E+02  0.45594000000E+02  0.51100000000E-03 0. -1.
         11   -1    0    0    0    0 -0.00000000000E+00 -0.00000000000E+00 -0.45593999997E+02  0.45594000000E+02  0.51100000000E-03 0.  1.
    9900012    2    1    2    0    0 -0.27585732896E+01 -0.24865501873E+02 -0.32050939211E+02  0.50528860630E+02  0.30000002372E+02 0.  0.
         12    1    1    2    0    0  0.27585732896E+01  0.24865501873E+02  0.32050939211E+02  0.40659139370E+02  0.00000000000E+00 0. -1.
         11    1    3    3    0    0  0.46352016306E+01  0.34716506742E+01 -0.11578317203E+02  0.12945844201E+02  0.51100000000E-03 0. -1.
        -11    1    3    3    0    0 -0.53303372638E+01 -0.28695706330E+02 -0.20143656575E+02  0.35462980101E+02  0.51100000000E-03 0.  1.
         12    1    3    3    0    0 -0.20634376564E+01  0.35855378322E+00 -0.32896543209E+00  0.21200363282E+01  0.00000000000E+00 0. -1.
</event>
<event>
 7    1  0.9953837E-014  0.5052899E+02  0.7816164E-02  0.1300438E+00
        -11   -1    0    0    0    0  0.00000000000E+00  0.00000000000E+00  0.45593999997E+02  0.45594000000E+02  0.51100000000E-03 0. -1.
         11   -1    0    0    0    0 -0.00000000000E+00 -0.00000000000E+00 -0.45593999997E+02  0.45594000000E+02  0.51100000000E-03 0.  1.
    9900012    2    1    2    0    0  0.34321818042E+01  0.14341174760E+02 -0.37890706259E+02  0.50528993787E+02  0.30000407112E+02 0.  0.
         12    1    1    2    0    0 -0.34321818042E+01 -0.14341174760E+02  0.37890706259E+02  0.40659006213E+02  0.00000000000E+00 0. -1.
         11    1    3    3    0    0  0.17225400495E+01  0.23499757955E+01  0.57013755564E+00  0.29689371086E+01  0.51100000000E-03 0. -1.
        -11    1    3    3    0    0 -0.11508385459E+02  0.39659475300E+01 -0.20672049376E+02  0.23989691564E+02  0.51100000000E-03 0.  1.
        -12    1    3    3    0    0  0.13218027214E+02  0.80252514344E+01 -0.17788794439E+02  0.23570365114E+02  0.00000000000E+00 0.  1.
</event>
<event>
 7    1  0.9953837E-014  0.5052886E+02  0.7816164E-02  0.1300439E+00
        -11   -1    0    0    0    0  0.00000000000E+00  0.00000000000E+00  0.45593999997E+02  0.45594000000E+02  0.51100000000E-03 0. -1.
         11   -1    0    0    0    0 -0.00000000000E+00 -0.00000000000E+00 -0.45593999997E+02  0.45594000000E+02  0.51100000000E-03 0.  1.
    9900012    2    1    2    0    0  0.39085774160E+02 -0.35027582652E+01 -0.10639473536E+02  0.50528862598E+02  0.30000008354E+02 0.  0.
         12    1    1    2    0    0 -0.39085774160E+02  0.35027582652E+01  0.10639473536E+02  0.40659137402E+02  0.00000000000E+00 0. -1.
         11    1    3    3    0    0  0.11121618713E+02  0.11034112741E+02  0.39102084186E+00  0.15671469118E+02  0.51100000000E-03 0. -1.
        -11    1    3    3    0    0  0.10831015084E+02 -0.78134696630E+01  0.86338522956E-01  0.13355472681E+02  0.51100000000E-03 0.  1.
         12    1    3    3    0    0  0.17133140363E+02 -0.67234013431E+01 -0.11116832900E+02  0.21501920799E+02  0.00000000000E+00 0. -1.
</event>
<event>
 7    1  0.9953837E-014  0.5052886E+02  0.7816164E-02  0.1300439E+00
        -11   -1    0    0    0    0  0.00000000000E+00  0.00000000000E+00  0.45593999997E+02  0.45594000000E+02  0.51100000000E-03 0. -1.
         11   -1    0    0    0    0 -0.00000000000E+00 -0.00000000000E+00 -0.45593999997E+02  0.45594000000E+02  0.51100000000E-03 0.  1.
    9900012    2    1    2    0    0 -0.89681540868E+00  0.13989617102E-01 -0.40649248084E+02  0.50528857813E+02  0.29999993808E+02 0.  0.
         12    1    1    2    0    0  0.89681540868E+00 -0.13989617102E-01  0.40649248084E+02  0.40659142187E+02  0.00000000000E+00 0. -1.
         11    1    3    3    0    0 -0.40817563919E+01  0.25687854475E+01  0.25963387681E+01  0.54772592761E+01  0.51100000000E-03 0. -1.
        -11    1    3    3    0    0  0.73113191568E+01 -0.38960774624E+01 -0.27807686549E+02  0.29015551673E+02  0.51100000000E-03 0.  1.
         12    1    3    3    0    0 -0.41263781735E+01  0.13412816320E+01 -0.15437900303E+02  0.16036046864E+02  0.00000000000E+00 0. -1.
</event>
<event>
 7    1  0.9953837E-014  0.5052886E+02  0.7816164E-02  0.1300439E+00
        -11   -1    0    0    0    0  0.00000000000E+00  0.00000000000E+00  0.45593999997E+02  0.45594000000E+02  0.51100000000E-03 0. -1.
         11   -1    0    0    0    0 -0.00000000000E+00 -0.00000000000E+00 -0.45593999997E+02  0.45594000000E+02  0.51100000000E-03 0.  1.
    9900012    2    1    2    0    0  0.35414115217E+02  0.34546933274E+01 -0.19674131217E+02  0.50528857095E+02  0.29999991627E+02 0.  0.
         12    1    1    2    0    0 -0.35414115217E+02 -0.34546933274E+01  0.19674131217E+02  0.40659142905E+02  0.00000000000E+00 0. -1.
         11    1    3    3    0    0  0.92537284469E+00  0.14504807911E+01  0.42075610843E+01  0.45457430599E+01  0.51100000000E-03 0. -1.
        -11    1    3    3    0    0  0.27170911350E+02  0.94756643140E+01 -0.16363483235E+02  0.33103024358E+02  0.51100000000E-03 0.  1.
        -12    1    3    3    0    0  0.73178310224E+01 -0.74714517777E+01 -0.75182090662E+01  0.12880089678E+02  0.00000000000E+00 0.  1.
</event>
<event>
 7    1  0.9953837E-014  0.5052885E+02  0.7816164E-02  0.1300439E+00
        -11   -1    0    0    0    0  0.00000000000E+00  0.00000000000E+00  0.45593999997E+02  0.45594000000E+02  0.51100000000E-03 0. -1.
         11   -1    0    0    0    0 -0.00000000000E+00 -0.00000000000E+00 -0.45593999997E+02  0.45594000000E+02  0.51100000000E-03 0.  1.
    9900012    2    1    2    0    0  0.13436900115E+02  0.36798632129E+02 -0.10884697843E+02  0.50528852709E+02  0.29999978294E+02 0.  0.
         12    1    1    2    0    0 -0.13436900115E+02 -0.36798632129E+02  0.10884697843E+02  0.40659147291E+02  0.00000000000E+00 0. -1.
         11    1    3    3    0    0 -0.19875175858E+01  0.71344335836E+01 -0.46535631390E+01  0.87467719110E+01  0.51100000000E-03 0. -1.
        -11    1    3    3    0    0  0.14298434721E+02  0.24963620027E+02  0.53237479485E+01  0.29256962467E+02  0.51100000000E-03 0.  1.
        -12    1    3    3    0    0  0.11259829803E+01  0.47005785182E+01 -0.11554882653E+02  0.12525118331E+02  0.00000000000E+00 0.  1.
</event>
<event>
 7    1  0.9953837E-014  0.5052887E+02  0.7816164E-02  0.1300439E+00
        -11   -1    0    0    0    0  0.00000000000E+00  0.00000000000E+00  0.45593999997E+02  0.45594000000E+02  0.51100000000E-03 0. -1.
         11   -1    0    0    0    0 -0.00000000000E+00 -0.00000000000E+00 -0.45593999997E+02  0.45594000000E+02  0.51100000000E-03 0.  1.
    9900012    2    1    2    0    0  0.74797584850E+01  0.38412953445E+02  0.11030108627E+02  0.50528867253E+02  0.30000022503E+02 0.  0.
        -12    1    1    2    0    0 -0.74797584850E+01 -0.38412953445E+02 -0.11030108627E+02  0.40659132747E+02  0.00000000000E+00 0.  1.
         11    1    3    3    0    0  0.36517026516E+01  0.14850191760E+02  0.16874320775E+01  0.15385400704E+02  0.51100000000E-03 0. -1.
        -11    1    3    3    0    0 -0.70091207094E-01 -0.34878557770E+01  0.68660011057E+01  0.77014298766E+01  0.51100000000E-03 0.  1.
        -12    1    3    3    0    0  0.38981470405E+01  0.27050617463E+02  0.24766754441E+01  0.27442036672E+02  0.00000000000E+00 0.  1.
</event>
<event>
 7    1  0.9953837E-014  0.5052886E+02  0.7816164E-02  0.1300439E+00
        -11   -1    0    0    0    0  0.00000000000E+00  0.00000000000E+00  0.45593999997E+02  0.45594000000E+02  0.51100000000E-03 0. -1.
         11   -1    0    0    0    0 -0.00000000000E+00 -0.00000000000E+00 -0.45593999997E+02  0.45594000000E+02  0.51100000000E-03 0.  1.
    9900012    2    1    2    0    0 -0.18565317454E+02 -0.33856087933E+02 -0.12738133833E+02  0.50528858890E+02  0.29999997081E+02 0.  0.
         12    1    1    2    0    0  0.18565317454E+02  0.33856087933E+02  0.12738133833E+02  0.40659141110E+02  0.00000000000E+00 0. -1.
         11    1    3    3    0    0 -0.17593214712E+02 -0.14982013897E+02  0.33335063188E+01  0.23347252707E+02  0.51100000000E-03 0. -1.
        -11    1    3    3    0    0  0.44014897478E+01 -0.12839095484E+02 -0.79731509525E+01  0.15741239507E+02  0.51100000000E-03 0.  1.
        -12    1    3    3    0    0 -0.53735924893E+01 -0.60349785520E+01 -0.80984891990E+01  0.11440366676E+02  0.00000000000E+00 0.  1.
</event>
<event>
 7    1  0.9953837E-014  0.5052886E+02  0.7816164E-02  0.1300439E+00
        -11   -1    0    0    0    0  0.00000000000E+00  0.00000000000E+00  0.45593999997E+02  0.45594000000E+02  0.51100000000E-03 0. -1.
         11   -1    0    0    0    0 -0.00000000000E+00 -0.00000000000E+00 -0.45593999997E+02  0.45594000000E+02  0.51100000000E-03 0.  1.
    9900012    2    1    2    0    0 -0.15903796518E+02 -0.10582215124E+02  0.35892224411E+02  0.50528858422E+02  0.29999995661E+02 0.  0.
        -12    1    1    2    0    0  0.15903796518E+02  0.10582215124E+02 -0.35892224411E+02  0.40659141578E+02  0.00000000000E+00 0.  1.
         11    1    3    3    0    0  0.15564966356E+01  0.62015222446E+01  0.16629984398E+02  0.17816788186E+02  0.51100000000E-03 0. -1.
        -11    1    3    3    0    0 -0.16354581180E+02 -0.10680191076E+02  0.17594525356E+02  0.26288897462E+02  0.51100000000E-03 0.  1.
        -12    1    3    3    0    0 -0.11057119744E+01 -0.61035462930E+01  0.16677146578E+01  0.64231727752E+01  0.00000000000E+00 0.  1.
</event>
<event>
 7    1  0.9953837E-014  0.5052886E+02  0.7816164E-02  0.1300439E+00
        -11   -1    0    0    0    0  0.00000000000E+00  0.00000000000E+00  0.45593999997E+02  0.45594000000E+02  0.51100000000E-03 0. -1.
         11   -1    0    0    0    0 -0.00000000000E+00 -0.00000000000E+00 -0.45593999997E+02  0.45594000000E+02  0.51100000000E-03 0.  1.
    9900012    2    1    2    0    0  0.22437390741E+02 -0.99274836405E+00  0.33893125776E+02  0.50528855550E+02  0.29999986930E+02 0.  0.
        -12    1    1    2    0    0 -0.22437390741E+02  0.99274836405E+00 -0.33893125776E+02  0.40659144450E+02  0.00000000000E+00 0.  1.
         11    1    3    3    0    0 -0.32909812513E+01 -0.36817825680E+01  0.99732139655E+01  0.11128839901E+02  0.51100000000E-03 0. -1.
        -11    1    3    3    0    0  0.19306443457E+02 -0.24868732127E+01  0.71972685194E+01  0.20753890520E+02  0.51100000000E-03 0.  1.
        -12    1    3    3    0    0  0.64219285354E+01  0.51759074166E+01  0.16722643291E+02  0.18646125129E+02  0.00000000000E+00 0.  1.
</event>
<event>
 7    1  0.9953837E-014  0.5052885E+02  0.7816164E-02  0.1300439E+00
        -11   -1    0    0    0    0  0.00000000000E+00  0.00000000000E+00  0.45593999997E+02  0.45594000000E+02  0.51100000000E-03 0. -1.
         11   -1    0    0    0    0 -0.00000000000E+00 -0.00000000000E+00 -0.45593999997E+02  0.45594000000E+02  0.51100000000E-03 0.  1.
    9900012    2    1    2    0    0  0.13202921373E+02 -0.17235078654E+02  0.34377337056E+02  0.50528851312E+02  0.29999974047E+02 0.  0.
        -12    1    1    2    0    0 -0.13202921373E+02  0.17235078654E+02 -0.34377337056E+02  0.40659148688E+02  0.00000000000E+00 0.  1.
         11    1    3    3    0    0 -0.30894819985E+01 -0.18080657717E+01  0.15588575013E+01  0.39043613850E+01  0.51100000000E-03 0.  1.
        -11    1    3    3    0    0  0.82786921250E+01 -0.84438610095E+01  0.33935275817E+02  0.35936589669E+02  0.51100000000E-03 0. -1.
        -12    1    3    3    0    0  0.80137112470E+01 -0.69831518723E+01 -0.11167962619E+01  0.10687900257E+02  0.00000000000E+00 0.  1.
</event>
<event>
 7    1  0.9953837E-014  0.5052886E+02  0.7816164E-02  0.1300439E+00
        -11   -1    0    0    0    0  0.00000000000E+00  0.00000000000E+00  0.45593999997E+02  0.45594000000E+02  0.51100000000E-03 0. -1.
         11   -1    0    0    0    0 -0.00000000000E+00 -0.00000000000E+00 -0.45593999997E+02  0.45594000000E+02  0.51100000000E-03 0.  1.
    9900012    2    1    2    0    0  0.21065609255E+02  0.20224309595E+02 -0.28291044083E+02  0.50528858750E+02  0.29999996657E+02 0.  0.
         12    1    1    2    0    0 -0.21065609255E+02 -0.20224309595E+02  0.28291044083E+02  0.40659141250E+02  0.00000000000E+00 0. -1.
         11    1    3    3    0    0  0.21995190156E+02  0.13647591481E+02 -0.56254626411E+01  0.26489450229E+02  0.51100000000E-03 0. -1.
        -11    1    3    3    0    0  0.13013647691E+01  0.48058896340E+01 -0.11815878484E+02  0.12822055609E+02  0.51100000000E-03 0.  1.
         12    1    3    3    0    0 -0.22309456699E+01  0.17708284796E+01 -0.10849702958E+02  0.11217352912E+02  0.00000000000E+00 0. -1.
</event>
<event>
 7    1  0.9953837E-014  0.5052890E+02  0.7816164E-02  0.1300439E+00
        -11   -1    0    0    0    0  0.00000000000E+00  0.00000000000E+00  0.45593999997E+02  0.45594000000E+02  0.51100000000E-03 0. -1.
         11   -1    0    0    0    0 -0.00000000000E+00 -0.00000000000E+00 -0.45593999997E+02  0.45594000000E+02  0.51100000000E-03 0.  1.
    9900012    2    1    2    0    0  0.23082792714E+02  0.54804422819E+00  0.33467104285E+02  0.50528895962E+02  0.30000109765E+02 0.  0.
        -12    1    1    2    0    0 -0.23082792714E+02 -0.54804422819E+00 -0.33467104285E+02  0.40659104038E+02  0.00000000000E+00 0.  1.
         11    1    3    3    0    0  0.81537777252E+01 -0.92883048597E+01  0.75751479979E+01  0.14496191424E+02  0.51100000000E-03 0.  1.
        -11    1    3    3    0    0 -0.22082549149E+01  0.22150425111E+01  0.12757828479E+02  0.13135638198E+02  0.51100000000E-03 0. -1.
         12    1    3    3    0    0  0.17137269904E+02  0.76213065768E+01  0.13134127808E+02  0.22897066340E+02  0.00000000000E+00 0. -1.
</event>
<event>
 7    1  0.9953837E-014  0.5052886E+02  0.7816164E-02  0.1300439E+00
        -11   -1    0    0    0    0  0.00000000000E+00  0.00000000000E+00  0.45593999997E+02  0.45594000000E+02  0.51100000000E-03 0. -1.
         11   -1    0    0    0    0 -0.00000000000E+00 -0.00000000000E+00 -0.45593999997E+02  0.45594000000E+02  0.51100000000E-03 0.  1.
    9900012    2    1    2    0    0  0.63553994016E+01 -0.27316182236E+02  0.29438085309E+02  0.50528858591E+02  0.29999996172E+02 0.  0.
        -12    1    1    2    0    0 -0.63553994016E+01  0.27316182236E+02 -0.29438085309E+02  0.40659141409E+02  0.00000000000E+00 0.  1.
         11    1    3    3    0    0  0.72520542907E+01 -0.23293367136E+02  0.10227716486E+02  0.26453344377E+02  0.51100000000E-03 0. -1.
        -11    1    3    3    0    0 -0.30446408460E+01  0.44658868071E+01  0.99993949733E+01  0.11366700618E+02  0.51100000000E-03 0.  1.
        -12    1    3    3    0    0  0.21479859570E+01 -0.84887019071E+01  0.92109738494E+01  0.12708813595E+02  0.00000000000E+00 0.  1.
</event>
<event>
 7    1  0.9953837E-014  0.5052887E+02  0.7816164E-02  0.1300439E+00
        -11   -1    0    0    0    0  0.00000000000E+00  0.00000000000E+00  0.45593999997E+02  0.45594000000E+02  0.51100000000E-03 0.  1.
         11   -1    0    0    0    0 -0.00000000000E+00 -0.00000000000E+00 -0.45593999997E+02  0.45594000000E+02  0.51100000000E-03 0. -1.
    9900012    2    1    2    0    0 -0.12486697478E+01  0.33599603780E+02  0.22862028325E+02  0.50528869544E+02  0.30000029467E+02 0.  0.
        -12    1    1    2    0    0  0.12486697478E+01 -0.33599603780E+02 -0.22862028325E+02  0.40659130456E+02  0.00000000000E+00 0.  1.
         11    1    3    3    0    0  0.67360122214E+01  0.17339576119E+01  0.90203155715E+01  0.11390634878E+02  0.51100000000E-03 0. -1.
        -11    1    3    3    0    0 -0.11609320966E+02  0.25136563631E+02  0.14866433977E+02  0.31426645127E+02  0.51100000000E-03 0.  1.
        -12    1    3    3    0    0  0.36246389969E+01  0.67290825366E+01 -0.10247212242E+01  0.77115895397E+01  0.00000000000E+00 0.  1.
</event>
<event>
 7    1  0.9953837E-014  0.5052887E+02  0.7816164E-02  0.1300439E+00
        -11   -1    0    0    0    0  0.00000000000E+00  0.00000000000E+00  0.45593999997E+02  0.45594000000E+02  0.51100000000E-03 0. -1.
         11   -1    0    0    0    0 -0.00000000000E+00 -0.00000000000E+00 -0.45593999997E+02  0.45594000000E+02  0.51100000000E-03 0.  1.
    9900012    2    1    2    0    0 -0.14489279205E+02 -0.12105985586E+02 -0.36009310103E+02  0.50528874173E+02  0.30000043536E+02 0.  0.
         12    1    1    2    0    0  0.14489279205E+02  0.12105985586E+02  0.36009310103E+02  0.40659125827E+02  0.00000000000E+00 0. -1.
         11    1    3    3    0    0 -0.61324066417E+01  0.29627281864E+01 -0.21985111083E+02  0.23015848433E+02  0.51100000000E-03 0. -1.
        -11    1    3    3    0    0 -0.13291877583E+02 -0.11547979602E+02 -0.10347939720E+02  0.20423263678E+02  0.51100000000E-03 0.  1.
         12    1    3    3    0    0  0.49350050192E+01 -0.35207341707E+01 -0.36762593009E+01  0.70897620614E+01  0.00000000000E+00 0. -1.
</event>
<event>
 7    1  0.9953837E-014  0.5052886E+02  0.7816164E-02  0.1300439E+00
        -11   -1    0    0    0    0  0.00000000000E+00  0.00000000000E+00  0.45593999997E+02  0.45594000000E+02  0.51100000000E-03 0. -1.
         11   -1    0    0    0    0 -0.00000000000E+00 -0.00000000000E+00 -0.45593999997E+02  0.45594000000E+02  0.51100000000E-03 0.  1.
    9900012    2    1    2    0    0  0.10757107827E+02 -0.83547326086E+01 -0.38309905792E+02  0.50528858253E+02  0.29999995147E+02 0.  0.
         12    1    1    2    0    0 -0.10757107827E+02  0.83547326086E+01  0.38309905792E+02  0.40659141747E+02  0.00000000000E+00 0. -1.
         11    1    3    3    0    0  0.18436910270E+02  0.18541987121E+01 -0.15320097572E+02  0.24042942895E+02  0.51100000000E-03 0. -1.
        -11    1    3    3    0    0 -0.71925865033E+01 -0.76977144168E+01 -0.17441566714E+02  0.20376367624E+02  0.51100000000E-03 0.  1.
         12    1    3    3    0    0 -0.48721593999E+00 -0.25112169039E+01 -0.55482415058E+01  0.61095477343E+01  0.00000000000E+00 0. -1.
</event>
<event>
 7    1  0.9953837E-014  0.5052886E+02  0.7816164E-02  0.1300439E+00
        -11   -1    0    0    0    0  0.00000000000E+00  0.00000000000E+00  0.45593999997E+02  0.45594000000E+02  0.51100000000E-03 0. -1.
         11   -1    0    0    0    0 -0.00000000000E+00 -0.00000000000E+00 -0.45593999997E+02  0.45594000000E+02  0.51100000000E-03 0.  1.
    9900012    2    1    2    0    0  0.30789108156E+02  0.24861765536E+02  0.93321531956E+01  0.50528860193E+02  0.30000001043E+02 0.  0.
        -12    1    1    2    0    0 -0.30789108156E+02 -0.24861765536E+02 -0.93321531956E+01  0.40659139807E+02  0.00000000000E+00 0.  1.
         11    1    3    3    0    0  0.15622006466E+01 -0.82531492952E+00  0.10613519736E+02  0.10759573274E+02  0.51100000000E-03 0. -1.
        -11    1    3    3    0    0  0.28539666830E+02  0.22853434614E+02  0.54115639057E-01  0.36562207061E+02  0.51100000000E-03 0.  1.
         12    1    3    3    0    0  0.68724067908E+00  0.28336458513E+01 -0.13354821794E+01  0.32070798576E+01  0.00000000000E+00 0. -1.
</event>
<event>
 7    1  0.9953837E-014  0.5052886E+02  0.7816164E-02  0.1300439E+00
        -11   -1    0    0    0    0  0.00000000000E+00  0.00000000000E+00  0.45593999997E+02  0.45594000000E+02  0.51100000000E-03 0. -1.
         11   -1    0    0    0    0 -0.00000000000E+00 -0.00000000000E+00 -0.45593999997E+02  0.45594000000E+02  0.51100000000E-03 0.  1.
    9900012    2    1    2    0    0 -0.13076244913E+02 -0.18656949243E+01 -0.38453827702E+02  0.50528857565E+02  0.29999993055E+02 0.  0.
         12    1    1    2    0    0  0.13076244913E+02  0.18656949243E+01  0.38453827702E+02  0.40659142435E+02  0.00000000000E+00 0. -1.
         11    1    3    3    0    0  0.58326264219E+01  0.44089362997E+01 -0.24174619407E+01  0.77008033846E+01  0.51100000000E-03 0. -1.
        -11    1    3    3    0    0 -0.14258583900E+02 -0.70247409176E+01 -0.17235259374E+02  0.23445860311E+02  0.51100000000E-03 0.  1.
        -12    1    3    3    0    0 -0.46502874351E+01  0.75010969359E+00 -0.18801106388E+02  0.19382193869E+02  0.00000000000E+00 0.  1.
</event>
<event>
 7    1  0.9953837E-014  0.5052885E+02  0.7816164E-02  0.1300439E+00
        -11   -1    0    0    0    0  0.00000000000E+00  0.00000000000E+00  0.45593999997E+02  0.45594000000E+02  0.51100000000E-03 0. -1.
         11   -1    0    0    0    0 -0.00000000000E+00 -0.00000000000E+00 -0.45593999997E+02  0.45594000000E+02  0.51100000000E-03 0.  1.
    9900012    2    1    2    0    0 -0.32523538468E+02  0.18660493111E+02  0.15721697861E+02  0.50528851691E+02  0.29999975199E+02 0.  0.
        -12    1    1    2    0    0  0.32523538468E+02 -0.18660493111E+02 -0.15721697861E+02  0.40659148309E+02  0.00000000000E+00 0.  1.
         11    1    3    3    0    0 -0.74795639992E+01  0.15227456068E+02  0.83385021283E+01  0.18903701064E+02  0.51100000000E-03 0. -1.
        -11    1    3    3    0    0 -0.12697270451E+02 -0.63773929264E+01 -0.87801332235E-02  0.14208866767E+02  0.51100000000E-03 0.  1.
        -12    1    3    3    0    0 -0.12346704018E+02  0.98104299691E+01  0.73919758664E+01  0.17416283860E+02  0.00000000000E+00 0.  1.
</event>
<event>
 7    1  0.9953837E-014  0.5052886E+02  0.7816164E-02  0.1300439E+00
        -11   -1    0    0    0    0  0.00000000000E+00  0.00000000000E+00  0.45593999997E+02  0.45594000000E+02  0.51100000000E-03 0. -1.
         11   -1    0    0    0    0 -0.00000000000E+00 -0.00000000000E+00 -0.45593999997E+02  0.45594000000E+02  0.51100000000E-03 0.  1.
    9900012    2    1    2    0    0 -0.21737248770E+02  0.63331219779E+01 -0.33772023578E+02  0.50528855953E+02  0.29999988153E+02 0.  0.
         12    1    1    2    0    0  0.21737248770E+02 -0.63331219779E+01  0.33772023578E+02  0.40659144047E+02  0.00000000000E+00 0. -1.
         11    1    3    3    0    0 -0.19571789511E+02  0.35370175624E+01 -0.90587553383E+01  0.21854667384E+02  0.51100000000E-03 0. -1.
        -11    1    3    3    0    0 -0.37706607586E+01  0.81351086349E+01 -0.15312632497E+02  0.17744705951E+02  0.51100000000E-03 0.  1.
         12    1    3    3    0    0  0.16052014995E+01 -0.53390042194E+01 -0.94006357433E+01  0.10929482618E+02  0.00000000000E+00 0. -1.
</event>
<event>
 7    1  0.9953837E-014  0.5052885E+02  0.7816164E-02  0.1300439E+00
        -11   -1    0    0    0    0  0.00000000000E+00  0.00000000000E+00  0.45593999997E+02  0.45594000000E+02  0.51100000000E-03 0. -1.
         11   -1    0    0    0    0 -0.00000000000E+00 -0.00000000000E+00 -0.45593999997E+02  0.45594000000E+02  0.51100000000E-03 0.  1.
    9900012    2    1    2    0    0  0.32152362824E+02 -0.21414276912E+02 -0.12681517820E+02  0.50528848692E+02  0.29999966085E+02 0.  0.
         12    1    1    2    0    0 -0.32152362824E+02  0.21414276912E+02  0.12681517820E+02  0.40659151308E+02  0.00000000000E+00 0. -1.
         11    1    3    3    0    0  0.19829525858E+02 -0.24376337277E+02 -0.10389390313E+02  0.33096153041E+02  0.51100000000E-03 0. -1.
        -11    1    3    3    0    0  0.96009708966E+01 -0.93291291108E+00  0.32066734602E+01  0.10165221276E+02  0.51100000000E-03 0.  1.
         12    1    3    3    0    0  0.27218660700E+01  0.38949732757E+01 -0.54988009666E+01  0.72674743750E+01  0.00000000000E+00 0. -1.
</event>
<event>
 7    1  0.9953837E-014  0.5052884E+02  0.7816164E-02  0.1300439E+00
        -11   -1    0    0    0    0  0.00000000000E+00  0.00000000000E+00  0.45593999997E+02  0.45594000000E+02  0.51100000000E-03 0.  1.
         11   -1    0    0    0    0 -0.00000000000E+00 -0.00000000000E+00 -0.45593999997E+02  0.45594000000E+02  0.51100000000E-03 0. -1.
    9900012    2    1    2    0    0  0.20273425927E+02 -0.26246210958E+02 -0.23522151254E+02  0.50528843736E+02  0.29999951020E+02 0.  0.
         12    1    1    2    0    0 -0.20273425927E+02  0.26246210958E+02  0.23522151254E+02  0.40659156264E+02  0.00000000000E+00 0. -1.
         11    1    3    3    0    0 -0.50713613997E+00 -0.44281758456E+00 -0.88191857434E+00  0.11095292292E+01  0.51100000000E-03 0. -1.
        -11    1    3    3    0    0  0.11152688173E+01 -0.20052098143E+02 -0.17513113938E+01  0.20159304461E+02  0.51100000000E-03 0.  1.
        -12    1    3    3    0    0  0.19665293250E+02 -0.57512952304E+01 -0.20888921286E+02  0.29260010046E+02  0.00000000000E+00 0.  1.
</event>
<event>
 7    1  0.9953837E-014  0.5052886E+02  0.7816164E-02  0.1300439E+00
        -11   -1    0    0    0    0  0.00000000000E+00  0.00000000000E+00  0.45593999997E+02  0.45594000000E+02  0.51100000000E-03 0. -1.
         11   -1    0    0    0    0 -0.00000000000E+00 -0.00000000000E+00 -0.45593999997E+02  0.45594000000E+02  0.51100000000E-03 0.  1.
    9900012    2    1    2    0    0  0.57386278756E+01 -0.29274174773E+02 -0.27627093242E+02  0.50528862779E+02  0.30000008904E+02 0.  0.
         12    1    1    2    0    0 -0.57386278756E+01  0.29274174773E+02  0.27627093242E+02  0.40659137221E+02  0.00000000000E+00 0. -1.
         11    1    3    3    0    0  0.45190029595E+01 -0.18207375567E+01 -0.26259205715E+01  0.55346121912E+01  0.51100000000E-03 0. -1.
        -11    1    3    3    0    0 -0.57247771964E+01 -0.48977911989E+01 -0.19295046256E+02  0.20713769403E+02  0.51100000000E-03 0.  1.
        -12    1    3    3    0    0  0.69444021126E+01 -0.22555646017E+02 -0.57061264145E+01  0.24280481186E+02  0.00000000000E+00 0.  1.
</event>
<event>
 7    1  0.9953837E-014  0.5052886E+02  0.7816164E-02  0.1300439E+00
        -11   -1    0    0    0    0  0.00000000000E+00  0.00000000000E+00  0.45593999997E+02  0.45594000000E+02  0.51100000000E-03 0. -1.
         11   -1    0    0    0    0 -0.00000000000E+00 -0.00000000000E+00 -0.45593999997E+02  0.45594000000E+02  0.51100000000E-03 0.  1.
    9900012    2    1    2    0    0 -0.20703980725E+02 -0.10262709367E+02 -0.33454264876E+02  0.50528857611E+02  0.29999993193E+02 0.  0.
         12    1    1    2    0    0  0.20703980725E+02  0.10262709367E+02  0.33454264876E+02  0.40659142389E+02  0.00000000000E+00 0. -1.
         11    1    3    3    0    0  0.50389177362E+01 -0.43359910193E+01 -0.95248829088E-01  0.66483518763E+01  0.51100000000E-03 0. -1.
        -11    1    3    3    0    0 -0.16501856997E+02  0.16116721587E+01 -0.19609568224E+02  0.25679640528E+02  0.51100000000E-03 0.  1.
         12    1    3    3    0    0 -0.92410414648E+01 -0.75383905066E+01 -0.13749447824E+02  0.18200865206E+02  0.00000000000E+00 0. -1.
</event>
<event>
 7    1  0.9953837E-014  0.5052881E+02  0.7816164E-02  0.1300439E+00
        -11   -1    0    0    0    0  0.00000000000E+00  0.00000000000E+00  0.45593999997E+02  0.45594000000E+02  0.51100000000E-03 0. -1.
         11   -1    0    0    0    0 -0.00000000000E+00 -0.00000000000E+00 -0.45593999997E+02  0.45594000000E+02  0.51100000000E-03 0.  1.
    9900012    2    1    2    0    0 -0.41828417970E+01 -0.27263913833E+02 -0.29872264346E+02  0.50528814812E+02  0.29999863101E+02 0.  0.
         12    1    1    2    0    0  0.41828417970E+01  0.27263913833E+02  0.29872264346E+02  0.40659185188E+02  0.00000000000E+00 0. -1.
         11    1    3    3    0    0  0.39223349289E+01 -0.94581568538E+01 -0.23061545747E+01  0.10495703480E+02  0.51100000000E-03 0. -1.
        -11    1    3    3    0    0 -0.14595732082E+02 -0.71730995498E+01 -0.18463239488E+02  0.24604470424E+02  0.51100000000E-03 0.  1.
        -12    1    3    3    0    0  0.64905553565E+01 -0.10632657430E+02 -0.91028702834E+01  0.15428640907E+02  0.00000000000E+00 0.  1.
</event>
<event>
 7    1  0.9953837E-014  0.5052886E+02  0.7816164E-02  0.1300439E+00
        -11   -1    0    0    0    0  0.00000000000E+00  0.00000000000E+00  0.45593999997E+02  0.45594000000E+02  0.51100000000E-03 0. -1.
         11   -1    0    0    0    0 -0.00000000000E+00 -0.00000000000E+00 -0.45593999997E+02  0.45594000000E+02  0.51100000000E-03 0.  1.
    9900012    2    1    2    0    0 -0.71465225568E+01 -0.19275523357E+02  0.35079152673E+02  0.50528861573E+02  0.30000005238E+02 0.  0.
        -12    1    1    2    0    0  0.71465225568E+01  0.19275523357E+02 -0.35079152673E+02  0.40659138427E+02  0.00000000000E+00 0.  1.
         11    1    3    3    0    0 -0.14455590435E+02 -0.21692930829E+02  0.27958214848E+02  0.38225765139E+02  0.51100000000E-03 0. -1.
        -11    1    3    3    0    0  0.74363163898E+01  0.27222134618E+00  0.38206239968E+01  0.83648116474E+01  0.51100000000E-03 0.  1.
         12    1    3    3    0    0 -0.12724851188E+00  0.21451861251E+01  0.33003138281E+01  0.39382847864E+01  0.00000000000E+00 0. -1.
</event>
<event>
 7    1  0.9953837E-014  0.5052885E+02  0.7816164E-02  0.1300439E+00
        -11   -1    0    0    0    0  0.00000000000E+00  0.00000000000E+00  0.45593999997E+02  0.45594000000E+02  0.51100000000E-03 0. -1.
         11   -1    0    0    0    0 -0.00000000000E+00 -0.00000000000E+00 -0.45593999997E+02  0.45594000000E+02  0.51100000000E-03 0.  1.
    9900012    2    1    2    0    0 -0.18711357040E+02 -0.19408405046E+02 -0.30436256348E+02  0.50528846428E+02  0.29999959203E+02 0.  0.
         12    1    1    2    0    0  0.18711357040E+02  0.19408405046E+02  0.30436256348E+02  0.40659153572E+02  0.00000000000E+00 0. -1.
         11    1    3    3    0    0  0.42781394319E+01 -0.54646830308E+01 -0.93562652563E+01  0.11649246217E+02  0.51100000000E-03 0. -1.
        -11    1    3    3    0    0 -0.24670666561E+02 -0.82793722587E+01 -0.13646613275E+02  0.29384006665E+02  0.51100000000E-03 0.  1.
        -12    1    3    3    0    0  0.16811700889E+01 -0.56643497561E+01 -0.74333778165E+01  0.94955935460E+01  0.00000000000E+00 0.  1.
</event>
<event>
 7    1  0.9953837E-014  0.5052886E+02  0.7816164E-02  0.1300439E+00
        -11   -1    0    0    0    0  0.00000000000E+00  0.00000000000E+00  0.45593999997E+02  0.45594000000E+02  0.51100000000E-03 0. -1.
         11   -1    0    0    0    0 -0.00000000000E+00 -0.00000000000E+00 -0.45593999997E+02  0.45594000000E+02  0.51100000000E-03 0.  1.
    9900012    2    1    2    0    0  0.25728352357E+02 -0.19048197379E+02  0.25067581895E+02  0.50528860800E+02  0.30000002889E+02 0.  0.
        -12    1    1    2    0    0 -0.25728352357E+02  0.19048197379E+02 -0.25067581895E+02  0.40659139200E+02  0.00000000000E+00 0.  1.
         11    1    3    3    0    0  0.17063734126E+02 -0.99065095727E+01  0.12838555609E+01  0.19772663948E+02  0.51100000000E-03 0. -1.
        -11    1    3    3    0    0  0.31788458693E+01 -0.98183259039E+00  0.19913436353E+02  0.20189452789E+02  0.51100000000E-03 0.  1.
        -12    1    3    3    0    0  0.54857723615E+01 -0.81598552163E+01  0.38702899811E+01  0.10566744063E+02  0.00000000000E+00 0.  1.
</event>
<event>
 7    1  0.9953837E-014  0.5052886E+02  0.7816164E-02  0.1300439E+00
        -11   -1    0    0    0    0  0.00000000000E+00  0.00000000000E+00  0.45593999997E+02  0.45594000000E+02  0.51100000000E-03 0. -1.
         11   -1    0    0    0    0 -0.00000000000E+00 -0.00000000000E+00 -0.45593999997E+02  0.45594000000E+02  0.51100000000E-03 0.  1.
    9900012    2    1    2    0    0 -0.26217070785E+02  0.23009243737E+02 -0.20890329261E+02  0.50528856446E+02  0.29999989655E+02 0.  0.
         12    1    1    2    0    0  0.26217070785E+02 -0.23009243737E+02  0.20890329261E+02  0.40659143554E+02  0.00000000000E+00 0. -1.
         11    1    3    3    0    0 -0.18686574310E+02  0.28858858272E+02 -0.21774518983E+02  0.40695840542E+02  0.51100000000E-03 0.  1.
        -11    1    3    3    0    0 -0.44789506036E+01 -0.35058441380E+01 -0.57720160314E+00  0.57170887330E+01  0.51100000000E-03 0. -1.
        -12    1    3    3    0    0 -0.30515458708E+01 -0.23437703972E+01  0.14613913249E+01  0.41159271715E+01  0.00000000000E+00 0.  1.
</event>
<event>
 7    1  0.9953837E-014  0.5052885E+02  0.7816164E-02  0.1300439E+00
        -11   -1    0    0    0    0  0.00000000000E+00  0.00000000000E+00  0.45593999997E+02  0.45594000000E+02  0.51100000000E-03 0. -1.
         11   -1    0    0    0    0 -0.00000000000E+00 -0.00000000000E+00 -0.45593999997E+02  0.45594000000E+02  0.51100000000E-03 0.  1.
    9900012    2    1    2    0    0  0.29621247298E+02 -0.27799864769E+02 -0.17074747457E+01  0.50528852903E+02  0.29999978884E+02 0.  0.
        -12    1    1    2    0    0 -0.29621247298E+02  0.27799864769E+02  0.17074747457E+01  0.40659147097E+02  0.00000000000E+00 0.  1.
         11    1    3    3    0    0  0.14676317845E+02 -0.26436365258E+02 -0.63840078508E+01  0.30903580214E+02  0.51100000000E-03 0. -1.
        -11    1    3    3    0    0  0.38807681080E+01  0.46952717379E+01  0.33217020164E+01  0.69382737296E+01  0.51100000000E-03 0.  1.
         12    1    3    3    0    0  0.11064161345E+02 -0.60587712487E+01  0.13548310887E+01  0.12686998959E+02  0.00000000000E+00 0. -1.
</event>
<event>
 7    1  0.9953837E-014  0.5052886E+02  0.7816164E-02  0.1300439E+00
        -11   -1    0    0    0    0  0.00000000000E+00  0.00000000000E+00  0.45593999997E+02  0.45594000000E+02  0.51100000000E-03 0. -1.
         11   -1    0    0    0    0 -0.00000000000E+00 -0.00000000000E+00 -0.45593999997E+02  0.45594000000E+02  0.51100000000E-03 0.  1.
    9900012    2    1    2    0    0 -0.31038744688E+02 -0.18369780735E+02 -0.18770004322E+02  0.50528861073E+02  0.30000003718E+02 0.  0.
         12    1    1    2    0    0  0.31038744688E+02  0.18369780735E+02  0.18770004322E+02  0.40659138927E+02  0.00000000000E+00 0. -1.
         11    1    3    3    0    0 -0.21507518099E+01  0.35211342395E+01 -0.11879118885E+02  0.12575276753E+02  0.51100000000E-03 0. -1.
        -11    1    3    3    0    0 -0.14325809749E+02 -0.81603250716E+01 -0.70680580793E+01  0.17938148609E+02  0.51100000000E-03 0.  1.
         12    1    3    3    0    0 -0.14562183128E+02 -0.13730589903E+02  0.17717264275E+00  0.20015435711E+02  0.00000000000E+00 0. -1.
</event>
<event>
 7    1  0.9953837E-014  0.5052886E+02  0.7816164E-02  0.1300439E+00
        -11   -1    0    0    0    0  0.00000000000E+00  0.00000000000E+00  0.45593999997E+02  0.45594000000E+02  0.51100000000E-03 0. -1.
         11   -1    0    0    0    0 -0.00000000000E+00 -0.00000000000E+00 -0.45593999997E+02  0.45594000000E+02  0.51100000000E-03 0.  1.
    9900012    2    1    2    0    0 -0.13868995634E+02 -0.28659642624E+02  0.25287178752E+02  0.50528861242E+02  0.30000004233E+02 0.  0.
        -12    1    1    2    0    0  0.13868995634E+02  0.28659642624E+02 -0.25287178752E+02  0.40659138758E+02  0.00000000000E+00 0.  1.
         11    1    3    3    0    0 -0.84246766410E+01 -0.21221449129E+02  0.17219197059E+02  0.28597654226E+02  0.51100000000E-03 0. -1.
        -11    1    3    3    0    0  0.53801892614E+01 -0.17232484558E+01  0.78716378438E+01  0.96891023492E+01  0.51100000000E-03 0.  1.
        -12    1    3    3    0    0 -0.10824508255E+02 -0.57149450400E+01  0.19634384915E+00  0.12242104667E+02  0.00000000000E+00 0.  1.
</event>
<event>
 7    1  0.9953837E-014  0.5052886E+02  0.7816164E-02  0.1300439E+00
        -11   -1    0    0    0    0  0.00000000000E+00  0.00000000000E+00  0.45593999997E+02  0.45594000000E+02  0.51100000000E-03 0. -1.
         11   -1    0    0    0    0 -0.00000000000E+00 -0.00000000000E+00 -0.45593999997E+02  0.45594000000E+02  0.51100000000E-03 0.  1.
    9900012    2    1    2    0    0 -0.10119443857E+02 -0.27356339289E+02 -0.28326548891E+02  0.50528858158E+02  0.29999994857E+02 0.  0.
         12    1    1    2    0    0  0.10119443857E+02  0.27356339289E+02  0.28326548891E+02  0.40659141842E+02  0.00000000000E+00 0. -1.
         11    1    3    3    0    0  0.58611295915E+01  0.33859529961E+01 -0.69995525419E+01  0.97371070564E+01  0.51100000000E-03 0. -1.
        -11    1    3    3    0    0 -0.30909087467E+01 -0.80371683615E+01 -0.43354318142E+01  0.96408382120E+01  0.51100000000E-03 0.  1.
         12    1    3    3    0    0 -0.12889664702E+02 -0.22705123923E+02 -0.16991564535E+02  0.31150912889E+02  0.00000000000E+00 0. -1.
</event>
<event>
 7    1  0.9953837E-014  0.5052885E+02  0.7816164E-02  0.1300439E+00
        -11   -1    0    0    0    0  0.00000000000E+00  0.00000000000E+00  0.45593999997E+02  0.45594000000E+02  0.51100000000E-03 0. -1.
         11   -1    0    0    0    0 -0.00000000000E+00 -0.00000000000E+00 -0.45593999997E+02  0.45594000000E+02  0.51100000000E-03 0.  1.
    9900012    2    1    2    0    0  0.18045498150E+02 -0.18045314401E+02  0.31652690016E+02  0.50528853912E+02  0.29999981951E+02 0.  0.
        -12    1    1    2    0    0 -0.18045498150E+02  0.18045314401E+02 -0.31652690016E+02  0.40659146088E+02  0.00000000000E+00 0.  1.
         11    1    3    3    0    0  0.53147143951E+01 -0.19303193902E+01 -0.15319491334E+01  0.58582583127E+01  0.51100000000E-03 0.  1.
        -11    1    3    3    0    0  0.26258611008E+01 -0.36054220938E+01  0.27119488857E+02  0.27483829630E+02  0.51100000000E-03 0. -1.
        -12    1    3    3    0    0  0.10104922655E+02 -0.12509572917E+02  0.60651502932E+01  0.17186765970E+02  0.00000000000E+00 0.  1.
</event>
<event>
 7    1  0.9953837E-014  0.5052887E+02  0.7816164E-02  0.1300439E+00
        -11   -1    0    0    0    0  0.00000000000E+00  0.00000000000E+00  0.45593999997E+02  0.45594000000E+02  0.51100000000E-03 0. -1.
         11   -1    0    0    0    0 -0.00000000000E+00 -0.00000000000E+00 -0.45593999997E+02  0.45594000000E+02  0.51100000000E-03 0.  1.
    9900012    2    1    2    0    0 -0.36913429816E+02 -0.12279918006E+02  0.11822331933E+02  0.50528865487E+02  0.30000017133E+02 0.  0.
        -12    1    1    2    0    0  0.36913429816E+02  0.12279918006E+02 -0.11822331933E+02  0.40659134513E+02  0.00000000000E+00 0.  1.
         11    1    3    3    0    0  0.16968428003E+01  0.45503671122E+01  0.38774942279E+01  0.62145054585E+01  0.51100000000E-03 0. -1.
        -11    1    3    3    0    0 -0.33535559410E+02 -0.16735606819E+02  0.10074742906E+02  0.38809982291E+02  0.51100000000E-03 0.  1.
         12    1    3    3    0    0 -0.50747132070E+01 -0.94678298835E-01 -0.21299052001E+01  0.55043777373E+01  0.00000000000E+00 0. -1.
</event>
<event>
 7    1  0.9953837E-014  0.5052886E+02  0.7816164E-02  0.1300439E+00
        -11   -1    0    0    0    0  0.00000000000E+00  0.00000000000E+00  0.45593999997E+02  0.45594000000E+02  0.51100000000E-03 0. -1.
         11   -1    0    0    0    0 -0.00000000000E+00 -0.00000000000E+00 -0.45593999997E+02  0.45594000000E+02  0.51100000000E-03 0.  1.
    9900012    2    1    2    0    0 -0.17478728530E+02  0.26341237849E+02 -0.25569494920E+02  0.50528857942E+02  0.29999994201E+02 0.  0.
         12    1    1    2    0    0  0.17478728530E+02 -0.26341237849E+02  0.25569494920E+02  0.40659142058E+02  0.00000000000E+00 0. -1.
         11    1    3    3    0    0 -0.67696371647E+00 -0.44209321440E+01  0.24294434625E+01  0.50897069360E+01  0.51100000000E-03 0. -1.
        -11    1    3    3    0    0 -0.77930982578E+01  0.16280563729E+02 -0.99643763420E+01  0.20617418169E+02  0.51100000000E-03 0.  1.
         12    1    3    3    0    0 -0.90086665555E+01  0.14481606263E+02 -0.18034562040E+02  0.24821732838E+02  0.00000000000E+00 0. -1.
</event>
<event>
 7    1  0.9953837E-014  0.5052888E+02  0.7816164E-02  0.1300439E+00
        -11   -1    0    0    0    0  0.00000000000E+00  0.00000000000E+00  0.45593999997E+02  0.45594000000E+02  0.51100000000E-03 0. -1.
         11   -1    0    0    0    0 -0.00000000000E+00 -0.00000000000E+00 -0.45593999997E+02  0.45594000000E+02  0.51100000000E-03 0.  1.
    9900012    2    1    2    0    0  0.35286112118E+02  0.10630512870E+02 -0.17176926565E+02  0.50528876565E+02  0.30000050808E+02 0.  0.
         12    1    1    2    0    0 -0.35286112118E+02 -0.10630512870E+02  0.17176926565E+02  0.40659123435E+02  0.00000000000E+00 0. -1.
         11    1    3    3    0    0  0.19192501004E+02  0.19969162260E+01  0.10863572256E+01  0.19326664003E+02  0.51100000000E-03 0. -1.
        -11    1    3    3    0    0  0.16958304118E+02  0.77025932530E+01 -0.21069440168E+02  0.28121794584E+02  0.51100000000E-03 0.  1.
        -12    1    3    3    0    0 -0.86469300423E+00  0.93100339122E+00  0.28061563773E+01  0.30804179781E+01  0.00000000000E+00 0.  1.
</event>
<event>
 7    1  0.9953837E-014  0.5052886E+02  0.7816164E-02  0.1300439E+00
        -11   -1    0    0    0    0  0.00000000000E+00  0.00000000000E+00  0.45593999997E+02  0.45594000000E+02  0.51100000000E-03 0. -1.
         11   -1    0    0    0    0 -0.00000000000E+00 -0.00000000000E+00 -0.45593999997E+02  0.45594000000E+02  0.51100000000E-03 0.  1.
    9900012    2    1    2    0    0 -0.13965503743E+02 -0.26985137336E+02  0.27017268620E+02  0.50528859139E+02  0.29999997840E+02 0.  0.
        -12    1    1    2    0    0  0.13965503743E+02  0.26985137336E+02 -0.27017268620E+02  0.40659140861E+02  0.00000000000E+00 0.  1.
         11    1    3    3    0    0 -0.57599276537E-01 -0.11698920444E+02  0.21446399375E+02  0.24429819968E+02  0.51100000000E-03 0. -1.
        -11    1    3    3    0    0 -0.15606787867E+02 -0.81327076143E+01  0.63413687370E+01  0.18706301568E+02  0.51100000000E-03 0.  1.
        -12    1    3    3    0    0  0.16988833999E+01 -0.71535092783E+01 -0.77049949257E+00  0.73927376031E+01  0.00000000000E+00 0.  1.
</event>
<event>
 7    1  0.9953837E-014  0.5052885E+02  0.7816164E-02  0.1300439E+00
        -11   -1    0    0    0    0  0.00000000000E+00  0.00000000000E+00  0.45593999997E+02  0.45594000000E+02  0.51100000000E-03 0. -1.
         11   -1    0    0    0    0 -0.00000000000E+00 -0.00000000000E+00 -0.45593999997E+02  0.45594000000E+02  0.51100000000E-03 0.  1.
    9900012    2    1    2    0    0  0.60234633292E+01  0.26555869448E+02 -0.30193870855E+02  0.50528854045E+02  0.29999982355E+02 0.  0.
         12    1    1    2    0    0 -0.60234633292E+01 -0.26555869448E+02  0.30193870855E+02  0.40659145955E+02  0.00000000000E+00 0. -1.
         11    1    3    3    0    0 -0.17593785731E+01  0.36799293796E+00  0.32474466528E+01  0.37117033543E+01  0.51100000000E-03 0. -1.
        -11    1    3    3    0    0  0.31549313758E+01  0.26080278932E+02 -0.21290801495E+02  0.33814682754E+02  0.51100000000E-03 0.  1.
         12    1    3    3    0    0  0.46279105265E+01  0.10759757734E+00 -0.12150516012E+02  0.13002467937E+02  0.00000000000E+00 0. -1.
</event>
<event>
 7    1  0.9953837E-014  0.5052886E+02  0.7816164E-02  0.1300439E+00
        -11   -1    0    0    0    0  0.00000000000E+00  0.00000000000E+00  0.45593999997E+02  0.45594000000E+02  0.51100000000E-03 0. -1.
         11   -1    0    0    0    0 -0.00000000000E+00 -0.00000000000E+00 -0.45593999997E+02  0.45594000000E+02  0.51100000000E-03 0.  1.
    9900012    2    1    2    0    0 -0.13122622537E+01 -0.34486287281E+01 -0.40491366740E+02  0.50528857697E+02  0.29999993455E+02 0.  0.
         12    1    1    2    0    0  0.13122622537E+01  0.34486287281E+01  0.40491366740E+02  0.40659142303E+02  0.00000000000E+00 0. -1.
         11    1    3    3    0    0  0.73689841292E+01 -0.40755609640E+01 -0.32315469551E+02  0.33394635749E+02  0.51100000000E-03 0.  1.
        -11    1    3    3    0    0 -0.20136506184E+01 -0.48297639325E+01  0.34496329340E-01  0.52328384950E+01  0.51100000000E-03 0. -1.
         12    1    3    3    0    0 -0.66675957644E+01  0.54566961684E+01 -0.82103935190E+01  0.11901383453E+02  0.00000000000E+00 0. -1.
</event>
<event>
 7    1  0.1087163E-013  0.5052899E+02  0.7816164E-02  0.1300438E+00
        -11   -1    0    0    0    0  0.00000000000E+00  0.00000000000E+00  0.45593999997E+02  0.45594000000E+02  0.51100000000E-03 0. -1.
         11   -1    0    0    0    0 -0.00000000000E+00 -0.00000000000E+00 -0.45593999997E+02  0.45594000000E+02  0.51100000000E-03 0.  1.
    9900012    2    1    2    0    0  0.16546457437E+02 -0.26675835072E+02  0.25841245182E+02  0.50528986448E+02  0.30000384804E+02 0.  0.
        -12    1    1    2    0    0 -0.16546457437E+02  0.26675835072E+02 -0.25841245182E+02  0.40659013552E+02  0.00000000000E+00 0.  1.
         11    1    3    3    0    0  0.15537038142E+02 -0.11236154382E+02  0.10194721746E+02  0.21715963512E+02  0.51100000000E-03 0. -1.
        -11    1    3    3    0    0 -0.53529993161E+01 -0.98370878489E+00 -0.13534520965E+01  0.56083970518E+01  0.51100000000E-03 0.  1.
         12    1    3    3    0    0  0.63624186111E+01 -0.14455971905E+02  0.16999975532E+02  0.23204625883E+02  0.00000000000E+00 0. -1.
</event>
<event>
 7    1  0.9953837E-014  0.5052886E+02  0.7816164E-02  0.1300439E+00
        -11   -1    0    0    0    0  0.00000000000E+00  0.00000000000E+00  0.45593999997E+02  0.45594000000E+02  0.51100000000E-03 0. -1.
         11   -1    0    0    0    0 -0.00000000000E+00 -0.00000000000E+00 -0.45593999997E+02  0.45594000000E+02  0.51100000000E-03 0.  1.
    9900012    2    1    2    0    0 -0.23321085758E+02 -0.18940034665E+02 -0.27396491958E+02  0.50528859261E+02  0.29999998211E+02 0.  0.
         12    1    1    2    0    0  0.23321085758E+02  0.18940034665E+02  0.27396491958E+02  0.40659140739E+02  0.00000000000E+00 0. -1.
         11    1    3    3    0    0  0.53107344514E+01 -0.82428176023E+00  0.17819346578E+01  0.56620342828E+01  0.51100000000E-03 0. -1.
        -11    1    3    3    0    0 -0.12849344320E+02 -0.95820279843E+01 -0.11955664127E+02  0.19996470056E+02  0.51100000000E-03 0.  1.
         12    1    3    3    0    0 -0.15782475889E+02 -0.85337249201E+01 -0.17222762489E+02  0.24870354922E+02  0.00000000000E+00 0. -1.
</event>
<event>
 7    1  0.9953837E-014  0.5052886E+02  0.7816164E-02  0.1300439E+00
        -11   -1    0    0    0    0  0.00000000000E+00  0.00000000000E+00  0.45593999997E+02  0.45594000000E+02  0.51100000000E-03 0. -1.
         11   -1    0    0    0    0 -0.00000000000E+00 -0.00000000000E+00 -0.45593999997E+02  0.45594000000E+02  0.51100000000E-03 0.  1.
    9900012    2    1    2    0    0  0.24756554273E+02 -0.25246387333E+01 -0.32154386661E+02  0.50528863736E+02  0.30000011811E+02 0.  0.
         12    1    1    2    0    0 -0.24756554273E+02  0.25246387333E+01  0.32154386661E+02  0.40659136264E+02  0.00000000000E+00 0. -1.
         11    1    3    3    0    0  0.13090811697E+02 -0.68085284306E+00 -0.30608388328E+01  0.13461116080E+02  0.51100000000E-03 0. -1.
        -11    1    3    3    0    0  0.54331857360E+01 -0.95216901261E+01 -0.22927896249E+02  0.25413982702E+02  0.51100000000E-03 0.  1.
        -12    1    3    3    0    0  0.62325568398E+01  0.76779042359E+01 -0.61656515795E+01  0.11653764955E+02  0.00000000000E+00 0.  1.
</event>
<event>
 7    1  0.9953837E-014  0.5052888E+02  0.7816164E-02  0.1300439E+00
        -11   -1    0    0    0    0  0.00000000000E+00  0.00000000000E+00  0.45593999997E+02  0.45594000000E+02  0.51100000000E-03 0. -1.
         11   -1    0    0    0    0 -0.00000000000E+00 -0.00000000000E+00 -0.45593999997E+02  0.45594000000E+02  0.51100000000E-03 0.  1.
    9900012    2    1    2    0    0 -0.68520703294E+01 -0.14537684673E+02 -0.37347947981E+02  0.50528876032E+02  0.30000049186E+02 0.  0.
         12    1    1    2    0    0  0.68520703294E+01  0.14537684673E+02  0.37347947981E+02  0.40659123968E+02  0.00000000000E+00 0. -1.
         11    1    3    3    0    0  0.23071563497E+01  0.18112138594E+01 -0.11930966422E+02  0.12286229124E+02  0.51100000000E-03 0. -1.
        -11    1    3    3    0    0 -0.39216435466E+01 -0.20190603535E+02 -0.13297009869E+02  0.24491840089E+02  0.51100000000E-03 0.  1.
        -12    1    3    3    0    0 -0.52375831325E+01  0.38417050029E+01 -0.12119971690E+02  0.13750806819E+02  0.00000000000E+00 0.  1.
</event>
<event>
 7    1  0.9953837E-014  0.5052885E+02  0.7816164E-02  0.1300439E+00
        -11   -1    0    0    0    0  0.00000000000E+00  0.00000000000E+00  0.45593999997E+02  0.45594000000E+02  0.51100000000E-03 0.  1.
         11   -1    0    0    0    0 -0.00000000000E+00 -0.00000000000E+00 -0.45593999997E+02  0.45594000000E+02  0.51100000000E-03 0. -1.
    9900012    2    1    2    0    0  0.40564637913E+02 -0.26060591172E+01 -0.94090441523E+00  0.50528847349E+02  0.29999962003E+02 0.  0.
        -12    1    1    2    0    0 -0.40564637913E+02  0.26060591172E+01  0.94090441523E+00  0.40659152651E+02  0.00000000000E+00 0.  1.
         11    1    3    3    0    0  0.36768028028E+02 -0.37093282744E+01 -0.73141194159E+01  0.37671519008E+02  0.51100000000E-03 0. -1.
        -11    1    3    3    0    0  0.13829839767E-02 -0.39110084302E+01  0.51236645905E+01  0.64457682204E+01  0.51100000000E-03 0.  1.
        -12    1    3    3    0    0  0.37952269016E+01  0.50142775874E+01  0.12495504102E+01  0.64115601211E+01  0.00000000000E+00 0.  1.
</event>
<event>
 7    1  0.9953837E-014  0.5052886E+02  0.7816164E-02  0.1300439E+00
        -11   -1    0    0    0    0  0.00000000000E+00  0.00000000000E+00  0.45593999997E+02  0.45594000000E+02  0.51100000000E-03 0. -1.
         11   -1    0    0    0    0 -0.00000000000E+00 -0.00000000000E+00 -0.45593999997E+02  0.45594000000E+02  0.51100000000E-03 0.  1.
    9900012    2    1    2    0    0  0.41435079909E+01  0.13819050833E+02 -0.38013563148E+02  0.50528858253E+02  0.29999995145E+02 0.  0.
         12    1    1    2    0    0 -0.41435079909E+01 -0.13819050833E+02  0.38013563148E+02  0.40659141747E+02  0.00000000000E+00 0. -1.
         11    1    3    3    0    0 -0.80913396788E+01 -0.26309332630E+01 -0.82977373478E+01  0.11884613287E+02  0.51100000000E-03 0. -1.
        -11    1    3    3    0    0  0.47630000022E-02  0.10008495354E+02 -0.17678006074E+02  0.20314573610E+02  0.51100000000E-03 0.  1.
         12    1    3    3    0    0  0.12230084670E+02  0.64414887423E+01 -0.12037819726E+02  0.18329671356E+02  0.00000000000E+00 0. -1.
</event>
<event>
 7    1  0.9953837E-014  0.5052887E+02  0.7816164E-02  0.1300439E+00
        -11   -1    0    0    0    0  0.00000000000E+00  0.00000000000E+00  0.45593999997E+02  0.45594000000E+02  0.51100000000E-03 0. -1.
         11   -1    0    0    0    0 -0.00000000000E+00 -0.00000000000E+00 -0.45593999997E+02  0.45594000000E+02  0.51100000000E-03 0.  1.
    9900012    2    1    2    0    0  0.18544750517E+02  0.45524767435E+01  0.35896128778E+02  0.50528869691E+02  0.30000029914E+02 0.  0.
        -12    1    1    2    0    0 -0.18544750517E+02 -0.45524767435E+01 -0.35896128778E+02  0.40659130309E+02  0.00000000000E+00 0.  1.
         11    1    3    3    0    0  0.20801298695E+02  0.63572535351E+01  0.33712190623E+02  0.40120075981E+02  0.51100000000E-03 0. -1.
        -11    1    3    3    0    0 -0.30366850678E+01 -0.32362736838E+00 -0.34053915226E+01  0.45741537532E+01  0.51100000000E-03 0.  1.
         12    1    3    3    0    0  0.78013689031E+00 -0.14811494233E+01  0.55893296776E+01  0.58346399569E+01  0.00000000000E+00 0. -1.
</event>
<event>
 7    1  0.1506144E-013  0.5052886E+02  0.7816164E-02  0.1300439E+00
        -11   -1    0    0    0    0  0.00000000000E+00  0.00000000000E+00  0.45593999997E+02  0.45594000000E+02  0.51100000000E-03 0. -1.
         11   -1    0    0    0    0 -0.00000000000E+00 -0.00000000000E+00 -0.45593999997E+02  0.45594000000E+02  0.51100000000E-03 0.  1.
    9900012    2    1    2    0    0  0.46126411106E+00  0.14851928520E+02  0.37846708234E+02  0.50528857492E+02  0.29999992832E+02 0.  0.
        -12    1    1    2    0    0 -0.46126411106E+00 -0.14851928520E+02 -0.37846708234E+02  0.40659142508E+02  0.00000000000E+00 0.  1.
         11    1    3    3    0    0 -0.23933008071E+01  0.15562841028E+02  0.31577925127E+02  0.35285907458E+02  0.51100000000E-03 0. -1.
        -11    1    3    3    0    0 -0.46172736423E+01 -0.11913805095E+01 -0.92773222858E+00  0.48579101222E+01  0.51100000000E-03 0.  1.
         12    1    3    3    0    0  0.74718385605E+01  0.48046800191E+00  0.71965153360E+01  0.10385039911E+02  0.00000000000E+00 0. -1.
</event>
<event>
 7    1  0.9953837E-014  0.5052885E+02  0.7816164E-02  0.1300439E+00
        -11   -1    0    0    0    0  0.00000000000E+00  0.00000000000E+00  0.45593999997E+02  0.45594000000E+02  0.51100000000E-03 0. -1.
         11   -1    0    0    0    0 -0.00000000000E+00 -0.00000000000E+00 -0.45593999997E+02  0.45594000000E+02  0.51100000000E-03 0.  1.
    9900012    2    1    2    0    0  0.35730867986E+02  0.31824189425E+01 -0.19140105881E+02  0.50528851331E+02  0.29999974105E+02 0.  0.
         12    1    1    2    0    0 -0.35730867986E+02 -0.31824189425E+01  0.19140105881E+02  0.40659148669E+02  0.00000000000E+00 0. -1.
         11    1    3    3    0    0  0.10084452087E+02  0.16784024001E+00 -0.50414109085E-01  0.10085974722E+02  0.51100000000E-03 0. -1.
        -11    1    3    3    0    0  0.47427303540E+01  0.23619254241E+01 -0.18794372107E+02  0.19526920036E+02  0.51100000000E-03 0.  1.
        -12    1    3    3    0    0  0.20903685545E+02  0.65265327835E+00 -0.29531966499E+00  0.20915956573E+02  0.00000000000E+00 0.  1.
</event>
<event>
 7    1  0.9953837E-014  0.5052886E+02  0.7816164E-02  0.1300439E+00
        -11   -1    0    0    0    0  0.00000000000E+00  0.00000000000E+00  0.45593999997E+02  0.45594000000E+02  0.51100000000E-03 0. -1.
         11   -1    0    0    0    0 -0.00000000000E+00 -0.00000000000E+00 -0.45593999997E+02  0.45594000000E+02  0.51100000000E-03 0.  1.
    9900012    2    1    2    0    0 -0.48397307064E+01 -0.23359148150E+01 -0.40302434407E+02  0.50528859447E+02  0.29999998776E+02 0.  0.
         12    1    1    2    0    0  0.48397307064E+01  0.23359148150E+01  0.40302434407E+02  0.40659140553E+02  0.00000000000E+00 0. -1.
         11    1    3    3    0    0  0.28086648354E+01 -0.77968999962E+00 -0.25489256721E+02  0.25655383901E+02  0.51100000000E-03 0.  1.
        -11    1    3    3    0    0 -0.30267110837E+01  0.70570653773E+01 -0.70660754464E+00  0.77111896752E+01  0.51100000000E-03 0. -1.
        -12    1    3    3    0    0 -0.46216844581E+01 -0.86132901927E+01 -0.14106570141E+02  0.17162285871E+02  0.00000000000E+00 0.  1.
</event>
<event>
 7    1  0.9953837E-014  0.5052886E+02  0.7816164E-02  0.1300439E+00
        -11   -1    0    0    0    0  0.00000000000E+00  0.00000000000E+00  0.45593999997E+02  0.45594000000E+02  0.51100000000E-03 0. -1.
         11   -1    0    0    0    0 -0.00000000000E+00 -0.00000000000E+00 -0.45593999997E+02  0.45594000000E+02  0.51100000000E-03 0.  1.
    9900012    2    1    2    0    0 -0.10409834080E+02  0.10431248612E+02 -0.37894454424E+02  0.50528864873E+02  0.30000015269E+02 0.  0.
         12    1    1    2    0    0  0.10409834080E+02 -0.10431248612E+02  0.37894454424E+02  0.40659135127E+02  0.00000000000E+00 0. -1.
         11    1    3    3    0    0  0.12666752187E+01 -0.49769665639E+01  0.12507259422E+00  0.51371495698E+01  0.51100000000E-03 0. -1.
        -11    1    3    3    0    0 -0.91195432324E+01  0.17749279916E+02 -0.25380202327E+02  0.32285564525E+02  0.51100000000E-03 0.  1.
        -12    1    3    3    0    0 -0.25569660660E+01 -0.23410647400E+01 -0.12639324691E+02  0.13106150778E+02  0.00000000000E+00 0.  1.
</event>
<event>
 7    1  0.9953837E-014  0.5052884E+02  0.7816164E-02  0.1300439E+00
        -11   -1    0    0    0    0  0.00000000000E+00  0.00000000000E+00  0.45593999997E+02  0.45594000000E+02  0.51100000000E-03 0. -1.
         11   -1    0    0    0    0 -0.00000000000E+00 -0.00000000000E+00 -0.45593999997E+02  0.45594000000E+02  0.51100000000E-03 0.  1.
    9900012    2    1    2    0    0 -0.38333449337E+02 -0.13532950117E+02 -0.75725748071E+00  0.50528837246E+02  0.29999931294E+02 0.  0.
         12    1    1    2    0    0  0.38333449337E+02  0.13532950117E+02  0.75725748071E+00  0.40659162754E+02  0.00000000000E+00 0. -1.
         11    1    3    3    0    0 -0.20710817663E+02  0.62413979463E+01  0.34889396855E+01  0.21910402027E+02  0.51100000000E-03 0. -1.
        -11    1    3    3    0    0 -0.17531166703E+02 -0.19869431719E+02 -0.57452899310E+01  0.27113547895E+02  0.51100000000E-03 0.  1.
         12    1    3    3    0    0 -0.91464970540E-01  0.95083655196E-01  0.14990927648E+01  0.15048873246E+01  0.00000000000E+00 0. -1.
</event>
<event>
 7    1  0.9953837E-014  0.5052886E+02  0.7816164E-02  0.1300439E+00
        -11   -1    0    0    0    0  0.00000000000E+00  0.00000000000E+00  0.45593999997E+02  0.45594000000E+02  0.51100000000E-03 0. -1.
         11   -1    0    0    0    0 -0.00000000000E+00 -0.00000000000E+00 -0.45593999997E+02  0.45594000000E+02  0.51100000000E-03 0.  1.
    9900012    2    1    2    0    0 -0.80357543546E+01 -0.22679976531E+01 -0.39792570869E+02  0.50528857636E+02  0.29999993271E+02 0.  0.
         12    1    1    2    0    0  0.80357543546E+01  0.22679976531E+01  0.39792570869E+02  0.40659142364E+02  0.00000000000E+00 0. -1.
         11    1    3    3    0    0 -0.12413233122E+02 -0.88857684822E+01 -0.19246215287E+02  0.24565464400E+02  0.51100000000E-03 0. -1.
        -11    1    3    3    0    0  0.25122939133E+01  0.60987610681E+01 -0.22358766184E+02  0.23311390623E+02  0.51100000000E-03 0.  1.
         12    1    3    3    0    0  0.18651848538E+01  0.51900976095E+00  0.18124106014E+01  0.26520026129E+01  0.00000000000E+00 0. -1.
</event>
<event>
 7    1  0.9953837E-014  0.5052886E+02  0.7816164E-02  0.1300439E+00
        -11   -1    0    0    0    0  0.00000000000E+00  0.00000000000E+00  0.45593999997E+02  0.45594000000E+02  0.51100000000E-03 0.  1.
         11   -1    0    0    0    0 -0.00000000000E+00 -0.00000000000E+00 -0.45593999997E+02  0.45594000000E+02  0.51100000000E-03 0. -1.
    9900012    2    1    2    0    0  0.27377338876E+02  0.28398614106E+02  0.98572515638E+01  0.50528863567E+02  0.30000011300E+02 0.  0.
        -12    1    1    2    0    0 -0.27377338876E+02 -0.28398614106E+02 -0.98572515638E+01  0.40659136433E+02  0.00000000000E+00 0.  1.
         11    1    3    3    0    0 -0.28438172920E+01  0.10278432963E+01 -0.50621562638E+01  0.58965400814E+01  0.51100000000E-03 0. -1.
        -11    1    3    3    0    0  0.11678049287E+02  0.57528020860E+01  0.81459118502E+01  0.15356674351E+02  0.51100000000E-03 0.  1.
         12    1    3    3    0    0  0.18543106881E+02  0.21617968723E+02  0.67734959774E+01  0.29275649135E+02  0.00000000000E+00 0. -1.
</event>
<event>
 7    1  0.9953837E-014  0.5052887E+02  0.7816164E-02  0.1300439E+00
        -11   -1    0    0    0    0  0.00000000000E+00  0.00000000000E+00  0.45593999997E+02  0.45594000000E+02  0.51100000000E-03 0.  1.
         11   -1    0    0    0    0 -0.00000000000E+00 -0.00000000000E+00 -0.45593999997E+02  0.45594000000E+02  0.51100000000E-03 0. -1.
    9900012    2    1    2    0    0  0.34681554838E+02 -0.10882032330E+01  0.21193650597E+02  0.50528865013E+02  0.30000015694E+02 0.  0.
        -12    1    1    2    0    0 -0.34681554838E+02  0.10882032330E+01 -0.21193650597E+02  0.40659134987E+02  0.00000000000E+00 0.  1.
         11    1    3    3    0    0  0.18879835309E+02  0.13046828550E+00 -0.29036638726E+01  0.19102263411E+02  0.51100000000E-03 0. -1.
        -11    1    3    3    0    0 -0.11513255159E+01 -0.27619875384E+01  0.23258074585E+01  0.37899216616E+01  0.51100000000E-03 0.  1.
         12    1    3    3    0    0  0.16953045045E+02  0.15433160199E+01  0.21771507011E+02  0.27636679941E+02  0.00000000000E+00 0. -1.
</event>
<event>
 7    1  0.9953837E-014  0.5052885E+02  0.7816164E-02  0.1300439E+00
        -11   -1    0    0    0    0  0.00000000000E+00  0.00000000000E+00  0.45593999997E+02  0.45594000000E+02  0.51100000000E-03 0. -1.
         11   -1    0    0    0    0 -0.00000000000E+00 -0.00000000000E+00 -0.45593999997E+02  0.45594000000E+02  0.51100000000E-03 0.  1.
    9900012    2    1    2    0    0  0.23141355053E+02 -0.33111144504E+00  0.33429544402E+02  0.50528851123E+02  0.29999973474E+02 0.  0.
        -12    1    1    2    0    0 -0.23141355053E+02  0.33111144504E+00 -0.33429544402E+02  0.40659148877E+02  0.00000000000E+00 0.  1.
         11    1    3    3    0    0  0.39828294658E+01  0.93463680141E+01  0.13587341548E+02  0.16965652838E+02  0.51100000000E-03 0. -1.
        -11    1    3    3    0    0 -0.28668379334E+01 -0.24174979852E+01  0.16924282523E+01  0.41142885042E+01  0.51100000000E-03 0.  1.
         12    1    3    3    0    0  0.22025363521E+02 -0.72599814739E+01  0.18149774601E+02  0.29448909781E+02  0.00000000000E+00 0. -1.
</event>
<event>
 7    1  0.9953837E-014  0.5052886E+02  0.7816164E-02  0.1300439E+00
        -11   -1    0    0    0    0  0.00000000000E+00  0.00000000000E+00  0.45593999997E+02  0.45594000000E+02  0.51100000000E-03 0. -1.
         11   -1    0    0    0    0 -0.00000000000E+00 -0.00000000000E+00 -0.45593999997E+02  0.45594000000E+02  0.51100000000E-03 0.  1.
    9900012    2    1    2    0    0 -0.19934021504E+01  0.71833444311E+01  0.39969882198E+02  0.50528861147E+02  0.30000003941E+02 0.  0.
        -12    1    1    2    0    0  0.19934021504E+01 -0.71833444311E+01 -0.39969882198E+02  0.40659138853E+02  0.00000000000E+00 0.  1.
         11    1    3    3    0    0 -0.48103984259E+01 -0.58287460030E+01  0.12932869394E+02  0.14979096235E+02  0.51100000000E-03 0. -1.
        -11    1    3    3    0    0 -0.39682552756E+01  0.15290721226E+02  0.16822129314E+02  0.23076768415E+02  0.51100000000E-03 0.  1.
        -12    1    3    3    0    0  0.67852515511E+01 -0.22786307923E+01  0.10214883490E+02  0.12472996497E+02  0.00000000000E+00 0.  1.
</event>
<event>
 7    1  0.9953837E-014  0.5052886E+02  0.7816164E-02  0.1300439E+00
        -11   -1    0    0    0    0  0.00000000000E+00  0.00000000000E+00  0.45593999997E+02  0.45594000000E+02  0.51100000000E-03 0. -1.
         11   -1    0    0    0    0 -0.00000000000E+00 -0.00000000000E+00 -0.45593999997E+02  0.45594000000E+02  0.51100000000E-03 0.  1.
    9900012    2    1    2    0    0 -0.20323415250E+02  0.37128033531E+01  0.35019132732E+02  0.50528858673E+02  0.29999996422E+02 0.  0.
        -12    1    1    2    0    0  0.20323415250E+02 -0.37128033531E+01 -0.35019132732E+02  0.40659141327E+02  0.00000000000E+00 0.  1.
         11    1    3    3    0    0 -0.14027874202E+02  0.61179086961E+01  0.11157521530E+02  0.18939386167E+02  0.51100000000E-03 0. -1.
        -11    1    3    3    0    0 -0.38164485774E+01 -0.71131136811E+01  0.24893416954E+02  0.26169521851E+02  0.51100000000E-03 0.  1.
        -12    1    3    3    0    0 -0.24790924705E+01  0.47080083381E+01 -0.10318057522E+01  0.54199506547E+01  0.00000000000E+00 0.  1.
</event>
<event>
 7    1  0.9953837E-014  0.5052886E+02  0.7816164E-02  0.1300439E+00
        -11   -1    0    0    0    0  0.00000000000E+00  0.00000000000E+00  0.45593999997E+02  0.45594000000E+02  0.51100000000E-03 0. -1.
         11   -1    0    0    0    0 -0.00000000000E+00 -0.00000000000E+00 -0.45593999997E+02  0.45594000000E+02  0.51100000000E-03 0.  1.
    9900012    2    1    2    0    0  0.41468775717E+01 -0.21927001455E+02 -0.33987875642E+02  0.50528859858E+02  0.30000000024E+02 0.  0.
         12    1    1    2    0    0 -0.41468775717E+01  0.21927001455E+02  0.33987875642E+02  0.40659140142E+02  0.00000000000E+00 0. -1.
         11    1    3    3    0    0 -0.14076012290E+01  0.45639685203E+01 -0.14248039836E+02  0.15027234919E+02  0.51100000000E-03 0. -1.
        -11    1    3    3    0    0  0.75153432542E+01 -0.88918888776E+01 -0.96431613079E+01  0.15117428098E+02  0.51100000000E-03 0.  1.
         12    1    3    3    0    0 -0.19608644535E+01 -0.17599081098E+02 -0.10096674498E+02  0.20384196841E+02  0.00000000000E+00 0. -1.
</event>
<event>
 7    1  0.9953837E-014  0.5052888E+02  0.7816164E-02  0.1300439E+00
        -11   -1    0    0    0    0  0.00000000000E+00  0.00000000000E+00  0.45593999997E+02  0.45594000000E+02  0.51100000000E-03 0. -1.
         11   -1    0    0    0    0 -0.00000000000E+00 -0.00000000000E+00 -0.45593999997E+02  0.45594000000E+02  0.51100000000E-03 0.  1.
    9900012    2    1    2    0    0 -0.77328411476E+01 -0.19859483426E+02 -0.34626119135E+02  0.50528879983E+02  0.30000061197E+02 0.  0.
         12    1    1    2    0    0  0.77328411476E+01  0.19859483426E+02  0.34626119135E+02  0.40659120017E+02  0.00000000000E+00 0. -1.
         11    1    3    3    0    0 -0.14324914794E+02 -0.92979599822E+01 -0.44434662867E+01  0.17646519107E+02  0.51100000000E-03 0. -1.
        -11    1    3    3    0    0  0.51323689196E+01 -0.45612194338E+01 -0.15365317396E+02  0.16829703277E+02  0.51100000000E-03 0.  1.
         12    1    3    3    0    0  0.14597047266E+01 -0.60003040095E+01 -0.14817335453E+02  0.16052657600E+02  0.00000000000E+00 0. -1.
</event>
<event>
 7    1  0.9953837E-014  0.5052892E+02  0.7816164E-02  0.1300439E+00
        -11   -1    0    0    0    0  0.00000000000E+00  0.00000000000E+00  0.45593999997E+02  0.45594000000E+02  0.51100000000E-03 0. -1.
         11   -1    0    0    0    0 -0.00000000000E+00 -0.00000000000E+00 -0.45593999997E+02  0.45594000000E+02  0.51100000000E-03 0.  1.
    9900012    2    1    2    0    0 -0.17077858546E+02  0.30061314982E+01 -0.36775951108E+02  0.50528921567E+02  0.30000187594E+02 0.  0.
         12    1    1    2    0    0  0.17077858546E+02 -0.30061314982E+01  0.36775951108E+02  0.40659078433E+02  0.00000000000E+00 0. -1.
         11    1    3    3    0    0 -0.15673585282E+02  0.93992770261E+01 -0.34685038236E+02  0.39205351189E+02  0.51100000000E-03 0.  1.
        -11    1    3    3    0    0  0.10029198861E+01  0.20433186622E+01  0.10898880190E+00  0.22787887733E+01  0.51100000000E-03 0. -1.
         12    1    3    3    0    0 -0.24071931503E+01 -0.84364641902E+01 -0.21999016745E+01  0.90447816045E+01  0.00000000000E+00 0. -1.
</event>
<event>
 7    1  0.9953837E-014  0.5052886E+02  0.7816164E-02  0.1300439E+00
        -11   -1    0    0    0    0  0.00000000000E+00  0.00000000000E+00  0.45593999997E+02  0.45594000000E+02  0.51100000000E-03 0. -1.
         11   -1    0    0    0    0 -0.00000000000E+00 -0.00000000000E+00 -0.45593999997E+02  0.45594000000E+02  0.51100000000E-03 0.  1.
    9900012    2    1    2    0    0  0.27825994519E+02  0.76645247488E+01  0.28637993457E+02  0.50528861054E+02  0.30000003659E+02 0.  0.
        -12    1    1    2    0    0 -0.27825994519E+02 -0.76645247488E+01 -0.28637993457E+02  0.40659138946E+02  0.00000000000E+00 0.  1.
         11    1    3    3    0    0  0.66817141300E+01 -0.22806640762E+00  0.14291689160E+02  0.15778139855E+02  0.51100000000E-03 0. -1.
        -11    1    3    3    0    0  0.18636451418E+02  0.14417801772E+02  0.69330100146E+01  0.24561289818E+02  0.51100000000E-03 0.  1.
        -12    1    3    3    0    0  0.25078289713E+01 -0.65252106160E+01  0.74132942829E+01  0.10189431380E+02  0.00000000000E+00 0.  1.
</event>
<event>
 7    1  0.9953837E-014  0.5052886E+02  0.7816164E-02  0.1300439E+00
        -11   -1    0    0    0    0  0.00000000000E+00  0.00000000000E+00  0.45593999997E+02  0.45594000000E+02  0.51100000000E-03 0. -1.
         11   -1    0    0    0    0 -0.00000000000E+00 -0.00000000000E+00 -0.45593999997E+02  0.45594000000E+02  0.51100000000E-03 0.  1.
    9900012    2    1    2    0    0 -0.21887364810E+02  0.12768147360E+01  0.34241471348E+02  0.50528863828E+02  0.30000012090E+02 0.  0.
        -12    1    1    2    0    0  0.21887364810E+02 -0.12768147360E+01 -0.34241471348E+02  0.40659136172E+02  0.00000000000E+00 0.  1.
         11    1    3    3    0    0 -0.10003640919E+02 -0.84449990851E+00  0.22773533661E+01  0.10294287267E+02  0.51100000000E-03 0. -1.
        -11    1    3    3    0    0 -0.14962715776E+02  0.43300918526E+01  0.32838617109E+02  0.36345664566E+02  0.51100000000E-03 0.  1.
        -12    1    3    3    0    0  0.30789918843E+01 -0.22087772080E+01 -0.87449912687E+00  0.38889119945E+01  0.00000000000E+00 0.  1.
</event>
<event>
 7    1  0.9953837E-014  0.5052885E+02  0.7816164E-02  0.1300439E+00
        -11   -1    0    0    0    0  0.00000000000E+00  0.00000000000E+00  0.45593999997E+02  0.45594000000E+02  0.51100000000E-03 0. -1.
         11   -1    0    0    0    0 -0.00000000000E+00 -0.00000000000E+00 -0.45593999997E+02  0.45594000000E+02  0.51100000000E-03 0.  1.
    9900012    2    1    2    0    0 -0.13509738932E+02  0.72035508123E+01  0.37666462172E+02  0.50528848966E+02  0.29999966916E+02 0.  0.
        -12    1    1    2    0    0  0.13509738932E+02 -0.72035508123E+01 -0.37666462172E+02  0.40659151034E+02  0.00000000000E+00 0.  1.
         11    1    3    3    0    0 -0.14281532087E+02 -0.76769905042E+01  0.14544659518E+02  0.21781769044E+02  0.51100000000E-03 0. -1.
        -11    1    3    3    0    0 -0.20011072167E+01  0.56485939639E+00  0.54668947101E+01  0.58489686495E+01  0.51100000000E-03 0.  1.
         12    1    3    3    0    0  0.27729003717E+01  0.14315681920E+02  0.17654907944E+02  0.22898111272E+02  0.00000000000E+00 0. -1.
</event>
<event>
 7    1  0.9953837E-014  0.5052887E+02  0.7816164E-02  0.1300439E+00
        -11   -1    0    0    0    0  0.00000000000E+00  0.00000000000E+00  0.45593999997E+02  0.45594000000E+02  0.51100000000E-03 0. -1.
         11   -1    0    0    0    0 -0.00000000000E+00 -0.00000000000E+00 -0.45593999997E+02  0.45594000000E+02  0.51100000000E-03 0.  1.
    9900012    2    1    2    0    0  0.19668370184E+02 -0.24248520576E+02 -0.26044762937E+02  0.50528865575E+02  0.30000017400E+02 0.  0.
         12    1    1    2    0    0 -0.19668370184E+02  0.24248520576E+02  0.26044762937E+02  0.40659134425E+02  0.00000000000E+00 0. -1.
         11    1    3    3    0    0  0.56052351565E+01 -0.40080175977E+01  0.42427246261E+01  0.80921924555E+01  0.51100000000E-03 0. -1.
        -11    1    3    3    0    0  0.12710268606E+02 -0.14247546924E+02 -0.30836000752E+02  0.36268477553E+02  0.51100000000E-03 0.  1.
         12    1    3    3    0    0  0.13528664210E+01 -0.59929560545E+01  0.54851318880E+00  0.61681955662E+01  0.00000000000E+00 0. -1.
</event>
<event>
 7    1  0.9953837E-014  0.5052886E+02  0.7816164E-02  0.1300439E+00
        -11   -1    0    0    0    0  0.00000000000E+00  0.00000000000E+00  0.45593999997E+02  0.45594000000E+02  0.51100000000E-03 0. -1.
         11   -1    0    0    0    0 -0.00000000000E+00 -0.00000000000E+00 -0.45593999997E+02  0.45594000000E+02  0.51100000000E-03 0.  1.
    9900012    2    1    2    0    0  0.58917369866E+01  0.18364378091E+02  0.35793897011E+02  0.50528855757E+02  0.29999987557E+02 0.  0.
        -12    1    1    2    0    0 -0.58917369866E+01 -0.18364378091E+02 -0.35793897011E+02  0.40659144243E+02  0.00000000000E+00 0.  1.
         11    1    3    3    0    0  0.52274096893E+00  0.46354778150E+01  0.10897535053E+01  0.47904567274E+01  0.51100000000E-03 0. -1.
        -11    1    3    3    0    0  0.10225276206E+02  0.17678427154E+02  0.33690745073E+02  0.39397326863E+02  0.51100000000E-03 0.  1.
        -12    1    3    3    0    0 -0.48562801881E+01 -0.39495268782E+01  0.10133984322E+01  0.63410721656E+01  0.00000000000E+00 0.  1.
</event>
<event>
 7    1  0.9953837E-014  0.5052888E+02  0.7816164E-02  0.1300439E+00
        -11   -1    0    0    0    0  0.00000000000E+00  0.00000000000E+00  0.45593999997E+02  0.45594000000E+02  0.51100000000E-03 0. -1.
         11   -1    0    0    0    0 -0.00000000000E+00 -0.00000000000E+00 -0.45593999997E+02  0.45594000000E+02  0.51100000000E-03 0.  1.
    9900012    2    1    2    0    0  0.11034403783E+02 -0.54262706232E+01 -0.38755152001E+02  0.50528876961E+02  0.30000052010E+02 0.  0.
         12    1    1    2    0    0 -0.11034403783E+02  0.54262706232E+01  0.38755152001E+02  0.40659123039E+02  0.00000000000E+00 0. -1.
         11    1    3    3    0    0  0.17611732921E+02  0.47218043903E+01 -0.16076751136E+02  0.24309062107E+02  0.51100000000E-03 0. -1.
        -11    1    3    3    0    0 -0.51701836418E+00 -0.17690474891E+01 -0.83412845389E+01  0.85424741748E+01  0.51100000000E-03 0.  1.
         12    1    3    3    0    0 -0.60603107742E+01 -0.83790275244E+01 -0.14337116326E+02  0.17677340679E+02  0.00000000000E+00 0. -1.
</event>
<event>
 7    1  0.9953837E-014  0.5052887E+02  0.7816164E-02  0.1300439E+00
        -11   -1    0    0    0    0  0.00000000000E+00  0.00000000000E+00  0.45593999997E+02  0.45594000000E+02  0.51100000000E-03 0. -1.
         11   -1    0    0    0    0 -0.00000000000E+00 -0.00000000000E+00 -0.45593999997E+02  0.45594000000E+02  0.51100000000E-03 0.  1.
    9900012    2    1    2    0    0  0.35029771194E+02 -0.17409827392E+02 -0.11089550739E+02  0.50528867012E+02  0.30000021769E+02 0.  0.
         12    1    1    2    0    0 -0.35029771194E+02  0.17409827392E+02  0.11089550739E+02  0.40659132988E+02  0.00000000000E+00 0. -1.
         11    1    3    3    0    0  0.58597883680E+01 -0.35041355580E+01 -0.11221669718E+02  0.13135522724E+02  0.51100000000E-03 0. -1.
        -11    1    3    3    0    0  0.19097268229E+02 -0.18254707263E+02  0.31154391423E+00  0.26420390817E+02  0.51100000000E-03 0.  1.
         12    1    3    3    0    0  0.10072714597E+02  0.43490154284E+01 -0.17942493560E+00  0.10972953470E+02  0.00000000000E+00 0. -1.
</event>
<event>
 7    1  0.9953837E-014  0.5052884E+02  0.7816164E-02  0.1300439E+00
        -11   -1    0    0    0    0  0.00000000000E+00  0.00000000000E+00  0.45593999997E+02  0.45594000000E+02  0.51100000000E-03 0. -1.
         11   -1    0    0    0    0 -0.00000000000E+00 -0.00000000000E+00 -0.45593999997E+02  0.45594000000E+02  0.51100000000E-03 0.  1.
    9900012    2    1    2    0    0 -0.98613920909E+01  0.33184560412E+02  0.21323824548E+02  0.50528836247E+02  0.29999928258E+02 0.  0.
        -12    1    1    2    0    0  0.98613920909E+01 -0.33184560412E+02 -0.21323824548E+02  0.40659163753E+02  0.00000000000E+00 0.  1.
         11    1    3    3    0    0  0.73122641739E+01  0.92071792198E+01  0.57308359103E+01  0.13079902027E+02  0.51100000000E-03 0. -1.
        -11    1    3    3    0    0 -0.14241117614E+02  0.20774765555E+02  0.19306274709E+02  0.31735351868E+02  0.51100000000E-03 0.  1.
         12    1    3    3    0    0 -0.29325386505E+01  0.32026156371E+01 -0.37132860713E+01  0.57135823529E+01  0.00000000000E+00 0. -1.
</event>
<event>
 7    1  0.1817557E-013  0.5052889E+02  0.7816164E-02  0.1300439E+00
        -11   -1    0    0    0    0  0.00000000000E+00  0.00000000000E+00  0.45593999997E+02  0.45594000000E+02  0.51100000000E-03 0. -1.
         11   -1    0    0    0    0 -0.00000000000E+00 -0.00000000000E+00 -0.45593999997E+02  0.45594000000E+02  0.51100000000E-03 0.  1.
    9900012    2    1    2    0    0 -0.88859178119E+01 -0.15650287403E+02  0.36459188861E+02  0.50528886832E+02  0.30000082016E+02 0.  0.
        -12    1    1    2    0    0  0.88859178119E+01  0.15650287403E+02 -0.36459188861E+02  0.40659113168E+02  0.00000000000E+00 0.  1.
         11    1    3    3    0    0 -0.12012439738E+02 -0.99016205729E+01  0.27326727384E+02  0.31449814438E+02  0.51100000000E-03 0. -1.
        -11    1    3    3    0    0 -0.36550122430E+01 -0.42512225500E+01 -0.20046370204E+01  0.59540387562E+01  0.51100000000E-03 0.  1.
         12    1    3    3    0    0  0.67815341686E+01 -0.14974442798E+01  0.11137098498E+02  0.13125033638E+02  0.00000000000E+00 0. -1.
</event>
<event>
 7    1  0.9953837E-014  0.5052885E+02  0.7816164E-02  0.1300439E+00
        -11   -1    0    0    0    0  0.00000000000E+00  0.00000000000E+00  0.45593999997E+02  0.45594000000E+02  0.51100000000E-03 0. -1.
         11   -1    0    0    0    0 -0.00000000000E+00 -0.00000000000E+00 -0.45593999997E+02  0.45594000000E+02  0.51100000000E-03 0.  1.
    9900012    2    1    2    0    0 -0.12293377865E+02 -0.14434138107E+02  0.35967972471E+02  0.50528849420E+02  0.29999968296E+02 0.  0.
        -12    1    1    2    0    0  0.12293377865E+02  0.14434138107E+02 -0.35967972471E+02  0.40659150580E+02  0.00000000000E+00 0.  1.
         11    1    3    3    0    0 -0.11716633901E+02 -0.32607976766E+00  0.23617193947E+02  0.26365843210E+02  0.51100000000E-03 0. -1.
        -11    1    3    3    0    0 -0.22063777549E+01 -0.14901674726E+02  0.39562022577E+01  0.15574965458E+02  0.51100000000E-03 0.  1.
        -12    1    3    3    0    0  0.16296337902E+01  0.79361638682E+00  0.83945762667E+01  0.85880407520E+01  0.00000000000E+00 0.  1.
</event>
<event>
 7    1  0.9953837E-014  0.5052886E+02  0.7816164E-02  0.1300439E+00
        -11   -1    0    0    0    0  0.00000000000E+00  0.00000000000E+00  0.45593999997E+02  0.45594000000E+02  0.51100000000E-03 0. -1.
         11   -1    0    0    0    0 -0.00000000000E+00 -0.00000000000E+00 -0.45593999997E+02  0.45594000000E+02  0.51100000000E-03 0.  1.
    9900012    2    1    2    0    0  0.16822019287E+02 -0.91137549059E+01  0.35876520698E+02  0.50528860821E+02  0.30000002952E+02 0.  0.
        -12    1    1    2    0    0 -0.16822019287E+02  0.91137549059E+01 -0.35876520698E+02  0.40659139179E+02  0.00000000000E+00 0.  1.
         11    1    3    3    0    0  0.63333482526E+01 -0.73009081173E+01  0.11251316901E+02  0.14832622550E+02  0.51100000000E-03 0. -1.
        -11    1    3    3    0    0 -0.67098849511E+01  0.38042605665E+01  0.82407088879E+01  0.11287348570E+02  0.51100000000E-03 0.  1.
        -12    1    3    3    0    0  0.17198555986E+02 -0.56171073552E+01  0.16384494908E+02  0.24408889701E+02  0.00000000000E+00 0.  1.
</event>
<event>
 7    1  0.9953837E-014  0.5052885E+02  0.7816164E-02  0.1300439E+00
        -11   -1    0    0    0    0  0.00000000000E+00  0.00000000000E+00  0.45593999997E+02  0.45594000000E+02  0.51100000000E-03 0. -1.
         11   -1    0    0    0    0 -0.00000000000E+00 -0.00000000000E+00 -0.45593999997E+02  0.45594000000E+02  0.51100000000E-03 0.  1.
    9900012    2    1    2    0    0 -0.22727074676E+01  0.23529719463E+02 -0.33081014191E+02  0.50528851003E+02  0.29999973108E+02 0.  0.
         12    1    1    2    0    0  0.22727074676E+01 -0.23529719463E+02  0.33081014191E+02  0.40659148997E+02  0.00000000000E+00 0. -1.
         11    1    3    3    0    0 -0.12508179063E+01 -0.11389591062E+01  0.55742734743E+00  0.17811509731E+01  0.51100000000E-03 0. -1.
        -11    1    3    3    0    0 -0.18569550141E+01  0.18686053957E+02 -0.37245953151E+02  0.41711843892E+02  0.51100000000E-03 0.  1.
        -12    1    3    3    0    0  0.83506545273E+00  0.59826246123E+01  0.36075116126E+01  0.70358561382E+01  0.00000000000E+00 0.  1.
</event>
<event>
 7    1  0.9953837E-014  0.5052888E+02  0.7816164E-02  0.1300439E+00
        -11   -1    0    0    0    0  0.00000000000E+00  0.00000000000E+00  0.45593999997E+02  0.45594000000E+02  0.51100000000E-03 0. -1.
         11   -1    0    0    0    0 -0.00000000000E+00 -0.00000000000E+00 -0.45593999997E+02  0.45594000000E+02  0.51100000000E-03 0.  1.
    9900012    2    1    2    0    0  0.64683224946E+01 -0.10788902730E+02  0.38664255793E+02  0.50528876866E+02  0.30000051721E+02 0.  0.
        -12    1    1    2    0    0 -0.64683224946E+01  0.10788902730E+02 -0.38664255793E+02  0.40659123134E+02  0.00000000000E+00 0.  1.
         11    1    3    3    0    0  0.82003360296E+01  0.66054810489E+01  0.24606468955E+02  0.26764831506E+02  0.51100000000E-03 0. -1.
        -11    1    3    3    0    0  0.11686249566E+01 -0.10412733024E+02  0.40774700418E+01  0.11243507261E+02  0.51100000000E-03 0.  1.
        -12    1    3    3    0    0 -0.29006384915E+01 -0.69816507549E+01  0.99803167965E+01  0.12520538099E+02  0.00000000000E+00 0.  1.
</event>
<event>
 7    1  0.9953837E-014  0.5052887E+02  0.7816164E-02  0.1300439E+00
        -11   -1    0    0    0    0  0.00000000000E+00  0.00000000000E+00  0.45593999997E+02  0.45594000000E+02  0.51100000000E-03 0. -1.
         11   -1    0    0    0    0 -0.00000000000E+00 -0.00000000000E+00 -0.45593999997E+02  0.45594000000E+02  0.51100000000E-03 0.  1.
    9900012    2    1    2    0    0  0.37246870386E+02  0.75518171218E+01  0.14450095636E+02  0.50528873604E+02  0.30000041808E+02 0.  0.
        -12    1    1    2    0    0 -0.37246870386E+02 -0.75518171218E+01 -0.14450095636E+02  0.40659126396E+02  0.00000000000E+00 0.  1.
         11    1    3    3    0    0  0.24690176675E+02  0.10756497997E+02  0.14359400605E+02  0.30520476067E+02  0.51100000000E-03 0. -1.
        -11    1    3    3    0    0  0.75336666351E+01 -0.91758929278E+01  0.18336759719E+01  0.12013139133E+02  0.51100000000E-03 0.  1.
        -12    1    3    3    0    0  0.50230270762E+01  0.59712120527E+01 -0.17429809415E+01  0.79952584042E+01  0.00000000000E+00 0.  1.
</event>
<event>
 7    1  0.9953837E-014  0.5052888E+02  0.7816164E-02  0.1300439E+00
        -11   -1    0    0    0    0  0.00000000000E+00  0.00000000000E+00  0.45593999997E+02  0.45594000000E+02  0.51100000000E-03 0. -1.
         11   -1    0    0    0    0 -0.00000000000E+00 -0.00000000000E+00 -0.45593999997E+02  0.45594000000E+02  0.51100000000E-03 0.  1.
    9900012    2    1    2    0    0 -0.49633112252E+01 -0.10047318562E+02 -0.39084279158E+02  0.50528881147E+02  0.30000064736E+02 0.  0.
         12    1    1    2    0    0  0.49633112252E+01  0.10047318562E+02  0.39084279158E+02  0.40659118853E+02  0.00000000000E+00 0. -1.
         11    1    3    3    0    0  0.94815564334E+01 -0.11741255911E+02 -0.22134310896E+02  0.26789638330E+02  0.51100000000E-03 0. -1.
        -11    1    3    3    0    0 -0.90251633052E+01 -0.23325239918E+01 -0.12726987864E+02  0.15775628711E+02  0.51100000000E-03 0.  1.
         12    1    3    3    0    0 -0.54197043534E+01  0.40264613404E+01 -0.42229803975E+01  0.79636141068E+01  0.00000000000E+00 0. -1.
</event>
<event>
 7    1  0.9953837E-014  0.5052887E+02  0.7816164E-02  0.1300439E+00
        -11   -1    0    0    0    0  0.00000000000E+00  0.00000000000E+00  0.45593999997E+02  0.45594000000E+02  0.51100000000E-03 0. -1.
         11   -1    0    0    0    0 -0.00000000000E+00 -0.00000000000E+00 -0.45593999997E+02  0.45594000000E+02  0.51100000000E-03 0.  1.
    9900012    2    1    2    0    0  0.12410388332E+01 -0.33350312600E+02  0.23224575732E+02  0.50528874999E+02  0.30000046048E+02 0.  0.
        -12    1    1    2    0    0 -0.12410388332E+01  0.33350312600E+02 -0.23224575732E+02  0.40659125001E+02  0.00000000000E+00 0.  1.
         11    1    3    3    0    0 -0.88400316660E+01 -0.21350512608E+02  0.64479845799E+01  0.23990978594E+02  0.51100000000E-03 0. -1.
        -11    1    3    3    0    0  0.13227701315E+02 -0.10586131667E+02  0.12560402318E+02  0.21090328884E+02  0.51100000000E-03 0.  1.
         12    1    3    3    0    0 -0.31466308161E+01 -0.14136683246E+01  0.42161888337E+01  0.54475675220E+01  0.00000000000E+00 0. -1.
</event>
<event>
 7    1  0.9953837E-014  0.5052886E+02  0.7816164E-02  0.1300439E+00
        -11   -1    0    0    0    0  0.00000000000E+00  0.00000000000E+00  0.45593999997E+02  0.45594000000E+02  0.51100000000E-03 0. -1.
         11   -1    0    0    0    0 -0.00000000000E+00 -0.00000000000E+00 -0.45593999997E+02  0.45594000000E+02  0.51100000000E-03 0.  1.
    9900012    2    1    2    0    0  0.34093771415E+01 -0.26467183240E+02 -0.30676218028E+02  0.50528855965E+02  0.29999988192E+02 0.  0.
         12    1    1    2    0    0 -0.34093771415E+01  0.26467183240E+02  0.30676218028E+02  0.40659144035E+02  0.00000000000E+00 0. -1.
         11    1    3    3    0    0 -0.27576591802E+01 -0.18509776954E+02 -0.13094456932E+02  0.22840344342E+02  0.51100000000E-03 0. -1.
        -11    1    3    3    0    0 -0.37276144541E+00  0.59234023370E+01 -0.36806060394E+01  0.69837316257E+01  0.51100000000E-03 0.  1.
         12    1    3    3    0    0  0.65397977671E+01 -0.13880808623E+02 -0.13901155056E+02  0.20704779998E+02  0.00000000000E+00 0. -1.
</event>
<event>
 7    1  0.9953837E-014  0.5052884E+02  0.7816164E-02  0.1300439E+00
        -11   -1    0    0    0    0  0.00000000000E+00  0.00000000000E+00  0.45593999997E+02  0.45594000000E+02  0.51100000000E-03 0. -1.
         11   -1    0    0    0    0 -0.00000000000E+00 -0.00000000000E+00 -0.45593999997E+02  0.45594000000E+02  0.51100000000E-03 0.  1.
    9900012    2    1    2    0    0  0.12561029266E+02  0.77403978753E+01 -0.37887645520E+02  0.50528844838E+02  0.29999954369E+02 0.  0.
         12    1    1    2    0    0 -0.12561029266E+02 -0.77403978753E+01  0.37887645520E+02  0.40659155162E+02  0.00000000000E+00 0. -1.
         11    1    3    3    0    0  0.11774867038E+02  0.70907083863E+00 -0.39615496267E+01  0.12443638975E+02  0.51100000000E-03 0. -1.
        -11    1    3    3    0    0 -0.55188837328E+01 -0.62072313603E+00 -0.21405420767E+02  0.22114145096E+02  0.51100000000E-03 0.  1.
        -12    1    3    3    0    0  0.63050459610E+01  0.76520501727E+01 -0.12520675126E+02  0.15971060767E+02  0.00000000000E+00 0.  1.
</event>
<event>
 7    1  0.9953837E-014  0.5052886E+02  0.7816164E-02  0.1300439E+00
        -11   -1    0    0    0    0  0.00000000000E+00  0.00000000000E+00  0.45593999997E+02  0.45594000000E+02  0.51100000000E-03 0. -1.
         11   -1    0    0    0    0 -0.00000000000E+00 -0.00000000000E+00 -0.45593999997E+02  0.45594000000E+02  0.51100000000E-03 0.  1.
    9900012    2    1    2    0    0 -0.34416358982E+02  0.85951015149E+01  0.19869674436E+02  0.50528862062E+02  0.30000006725E+02 0.  0.
        -12    1    1    2    0    0  0.34416358982E+02 -0.85951015149E+01 -0.19869674436E+02  0.40659137938E+02  0.00000000000E+00 0.  1.
         11    1    3    3    0    0 -0.18530213112E+02  0.14379905418E+02  0.52918378255E+01  0.24044833658E+02  0.51100000000E-03 0. -1.
        -11    1    3    3    0    0 -0.71440148307E+01 -0.98336824244E+01  0.58711347030E+01  0.13498462167E+02  0.51100000000E-03 0.  1.
        -12    1    3    3    0    0 -0.87421310389E+01  0.40488785212E+01  0.87067019075E+01  0.12985566237E+02  0.00000000000E+00 0.  1.
</event>
<event>
 7    1  0.9953837E-014  0.5052875E+02  0.7816164E-02  0.1300439E+00
        -11   -1    0    0    0    0  0.00000000000E+00  0.00000000000E+00  0.45593999997E+02  0.45594000000E+02  0.51100000000E-03 0. -1.
         11   -1    0    0    0    0 -0.00000000000E+00 -0.00000000000E+00 -0.45593999997E+02  0.45594000000E+02  0.51100000000E-03 0.  1.
    9900012    2    1    2    0    0  0.30376077450E+02 -0.11072886295E+02 -0.24654808874E+02  0.50528751449E+02  0.29999670502E+02 0.  0.
         12    1    1    2    0    0 -0.30376077450E+02  0.11072886295E+02  0.24654808874E+02  0.40659248551E+02  0.00000000000E+00 0. -1.
         11    1    3    3    0    0  0.42840696378E+01  0.38401103046E+01 -0.14409208939E+02  0.15515315089E+02  0.51100000000E-03 0. -1.
        -11    1    3    3    0    0  0.19660426781E+02 -0.86771929754E+01 -0.13617771750E+02  0.25441496946E+02  0.51100000000E-03 0.  1.
         12    1    3    3    0    0  0.64315810303E+01 -0.62358036240E+01  0.33721718149E+01  0.95719394135E+01  0.00000000000E+00 0. -1.
</event>
<event>
 7    1  0.9953837E-014  0.5052886E+02  0.7816164E-02  0.1300439E+00
        -11   -1    0    0    0    0  0.00000000000E+00  0.00000000000E+00  0.45593999997E+02  0.45594000000E+02  0.51100000000E-03 0. -1.
         11   -1    0    0    0    0 -0.00000000000E+00 -0.00000000000E+00 -0.45593999997E+02  0.45594000000E+02  0.51100000000E-03 0.  1.
    9900012    2    1    2    0    0 -0.99771312394E+00 -0.75823697425E+01 -0.39933418771E+02  0.50528859612E+02  0.29999999277E+02 0.  0.
         12    1    1    2    0    0  0.99771312394E+00  0.75823697425E+01  0.39933418771E+02  0.40659140388E+02  0.00000000000E+00 0. -1.
         11    1    3    3    0    0 -0.95865791678E+01  0.87099837197E+00 -0.81568433175E+01  0.12617259269E+02  0.51100000000E-03 0. -1.
        -11    1    3    3    0    0  0.13529225950E+02 -0.43257184636E+01 -0.22872073764E+02  0.26923661592E+02  0.51100000000E-03 0.  1.
        -12    1    3    3    0    0 -0.49403599060E+01 -0.41276496508E+01 -0.89045016895E+01  0.10987938750E+02  0.00000000000E+00 0.  1.
</event>
<event>
 7    1  0.9953837E-014  0.5052885E+02  0.7816164E-02  0.1300439E+00
        -11   -1    0    0    0    0  0.00000000000E+00  0.00000000000E+00  0.45593999997E+02  0.45594000000E+02  0.51100000000E-03 0. -1.
         11   -1    0    0    0    0 -0.00000000000E+00 -0.00000000000E+00 -0.45593999997E+02  0.45594000000E+02  0.51100000000E-03 0.  1.
    9900012    2    1    2    0    0  0.17950879247E+02 -0.18049102850E+02 -0.31704289221E+02  0.50528854234E+02  0.29999982930E+02 0.  0.
         12    1    1    2    0    0 -0.17950879247E+02  0.18049102850E+02  0.31704289221E+02  0.40659145766E+02  0.00000000000E+00 0. -1.
         11    1    3    3    0    0 -0.50567899914E+01 -0.35994300757E+01 -0.11969626431E+01  0.63213718224E+01  0.51100000000E-03 0. -1.
        -11    1    3    3    0    0  0.24874848376E+02 -0.13546516177E+02 -0.23204361408E+02  0.36615687497E+02  0.51100000000E-03 0.  1.
        -12    1    3    3    0    0 -0.18671791373E+01 -0.90315659753E+00 -0.73029651690E+01  0.75917949149E+01  0.00000000000E+00 0.  1.
</event>
<event>
 7    1  0.9953837E-014  0.5052886E+02  0.7816164E-02  0.1300439E+00
        -11   -1    0    0    0    0  0.00000000000E+00  0.00000000000E+00  0.45593999997E+02  0.45594000000E+02  0.51100000000E-03 0. -1.
         11   -1    0    0    0    0 -0.00000000000E+00 -0.00000000000E+00 -0.45593999997E+02  0.45594000000E+02  0.51100000000E-03 0.  1.
    9900012    2    1    2    0    0 -0.17309752319E+02  0.19744719473E+02 -0.31043262257E+02  0.50528860758E+02  0.30000002759E+02 0.  0.
         12    1    1    2    0    0  0.17309752319E+02 -0.19744719473E+02  0.31043262257E+02  0.40659139242E+02  0.00000000000E+00 0. -1.
         11    1    3    3    0    0 -0.93253570515E+01  0.13679436096E+02 -0.21136361862E+00  0.16556990393E+02  0.51100000000E-03 0. -1.
        -11    1    3    3    0    0 -0.76488461379E+01  0.35369465494E+00 -0.23217132039E+02  0.24447191403E+02  0.51100000000E-03 0.  1.
         12    1    3    3    0    0 -0.33554912955E+00  0.57115887218E+01 -0.76147665996E+01  0.95246789611E+01  0.00000000000E+00 0. -1.
</event>
<event>
 7    1  0.9953837E-014  0.5052885E+02  0.7816164E-02  0.1300439E+00
        -11   -1    0    0    0    0  0.00000000000E+00  0.00000000000E+00  0.45593999997E+02  0.45594000000E+02  0.51100000000E-03 0. -1.
         11   -1    0    0    0    0 -0.00000000000E+00 -0.00000000000E+00 -0.45593999997E+02  0.45594000000E+02  0.51100000000E-03 0.  1.
    9900012    2    1    2    0    0 -0.86743686023E+01  0.18534385805E+02  0.35134011307E+02  0.50528845086E+02  0.29999955123E+02 0.  0.
        -12    1    1    2    0    0  0.86743686023E+01 -0.18534385805E+02 -0.35134011307E+02  0.40659154914E+02  0.00000000000E+00 0.  1.
         11    1    3    3    0    0 -0.29355179388E+01 -0.39371895834E+01  0.88970051223E+01  0.10162451859E+02  0.51100000000E-03 0. -1.
        -11    1    3    3    0    0 -0.45091903983E+01  0.25052602436E+02  0.27290591038E+02  0.37319459353E+02  0.51100000000E-03 0.  1.
        -12    1    3    3    0    0 -0.12296602653E+01 -0.25810270478E+01 -0.10535848538E+01  0.30469338742E+01  0.00000000000E+00 0.  1.
</event>
<event>
 7    1  0.9953837E-014  0.5052885E+02  0.7816164E-02  0.1300439E+00
        -11   -1    0    0    0    0  0.00000000000E+00  0.00000000000E+00  0.45593999997E+02  0.45594000000E+02  0.51100000000E-03 0. -1.
         11   -1    0    0    0    0 -0.00000000000E+00 -0.00000000000E+00 -0.45593999997E+02  0.45594000000E+02  0.51100000000E-03 0.  1.
    9900012    2    1    2    0    0  0.70186896252E+01  0.13857091697E+02 -0.37575060459E+02  0.50528853885E+02  0.29999981868E+02 0.  0.
         12    1    1    2    0    0 -0.70186896252E+01 -0.13857091697E+02  0.37575060459E+02  0.40659146115E+02  0.00000000000E+00 0. -1.
         11    1    3    3    0    0  0.66013234359E+01 -0.70321607537E+01 -0.77877668554E+01  0.12396695883E+02  0.51100000000E-03 0. -1.
        -11    1    3    3    0    0 -0.18669995851E+01  0.21250530516E+02 -0.28046681235E+02  0.35237580269E+02  0.51100000000E-03 0.  1.
        -12    1    3    3    0    0  0.22843657744E+01 -0.36127806458E+00 -0.17406123679E+01  0.28945777320E+01  0.00000000000E+00 0.  1.
</event>
<event>
 7    1  0.9953837E-014  0.5052886E+02  0.7816164E-02  0.1300439E+00
        -11   -1    0    0    0    0  0.00000000000E+00  0.00000000000E+00  0.45593999997E+02  0.45594000000E+02  0.51100000000E-03 0.  1.
         11   -1    0    0    0    0 -0.00000000000E+00 -0.00000000000E+00 -0.45593999997E+02  0.45594000000E+02  0.51100000000E-03 0. -1.
    9900012    2    1    2    0    0  0.36283364587E+02 -0.52765917963E+01  0.17573854031E+02  0.50528864345E+02  0.30000013662E+02 0.  0.
        -12    1    1    2    0    0 -0.36283364587E+02  0.52765917963E+01 -0.17573854031E+02  0.40659135655E+02  0.00000000000E+00 0.  1.
         11    1    3    3    0    0  0.24033562077E+02 -0.13432004195E+02  0.28169009990E+01  0.27676086687E+02  0.51100000000E-03 0. -1.
        -11    1    3    3    0    0  0.59655367828E+01  0.74061168409E+01  0.38848520319E+01  0.10272792772E+02  0.51100000000E-03 0.  1.
         12    1    3    3    0    0  0.62842657277E+01  0.74929555811E+00  0.10872101000E+02  0.12579984886E+02  0.00000000000E+00 0. -1.
</event>
<event>
 7    1  0.9953837E-014  0.5052885E+02  0.7816164E-02  0.1300439E+00
        -11   -1    0    0    0    0  0.00000000000E+00  0.00000000000E+00  0.45593999997E+02  0.45594000000E+02  0.51100000000E-03 0. -1.
         11   -1    0    0    0    0 -0.00000000000E+00 -0.00000000000E+00 -0.45593999997E+02  0.45594000000E+02  0.51100000000E-03 0.  1.
    9900012    2    1    2    0    0  0.10204258949E+02  0.36743868244E+02  0.14104168000E+02  0.50528852085E+02  0.29999976397E+02 0.  0.
        -12    1    1    2    0    0 -0.10204258949E+02 -0.36743868244E+02 -0.14104168000E+02  0.40659147915E+02  0.00000000000E+00 0.  1.
         11    1    3    3    0    0 -0.68987060314E+01  0.23343224637E+02  0.13293713923E+02  0.27734835703E+02  0.51100000000E-03 0. -1.
        -11    1    3    3    0    0  0.12862929442E+02  0.13056019920E+02  0.18312679039E+01  0.18419233219E+02  0.51100000000E-03 0.  1.
         12    1    3    3    0    0  0.42400355385E+01  0.34462368749E+00 -0.10208138270E+01  0.43747831630E+01  0.00000000000E+00 0. -1.
</event>
<event>
 7    1  0.9953837E-014  0.5052885E+02  0.7816164E-02  0.1300439E+00
        -11   -1    0    0    0    0  0.00000000000E+00  0.00000000000E+00  0.45593999997E+02  0.45594000000E+02  0.51100000000E-03 0. -1.
         11   -1    0    0    0    0 -0.00000000000E+00 -0.00000000000E+00 -0.45593999997E+02  0.45594000000E+02  0.51100000000E-03 0.  1.
    9900012    2    1    2    0    0 -0.64224508795E+01  0.13627286730E+02  0.37765270929E+02  0.50528849649E+02  0.29999968994E+02 0.  0.
        -12    1    1    2    0    0  0.64224508795E+01 -0.13627286730E+02 -0.37765270929E+02  0.40659150351E+02  0.00000000000E+00 0.  1.
         11    1    3    3    0    0 -0.16028223428E+02  0.96445929108E+01  0.20175216113E+02  0.27512932671E+02  0.51100000000E-03 0. -1.
        -11    1    3    3    0    0  0.81965203002E+01  0.39485635748E+01  0.18972722260E+02  0.21041347142E+02  0.51100000000E-03 0.  1.
         12    1    3    3    0    0  0.14092522487E+01  0.34130244488E-01 -0.13826674449E+01  0.19745698360E+01  0.00000000000E+00 0. -1.
</event>
<event>
 7    1  0.9953837E-014  0.5052890E+02  0.7816164E-02  0.1300439E+00
        -11   -1    0    0    0    0  0.00000000000E+00  0.00000000000E+00  0.45593999997E+02  0.45594000000E+02  0.51100000000E-03 0. -1.
         11   -1    0    0    0    0 -0.00000000000E+00 -0.00000000000E+00 -0.45593999997E+02  0.45594000000E+02  0.51100000000E-03 0.  1.
    9900012    2    1    2    0    0 -0.13540993495E+02 -0.26273136312E+01 -0.38247891746E+02  0.50528898870E+02  0.30000118604E+02 0.  0.
         12    1    1    2    0    0  0.13540993495E+02  0.26273136312E+01  0.38247891746E+02  0.40659101130E+02  0.00000000000E+00 0. -1.
         11    1    3    3    0    0  0.89837146697E+00  0.52805729268E+01  0.19766497332E+01  0.57095241620E+01  0.51100000000E-03 0. -1.
        -11    1    3    3    0    0  0.16936723088E+00 -0.38535471636E+01 -0.14062245427E+02  0.14581675408E+02  0.51100000000E-03 0.  1.
         12    1    3    3    0    0 -0.14608732193E+02 -0.40543393944E+01 -0.26162296052E+02  0.30237699299E+02  0.00000000000E+00 0. -1.
</event>
<event>
 7    1  0.9953837E-014  0.5052887E+02  0.7816164E-02  0.1300439E+00
        -11   -1    0    0    0    0  0.00000000000E+00  0.00000000000E+00  0.45593999997E+02  0.45594000000E+02  0.51100000000E-03 0. -1.
         11   -1    0    0    0    0 -0.00000000000E+00 -0.00000000000E+00 -0.45593999997E+02  0.45594000000E+02  0.51100000000E-03 0.  1.
    9900012    2    1    2    0    0  0.42418016497E+01  0.32576410790E+02  0.23957246933E+02  0.50528866932E+02  0.30000021527E+02 0.  0.
        -12    1    1    2    0    0 -0.42418016497E+01 -0.32576410790E+02 -0.23957246933E+02  0.40659133068E+02  0.00000000000E+00 0.  1.
         11    1    3    3    0    0  0.12777868596E+02  0.20379248389E+02  0.82646689593E+01  0.25434080365E+02  0.51100000000E-03 0. -1.
        -11    1    3    3    0    0  0.55988654789E+00 -0.11284447036E+01  0.63024213207E+01  0.64270813874E+01  0.51100000000E-03 0.  1.
         12    1    3    3    0    0 -0.90959534947E+01  0.13325607105E+02  0.93901566534E+01  0.18667705180E+02  0.00000000000E+00 0. -1.
</event>
<event>
 7    1  0.1492015E-013  0.5052885E+02  0.7816164E-02  0.1300439E+00
        -11   -1    0    0    0    0  0.00000000000E+00  0.00000000000E+00  0.45593999997E+02  0.45594000000E+02  0.51100000000E-03 0. -1.
         11   -1    0    0    0    0 -0.00000000000E+00 -0.00000000000E+00 -0.45593999997E+02  0.45594000000E+02  0.51100000000E-03 0.  1.
    9900012    2    1    2    0    0  0.25198120742E+02 -0.22384465307E+02  0.22741076773E+02  0.50528854057E+02  0.29999982392E+02 0.  0.
        -12    1    1    2    0    0 -0.25198120742E+02  0.22384465307E+02 -0.22741076773E+02  0.40659145943E+02  0.00000000000E+00 0.  1.
         11    1    3    3    0    0  0.52180344647E+01 -0.21164811088E+02  0.62054811526E+01  0.22664622402E+02  0.51100000000E-03 0. -1.
        -11    1    3    3    0    0  0.36235049815E+01  0.36106556828E+01  0.21358113002E+01  0.55433124557E+01  0.51100000000E-03 0.  1.
         12    1    3    3    0    0  0.16356581296E+02 -0.48303099026E+01  0.14399784320E+02  0.22320919199E+02  0.00000000000E+00 0. -1.
</event>
<event>
 7    1  0.9953837E-014  0.5052886E+02  0.7816164E-02  0.1300439E+00
        -11   -1    0    0    0    0  0.00000000000E+00  0.00000000000E+00  0.45593999997E+02  0.45594000000E+02  0.51100000000E-03 0. -1.
         11   -1    0    0    0    0 -0.00000000000E+00 -0.00000000000E+00 -0.45593999997E+02  0.45594000000E+02  0.51100000000E-03 0.  1.
    9900012    2    1    2    0    0 -0.19741359979E+02 -0.31772565174E+02  0.15935765391E+02  0.50528858221E+02  0.29999995049E+02 0.  0.
        -12    1    1    2    0    0  0.19741359979E+02  0.31772565174E+02 -0.15935765391E+02  0.40659141779E+02  0.00000000000E+00 0.  1.
         11    1    3    3    0    0 -0.21149276231E+01 -0.10750369511E+02  0.17111435909E+02  0.20318577770E+02  0.51100000000E-03 0. -1.
        -11    1    3    3    0    0 -0.15315399019E+02 -0.87413224988E+01 -0.15984732689E+01  0.17706701646E+02  0.51100000000E-03 0.  1.
        -12    1    3    3    0    0 -0.23110333372E+01 -0.12280873164E+02  0.42280275147E+00  0.12503578805E+02  0.00000000000E+00 0.  1.
</event>
<event>
 7    1  0.9953837E-014  0.5052880E+02  0.7816164E-02  0.1300439E+00
        -11   -1    0    0    0    0  0.00000000000E+00  0.00000000000E+00  0.45593999997E+02  0.45594000000E+02  0.51100000000E-03 0. -1.
         11   -1    0    0    0    0 -0.00000000000E+00 -0.00000000000E+00 -0.45593999997E+02  0.45594000000E+02  0.51100000000E-03 0.  1.
    9900012    2    1    2    0    0  0.26715110801E+02  0.54256770704E+01 -0.30166798441E+02  0.50528796307E+02  0.29999806854E+02 0.  0.
         12    1    1    2    0    0 -0.26715110801E+02 -0.54256770704E+01  0.30166798441E+02  0.40659203693E+02  0.00000000000E+00 0. -1.
         11    1    3    3    0    0  0.11089145335E+01 -0.72729939361E+01 -0.15374440644E+02  0.17044047572E+02  0.51100000000E-03 0. -1.
        -11    1    3    3    0    0  0.19222691641E+02  0.91258269349E+01 -0.61250004451E+01  0.22142904550E+02  0.51100000000E-03 0.  1.
         12    1    3    3    0    0  0.63835046264E+01  0.35728440716E+01 -0.86673573512E+01  0.11341844185E+02  0.00000000000E+00 0. -1.
</event>
<event>
 7    1  0.9953837E-014  0.5052884E+02  0.7816164E-02  0.1300439E+00
        -11   -1    0    0    0    0  0.00000000000E+00  0.00000000000E+00  0.45593999997E+02  0.45594000000E+02  0.51100000000E-03 0. -1.
         11   -1    0    0    0    0 -0.00000000000E+00 -0.00000000000E+00 -0.45593999997E+02  0.45594000000E+02  0.51100000000E-03 0.  1.
    9900012    2    1    2    0    0  0.17211598808E+02 -0.20502416034E+02  0.30603582281E+02  0.50528838115E+02  0.29999933934E+02 0.  0.
        -12    1    1    2    0    0 -0.17211598808E+02  0.20502416034E+02 -0.30603582281E+02  0.40659161885E+02  0.00000000000E+00 0.  1.
         11    1    3    3    0    0  0.12190774203E+02 -0.46463690001E+01  0.27491485848E+02  0.30430010104E+02  0.51100000000E-03 0. -1.
        -11    1    3    3    0    0  0.62731133924E+01 -0.59077546573E+01 -0.19969664521E+01  0.88454164400E+01  0.51100000000E-03 0.  1.
        -12    1    3    3    0    0 -0.12522887873E+01 -0.99482923766E+01  0.51090628855E+01  0.11253411571E+02  0.00000000000E+00 0.  1.
</event>
<event>
 7    1  0.9953837E-014  0.5052884E+02  0.7816164E-02  0.1300439E+00
        -11   -1    0    0    0    0  0.00000000000E+00  0.00000000000E+00  0.45593999997E+02  0.45594000000E+02  0.51100000000E-03 0. -1.
         11   -1    0    0    0    0 -0.00000000000E+00 -0.00000000000E+00 -0.45593999997E+02  0.45594000000E+02  0.51100000000E-03 0.  1.
    9900012    2    1    2    0    0  0.40737573976E+01 -0.13106605761E+02 -0.38272556678E+02  0.50528841025E+02  0.29999942778E+02 0.  0.
         12    1    1    2    0    0 -0.40737573976E+01  0.13106605761E+02  0.38272556678E+02  0.40659158975E+02  0.00000000000E+00 0. -1.
         11    1    3    3    0    0  0.62413452914E+01 -0.25573949317E+01 -0.10774237082E+01  0.68304832912E+01  0.51100000000E-03 0. -1.
        -11    1    3    3    0    0 -0.10104190509E+02 -0.24389912599E+01 -0.24817566782E+02  0.26906411233E+02  0.51100000000E-03 0.  1.
        -12    1    3    3    0    0  0.79366026150E+01 -0.81102195694E+01 -0.12377566188E+02  0.16791946501E+02  0.00000000000E+00 0.  1.
</event>
<event>
 7    1  0.9953837E-014  0.5052886E+02  0.7816164E-02  0.1300439E+00
        -11   -1    0    0    0    0  0.00000000000E+00  0.00000000000E+00  0.45593999997E+02  0.45594000000E+02  0.51100000000E-03 0.  1.
         11   -1    0    0    0    0 -0.00000000000E+00 -0.00000000000E+00 -0.45593999997E+02  0.45594000000E+02  0.51100000000E-03 0. -1.
    9900012    2    1    2    0    0  0.22622168329E+02 -0.32679294506E+02 -0.85712726415E+01  0.50528861986E+02  0.30000006492E+02 0.  0.
         12    1    1    2    0    0 -0.22622168329E+02  0.32679294506E+02  0.85712726415E+01  0.40659138014E+02  0.00000000000E+00 0. -1.
         11    1    3    3    0    0 -0.51646147606E+00 -0.22951625822E+02 -0.85374503509E+01  0.24493507693E+02  0.51100000000E-03 0. -1.
        -11    1    3    3    0    0  0.16046758663E+02 -0.70451066496E+01 -0.32064336745E+01  0.17816094085E+02  0.51100000000E-03 0.  1.
        -12    1    3    3    0    0  0.70918711428E+01 -0.26825620346E+01  0.31726113839E+01  0.82192602081E+01  0.00000000000E+00 0.  1.
</event>
<event>
 7    1  0.9953837E-014  0.5052886E+02  0.7816164E-02  0.1300439E+00
        -11   -1    0    0    0    0  0.00000000000E+00  0.00000000000E+00  0.45593999997E+02  0.45594000000E+02  0.51100000000E-03 0. -1.
         11   -1    0    0    0    0 -0.00000000000E+00 -0.00000000000E+00 -0.45593999997E+02  0.45594000000E+02  0.51100000000E-03 0.  1.
    9900012    2    1    2    0    0  0.12096202178E+02  0.26146080485E+02  0.28691985505E+02  0.50528860018E+02  0.30000000511E+02 0.  0.
        -12    1    1    2    0    0 -0.12096202178E+02 -0.26146080485E+02 -0.28691985505E+02  0.40659139982E+02  0.00000000000E+00 0.  1.
         11    1    3    3    0    0  0.26155681913E+01 -0.45684182797E+01  0.13388786228E+01  0.54317804419E+01  0.51100000000E-03 0.  1.
        -11    1    3    3    0    0  0.46697481597E+01  0.16720983592E+02  0.24499490792E+02  0.30027035976E+02  0.51100000000E-03 0. -1.
        -12    1    3    3    0    0  0.48108858272E+01  0.13993515173E+02  0.28536160897E+01  0.15070043600E+02  0.00000000000E+00 0.  1.
</event>
<event>
 7    1  0.9953837E-014  0.5052886E+02  0.7816164E-02  0.1300439E+00
        -11   -1    0    0    0    0  0.00000000000E+00  0.00000000000E+00  0.45593999997E+02  0.45594000000E+02  0.51100000000E-03 0. -1.
         11   -1    0    0    0    0 -0.00000000000E+00 -0.00000000000E+00 -0.45593999997E+02  0.45594000000E+02  0.51100000000E-03 0.  1.
    9900012    2    1    2    0    0  0.11349779754E+02 -0.99661726670E+01  0.37749483482E+02  0.50528860790E+02  0.30000002858E+02 0.  0.
        -12    1    1    2    0    0 -0.11349779754E+02  0.99661726670E+01 -0.37749483482E+02  0.40659139210E+02  0.00000000000E+00 0.  1.
         11    1    3    3    0    0  0.77942896470E+01  0.30598847452E+01  0.86221804394E+01  0.12018978390E+02  0.51100000000E-03 0. -1.
        -11    1    3    3    0    0 -0.39503955112E+01 -0.48887731461E+01  0.26359805345E+02  0.27098801923E+02  0.51100000000E-03 0.  1.
        -12    1    3    3    0    0  0.75058856187E+01 -0.81372842660E+01  0.27674976977E+01  0.11411080477E+02  0.00000000000E+00 0.  1.
</event>
<event>
 7    1  0.9953837E-014  0.5052887E+02  0.7816164E-02  0.1300439E+00
        -11   -1    0    0    0    0  0.00000000000E+00  0.00000000000E+00  0.45593999997E+02  0.45594000000E+02  0.51100000000E-03 0. -1.
         11   -1    0    0    0    0 -0.00000000000E+00 -0.00000000000E+00 -0.45593999997E+02  0.45594000000E+02  0.51100000000E-03 0.  1.
    9900012    2    1    2    0    0  0.10499394988E+02  0.35127281987E+02  0.17578443715E+02  0.50528869188E+02  0.30000028385E+02 0.  0.
        -12    1    1    2    0    0 -0.10499394988E+02 -0.35127281987E+02 -0.17578443715E+02  0.40659130812E+02  0.00000000000E+00 0.  1.
         11    1    3    3    0    0  0.10546686771E+02  0.12098374786E+02  0.17121380638E+02  0.23467955802E+02  0.51100000000E-03 0. -1.
        -11    1    3    3    0    0 -0.60819204117E+01  0.51296578330E+01 -0.14078645430E+01  0.80799274880E+01  0.51100000000E-03 0.  1.
        -12    1    3    3    0    0  0.60346286288E+01  0.17899249368E+02  0.18649276195E+01  0.18980985898E+02  0.00000000000E+00 0.  1.
</event>
<event>
 7    1  0.9953837E-014  0.5052886E+02  0.7816164E-02  0.1300439E+00
        -11   -1    0    0    0    0  0.00000000000E+00  0.00000000000E+00  0.45593999997E+02  0.45594000000E+02  0.51100000000E-03 0.  1.
         11   -1    0    0    0    0 -0.00000000000E+00 -0.00000000000E+00 -0.45593999997E+02  0.45594000000E+02  0.51100000000E-03 0. -1.
    9900012    2    1    2    0    0  0.13218461665E+02  0.17781206047E+02  0.34092030158E+02  0.50528861574E+02  0.30000005241E+02 0.  0.
        -12    1    1    2    0    0 -0.13218461665E+02 -0.17781206047E+02 -0.34092030158E+02  0.40659138426E+02  0.00000000000E+00 0.  1.
         11    1    3    3    0    0 -0.43207507141E+01  0.49527992400E+00 -0.23038701012E+01  0.49215857852E+01  0.51100000000E-03 0. -1.
        -11    1    3    3    0    0  0.93202918838E+01  0.44101792861E+01  0.23327021699E+02  0.25504263638E+02  0.51100000000E-03 0.  1.
         12    1    3    3    0    0  0.82189204952E+01  0.12875746837E+02  0.13068878560E+02  0.20103012150E+02  0.00000000000E+00 0. -1.
</event>
<event>
 7    1  0.9953837E-014  0.5052887E+02  0.7816164E-02  0.1300439E+00
        -11   -1    0    0    0    0  0.00000000000E+00  0.00000000000E+00  0.45593999997E+02  0.45594000000E+02  0.51100000000E-03 0. -1.
         11   -1    0    0    0    0 -0.00000000000E+00 -0.00000000000E+00 -0.45593999997E+02  0.45594000000E+02  0.51100000000E-03 0.  1.
    9900012    2    1    2    0    0 -0.48820482845E+01 -0.38415531597E+02  0.12392639282E+02  0.50528868532E+02  0.30000026390E+02 0.  0.
        -12    1    1    2    0    0  0.48820482845E+01  0.38415531597E+02 -0.12392639282E+02  0.40659131468E+02  0.00000000000E+00 0.  1.
         11    1    3    3    0    0  0.12781378397E+01 -0.39007010163E+02  0.56209823140E+01  0.39430646972E+02  0.51100000000E-03 0. -1.
        -11    1    3    3    0    0 -0.68858260344E+01  0.50735752338E+00  0.34903276597E+01  0.77365624967E+01  0.51100000000E-03 0.  1.
        -12    1    3    3    0    0  0.72563991017E+00  0.84121042065E-01  0.32813293083E+01  0.33616590634E+01  0.00000000000E+00 0.  1.
</event>
<event>
 7    1  0.9953837E-014  0.5052885E+02  0.7816164E-02  0.1300439E+00
        -11   -1    0    0    0    0  0.00000000000E+00  0.00000000000E+00  0.45593999997E+02  0.45594000000E+02  0.51100000000E-03 0. -1.
         11   -1    0    0    0    0 -0.00000000000E+00 -0.00000000000E+00 -0.45593999997E+02  0.45594000000E+02  0.51100000000E-03 0.  1.
    9900012    2    1    2    0    0  0.18774952397E+02 -0.15955008795E+02  0.32343548075E+02  0.50528852871E+02  0.29999978788E+02 0.  0.
        -12    1    1    2    0    0 -0.18774952397E+02  0.15955008795E+02 -0.32343548075E+02  0.40659147129E+02  0.00000000000E+00 0.  1.
         11    1    3    3    0    0  0.12281429897E+02 -0.15236831053E+02  0.23161099387E+02  0.30322121725E+02  0.51100000000E-03 0. -1.
        -11    1    3    3    0    0  0.10527495821E+02  0.23541915701E+00  0.44923104223E+00  0.10539705842E+02  0.51100000000E-03 0.  1.
        -12    1    3    3    0    0 -0.40339733202E+01 -0.95359689878E+00  0.87332176457E+01  0.96670253047E+01  0.00000000000E+00 0.  1.
</event>
<event>
 7    1  0.9953837E-014  0.5052886E+02  0.7816164E-02  0.1300439E+00
        -11   -1    0    0    0    0  0.00000000000E+00  0.00000000000E+00  0.45593999997E+02  0.45594000000E+02  0.51100000000E-03 0. -1.
         11   -1    0    0    0    0 -0.00000000000E+00 -0.00000000000E+00 -0.45593999997E+02  0.45594000000E+02  0.51100000000E-03 0.  1.
    9900012    2    1    2    0    0  0.58121160049E+01  0.21210705130E+02  0.34197818835E+02  0.50528861819E+02  0.30000005986E+02 0.  0.
        -12    1    1    2    0    0 -0.58121160049E+01 -0.21210705130E+02 -0.34197818835E+02  0.40659138181E+02  0.00000000000E+00 0.  1.
         11    1    3    3    0    0  0.10944919738E+01  0.42442597779E+01  0.12590954567E+02  0.13332058765E+02  0.51100000000E-03 0. -1.
        -11    1    3    3    0    0  0.13534200823E+02  0.38141537874E+01  0.72372588035E+01  0.15814558997E+02  0.51100000000E-03 0.  1.
        -12    1    3    3    0    0 -0.88165767916E+01  0.13152291564E+02  0.14369605464E+02  0.21382244057E+02  0.00000000000E+00 0.  1.
</event>
<event>
 7    1  0.9953837E-014  0.5052890E+02  0.7816164E-02  0.1300439E+00
        -11   -1    0    0    0    0  0.00000000000E+00  0.00000000000E+00  0.45593999997E+02  0.45594000000E+02  0.51100000000E-03 0. -1.
         11   -1    0    0    0    0 -0.00000000000E+00 -0.00000000000E+00 -0.45593999997E+02  0.45594000000E+02  0.51100000000E-03 0.  1.
    9900012    2    1    2    0    0  0.10696885205E+01  0.25494808983E+02 -0.31654904213E+02  0.50528899182E+02  0.30000119553E+02 0.  0.
         12    1    1    2    0    0 -0.10696885205E+01 -0.25494808983E+02  0.31654904213E+02  0.40659100818E+02  0.00000000000E+00 0. -1.
         11    1    3    3    0    0  0.14361194575E+01 -0.33189186997E+01 -0.14124507370E+02  0.14580101822E+02  0.51100000000E-03 0. -1.
        -11    1    3    3    0    0  0.42179383186E+01  0.24200043702E+02 -0.11678376986E+02  0.27199588382E+02  0.51100000000E-03 0.  1.
         12    1    3    3    0    0 -0.45843692556E+01  0.46136839799E+01 -0.58520198568E+01  0.87492089781E+01  0.00000000000E+00 0. -1.
</event>
<event>
 7    1  0.9953837E-014  0.5052886E+02  0.7816164E-02  0.1300439E+00
        -11   -1    0    0    0    0  0.00000000000E+00  0.00000000000E+00  0.45593999997E+02  0.45594000000E+02  0.51100000000E-03 0.  1.
         11   -1    0    0    0    0 -0.00000000000E+00 -0.00000000000E+00 -0.45593999997E+02  0.45594000000E+02  0.51100000000E-03 0. -1.
    9900012    2    1    2    0    0  0.26770716057E+02  0.28330249679E+02 -0.11571145862E+02  0.50528859556E+02  0.29999999105E+02 0.  0.
         12    1    1    2    0    0 -0.26770716057E+02 -0.28330249679E+02  0.11571145862E+02  0.40659140444E+02  0.00000000000E+00 0. -1.
         11    1    3    3    0    0  0.14618967806E+02  0.25007295020E+02 -0.93661947960E+01  0.30443466116E+02  0.51100000000E-03 0.  1.
        -11    1    3    3    0    0  0.62126482095E+01 -0.48153055300E+01  0.33911534871E+01  0.85606125574E+01  0.51100000000E-03 0. -1.
         12    1    3    3    0    0  0.59391000413E+01  0.81382601893E+01 -0.55961045534E+01  0.11524780882E+02  0.00000000000E+00 0. -1.
</event>
<event>
 7    1  0.9953837E-014  0.5052887E+02  0.7816164E-02  0.1300439E+00
        -11   -1    0    0    0    0  0.00000000000E+00  0.00000000000E+00  0.45593999997E+02  0.45594000000E+02  0.51100000000E-03 0. -1.
         11   -1    0    0    0    0 -0.00000000000E+00 -0.00000000000E+00 -0.45593999997E+02  0.45594000000E+02  0.51100000000E-03 0.  1.
    9900012    2    1    2    0    0  0.29680553154E+02 -0.11561703266E+02  0.25269685595E+02  0.50528865380E+02  0.30000016810E+02 0.  0.
        -12    1    1    2    0    0 -0.29680553154E+02  0.11561703266E+02 -0.25269685595E+02  0.40659134620E+02  0.00000000000E+00 0.  1.
         11    1    3    3    0    0 -0.37424320011E+01  0.17883199669E+01  0.10573370192E+02  0.11357818587E+02  0.51100000000E-03 0. -1.
        -11    1    3    3    0    0  0.31659696191E+02 -0.11745526708E+02  0.12756005980E+02  0.36097222184E+02  0.51100000000E-03 0.  1.
         12    1    3    3    0    0  0.17632889634E+01 -0.16044965255E+01  0.19403094238E+01  0.30738246093E+01  0.00000000000E+00 0. -1.
</event>
<event>
 7    1  0.9953837E-014  0.5052887E+02  0.7816164E-02  0.1300439E+00
        -11   -1    0    0    0    0  0.00000000000E+00  0.00000000000E+00  0.45593999997E+02  0.45594000000E+02  0.51100000000E-03 0. -1.
         11   -1    0    0    0    0 -0.00000000000E+00 -0.00000000000E+00 -0.45593999997E+02  0.45594000000E+02  0.51100000000E-03 0.  1.
    9900012    2    1    2    0    0 -0.15564459441E+02  0.15912012569E+02  0.34025288047E+02  0.50528871033E+02  0.30000033991E+02 0.  0.
        -12    1    1    2    0    0  0.15564459441E+02 -0.15912012569E+02 -0.34025288047E+02  0.40659128967E+02  0.00000000000E+00 0.  1.
         11    1    3    3    0    0 -0.10700552046E+02  0.10152823613E+02  0.45992566987E+01  0.15451045397E+02  0.51100000000E-03 0. -1.
        -11    1    3    3    0    0 -0.23632077211E+01 -0.97028215873E+00  0.27535817281E+02  0.27654067183E+02  0.51100000000E-03 0.  1.
        -12    1    3    3    0    0 -0.25006996736E+01  0.67294711148E+01  0.18902140677E+01  0.74237584527E+01  0.00000000000E+00 0.  1.
</event>
<event>
 7    1  0.9953837E-014  0.5052890E+02  0.7816164E-02  0.1300439E+00
        -11   -1    0    0    0    0  0.00000000000E+00  0.00000000000E+00  0.45593999997E+02  0.45594000000E+02  0.51100000000E-03 0. -1.
         11   -1    0    0    0    0 -0.00000000000E+00 -0.00000000000E+00 -0.45593999997E+02  0.45594000000E+02  0.51100000000E-03 0.  1.
    9900012    2    1    2    0    0 -0.82615071529E+01 -0.36980875565E+02  0.14741940113E+02  0.50528899465E+02  0.30000120415E+02 0.  0.
        -12    1    1    2    0    0  0.82615071529E+01  0.36980875565E+02 -0.14741940113E+02  0.40659100535E+02  0.00000000000E+00 0.  1.
         11    1    3    3    0    0  0.38391823366E+00 -0.39038329222E+01  0.70606881757E-01  0.39233009427E+01  0.51100000000E-03 0. -1.
        -11    1    3    3    0    0 -0.19600232165E+01 -0.15477696681E+02 -0.76741288055E+01  0.17386576395E+02  0.51100000000E-03 0.  1.
        -12    1    3    3    0    0 -0.66854021701E+01 -0.17599345961E+02  0.22345462037E+02  0.29219022127E+02  0.00000000000E+00 0.  1.
</event>
<event>
 7    1  0.9953837E-014  0.5052885E+02  0.7816164E-02  0.1300439E+00
        -11   -1    0    0    0    0  0.00000000000E+00  0.00000000000E+00  0.45593999997E+02  0.45594000000E+02  0.51100000000E-03 0. -1.
         11   -1    0    0    0    0 -0.00000000000E+00 -0.00000000000E+00 -0.45593999997E+02  0.45594000000E+02  0.51100000000E-03 0.  1.
    9900012    2    1    2    0    0  0.11326906078E+02  0.25286809213E+02 -0.29756426030E+02  0.50528850826E+02  0.29999972571E+02 0.  0.
         12    1    1    2    0    0 -0.11326906078E+02 -0.25286809213E+02  0.29756426030E+02  0.40659149174E+02  0.00000000000E+00 0. -1.
         11    1    3    3    0    0 -0.71399380914E+00  0.96034933487E+01  0.24615899231E+01  0.99396326324E+01  0.51100000000E-03 0. -1.
        -11    1    3    3    0    0  0.11907820581E+02  0.56408971412E+01 -0.24870133697E+02  0.28144972232E+02  0.51100000000E-03 0.  1.
        -12    1    3    3    0    0  0.13307930688E+00  0.10042418724E+02 -0.73478822553E+01  0.12444245962E+02  0.00000000000E+00 0.  1.
</event>
<event>
 7    1  0.9953837E-014  0.5052886E+02  0.7816164E-02  0.1300439E+00
        -11   -1    0    0    0    0  0.00000000000E+00  0.00000000000E+00  0.45593999997E+02  0.45594000000E+02  0.51100000000E-03 0. -1.
         11   -1    0    0    0    0 -0.00000000000E+00 -0.00000000000E+00 -0.45593999997E+02  0.45594000000E+02  0.51100000000E-03 0.  1.
    9900012    2    1    2    0    0  0.12183821767E+02  0.26960849092E+01 -0.38696917660E+02  0.50528858063E+02  0.29999994568E+02 0.  0.
         12    1    1    2    0    0 -0.12183821767E+02 -0.26960849092E+01  0.38696917660E+02  0.40659141937E+02  0.00000000000E+00 0. -1.
         11    1    3    3    0    0  0.85700427147E+01  0.89074065689E+01 -0.15824428065E+02  0.20079841826E+02  0.51100000000E-03 0. -1.
        -11    1    3    3    0    0 -0.64692120095E+01 -0.12685617282E+00 -0.25377678152E+01  0.69503282122E+01  0.51100000000E-03 0.  1.
        -12    1    3    3    0    0  0.10082991062E+02 -0.60844654869E+01 -0.20334721780E+02  0.23498688025E+02  0.00000000000E+00 0.  1.
</event>
<event>
 7    1  0.9953837E-014  0.5052884E+02  0.7816164E-02  0.1300439E+00
        -11   -1    0    0    0    0  0.00000000000E+00  0.00000000000E+00  0.45593999997E+02  0.45594000000E+02  0.51100000000E-03 0. -1.
         11   -1    0    0    0    0 -0.00000000000E+00 -0.00000000000E+00 -0.45593999997E+02  0.45594000000E+02  0.51100000000E-03 0.  1.
    9900012    2    1    2    0    0  0.12526383253E+02  0.59847462290E+01  0.38215698423E+02  0.50528842719E+02  0.29999947930E+02 0.  0.
        -12    1    1    2    0    0 -0.12526383253E+02 -0.59847462290E+01 -0.38215698423E+02  0.40659157281E+02  0.00000000000E+00 0.  1.
         11    1    3    3    0    0  0.12830235724E+02  0.19619983011E+01  0.37134162979E+02  0.39337138260E+02  0.51100000000E-03 0. -1.
        -11    1    3    3    0    0  0.11688950325E+01 -0.14096491903E+00 -0.41682027972E+01  0.43312932855E+01  0.51100000000E-03 0.  1.
         12    1    3    3    0    0 -0.14727475028E+01  0.41637128469E+01  0.52497382408E+01  0.68604111739E+01  0.00000000000E+00 0. -1.
</event>
<event>
 7    1  0.9953837E-014  0.5052887E+02  0.7816164E-02  0.1300439E+00
        -11   -1    0    0    0    0  0.00000000000E+00  0.00000000000E+00  0.45593999997E+02  0.45594000000E+02  0.51100000000E-03 0. -1.
         11   -1    0    0    0    0 -0.00000000000E+00 -0.00000000000E+00 -0.45593999997E+02  0.45594000000E+02  0.51100000000E-03 0.  1.
    9900012    2    1    2    0    0 -0.14726334805E+01 -0.18479426825E+02  0.36187114250E+02  0.50528866919E+02  0.30000021486E+02 0.  0.
        -12    1    1    2    0    0  0.14726334805E+01  0.18479426825E+02 -0.36187114250E+02  0.40659133081E+02  0.00000000000E+00 0.  1.
         11    1    3    3    0    0  0.32965736275E+01 -0.93128097496E+01  0.32456990925E+02  0.33927158491E+02  0.51100000000E-03 0. -1.
        -11    1    3    3    0    0  0.17850805240E+01 -0.94430390887E+01  0.19795468939E+01  0.98120388235E+01  0.51100000000E-03 0.  1.
         12    1    3    3    0    0 -0.65542876320E+01  0.27642201310E+00  0.17505764314E+01  0.67896696042E+01  0.00000000000E+00 0. -1.
</event>
<event>
 7    1  0.9953837E-014  0.5052885E+02  0.7816164E-02  0.1300439E+00
        -11   -1    0    0    0    0  0.00000000000E+00  0.00000000000E+00  0.45593999997E+02  0.45594000000E+02  0.51100000000E-03 0. -1.
         11   -1    0    0    0    0 -0.00000000000E+00 -0.00000000000E+00 -0.45593999997E+02  0.45594000000E+02  0.51100000000E-03 0.  1.
    9900012    2    1    2    0    0 -0.18899657560E+02  0.61568413037E+01 -0.35469180445E+02  0.50528849589E+02  0.29999968810E+02 0.  0.
         12    1    1    2    0    0  0.18899657560E+02 -0.61568413037E+01  0.35469180445E+02  0.40659150411E+02  0.00000000000E+00 0. -1.
         11    1    3    3    0    0  0.82036683860E+01  0.22314857630E+01 -0.85442465879E+01  0.12053375200E+02  0.51100000000E-03 0. -1.
        -11    1    3    3    0    0 -0.16482329421E+02  0.19248698240E+01 -0.17745484942E+02  0.24295566325E+02  0.51100000000E-03 0.  1.
         12    1    3    3    0    0 -0.10620996526E+02  0.20004857167E+01 -0.91794489151E+01  0.14179908063E+02  0.00000000000E+00 0. -1.
</event>
<event>
 7    1  0.9953837E-014  0.5052885E+02  0.7816164E-02  0.1300439E+00
        -11   -1    0    0    0    0  0.00000000000E+00  0.00000000000E+00  0.45593999997E+02  0.45594000000E+02  0.51100000000E-03 0. -1.
         11   -1    0    0    0    0 -0.00000000000E+00 -0.00000000000E+00 -0.45593999997E+02  0.45594000000E+02  0.51100000000E-03 0.  1.
    9900012    2    1    2    0    0  0.22038296928E+02 -0.25717290736E+02 -0.22496689184E+02  0.50528848527E+02  0.29999965582E+02 0.  0.
         12    1    1    2    0    0 -0.22038296928E+02  0.25717290736E+02  0.22496689184E+02  0.40659151473E+02  0.00000000000E+00 0. -1.
         11    1    3    3    0    0  0.14222681616E+01 -0.10233223869E+02  0.81368416855E+00  0.10363580446E+02  0.51100000000E-03 0. -1.
        -11    1    3    3    0    0  0.23209170264E+02 -0.13697532874E+02 -0.14066820195E+02  0.30400056280E+02  0.51100000000E-03 0.  1.
        -12    1    3    3    0    0 -0.25931414976E+01 -0.17865339929E+01 -0.92435531573E+01  0.97652118003E+01  0.00000000000E+00 0.  1.
</event>
<event>
 7    1  0.9953837E-014  0.5052885E+02  0.7816164E-02  0.1300439E+00
        -11   -1    0    0    0    0  0.00000000000E+00  0.00000000000E+00  0.45593999997E+02  0.45594000000E+02  0.51100000000E-03 0.  1.
         11   -1    0    0    0    0 -0.00000000000E+00 -0.00000000000E+00 -0.45593999997E+02  0.45594000000E+02  0.51100000000E-03 0. -1.
    9900012    2    1    2    0    0 -0.11632367926E+02 -0.36410737341E+02  0.13860459618E+02  0.50528854434E+02  0.29999983538E+02 0.  0.
        -12    1    1    2    0    0  0.11632367926E+02  0.36410737341E+02 -0.13860459618E+02  0.40659145566E+02  0.00000000000E+00 0.  1.
         11    1    3    3    0    0 -0.13863720330E+02 -0.20946563767E+02  0.52646624678E+01  0.25664721822E+02  0.51100000000E-03 0. -1.
        -11    1    3    3    0    0  0.31308149148E+01 -0.11263327748E+02  0.13819398845E+02  0.18100838066E+02  0.51100000000E-03 0.  1.
         12    1    3    3    0    0 -0.89946251132E+00 -0.42008458263E+01 -0.52236016943E+01  0.67632945468E+01  0.00000000000E+00 0. -1.
</event>
<event>
 7    1  0.9953837E-014  0.5052886E+02  0.7816164E-02  0.1300439E+00
        -11   -1    0    0    0    0  0.00000000000E+00  0.00000000000E+00  0.45593999997E+02  0.45594000000E+02  0.51100000000E-03 0. -1.
         11   -1    0    0    0    0 -0.00000000000E+00 -0.00000000000E+00 -0.45593999997E+02  0.45594000000E+02  0.51100000000E-03 0.  1.
    9900012    2    1    2    0    0 -0.21253695116E+02  0.31232810020E+02  0.15031894681E+02  0.50528857910E+02  0.29999994102E+02 0.  0.
        -12    1    1    2    0    0  0.21253695116E+02 -0.31232810020E+02 -0.15031894681E+02  0.40659142090E+02  0.00000000000E+00 0.  1.
         11    1    3    3    0    0 -0.19977163040E+02  0.12461814819E+02  0.41355617301E+01  0.23905788897E+02  0.51100000000E-03 0.  1.
        -11    1    3    3    0    0  0.68852477681E+01  0.10973480833E+02  0.66604998111E+01  0.14566611700E+02  0.51100000000E-03 0. -1.
         12    1    3    3    0    0 -0.81617798443E+01  0.77975143678E+01  0.42358331397E+01  0.12056457313E+02  0.00000000000E+00 0. -1.
</event>
<event>
 7    1  0.9953837E-014  0.5052885E+02  0.7816164E-02  0.1300439E+00
        -11   -1    0    0    0    0  0.00000000000E+00  0.00000000000E+00  0.45593999997E+02  0.45594000000E+02  0.51100000000E-03 0. -1.
         11   -1    0    0    0    0 -0.00000000000E+00 -0.00000000000E+00 -0.45593999997E+02  0.45594000000E+02  0.51100000000E-03 0.  1.
    9900012    2    1    2    0    0 -0.32881730541E+01  0.29605592729E+02 -0.27674227784E+02  0.50528854826E+02  0.29999984728E+02 0.  0.
         12    1    1    2    0    0  0.32881730541E+01 -0.29605592729E+02  0.27674227784E+02  0.40659145174E+02  0.00000000000E+00 0. -1.
         11    1    3    3    0    0  0.19431508440E+01 -0.28672737872E+01  0.26136529673E+01  0.43391561700E+01  0.51100000000E-03 0. -1.
        -11    1    3    3    0    0 -0.14547770843E+01  0.25694727486E+02 -0.17133858127E+02  0.30917705147E+02  0.51100000000E-03 0.  1.
         12    1    3    3    0    0 -0.37765468138E+01  0.67781390303E+01 -0.13154022624E+02  0.15271993509E+02  0.00000000000E+00 0. -1.
</event>
<event>
 7    1  0.9953837E-014  0.5052883E+02  0.7816164E-02  0.1300439E+00
        -11   -1    0    0    0    0  0.00000000000E+00  0.00000000000E+00  0.45593999997E+02  0.45594000000E+02  0.51100000000E-03 0. -1.
         11   -1    0    0    0    0 -0.00000000000E+00 -0.00000000000E+00 -0.45593999997E+02  0.45594000000E+02  0.51100000000E-03 0.  1.
    9900012    2    1    2    0    0 -0.15185223373E+02 -0.34192718004E+02 -0.15919636844E+02  0.50528833621E+02  0.29999920275E+02 0.  0.
         12    1    1    2    0    0  0.15185223373E+02  0.34192718004E+02  0.15919636844E+02  0.40659166379E+02  0.00000000000E+00 0. -1.
         11    1    3    3    0    0 -0.10110164909E+02 -0.56699135577E+01  0.34193971878E+01  0.12085347807E+02  0.51100000000E-03 0. -1.
        -11    1    3    3    0    0 -0.13299716256E+01 -0.51758436063E+01 -0.12860476202E+02  0.13926594342E+02  0.51100000000E-03 0.  1.
         12    1    3    3    0    0 -0.37450868389E+01 -0.23346960840E+02 -0.64785578296E+01  0.24516891472E+02  0.00000000000E+00 0. -1.
</event>
<event>
 7    1  0.9953837E-014  0.5052885E+02  0.7816164E-02  0.1300439E+00
        -11   -1    0    0    0    0  0.00000000000E+00  0.00000000000E+00  0.45593999997E+02  0.45594000000E+02  0.51100000000E-03 0. -1.
         11   -1    0    0    0    0 -0.00000000000E+00 -0.00000000000E+00 -0.45593999997E+02  0.45594000000E+02  0.51100000000E-03 0.  1.
    9900012    2    1    2    0    0  0.28061249498E+01 -0.19619767105E+02 -0.35501499793E+02  0.50528854828E+02  0.29999984736E+02 0.  0.
         12    1    1    2    0    0 -0.28061249498E+01  0.19619767105E+02  0.35501499793E+02  0.40659145172E+02  0.00000000000E+00 0. -1.
         11    1    3    3    0    0  0.52429554606E+01  0.25226240335E+01 -0.83304628948E+00  0.58775998807E+01  0.51100000000E-03 0.  1.
        -11    1    3    3    0    0 -0.96332741502E+01 -0.15677382723E+02 -0.21255305566E+02  0.28113489909E+02  0.51100000000E-03 0. -1.
        -12    1    3    3    0    0  0.71964436395E+01 -0.64650084161E+01 -0.13413147938E+02  0.16537765039E+02  0.00000000000E+00 0.  1.
</event>
<event>
 7    1  0.9953837E-014  0.5052885E+02  0.7816164E-02  0.1300439E+00
        -11   -1    0    0    0    0  0.00000000000E+00  0.00000000000E+00  0.45593999997E+02  0.45594000000E+02  0.51100000000E-03 0. -1.
         11   -1    0    0    0    0 -0.00000000000E+00 -0.00000000000E+00 -0.45593999997E+02  0.45594000000E+02  0.51100000000E-03 0.  1.
    9900012    2    1    2    0    0  0.10392437589E+02  0.37624850908E+02  0.11381318191E+02  0.50528848894E+02  0.29999966698E+02 0.  0.
        -12    1    1    2    0    0 -0.10392437589E+02 -0.37624850908E+02 -0.11381318191E+02  0.40659151106E+02  0.00000000000E+00 0.  1.
         11    1    3    3    0    0  0.14925060608E+02  0.35841430752E+02  0.16465771186E+02  0.42172114169E+02  0.51100000000E-03 0. -1.
        -11    1    3    3    0    0 -0.27521760744E+01  0.32119595897E+01 -0.40299792092E+01  0.58422504430E+01  0.51100000000E-03 0.  1.
         12    1    3    3    0    0 -0.17804469449E+01 -0.14285394338E+01 -0.10544737858E+01  0.25144842816E+01  0.00000000000E+00 0. -1.
</event>
<event>
 7    1  0.9953837E-014  0.5052885E+02  0.7816164E-02  0.1300439E+00
        -11   -1    0    0    0    0  0.00000000000E+00  0.00000000000E+00  0.45593999997E+02  0.45594000000E+02  0.51100000000E-03 0. -1.
         11   -1    0    0    0    0 -0.00000000000E+00 -0.00000000000E+00 -0.45593999997E+02  0.45594000000E+02  0.51100000000E-03 0.  1.
    9900012    2    1    2    0    0  0.27871180100E+02  0.29593735649E+02  0.75789771103E+00  0.50528852459E+02  0.29999977534E+02 0.  0.
        -12    1    1    2    0    0 -0.27871180100E+02 -0.29593735649E+02 -0.75789771103E+00  0.40659147541E+02  0.00000000000E+00 0.  1.
         11    1    3    3    0    0  0.22242404210E+02  0.27757066699E+02  0.94010814762E+01  0.36790754681E+02  0.51100000000E-03 0. -1.
        -11    1    3    3    0    0  0.94581601434E+00  0.34937235839E+01 -0.79335207755E+01  0.87201734255E+01  0.51100000000E-03 0.  1.
        -12    1    3    3    0    0  0.46829598748E+01 -0.16570546338E+01 -0.70966298965E+00  0.50179243525E+01  0.00000000000E+00 0.  1.
</event>
<event>
 7    1  0.9953837E-014  0.5052886E+02  0.7816164E-02  0.1300439E+00
        -11   -1    0    0    0    0  0.00000000000E+00  0.00000000000E+00  0.45593999997E+02  0.45594000000E+02  0.51100000000E-03 0. -1.
         11   -1    0    0    0    0 -0.00000000000E+00 -0.00000000000E+00 -0.45593999997E+02  0.45594000000E+02  0.51100000000E-03 0.  1.
    9900012    2    1    2    0    0  0.22088512300E+02  0.26936131580E+02 -0.20969217762E+02  0.50528860146E+02  0.30000000900E+02 0.  0.
         12    1    1    2    0    0 -0.22088512300E+02 -0.26936131580E+02  0.20969217762E+02  0.40659139854E+02  0.00000000000E+00 0. -1.
         11    1    3    3    0    0 -0.55444250404E+01  0.23008847378E+01  0.83393031653E+00  0.60605412002E+01  0.51100000000E-03 0. -1.
        -11    1    3    3    0    0  0.24646710843E+02  0.25675626679E+02 -0.20183015490E+02  0.40915183921E+02  0.51100000000E-03 0.  1.
        -12    1    3    3    0    0  0.29862264975E+01 -0.10403798374E+01 -0.16201325885E+01  0.35531350248E+01  0.00000000000E+00 0.  1.
</event>
<event>
 7    1  0.9953837E-014  0.5052895E+02  0.7816164E-02  0.1300438E+00
        -11   -1    0    0    0    0  0.00000000000E+00  0.00000000000E+00  0.45593999997E+02  0.45594000000E+02  0.51100000000E-03 0. -1.
         11   -1    0    0    0    0 -0.00000000000E+00 -0.00000000000E+00 -0.45593999997E+02  0.45594000000E+02  0.51100000000E-03 0.  1.
    9900012    2    1    2    0    0 -0.14619950158E+02  0.36743927212E+02  0.94498201007E+01  0.50528951444E+02  0.30000278407E+02 0.  0.
        -12    1    1    2    0    0  0.14619950158E+02 -0.36743927212E+02 -0.94498201007E+01  0.40659048556E+02  0.00000000000E+00 0.  1.
         11    1    3    3    0    0 -0.14771136648E+02  0.74672671353E+01  0.53803320645E+01  0.17403865368E+02  0.51100000000E-03 0. -1.
        -11    1    3    3    0    0  0.66417568745E+01  0.69208497583E+01  0.13899733385E+01  0.96924260070E+01  0.51100000000E-03 0.  1.
        -12    1    3    3    0    0 -0.64905703840E+01  0.22355810318E+02  0.26795146977E+01  0.23432660069E+02  0.00000000000E+00 0.  1.
</event>
<event>
 7    1  0.9953837E-014  0.5052886E+02  0.7816164E-02  0.1300439E+00
        -11   -1    0    0    0    0  0.00000000000E+00  0.00000000000E+00  0.45593999997E+02  0.45594000000E+02  0.51100000000E-03 0. -1.
         11   -1    0    0    0    0 -0.00000000000E+00 -0.00000000000E+00 -0.45593999997E+02  0.45594000000E+02  0.51100000000E-03 0.  1.
    9900012    2    1    2    0    0 -0.28539951899E+02  0.14283539638E+02 -0.25191604159E+02  0.50528864753E+02  0.30000014903E+02 0.  0.
         12    1    1    2    0    0  0.28539951899E+02 -0.14283539638E+02  0.25191604159E+02  0.40659135247E+02  0.00000000000E+00 0. -1.
         11    1    3    3    0    0 -0.28860480219E+02  0.71982750121E+01 -0.15826948439E+02  0.33693245299E+02  0.51100000000E-03 0.  1.
        -11    1    3    3    0    0  0.13878807481E+00  0.38800793277E+01  0.24510821224E+01  0.45915227922E+01  0.51100000000E-03 0. -1.
         12    1    3    3    0    0  0.18174024588E+00  0.32051852978E+01 -0.11815737842E+02  0.12244096662E+02  0.00000000000E+00 0. -1.
</event>
<event>
 7    1  0.9953837E-014  0.5052884E+02  0.7816164E-02  0.1300439E+00
        -11   -1    0    0    0    0  0.00000000000E+00  0.00000000000E+00  0.45593999997E+02  0.45594000000E+02  0.51100000000E-03 0. -1.
         11   -1    0    0    0    0 -0.00000000000E+00 -0.00000000000E+00 -0.45593999997E+02  0.45594000000E+02  0.51100000000E-03 0.  1.
    9900012    2    1    2    0    0 -0.28898690484E+02  0.14856622664E+02 -0.24440000859E+02  0.50528841245E+02  0.29999943449E+02 0.  0.
         12    1    1    2    0    0  0.28898690484E+02 -0.14856622664E+02  0.24440000859E+02  0.40659158755E+02  0.00000000000E+00 0. -1.
         11    1    3    3    0    0 -0.24428548773E+01 -0.30240570157E+01  0.27299891366E+01  0.47502949101E+01  0.51100000000E-03 0. -1.
        -11    1    3    3    0    0 -0.24017987376E+02  0.20906315182E+02 -0.27222326607E+02  0.41892634176E+02  0.51100000000E-03 0.  1.
        -12    1    3    3    0    0 -0.24378482301E+01 -0.30256355022E+01  0.52336610941E-01  0.38859121588E+01  0.00000000000E+00 0.  1.
</event>
<event>
 7    1  0.9953837E-014  0.5052884E+02  0.7816164E-02  0.1300439E+00
        -11   -1    0    0    0    0  0.00000000000E+00  0.00000000000E+00  0.45593999997E+02  0.45594000000E+02  0.51100000000E-03 0. -1.
         11   -1    0    0    0    0 -0.00000000000E+00 -0.00000000000E+00 -0.45593999997E+02  0.45594000000E+02  0.51100000000E-03 0.  1.
    9900012    2    1    2    0    0  0.42515562015E+01  0.22237837224E+02  0.33772329403E+02  0.50528839066E+02  0.29999936825E+02 0.  0.
        -12    1    1    2    0    0 -0.42515562015E+01 -0.22237837224E+02 -0.33772329403E+02  0.40659160934E+02  0.00000000000E+00 0.  1.
         11    1    3    3    0    0  0.15143485468E+01  0.19677198739E+02  0.33236445412E+02  0.38654193894E+02  0.51100000000E-03 0. -1.
        -11    1    3    3    0    0  0.25377041761E+01  0.40185736205E+01 -0.45503267901E+01  0.65798442677E+01  0.51100000000E-03 0.  1.
         12    1    3    3    0    0  0.19950347867E+00 -0.14579351359E+01  0.50862107818E+01  0.52948009042E+01  0.00000000000E+00 0. -1.
</event>
<event>
 7    1  0.9953837E-014  0.5052886E+02  0.7816164E-02  0.1300439E+00
        -11   -1    0    0    0    0  0.00000000000E+00  0.00000000000E+00  0.45593999997E+02  0.45594000000E+02  0.51100000000E-03 0. -1.
         11   -1    0    0    0    0 -0.00000000000E+00 -0.00000000000E+00 -0.45593999997E+02  0.45594000000E+02  0.51100000000E-03 0.  1.
    9900012    2    1    2    0    0 -0.33085554285E+02  0.61265805409E+01  0.22824910284E+02  0.50528863008E+02  0.30000009599E+02 0.  0.
        -12    1    1    2    0    0  0.33085554285E+02 -0.61265805409E+01 -0.22824910284E+02  0.40659136992E+02  0.00000000000E+00 0.  1.
         11    1    3    3    0    0 -0.66334345674E+01  0.15061195849E+00  0.18728755448E+02  0.19869358798E+02  0.51100000000E-03 0. -1.
        -11    1    3    3    0    0 -0.92177610822E+01  0.90046442592E+01  0.17800364743E+01  0.13008430640E+02  0.51100000000E-03 0.  1.
         12    1    3    3    0    0 -0.17234358635E+02 -0.30286756768E+01  0.23161183616E+01  0.17651073570E+02  0.00000000000E+00 0. -1.
</event>
<event>
 7    1  0.9953837E-014  0.5052884E+02  0.7816164E-02  0.1300439E+00
        -11   -1    0    0    0    0  0.00000000000E+00  0.00000000000E+00  0.45593999997E+02  0.45594000000E+02  0.51100000000E-03 0. -1.
         11   -1    0    0    0    0 -0.00000000000E+00 -0.00000000000E+00 -0.45593999997E+02  0.45594000000E+02  0.51100000000E-03 0.  1.
    9900012    2    1    2    0    0  0.13397428060E+02 -0.24216351317E+02  0.29786653814E+02  0.50528837500E+02  0.29999932065E+02 0.  0.
        -12    1    1    2    0    0 -0.13397428060E+02  0.24216351317E+02 -0.29786653814E+02  0.40659162500E+02  0.00000000000E+00 0.  1.
         11    1    3    3    0    0 -0.75043834494E+00 -0.22086771655E+02  0.27844517765E+02  0.35548640053E+02  0.51100000000E-03 0. -1.
        -11    1    3    3    0    0  0.54748162900E+01  0.86103663802E+00 -0.25001435445E+00  0.55477477358E+01  0.51100000000E-03 0.  1.
         12    1    3    3    0    0  0.86730501152E+01 -0.29906163005E+01  0.21921504039E+01  0.94324497110E+01  0.00000000000E+00 0. -1.
</event>
<event>
 7    1  0.9953837E-014  0.5052886E+02  0.7816164E-02  0.1300439E+00
        -11   -1    0    0    0    0  0.00000000000E+00  0.00000000000E+00  0.45593999997E+02  0.45594000000E+02  0.51100000000E-03 0. -1.
         11   -1    0    0    0    0 -0.00000000000E+00 -0.00000000000E+00 -0.45593999997E+02  0.45594000000E+02  0.51100000000E-03 0.  1.
    9900012    2    1    2    0    0  0.31171165125E+02  0.96459186762E+01  0.24258617932E+02  0.50528858023E+02  0.29999994445E+02 0.  0.
        -12    1    1    2    0    0 -0.31171165125E+02 -0.96459186762E+01 -0.24258617932E+02  0.40659141977E+02  0.00000000000E+00 0.  1.
         11    1    3    3    0    0  0.15561343922E+01  0.54011542162E+01  0.45494238624E+01  0.72312709018E+01  0.51100000000E-03 0. -1.
        -11    1    3    3    0    0  0.16146068929E+02 -0.93836906620E+01  0.55808054918E+01  0.19490884601E+02  0.51100000000E-03 0.  1.
        -12    1    3    3    0    0  0.13468961803E+02  0.13628455122E+02  0.14128388578E+02  0.23806702520E+02  0.00000000000E+00 0.  1.
</event>
<event>
 7    1  0.9953837E-014  0.5052886E+02  0.7816164E-02  0.1300439E+00
        -11   -1    0    0    0    0  0.00000000000E+00  0.00000000000E+00  0.45593999997E+02  0.45594000000E+02  0.51100000000E-03 0. -1.
         11   -1    0    0    0    0 -0.00000000000E+00 -0.00000000000E+00 -0.45593999997E+02  0.45594000000E+02  0.51100000000E-03 0.  1.
    9900012    2    1    2    0    0  0.39726701143E+01  0.33366864524E+01  0.40326786662E+02  0.50528864411E+02  0.30000013865E+02 0.  0.
        -12    1    1    2    0    0 -0.39726701143E+01 -0.33366864524E+01 -0.40326786662E+02  0.40659135589E+02  0.00000000000E+00 0.  1.
         11    1    3    3    0    0 -0.10104974215E+02  0.13019689949E+01  0.63680195419E+01  0.12014878289E+02  0.51100000000E-03 0.  1.
        -11    1    3    3    0    0  0.91501812606E+01  0.20512450532E+01  0.31764997674E+02  0.33120212875E+02  0.51100000000E-03 0. -1.
        -12    1    3    3    0    0  0.49274630692E+01 -0.16527595703E-01  0.21937694458E+01  0.53937732471E+01  0.00000000000E+00 0.  1.
</event>
<event>
 7    1  0.9953837E-014  0.5052886E+02  0.7816164E-02  0.1300439E+00
        -11   -1    0    0    0    0  0.00000000000E+00  0.00000000000E+00  0.45593999997E+02  0.45594000000E+02  0.51100000000E-03 0. -1.
         11   -1    0    0    0    0 -0.00000000000E+00 -0.00000000000E+00 -0.45593999997E+02  0.45594000000E+02  0.51100000000E-03 0.  1.
    9900012    2    1    2    0    0 -0.21411921276E+02 -0.22589073299E+02  0.26161589505E+02  0.50528863627E+02  0.30000011479E+02 0.  0.
        -12    1    1    2    0    0  0.21411921276E+02  0.22589073299E+02 -0.26161589505E+02  0.40659136373E+02  0.00000000000E+00 0.  1.
         11    1    3    3    0    0  0.37784766569E+01 -0.11894731746E+02  0.28279834651E+01  0.12796836324E+02  0.51100000000E-03 0. -1.
        -11    1    3    3    0    0 -0.10615137393E+02 -0.20169342608E+01  0.15871766665E+02  0.19200576632E+02  0.51100000000E-03 0.  1.
         12    1    3    3    0    0 -0.14575260539E+02 -0.86774072916E+01  0.74618393755E+01  0.18531450671E+02  0.00000000000E+00 0. -1.
</event>
<event>
 7    1  0.9953837E-014  0.5052886E+02  0.7816164E-02  0.1300439E+00
        -11   -1    0    0    0    0  0.00000000000E+00  0.00000000000E+00  0.45593999997E+02  0.45594000000E+02  0.51100000000E-03 0. -1.
         11   -1    0    0    0    0 -0.00000000000E+00 -0.00000000000E+00 -0.45593999997E+02  0.45594000000E+02  0.51100000000E-03 0.  1.
    9900012    2    1    2    0    0  0.92445556059E+01 -0.10559435752E+02  0.38160214547E+02  0.50528862454E+02  0.30000007914E+02 0.  0.
        -12    1    1    2    0    0 -0.92445556059E+01  0.10559435752E+02 -0.38160214547E+02  0.40659137546E+02  0.00000000000E+00 0.  1.
         11    1    3    3    0    0  0.90254912925E+01 -0.16804813212E+02  0.18443305567E+02  0.26533314167E+02  0.51100000000E-03 0. -1.
        -11    1    3    3    0    0 -0.53209847065E+01  0.56787614784E+01  0.88508288290E+01  0.11785515746E+02  0.51100000000E-03 0.  1.
         12    1    3    3    0    0  0.55400490198E+01  0.56661598184E+00  0.10866080151E+02  0.12210032541E+02  0.00000000000E+00 0. -1.
</event>
<event>
 7    1  0.9953837E-014  0.5052886E+02  0.7816164E-02  0.1300439E+00
        -11   -1    0    0    0    0  0.00000000000E+00  0.00000000000E+00  0.45593999997E+02  0.45594000000E+02  0.51100000000E-03 0. -1.
         11   -1    0    0    0    0 -0.00000000000E+00 -0.00000000000E+00 -0.45593999997E+02  0.45594000000E+02  0.51100000000E-03 0.  1.
    9900012    2    1    2    0    0  0.33084289802E+02  0.23265115118E+02  0.41629233500E+01  0.50528859036E+02  0.29999997525E+02 0.  0.
         12    1    1    2    0    0 -0.33084289802E+02 -0.23265115118E+02 -0.41629233500E+01  0.40659140964E+02  0.00000000000E+00 0. -1.
         11    1    3    3    0    0  0.20910117926E+02  0.11183188992E+02  0.46792567065E+01  0.24170068087E+02  0.51100000000E-03 0. -1.
        -11    1    3    3    0    0 -0.35081011982E+01  0.94388421058E+01  0.19745763174E+01  0.10261455365E+02  0.51100000000E-03 0.  1.
        -12    1    3    3    0    0  0.15682273074E+02  0.26430840197E+01 -0.24909096739E+01  0.16097335584E+02  0.00000000000E+00 0.  1.
</event>
<event>
 7    1  0.9953837E-014  0.5052886E+02  0.7816164E-02  0.1300439E+00
        -11   -1    0    0    0    0  0.00000000000E+00  0.00000000000E+00  0.45593999997E+02  0.45594000000E+02  0.51100000000E-03 0. -1.
         11   -1    0    0    0    0 -0.00000000000E+00 -0.00000000000E+00 -0.45593999997E+02  0.45594000000E+02  0.51100000000E-03 0.  1.
    9900012    2    1    2    0    0 -0.23784655978E+02 -0.12241211965E+01  0.32953868757E+02  0.50528858362E+02  0.29999995476E+02 0.  0.
        -12    1    1    2    0    0  0.23784655978E+02  0.12241211965E+01 -0.32953868757E+02  0.40659141638E+02  0.00000000000E+00 0.  1.
         11    1    3    3    0    0 -0.23190740945E+01 -0.71432409094E+01  0.20859097899E+01  0.77945503564E+01  0.51100000000E-03 0. -1.
        -11    1    3    3    0    0 -0.95377857599E+01  0.79952690948E+01  0.27472420557E+02  0.30160032769E+02  0.51100000000E-03 0.  1.
        -12    1    3    3    0    0 -0.11927796124E+02 -0.20761493819E+01  0.33955384105E+01  0.12574275236E+02  0.00000000000E+00 0.  1.
</event>
<event>
 7    1  0.1012221E-013  0.5052886E+02  0.7816164E-02  0.1300439E+00
        -11   -1    0    0    0    0  0.00000000000E+00  0.00000000000E+00  0.45593999997E+02  0.45594000000E+02  0.51100000000E-03 0. -1.
         11   -1    0    0    0    0 -0.00000000000E+00 -0.00000000000E+00 -0.45593999997E+02  0.45594000000E+02  0.51100000000E-03 0.  1.
    9900012    2    1    2    0    0  0.22866194289E+02  0.18969598706E+02  0.27757106730E+02  0.50528862154E+02  0.30000007003E+02 0.  0.
        -12    1    1    2    0    0 -0.22866194289E+02 -0.18969598706E+02 -0.27757106730E+02  0.40659137846E+02  0.00000000000E+00 0.  1.
         11    1    3    3    0    0  0.12192811988E+02  0.16338664759E+02  0.15855128678E+01  0.20448239084E+02  0.51100000000E-03 0. -1.
        -11    1    3    3    0    0  0.17463736502E+01 -0.34356920291E+01  0.49645374349E+01  0.62849369805E+01  0.51100000000E-03 0.  1.
         12    1    3    3    0    0  0.89270086508E+01  0.60666259759E+01  0.21207056427E+02  0.23795686090E+02  0.00000000000E+00 0. -1.
</event>
<event>
 7    1  0.9953837E-014  0.5052886E+02  0.7816164E-02  0.1300439E+00
        -11   -1    0    0    0    0  0.00000000000E+00  0.00000000000E+00  0.45593999997E+02  0.45594000000E+02  0.51100000000E-03 0. -1.
         11   -1    0    0    0    0 -0.00000000000E+00 -0.00000000000E+00 -0.45593999997E+02  0.45594000000E+02  0.51100000000E-03 0.  1.
    9900012    2    1    2    0    0  0.23630731126E+02  0.34593435503E+01 -0.32905731421E+02  0.50528859924E+02  0.30000000226E+02 0.  0.
         12    1    1    2    0    0 -0.23630731126E+02 -0.34593435503E+01  0.32905731421E+02  0.40659140076E+02  0.00000000000E+00 0. -1.
         11    1    3    3    0    0  0.45499222804E+01  0.87416338078E+01  0.79322086553E+00  0.98867160366E+01  0.51100000000E-03 0. -1.
        -11    1    3    3    0    0  0.11982219964E+02 -0.71163948354E+01 -0.14596607359E+02  0.20181120320E+02  0.51100000000E-03 0.  1.
         12    1    3    3    0    0  0.70985888817E+01  0.18341045779E+01 -0.19102344927E+02  0.20461023567E+02  0.00000000000E+00 0. -1.
</event>
<event>
 7    1  0.9953837E-014  0.5052894E+02  0.7816164E-02  0.1300439E+00
        -11   -1    0    0    0    0  0.00000000000E+00  0.00000000000E+00  0.45593999997E+02  0.45594000000E+02  0.51100000000E-03 0. -1.
         11   -1    0    0    0    0 -0.00000000000E+00 -0.00000000000E+00 -0.45593999997E+02  0.45594000000E+02  0.51100000000E-03 0.  1.
    9900012    2    1    2    0    0  0.19649843833E+02 -0.15646526352E+01 -0.35561141048E+02  0.50528938856E+02  0.30000240144E+02 0.  0.
         12    1    1    2    0    0 -0.19649843833E+02  0.15646526352E+01  0.35561141048E+02  0.40659061144E+02  0.00000000000E+00 0. -1.
         11    1    3    3    0    0 -0.27513777356E+01  0.10348471922E+01  0.34011920127E+01  0.44954527607E+01  0.51100000000E-03 0. -1.
        -11    1    3    3    0    0  0.14735755925E+02  0.22392364886E+01 -0.28709406857E+02  0.32347901402E+02  0.51100000000E-03 0.  1.
        -12    1    3    3    0    0  0.76654656438E+01 -0.48387363160E+01 -0.10252926203E+02  0.13685584693E+02  0.00000000000E+00 0.  1.
</event>
<event>
 7    1  0.9953837E-014  0.5052887E+02  0.7816164E-02  0.1300439E+00
        -11   -1    0    0    0    0  0.00000000000E+00  0.00000000000E+00  0.45593999997E+02  0.45594000000E+02  0.51100000000E-03 0. -1.
         11   -1    0    0    0    0 -0.00000000000E+00 -0.00000000000E+00 -0.45593999997E+02  0.45594000000E+02  0.51100000000E-03 0.  1.
    9900012    2    1    2    0    0 -0.20892173506E+02  0.25983060412E+02 -0.23271500760E+02  0.50528867080E+02  0.30000021977E+02 0.  0.
         12    1    1    2    0    0  0.20892173506E+02 -0.25983060412E+02  0.23271500760E+02  0.40659132920E+02  0.00000000000E+00 0. -1.
         11    1    3    3    0    0 -0.14778477234E+01 -0.12168726110E+01  0.48518672951E+01  0.52158824139E+01  0.51100000000E-03 0. -1.
        -11    1    3    3    0    0 -0.20099084561E+02  0.24154563129E+02 -0.28154924458E+02  0.42191419645E+02  0.51100000000E-03 0.  1.
        -12    1    3    3    0    0  0.68475877899E+00  0.30453698944E+01  0.31556402871E-01  0.31215650218E+01  0.00000000000E+00 0.  1.
</event>
<event>
 7    1  0.9953837E-014  0.5052882E+02  0.7816164E-02  0.1300439E+00
        -11   -1    0    0    0    0  0.00000000000E+00  0.00000000000E+00  0.45593999997E+02  0.45594000000E+02  0.51100000000E-03 0.  1.
         11   -1    0    0    0    0 -0.00000000000E+00 -0.00000000000E+00 -0.45593999997E+02  0.45594000000E+02  0.51100000000E-03 0. -1.
    9900012    2    1    2    0    0  0.36037696700E+02 -0.18793713269E+02 -0.11178910518E+01  0.50528819951E+02  0.29999878721E+02 0.  0.
        -12    1    1    2    0    0 -0.36037696700E+02  0.18793713269E+02  0.11178910518E+01  0.40659180049E+02  0.00000000000E+00 0.  1.
         11    1    3    3    0    0  0.24582241648E+02 -0.24626107672E+02 -0.47446993813E+01  0.35117573321E+02  0.51100000000E-03 0. -1.
        -11    1    3    3    0    0  0.45111340703E+01  0.55259709956E+01  0.44560350396E+01  0.84108819145E+01  0.51100000000E-03 0.  1.
         12    1    3    3    0    0  0.69443209819E+01  0.30642340675E+00 -0.82922671006E+00  0.70003647149E+01  0.00000000000E+00 0. -1.
</event>
<event>
 7    1  0.9953837E-014  0.5052877E+02  0.7816164E-02  0.1300439E+00
        -11   -1    0    0    0    0  0.00000000000E+00  0.00000000000E+00  0.45593999997E+02  0.45594000000E+02  0.51100000000E-03 0. -1.
         11   -1    0    0    0    0 -0.00000000000E+00 -0.00000000000E+00 -0.45593999997E+02  0.45594000000E+02  0.51100000000E-03 0.  1.
    9900012    2    1    2    0    0 -0.34177101285E+02  0.17939755364E+02  0.12777482144E+02  0.50528768271E+02  0.29999721637E+02 0.  0.
        -12    1    1    2    0    0  0.34177101285E+02 -0.17939755364E+02 -0.12777482144E+02  0.40659231729E+02  0.00000000000E+00 0.  1.
         11    1    3    3    0    0 -0.10181805844E+02  0.14410568355E+02  0.13261198340E+01  0.17694412808E+02  0.51100000000E-03 0. -1.
        -11    1    3    3    0    0 -0.24879321653E+02 -0.21203591917E+01  0.83468411047E+01  0.26327672242E+02  0.51100000000E-03 0.  1.
         12    1    3    3    0    0  0.88402621136E+00  0.56495462009E+01  0.31045212057E+01  0.65066832208E+01  0.00000000000E+00 0. -1.
</event>
<event>
 7    1  0.9953837E-014  0.5052886E+02  0.7816164E-02  0.1300439E+00
        -11   -1    0    0    0    0  0.00000000000E+00  0.00000000000E+00  0.45593999997E+02  0.45594000000E+02  0.51100000000E-03 0. -1.
         11   -1    0    0    0    0 -0.00000000000E+00 -0.00000000000E+00 -0.45593999997E+02  0.45594000000E+02  0.51100000000E-03 0.  1.
    9900012    2    1    2    0    0 -0.15899441517E+02  0.26227401984E+02 -0.26692631625E+02  0.50528862792E+02  0.30000008942E+02 0.  0.
         12    1    1    2    0    0  0.15899441517E+02 -0.26227401984E+02  0.26692631625E+02  0.40659137208E+02  0.00000000000E+00 0. -1.
         11    1    3    3    0    0 -0.82970164292E+01  0.66791461682E+01  0.54573567464E+01  0.11968049886E+02  0.51100000000E-03 0. -1.
        -11    1    3    3    0    0 -0.39304365270E+00  0.53352464134E+01 -0.77363981161E+01  0.94059126977E+01  0.51100000000E-03 0.  1.
         12    1    3    3    0    0 -0.72093814355E+01  0.14213009403E+02 -0.24413590256E+02  0.29154900208E+02  0.00000000000E+00 0. -1.
</event>
<event>
 7    1  0.9953837E-014  0.5052885E+02  0.7816164E-02  0.1300439E+00
        -11   -1    0    0    0    0  0.00000000000E+00  0.00000000000E+00  0.45593999997E+02  0.45594000000E+02  0.51100000000E-03 0.  1.
         11   -1    0    0    0    0 -0.00000000000E+00 -0.00000000000E+00 -0.45593999997E+02  0.45594000000E+02  0.51100000000E-03 0. -1.
    9900012    2    1    2    0    0  0.37826306283E+02  0.41763636718E+01  0.14314147947E+02  0.50528852297E+02  0.29999977040E+02 0.  0.
        -12    1    1    2    0    0 -0.37826306283E+02 -0.41763636718E+01 -0.14314147947E+02  0.40659147703E+02  0.00000000000E+00 0.  1.
         11    1    3    3    0    0  0.22732139442E+02  0.10855959574E+02 -0.36181279731E+01  0.25449810848E+02  0.51100000000E-03 0. -1.
        -11    1    3    3    0    0  0.72944930151E+01 -0.61694361816E+01  0.11541961950E+02  0.14982938866E+02  0.51100000000E-03 0.  1.
        -12    1    3    3    0    0  0.77996738253E+01 -0.51015972024E+00  0.63903139698E+01  0.10096102582E+02  0.00000000000E+00 0.  1.
</event>
<event>
 7    1  0.9953837E-014  0.5052887E+02  0.7816164E-02  0.1300439E+00
        -11   -1    0    0    0    0  0.00000000000E+00  0.00000000000E+00  0.45593999997E+02  0.45594000000E+02  0.51100000000E-03 0. -1.
         11   -1    0    0    0    0 -0.00000000000E+00 -0.00000000000E+00 -0.45593999997E+02  0.45594000000E+02  0.51100000000E-03 0.  1.
    9900012    2    1    2    0    0  0.12797982871E+02  0.28280108168E+02 -0.26260462790E+02  0.50528870773E+02  0.30000033200E+02 0.  0.
         12    1    1    2    0    0 -0.12797982871E+02 -0.28280108168E+02  0.26260462790E+02  0.40659129227E+02  0.00000000000E+00 0. -1.
         11    1    3    3    0    0 -0.11797900756E+01  0.79861087252E+01  0.40973132913E+01  0.90530554876E+01  0.51100000000E-03 0. -1.
        -11    1    3    3    0    0  0.13877836880E+02  0.11644767261E+02 -0.13724525825E+02  0.22727902904E+02  0.51100000000E-03 0.  1.
         12    1    3    3    0    0  0.99936067139E-01  0.86492321817E+01 -0.16633250257E+02  0.18747912381E+02  0.00000000000E+00 0. -1.
</event>
<event>
 7    1  0.9953837E-014  0.5052887E+02  0.7816164E-02  0.1300439E+00
        -11   -1    0    0    0    0  0.00000000000E+00  0.00000000000E+00  0.45593999997E+02  0.45594000000E+02  0.51100000000E-03 0. -1.
         11   -1    0    0    0    0 -0.00000000000E+00 -0.00000000000E+00 -0.45593999997E+02  0.45594000000E+02  0.51100000000E-03 0.  1.
    9900012    2    1    2    0    0 -0.37677084112E+01 -0.10524815473E+02  0.39092167134E+02  0.50528869430E+02  0.30000029120E+02 0.  0.
        -12    1    1    2    0    0  0.37677084112E+01  0.10524815473E+02 -0.39092167134E+02  0.40659130570E+02  0.00000000000E+00 0.  1.
         11    1    3    3    0    0  0.76746671804E+01 -0.67150534019E+01  0.15673533101E+02  0.18698986568E+02  0.51100000000E-03 0. -1.
        -11    1    3    3    0    0 -0.67150996048E+01 -0.26576219465E+01 -0.67173938184E+00  0.72530511629E+01  0.51100000000E-03 0.  1.
        -12    1    3    3    0    0 -0.47272759869E+01 -0.11521401249E+01  0.24090373415E+02  0.24576831700E+02  0.00000000000E+00 0.  1.
</event>
<event>
 7    1  0.9953837E-014  0.5052886E+02  0.7816164E-02  0.1300439E+00
        -11   -1    0    0    0    0  0.00000000000E+00  0.00000000000E+00  0.45593999997E+02  0.45594000000E+02  0.51100000000E-03 0. -1.
         11   -1    0    0    0    0 -0.00000000000E+00 -0.00000000000E+00 -0.45593999997E+02  0.45594000000E+02  0.51100000000E-03 0.  1.
    9900012    2    1    2    0    0 -0.10156988085E+02  0.93419200586E+01  0.38245655598E+02  0.50528855279E+02  0.29999986106E+02 0.  0.
        -12    1    1    2    0    0  0.10156988085E+02 -0.93419200586E+01 -0.38245655598E+02  0.40659144721E+02  0.00000000000E+00 0.  1.
         11    1    3    3    0    0  0.12434067095E+01 -0.45952388396E+01  0.43678728650E+01  0.64606960820E+01  0.51100000000E-03 0. -1.
        -11    1    3    3    0    0 -0.13457411031E+02  0.11038720928E+02  0.35958590401E+02  0.39949662017E+02  0.51100000000E-03 0.  1.
        -12    1    3    3    0    0  0.20570162371E+01  0.28984379704E+01 -0.20808076684E+01  0.41184971799E+01  0.00000000000E+00 0.  1.
</event>
<event>
 7    1  0.9953837E-014  0.5052883E+02  0.7816164E-02  0.1300439E+00
        -11   -1    0    0    0    0  0.00000000000E+00  0.00000000000E+00  0.45593999997E+02  0.45594000000E+02  0.51100000000E-03 0. -1.
         11   -1    0    0    0    0 -0.00000000000E+00 -0.00000000000E+00 -0.45593999997E+02  0.45594000000E+02  0.51100000000E-03 0.  1.
    9900012    2    1    2    0    0  0.23219977448E+02  0.18731927109E+01 -0.33324048543E+02  0.50528826190E+02  0.29999897688E+02 0.  0.
         12    1    1    2    0    0 -0.23219977448E+02 -0.18731927109E+01  0.33324048543E+02  0.40659173810E+02  0.00000000000E+00 0. -1.
         11    1    3    3    0    0  0.80372055043E+01  0.10216664052E+02 -0.16418908902E+01  0.13102393012E+02  0.51100000000E-03 0. -1.
        -11    1    3    3    0    0  0.13836840391E+02 -0.34807974038E+01 -0.18872648323E+02  0.23659056565E+02  0.51100000000E-03 0.  1.
         12    1    3    3    0    0  0.13459315528E+01 -0.48626739376E+01 -0.12809509330E+02  0.13767376614E+02  0.00000000000E+00 0. -1.
</event>
<event>
 7    1  0.9953837E-014  0.5052885E+02  0.7816164E-02  0.1300439E+00
        -11   -1    0    0    0    0  0.00000000000E+00  0.00000000000E+00  0.45593999997E+02  0.45594000000E+02  0.51100000000E-03 0. -1.
         11   -1    0    0    0    0 -0.00000000000E+00 -0.00000000000E+00 -0.45593999997E+02  0.45594000000E+02  0.51100000000E-03 0.  1.
    9900012    2    1    2    0    0 -0.69118652607E+01  0.76948180249E+01  0.39321529184E+02  0.50528846502E+02  0.29999959426E+02 0.  0.
        -12    1    1    2    0    0  0.69118652607E+01 -0.76948180249E+01 -0.39321529184E+02  0.40659153498E+02  0.00000000000E+00 0.  1.
         11    1    3    3    0    0 -0.28299667270E+01 -0.28680884378E+01  0.17975906184E+02  0.18421939267E+02  0.51100000000E-03 0. -1.
        -11    1    3    3    0    0  0.32252384890E+01  0.26366797884E+00 -0.31700387794E+01  0.45299923000E+01  0.51100000000E-03 0.  1.
        -12    1    3    3    0    0 -0.73071370228E+01  0.10299238484E+02  0.24515661779E+02  0.27576914934E+02  0.00000000000E+00 0.  1.
</event>
<event>
 7    1  0.9953837E-014  0.5052887E+02  0.7816164E-02  0.1300439E+00
        -11   -1    0    0    0    0  0.00000000000E+00  0.00000000000E+00  0.45593999997E+02  0.45594000000E+02  0.51100000000E-03 0. -1.
         11   -1    0    0    0    0 -0.00000000000E+00 -0.00000000000E+00 -0.45593999997E+02  0.45594000000E+02  0.51100000000E-03 0.  1.
    9900012    2    1    2    0    0  0.11211173419E+02  0.10577800594E+02  0.37624256279E+02  0.50528868979E+02  0.30000027748E+02 0.  0.
        -12    1    1    2    0    0 -0.11211173419E+02 -0.10577800594E+02 -0.37624256279E+02  0.40659131021E+02  0.00000000000E+00 0.  1.
         11    1    3    3    0    0 -0.53489987457E+00  0.13551031559E+02  0.34888951345E+01  0.14003176915E+02  0.51100000000E-03 0. -1.
        -11    1    3    3    0    0  0.57798444144E+01 -0.51047990630E+00  0.10195336951E+02  0.11730817832E+02  0.51100000000E-03 0.  1.
         12    1    3    3    0    0  0.59662288796E+01 -0.24627510586E+01  0.23940024193E+02  0.24794874232E+02  0.00000000000E+00 0. -1.
</event>
<event>
 7    1  0.9953837E-014  0.5052885E+02  0.7816164E-02  0.1300439E+00
        -11   -1    0    0    0    0  0.00000000000E+00  0.00000000000E+00  0.45593999997E+02  0.45594000000E+02  0.51100000000E-03 0. -1.
         11   -1    0    0    0    0 -0.00000000000E+00 -0.00000000000E+00 -0.45593999997E+02  0.45594000000E+02  0.51100000000E-03 0.  1.
    9900012    2    1    2    0    0 -0.63534167895E+01  0.33302460535E+02  0.22444306765E+02  0.50528847417E+02  0.29999962209E+02 0.  0.
        -12    1    1    2    0    0  0.63534167895E+01 -0.33302460535E+02 -0.22444306765E+02  0.40659152583E+02  0.00000000000E+00 0.  1.
         11    1    3    3    0    0 -0.98257427670E+01  0.32380311102E+02  0.21768495522E+02  0.40235521191E+02  0.51100000000E-03 0. -1.
        -11    1    3    3    0    0  0.66447983544E+01  0.12164592345E+01 -0.76153866156E+00  0.67980188022E+01  0.51100000000E-03 0.  1.
         12    1    3    3    0    0 -0.31724723769E+01 -0.29430980063E+00  0.14373499038E+01  0.34953074238E+01  0.00000000000E+00 0. -1.
</event>
<event>
 7    1  0.9953837E-014  0.5052890E+02  0.7816164E-02  0.1300439E+00
        -11   -1    0    0    0    0  0.00000000000E+00  0.00000000000E+00  0.45593999997E+02  0.45594000000E+02  0.51100000000E-03 0. -1.
         11   -1    0    0    0    0 -0.00000000000E+00 -0.00000000000E+00 -0.45593999997E+02  0.45594000000E+02  0.51100000000E-03 0.  1.
    9900012    2    1    2    0    0  0.20877099853E+01  0.26040982140E+02  0.31155589775E+02  0.50528904363E+02  0.30000135302E+02 0.  0.
        -12    1    1    2    0    0 -0.20877099853E+01 -0.26040982140E+02 -0.31155589775E+02  0.40659095637E+02  0.00000000000E+00 0.  1.
         11    1    3    3    0    0 -0.67166772139E+01  0.44607712474E+01  0.20175571643E+02  0.21727078135E+02  0.51100000000E-03 0. -1.
        -11    1    3    3    0    0  0.11560809266E+02  0.20723203103E+02  0.95356305434E+01  0.25574043635E+02  0.51100000000E-03 0.  1.
        -12    1    3    3    0    0 -0.27564220667E+01  0.85700778938E+00  0.14443875884E+01  0.32277825928E+01  0.00000000000E+00 0.  1.
</event>
<event>
 7    1  0.9953837E-014  0.5052887E+02  0.7816164E-02  0.1300439E+00
        -11   -1    0    0    0    0  0.00000000000E+00  0.00000000000E+00  0.45593999997E+02  0.45594000000E+02  0.51100000000E-03 0. -1.
         11   -1    0    0    0    0 -0.00000000000E+00 -0.00000000000E+00 -0.45593999997E+02  0.45594000000E+02  0.51100000000E-03 0.  1.
    9900012    2    1    2    0    0  0.26075811083E+02  0.29039644281E+02 -0.11398078586E+02  0.50528867458E+02  0.30000023126E+02 0.  0.
         12    1    1    2    0    0 -0.26075811083E+02 -0.29039644281E+02  0.11398078586E+02  0.40659132542E+02  0.00000000000E+00 0. -1.
         11    1    3    3    0    0  0.59226982432E+01  0.18878819803E+02  0.69228053619E+01  0.20962190391E+02  0.51100000000E-03 0. -1.
        -11    1    3    3    0    0  0.11925342084E+02  0.86879983652E+01 -0.10402153976E+02  0.18052698053E+02  0.51100000000E-03 0.  1.
         12    1    3    3    0    0  0.82277707564E+01  0.14728261125E+01 -0.79187299721E+01  0.11513979015E+02  0.00000000000E+00 0. -1.
</event>
<event>
 7    1  0.9953837E-014  0.5052886E+02  0.7816164E-02  0.1300439E+00
        -11   -1    0    0    0    0  0.00000000000E+00  0.00000000000E+00  0.45593999997E+02  0.45594000000E+02  0.51100000000E-03 0. -1.
         11   -1    0    0    0    0 -0.00000000000E+00 -0.00000000000E+00 -0.45593999997E+02  0.45594000000E+02  0.51100000000E-03 0.  1.
    9900012    2    1    2    0    0  0.23019957543E+02 -0.64035056169E+01  0.32897450541E+02  0.50528861033E+02  0.30000003595E+02 0.  0.
        -12    1    1    2    0    0 -0.23019957543E+02  0.64035056169E+01 -0.32897450541E+02  0.40659138967E+02  0.00000000000E+00 0.  1.
         11    1    3    3    0    0  0.17016546594E+02  0.44801873794E+01  0.10082324514E+02  0.20280241734E+02  0.51100000000E-03 0.  1.
        -11    1    3    3    0    0  0.16443798858E+01 -0.11306465751E+02  0.60649297537E+01  0.12935359530E+02  0.51100000000E-03 0. -1.
         12    1    3    3    0    0  0.43590310631E+01  0.42277275512E+00  0.16750196273E+02  0.17313259768E+02  0.00000000000E+00 0. -1.
</event>
<event>
 7    1  0.9953837E-014  0.5052887E+02  0.7816164E-02  0.1300439E+00
        -11   -1    0    0    0    0  0.00000000000E+00  0.00000000000E+00  0.45593999997E+02  0.45594000000E+02  0.51100000000E-03 0. -1.
         11   -1    0    0    0    0 -0.00000000000E+00 -0.00000000000E+00 -0.45593999997E+02  0.45594000000E+02  0.51100000000E-03 0.  1.
    9900012    2    1    2    0    0 -0.15635420944E+02 -0.18922649285E+02  0.32413444973E+02  0.50528874837E+02  0.30000045553E+02 0.  0.
        -12    1    1    2    0    0  0.15635420944E+02  0.18922649285E+02 -0.32413444973E+02  0.40659125163E+02  0.00000000000E+00 0.  1.
         11    1    3    3    0    0 -0.18935495314E+02 -0.55126615289E+01  0.88031821390E+01  0.21597185834E+02  0.51100000000E-03 0. -1.
        -11    1    3    3    0    0 -0.30145149818E+00 -0.16627630643E+00  0.85455150494E+01  0.85524469327E+01  0.51100000000E-03 0.  1.
         12    1    3    3    0    0  0.36015258686E+01 -0.13243711449E+02  0.15064747785E+02  0.20379242070E+02  0.00000000000E+00 0. -1.
</event>
<event>
 7    1  0.9953837E-014  0.5052886E+02  0.7816164E-02  0.1300439E+00
        -11   -1    0    0    0    0  0.00000000000E+00  0.00000000000E+00  0.45593999997E+02  0.45594000000E+02  0.51100000000E-03 0. -1.
         11   -1    0    0    0    0 -0.00000000000E+00 -0.00000000000E+00 -0.45593999997E+02  0.45594000000E+02  0.51100000000E-03 0.  1.
    9900012    2    1    2    0    0 -0.15630827988E+02 -0.93148385089E+01 -0.36360370068E+02  0.50528861894E+02  0.30000006213E+02 0.  0.
         12    1    1    2    0    0  0.15630827988E+02  0.93148385089E+01  0.36360370068E+02  0.40659138106E+02  0.00000000000E+00 0. -1.
         11    1    3    3    0    0  0.56169405437E+01  0.14667237429E+01 -0.40991160624E+01  0.71066203193E+01  0.51100000000E-03 0. -1.
        -11    1    3    3    0    0 -0.16924864184E+02  0.43088416095E+00 -0.20760691570E+02  0.26788859691E+02  0.51100000000E-03 0.  1.
        -12    1    3    3    0    0 -0.43229043479E+01 -0.11212446413E+02 -0.11500562435E+02  0.16633381884E+02  0.00000000000E+00 0.  1.
</event>
<event>
 7    1  0.9953837E-014  0.5052884E+02  0.7816164E-02  0.1300439E+00
        -11   -1    0    0    0    0  0.00000000000E+00  0.00000000000E+00  0.45593999997E+02  0.45594000000E+02  0.51100000000E-03 0. -1.
         11   -1    0    0    0    0 -0.00000000000E+00 -0.00000000000E+00 -0.45593999997E+02  0.45594000000E+02  0.51100000000E-03 0.  1.
    9900012    2    1    2    0    0 -0.58886688015E+01 -0.19888586366E+02  0.34970487143E+02  0.50528840406E+02  0.29999940899E+02 0.  0.
        -12    1    1    2    0    0  0.58886688015E+01  0.19888586366E+02 -0.34970487143E+02  0.40659159594E+02  0.00000000000E+00 0.  1.
         11    1    3    3    0    0 -0.52119450521E+01 -0.26020451576E+02  0.20192507473E+02  0.33346148649E+02  0.51100000000E-03 0. -1.
        -11    1    3    3    0    0 -0.31105134080E+01  0.51046004877E+01  0.87024937228E+01  0.10557728783E+02  0.51100000000E-03 0.  1.
         12    1    3    3    0    0  0.24337896586E+01  0.10272647227E+01  0.60754859469E+01  0.66249629738E+01  0.00000000000E+00 0. -1.
</event>
<event>
 7    1  0.9953837E-014  0.5052886E+02  0.7816164E-02  0.1300439E+00
        -11   -1    0    0    0    0  0.00000000000E+00  0.00000000000E+00  0.45593999997E+02  0.45594000000E+02  0.51100000000E-03 0. -1.
         11   -1    0    0    0    0 -0.00000000000E+00 -0.00000000000E+00 -0.45593999997E+02  0.45594000000E+02  0.51100000000E-03 0.  1.
    9900012    2    1    2    0    0 -0.56859654992E+01  0.46562831694E+01  0.39989432206E+02  0.50528857550E+02  0.29999993008E+02 0.  0.
        -12    1    1    2    0    0  0.56859654992E+01 -0.46562831694E+01 -0.39989432206E+02  0.40659142450E+02  0.00000000000E+00 0.  1.
         11    1    3    3    0    0 -0.99153669473E+00  0.81447934537E+01  0.21592661287E+02  0.23099000565E+02  0.51100000000E-03 0. -1.
        -11    1    3    3    0    0 -0.10500392755E+02 -0.22020786341E+00  0.34325198747E+01  0.11049386067E+02  0.51100000000E-03 0.  1.
        -12    1    3    3    0    0  0.58059639507E+01 -0.32683024208E+01  0.14964251045E+02  0.16380470917E+02  0.00000000000E+00 0.  1.
</event>
<event>
 7    1  0.9953837E-014  0.5052886E+02  0.7816164E-02  0.1300439E+00
        -11   -1    0    0    0    0  0.00000000000E+00  0.00000000000E+00  0.45593999997E+02  0.45594000000E+02  0.51100000000E-03 0. -1.
         11   -1    0    0    0    0 -0.00000000000E+00 -0.00000000000E+00 -0.45593999997E+02  0.45594000000E+02  0.51100000000E-03 0.  1.
    9900012    2    1    2    0    0  0.89979730344E+01 -0.16631639389E+02  0.35994315010E+02  0.50528860062E+02  0.30000000643E+02 0.  0.
        -12    1    1    2    0    0 -0.89979730344E+01  0.16631639389E+02 -0.35994315010E+02  0.40659139938E+02  0.00000000000E+00 0.  1.
         11    1    3    3    0    0 -0.98796471345E+01 -0.76279712746E+01  0.10486927031E+02  0.16302423504E+02  0.51100000000E-03 0. -1.
        -11    1    3    3    0    0  0.14006701432E+02 -0.96603137980E+01  0.23267593532E+02  0.28825167072E+02  0.51100000000E-03 0.  1.
        -12    1    3    3    0    0  0.48709187373E+01  0.65664568395E+00  0.22397944464E+01  0.54012694861E+01  0.00000000000E+00 0.  1.
</event>
<event>
 7    1  0.9953837E-014  0.5052886E+02  0.7816164E-02  0.1300439E+00
        -11   -1    0    0    0    0  0.00000000000E+00  0.00000000000E+00  0.45593999997E+02  0.45594000000E+02  0.51100000000E-03 0. -1.
         11   -1    0    0    0    0 -0.00000000000E+00 -0.00000000000E+00 -0.45593999997E+02  0.45594000000E+02  0.51100000000E-03 0.  1.
    9900012    2    1    2    0    0 -0.81308144009E+01 -0.10678089405E+02  0.38380123794E+02  0.50528860331E+02  0.30000001463E+02 0.  0.
        -12    1    1    2    0    0  0.81308144009E+01  0.10678089405E+02 -0.38380123794E+02  0.40659139669E+02  0.00000000000E+00 0.  1.
         11    1    3    3    0    0 -0.60153651788E+01  0.20731378953E+01  0.35094652531E+02  0.35666751401E+02  0.51100000000E-03 0. -1.
        -11    1    3    3    0    0  0.22057475176E+01 -0.50884962017E+01  0.23215184062E+01  0.60122843976E+01  0.51100000000E-03 0.  1.
         12    1    3    3    0    0 -0.43211967397E+01 -0.76627310983E+01  0.96395285659E+00  0.88498245326E+01  0.00000000000E+00 0. -1.
</event>
<event>
 7    1  0.9953837E-014  0.5052884E+02  0.7816164E-02  0.1300439E+00
        -11   -1    0    0    0    0  0.00000000000E+00  0.00000000000E+00  0.45593999997E+02  0.45594000000E+02  0.51100000000E-03 0. -1.
         11   -1    0    0    0    0 -0.00000000000E+00 -0.00000000000E+00 -0.45593999997E+02  0.45594000000E+02  0.51100000000E-03 0.  1.
    9900012    2    1    2    0    0  0.11400834650E+02  0.20873173229E+02 -0.32977246032E+02  0.50528841779E+02  0.29999945071E+02 0.  0.
         12    1    1    2    0    0 -0.11400834650E+02 -0.20873173229E+02  0.32977246032E+02  0.40659158221E+02  0.00000000000E+00 0. -1.
         11    1    3    3    0    0  0.44122961624E+01 -0.25704687633E+01 -0.71981482520E+01  0.88254748091E+01  0.51100000000E-03 0. -1.
        -11    1    3    3    0    0 -0.68236025180E+01  0.69712405247E+01 -0.14365093702E+02  0.17364206377E+02  0.51100000000E-03 0.  1.
        -12    1    3    3    0    0  0.13812141006E+02  0.16472401467E+02 -0.11414004079E+02  0.24339160593E+02  0.00000000000E+00 0.  1.
</event>
<event>
 7    1  0.9953837E-014  0.5052886E+02  0.7816164E-02  0.1300439E+00
        -11   -1    0    0    0    0  0.00000000000E+00  0.00000000000E+00  0.45593999997E+02  0.45594000000E+02  0.51100000000E-03 0. -1.
         11   -1    0    0    0    0 -0.00000000000E+00 -0.00000000000E+00 -0.45593999997E+02  0.45594000000E+02  0.51100000000E-03 0.  1.
    9900012    2    1    2    0    0 -0.47717694205E+01  0.28651789796E+01  0.40276382320E+02  0.50528855804E+02  0.29999987702E+02 0.  0.
        -12    1    1    2    0    0  0.47717694205E+01 -0.28651789796E+01 -0.40276382320E+02  0.40659144196E+02  0.00000000000E+00 0.  1.
         11    1    3    3    0    0  0.27532411210E+01  0.11474340200E+01  0.14738442372E+02  0.15037241280E+02  0.51100000000E-03 0. -1.
        -11    1    3    3    0    0 -0.15856920535E+02 -0.55561802695E+00  0.14663392200E+02  0.21604761311E+02  0.51100000000E-03 0.  1.
        -12    1    3    3    0    0  0.83319099940E+01  0.22733629866E+01  0.10874547748E+02  0.13886853212E+02  0.00000000000E+00 0.  1.
</event>
<event>
 7    1  0.9953837E-014  0.5052885E+02  0.7816164E-02  0.1300439E+00
        -11   -1    0    0    0    0  0.00000000000E+00  0.00000000000E+00  0.45593999997E+02  0.45594000000E+02  0.51100000000E-03 0. -1.
         11   -1    0    0    0    0 -0.00000000000E+00 -0.00000000000E+00 -0.45593999997E+02  0.45594000000E+02  0.51100000000E-03 0.  1.
    9900012    2    1    2    0    0 -0.26736619562E+02  0.14135617562E+02  0.27175425464E+02  0.50528852707E+02  0.29999978287E+02 0.  0.
        -12    1    1    2    0    0  0.26736619562E+02 -0.14135617562E+02 -0.27175425464E+02  0.40659147293E+02  0.00000000000E+00 0.  1.
         11    1    3    3    0    0 -0.14524711925E+02  0.16096835851E+01  0.22886464256E+02  0.27154163293E+02  0.51100000000E-03 0. -1.
        -11    1    3    3    0    0  0.33701831705E+01  0.15878603616E+01  0.19163152958E+01  0.41894748722E+01  0.51100000000E-03 0.  1.
         12    1    3    3    0    0 -0.15582090808E+02  0.10938073615E+02  0.23726459117E+01  0.19185214541E+02  0.00000000000E+00 0. -1.
</event>
<event>
 7    1  0.9953837E-014  0.5052885E+02  0.7816164E-02  0.1300439E+00
        -11   -1    0    0    0    0  0.00000000000E+00  0.00000000000E+00  0.45593999997E+02  0.45594000000E+02  0.51100000000E-03 0. -1.
         11   -1    0    0    0    0 -0.00000000000E+00 -0.00000000000E+00 -0.45593999997E+02  0.45594000000E+02  0.51100000000E-03 0.  1.
    9900012    2    1    2    0    0  0.34365572458E+02 -0.31083901030E+01 -0.21506083080E+02  0.50528852581E+02  0.29999977905E+02 0.  0.
         12    1    1    2    0    0 -0.34365572458E+02  0.31083901030E+01  0.21506083080E+02  0.40659147419E+02  0.00000000000E+00 0. -1.
         11    1    3    3    0    0  0.10577629364E+02  0.83299241585E+01  0.42667129877E+00  0.13470557825E+02  0.51100000000E-03 0.  1.
        -11    1    3    3    0    0  0.95068567749E+01 -0.11908451243E+02 -0.14114357211E+02  0.20770330196E+02  0.51100000000E-03 0. -1.
         12    1    3    3    0    0  0.14281086318E+02  0.47013698122E+00 -0.78183971686E+01  0.16287964560E+02  0.00000000000E+00 0. -1.
</event>
<event>
 7    1  0.9953837E-014  0.5052885E+02  0.7816164E-02  0.1300439E+00
        -11   -1    0    0    0    0  0.00000000000E+00  0.00000000000E+00  0.45593999997E+02  0.45594000000E+02  0.51100000000E-03 0. -1.
         11   -1    0    0    0    0 -0.00000000000E+00 -0.00000000000E+00 -0.45593999997E+02  0.45594000000E+02  0.51100000000E-03 0.  1.
    9900012    2    1    2    0    0  0.26386047823E+01  0.22548857005E+02  0.33730596808E+02  0.50528851602E+02  0.29999974928E+02 0.  0.
        -12    1    1    2    0    0 -0.26386047823E+01 -0.22548857005E+02 -0.33730596808E+02  0.40659148398E+02  0.00000000000E+00 0.  1.
         11    1    3    3    0    0  0.38552857229E+01  0.91207070954E+01  0.23451421677E+02  0.25456231160E+02  0.51100000000E-03 0. -1.
        -11    1    3    3    0    0 -0.46260554478E+01  0.15242194853E+02  0.21505999514E+01  0.16073268907E+02  0.51100000000E-03 0.  1.
        -12    1    3    3    0    0  0.34093745072E+01 -0.18140449436E+01  0.81285751798E+01  0.89993515345E+01  0.00000000000E+00 0.  1.
</event>
<event>
 7    1  0.9953837E-014  0.5052882E+02  0.7816164E-02  0.1300439E+00
        -11   -1    0    0    0    0  0.00000000000E+00  0.00000000000E+00  0.45593999997E+02  0.45594000000E+02  0.51100000000E-03 0.  1.
         11   -1    0    0    0    0 -0.00000000000E+00 -0.00000000000E+00 -0.45593999997E+02  0.45594000000E+02  0.51100000000E-03 0. -1.
    9900012    2    1    2    0    0 -0.30373413169E+02 -0.10517518730E+02 -0.24899924302E+02  0.50528823201E+02  0.29999888600E+02 0.  0.
         12    1    1    2    0    0  0.30373413169E+02  0.10517518730E+02  0.24899924302E+02  0.40659176799E+02  0.00000000000E+00 0. -1.
         11    1    3    3    0    0 -0.21149591877E+02  0.37409584290E+01 -0.11081272254E+02  0.24168049188E+02  0.51100000000E-03 0. -1.
        -11    1    3    3    0    0 -0.10448767402E+02 -0.12049369992E+02 -0.16310740996E+02  0.22812372291E+02  0.51100000000E-03 0.  1.
         12    1    3    3    0    0  0.12249461104E+01 -0.22091071667E+01  0.24920889488E+01  0.35484017213E+01  0.00000000000E+00 0. -1.
</event>
<event>
 7    1  0.9953837E-014  0.5052886E+02  0.7816164E-02  0.1300439E+00
        -11   -1    0    0    0    0  0.00000000000E+00  0.00000000000E+00  0.45593999997E+02  0.45594000000E+02  0.51100000000E-03 0. -1.
         11   -1    0    0    0    0 -0.00000000000E+00 -0.00000000000E+00 -0.45593999997E+02  0.45594000000E+02  0.51100000000E-03 0.  1.
    9900012    2    1    2    0    0  0.22393155391E+02  0.26903751040E+02  0.20685755102E+02  0.50528859668E+02  0.29999999446E+02 0.  0.
        -12    1    1    2    0    0 -0.22393155391E+02 -0.26903751040E+02 -0.20685755102E+02  0.40659140332E+02  0.00000000000E+00 0.  1.
         11    1    3    3    0    0  0.20633501868E+01  0.10090465717E+02  0.35216763307E+00  0.10305286734E+02  0.51100000000E-03 0. -1.
        -11    1    3    3    0    0  0.21145363829E+02  0.38161052511E+01  0.10562677019E+02  0.23942832264E+02  0.51100000000E-03 0.  1.
        -12    1    3    3    0    0 -0.81555862482E+00  0.12997180072E+02  0.97709104504E+01  0.16280740669E+02  0.00000000000E+00 0.  1.
</event>
<event>
 7    1  0.9953837E-014  0.5052886E+02  0.7816164E-02  0.1300439E+00
        -11   -1    0    0    0    0  0.00000000000E+00  0.00000000000E+00  0.45593999997E+02  0.45594000000E+02  0.51100000000E-03 0. -1.
         11   -1    0    0    0    0 -0.00000000000E+00 -0.00000000000E+00 -0.45593999997E+02  0.45594000000E+02  0.51100000000E-03 0.  1.
    9900012    2    1    2    0    0  0.21631624100E+02 -0.10166460378E+02  0.32891971887E+02  0.50528857209E+02  0.29999991973E+02 0.  0.
        -12    1    1    2    0    0 -0.21631624100E+02  0.10166460378E+02 -0.32891971887E+02  0.40659142791E+02  0.00000000000E+00 0.  1.
         11    1    3    3    0    0  0.56278463994E+01 -0.56973669883E+01  0.19217770705E+02  0.20819590698E+02  0.51100000000E-03 0. -1.
        -11    1    3    3    0    0  0.17115913390E+02 -0.10393124287E+02  0.84549646153E+01  0.21736097868E+02  0.51100000000E-03 0.  1.
         12    1    3    3    0    0 -0.11121356896E+01  0.59240308973E+01  0.52192365668E+01  0.79731686427E+01  0.00000000000E+00 0. -1.
</event>
<event>
 7    1  0.9953837E-014  0.5052885E+02  0.7816164E-02  0.1300439E+00
        -11   -1    0    0    0    0  0.00000000000E+00  0.00000000000E+00  0.45593999997E+02  0.45594000000E+02  0.51100000000E-03 0. -1.
         11   -1    0    0    0    0 -0.00000000000E+00 -0.00000000000E+00 -0.45593999997E+02  0.45594000000E+02  0.51100000000E-03 0.  1.
    9900012    2    1    2    0    0  0.41653407961E+01  0.32914703944E+02  0.23504008493E+02  0.50528853244E+02  0.29999979920E+02 0.  0.
        -12    1    1    2    0    0 -0.41653407961E+01 -0.32914703944E+02 -0.23504008493E+02  0.40659146756E+02  0.00000000000E+00 0.  1.
         11    1    3    3    0    0 -0.44805238239E+01  0.13834701844E+02  0.83361424386E+01  0.16762020757E+02  0.51100000000E-03 0. -1.
        -11    1    3    3    0    0  0.56000509397E+01  0.18391550984E+01 -0.45144598121E+01  0.74245141026E+01  0.51100000000E-03 0.  1.
        -12    1    3    3    0    0  0.30458136804E+01  0.17240847002E+02  0.19682325867E+02  0.26342318384E+02  0.00000000000E+00 0.  1.
</event>
<event>
 7    1  0.9953837E-014  0.5052886E+02  0.7816164E-02  0.1300439E+00
        -11   -1    0    0    0    0  0.00000000000E+00  0.00000000000E+00  0.45593999997E+02  0.45594000000E+02  0.51100000000E-03 0. -1.
         11   -1    0    0    0    0 -0.00000000000E+00 -0.00000000000E+00 -0.45593999997E+02  0.45594000000E+02  0.51100000000E-03 0.  1.
    9900012    2    1    2    0    0 -0.80880829094E+01 -0.27053975288E+02  0.29254586459E+02  0.50528862123E+02  0.30000006909E+02 0.  0.
        -12    1    1    2    0    0  0.80880829094E+01  0.27053975288E+02 -0.29254586459E+02  0.40659137877E+02  0.00000000000E+00 0.  1.
         11    1    3    3    0    0 -0.29031451773E+01 -0.75034410714E+01  0.11473048581E+02  0.14012877072E+02  0.51100000000E-03 0. -1.
        -11    1    3    3    0    0 -0.37679963539E+01  0.25891037768E+01 -0.35124509875E+01  0.57652898531E+01  0.51100000000E-03 0.  1.
        -12    1    3    3    0    0 -0.14169413782E+01 -0.22139637993E+02  0.21293988865E+02  0.30750695198E+02  0.00000000000E+00 0.  1.
</event>
<event>
 7    1  0.9953837E-014  0.5052886E+02  0.7816164E-02  0.1300439E+00
        -11   -1    0    0    0    0  0.00000000000E+00  0.00000000000E+00  0.45593999997E+02  0.45594000000E+02  0.51100000000E-03 0. -1.
         11   -1    0    0    0    0 -0.00000000000E+00 -0.00000000000E+00 -0.45593999997E+02  0.45594000000E+02  0.51100000000E-03 0.  1.
    9900012    2    1    2    0    0  0.13723208283E+02  0.29780146860E+02 -0.24041258057E+02  0.50528859803E+02  0.29999999858E+02 0.  0.
         12    1    1    2    0    0 -0.13723208283E+02 -0.29780146860E+02  0.24041258057E+02  0.40659140197E+02  0.00000000000E+00 0. -1.
         11    1    3    3    0    0 -0.22050711243E-01 -0.47205873928E+01 -0.57784056868E+00  0.47558733741E+01  0.51100000000E-03 0. -1.
        -11    1    3    3    0    0  0.47717418059E+01  0.20815095628E+02 -0.67861101039E+01  0.22407342914E+02  0.51100000000E-03 0.  1.
        -12    1    3    3    0    0  0.89735171886E+01  0.13685638625E+02 -0.16677307385E+02  0.23365643516E+02  0.00000000000E+00 0.  1.
</event>
<event>
 7    1  0.9953837E-014  0.5052886E+02  0.7816164E-02  0.1300439E+00
        -11   -1    0    0    0    0  0.00000000000E+00  0.00000000000E+00  0.45593999997E+02  0.45594000000E+02  0.51100000000E-03 0. -1.
         11   -1    0    0    0    0 -0.00000000000E+00 -0.00000000000E+00 -0.45593999997E+02  0.45594000000E+02  0.51100000000E-03 0.  1.
    9900012    2    1    2    0    0  0.10687461576E+02 -0.23191060299E+02  0.31640459713E+02  0.50528858303E+02  0.29999995297E+02 0.  0.
        -12    1    1    2    0    0 -0.10687461576E+02  0.23191060299E+02 -0.31640459713E+02  0.40659141697E+02  0.00000000000E+00 0.  1.
         11    1    3    3    0    0  0.81286178884E+00 -0.69587729699E+01  0.17134397499E+02  0.18511424674E+02  0.51100000000E-03 0. -1.
        -11    1    3    3    0    0  0.53421326922E+01  0.32778223126E+01 -0.14216858454E+01  0.64267948246E+01  0.51100000000E-03 0.  1.
        -12    1    3    3    0    0  0.45324670955E+01 -0.19510109641E+02  0.15927748059E+02  0.25590638805E+02  0.00000000000E+00 0.  1.
</event>
<event>
 7    1  0.9953837E-014  0.5052887E+02  0.7816164E-02  0.1300439E+00
        -11   -1    0    0    0    0  0.00000000000E+00  0.00000000000E+00  0.45593999997E+02  0.45594000000E+02  0.51100000000E-03 0. -1.
         11   -1    0    0    0    0 -0.00000000000E+00 -0.00000000000E+00 -0.45593999997E+02  0.45594000000E+02  0.51100000000E-03 0.  1.
    9900012    2    1    2    0    0  0.27015495012E+02  0.65981138068E+01 -0.29661303168E+02  0.50528868404E+02  0.30000026000E+02 0.  0.
         12    1    1    2    0    0 -0.27015495012E+02 -0.65981138068E+01  0.29661303168E+02  0.40659131596E+02  0.00000000000E+00 0. -1.
         11    1    3    3    0    0  0.76093303730E+01 -0.82474839961E+00  0.37754436216E+01  0.85344064498E+01  0.51100000000E-03 0. -1.
        -11    1    3    3    0    0  0.20044346251E+02  0.39408168939E+01 -0.32406067930E+02  0.38307428697E+02  0.51100000000E-03 0.  1.
         12    1    3    3    0    0 -0.63818161195E+00  0.34820453125E+01 -0.10306788591E+01  0.36870332571E+01  0.00000000000E+00 0. -1.
</event>
<event>
 7    1  0.9953837E-014  0.5052886E+02  0.7816164E-02  0.1300439E+00
        -11   -1    0    0    0    0  0.00000000000E+00  0.00000000000E+00  0.45593999997E+02  0.45594000000E+02  0.51100000000E-03 0. -1.
         11   -1    0    0    0    0 -0.00000000000E+00 -0.00000000000E+00 -0.45593999997E+02  0.45594000000E+02  0.51100000000E-03 0.  1.
    9900012    2    1    2    0    0 -0.15440820235E+02 -0.11384405003E+01  0.37595881205E+02  0.50528864989E+02  0.30000015619E+02 0.  0.
        -12    1    1    2    0    0  0.15440820235E+02  0.11384405003E+01 -0.37595881205E+02  0.40659135011E+02  0.00000000000E+00 0.  1.
         11    1    3    3    0    0 -0.12973378003E+02 -0.34462914385E+01  0.74477085683E+01  0.15351020313E+02  0.51100000000E-03 0. -1.
        -11    1    3    3    0    0 -0.81487783583E+01  0.25962328078E+01  0.27690237162E+02  0.28980894532E+02  0.51100000000E-03 0.  1.
        -12    1    3    3    0    0  0.56813361258E+01 -0.28838186953E+00  0.24579354741E+01  0.61969501428E+01  0.00000000000E+00 0.  1.
</event>
<event>
 7    1  0.9953837E-014  0.5052886E+02  0.7816164E-02  0.1300439E+00
        -11   -1    0    0    0    0  0.00000000000E+00  0.00000000000E+00  0.45593999997E+02  0.45594000000E+02  0.51100000000E-03 0. -1.
         11   -1    0    0    0    0 -0.00000000000E+00 -0.00000000000E+00 -0.45593999997E+02  0.45594000000E+02  0.51100000000E-03 0.  1.
    9900012    2    1    2    0    0  0.33032959513E+02 -0.10045167356E+02  0.21472864486E+02  0.50528859446E+02  0.29999998772E+02 0.  0.
        -12    1    1    2    0    0 -0.33032959513E+02  0.10045167356E+02 -0.21472864486E+02  0.40659140554E+02  0.00000000000E+00 0.  1.
         11    1    3    3    0    0  0.31800183032E+01  0.41493442931E+01  0.11043622794E+02  0.12218476957E+02  0.51100000000E-03 0.  1.
        -11    1    3    3    0    0  0.18511763991E+02 -0.15922408628E+02  0.29017630947E+01  0.24589199497E+02  0.51100000000E-03 0. -1.
         12    1    3    3    0    0  0.11341177218E+02  0.17278969791E+01  0.75274785975E+01  0.13721182992E+02  0.00000000000E+00 0. -1.
</event>
<event>
 7    1  0.9953837E-014  0.5052886E+02  0.7816164E-02  0.1300439E+00
        -11   -1    0    0    0    0  0.00000000000E+00  0.00000000000E+00  0.45593999997E+02  0.45594000000E+02  0.51100000000E-03 0. -1.
         11   -1    0    0    0    0 -0.00000000000E+00 -0.00000000000E+00 -0.45593999997E+02  0.45594000000E+02  0.51100000000E-03 0.  1.
    9900012    2    1    2    0    0  0.26909291328E+02  0.25338383460E+02 -0.16941735623E+02  0.50528855370E+02  0.29999986382E+02 0.  0.
         12    1    1    2    0    0 -0.26909291328E+02 -0.25338383460E+02  0.16941735623E+02  0.40659144630E+02  0.00000000000E+00 0. -1.
         11    1    3    3    0    0  0.86754867824E+01  0.10202868413E+01 -0.15325691669E+01  0.88686991528E+01  0.51100000000E-03 0. -1.
        -11    1    3    3    0    0  0.13956056237E+02  0.21434789905E+02 -0.17725333637E+00  0.25578372563E+02  0.51100000000E-03 0.  1.
        -12    1    3    3    0    0  0.42777483083E+01  0.28833067133E+01 -0.15231913120E+02  0.16081783653E+02  0.00000000000E+00 0.  1.
</event>
<event>
 7    1  0.9953837E-014  0.5052885E+02  0.7816164E-02  0.1300439E+00
        -11   -1    0    0    0    0  0.00000000000E+00  0.00000000000E+00  0.45593999997E+02  0.45594000000E+02  0.51100000000E-03 0. -1.
         11   -1    0    0    0    0 -0.00000000000E+00 -0.00000000000E+00 -0.45593999997E+02  0.45594000000E+02  0.51100000000E-03 0.  1.
    9900012    2    1    2    0    0 -0.17826223327E+02 -0.23054771265E+02  0.28352599800E+02  0.50528848120E+02  0.29999964346E+02 0.  0.
        -12    1    1    2    0    0  0.17826223327E+02  0.23054771265E+02 -0.28352599800E+02  0.40659151880E+02  0.00000000000E+00 0.  1.
         11    1    3    3    0    0 -0.13707687936E+02 -0.16795763138E+02  0.97277895568E+01  0.23761907707E+02  0.51100000000E-03 0. -1.
        -11    1    3    3    0    0  0.48878415397E+01 -0.85740991260E+01  0.10608055532E+02  0.14489203331E+02  0.51100000000E-03 0.  1.
        -12    1    3    3    0    0 -0.90063769311E+01  0.23150909997E+01  0.80167547105E+01  0.12277737082E+02  0.00000000000E+00 0.  1.
</event>
<event>
 7    1  0.9953837E-014  0.5052886E+02  0.7816164E-02  0.1300439E+00
        -11   -1    0    0    0    0  0.00000000000E+00  0.00000000000E+00  0.45593999997E+02  0.45594000000E+02  0.51100000000E-03 0.  1.
         11   -1    0    0    0    0 -0.00000000000E+00 -0.00000000000E+00 -0.45593999997E+02  0.45594000000E+02  0.51100000000E-03 0. -1.
    9900012    2    1    2    0    0  0.24009409956E+02 -0.33703233454E+01 -0.32639776776E+02  0.50528857438E+02  0.29999992669E+02 0.  0.
         12    1    1    2    0    0 -0.24009409956E+02  0.33703233454E+01  0.32639776776E+02  0.40659142562E+02  0.00000000000E+00 0. -1.
         11    1    3    3    0    0  0.23221924870E+02  0.67665304156E+01 -0.22351578999E+02  0.32933824749E+02  0.51100000000E-03 0. -1.
        -11    1    3    3    0    0  0.53383076126E+01 -0.66275086846E+01 -0.57197695802E+01  0.10253641492E+02  0.51100000000E-03 0.  1.
         12    1    3    3    0    0 -0.45508225268E+01 -0.35093450764E+01 -0.45684281963E+01  0.73413911979E+01  0.00000000000E+00 0. -1.
</event>
<event>
 7    1  0.9953837E-014  0.5052885E+02  0.7816164E-02  0.1300439E+00
        -11   -1    0    0    0    0  0.00000000000E+00  0.00000000000E+00  0.45593999997E+02  0.45594000000E+02  0.51100000000E-03 0.  1.
         11   -1    0    0    0    0 -0.00000000000E+00 -0.00000000000E+00 -0.45593999997E+02  0.45594000000E+02  0.51100000000E-03 0. -1.
    9900012    2    1    2    0    0 -0.18062395541E+02  0.14450827702E+02  0.33437848683E+02  0.50528852462E+02  0.29999977544E+02 0.  0.
        -12    1    1    2    0    0  0.18062395541E+02 -0.14450827702E+02 -0.33437848683E+02  0.40659147538E+02  0.00000000000E+00 0.  1.
         11    1    3    3    0    0 -0.17740283038E+02  0.13714827713E+02  0.36097401928E+02  0.42495135812E+02  0.51100000000E-03 0. -1.
        -11    1    3    3    0    0  0.79103521947E+00  0.37471054445E+01 -0.29156156803E+01  0.48132474471E+01  0.51100000000E-03 0.  1.
        -12    1    3    3    0    0 -0.11131477223E+01 -0.30111054558E+01  0.25606243529E+00  0.32204692031E+01  0.00000000000E+00 0.  1.
</event>
<event>
 7    1  0.9953837E-014  0.5052885E+02  0.7816164E-02  0.1300439E+00
        -11   -1    0    0    0    0  0.00000000000E+00  0.00000000000E+00  0.45593999997E+02  0.45594000000E+02  0.51100000000E-03 0. -1.
         11   -1    0    0    0    0 -0.00000000000E+00 -0.00000000000E+00 -0.45593999997E+02  0.45594000000E+02  0.51100000000E-03 0.  1.
    9900012    2    1    2    0    0 -0.63533376405E+01  0.23369057457E+02  0.32660202540E+02  0.50528848810E+02  0.29999966442E+02 0.  0.
        -12    1    1    2    0    0  0.63533376405E+01 -0.23369057457E+02 -0.32660202540E+02  0.40659151190E+02  0.00000000000E+00 0.  1.
         11    1    3    3    0    0 -0.42923823103E+01 -0.20518168841E+01  0.10549348742E+02  0.11572521659E+02  0.51100000000E-03 0. -1.
        -11    1    3    3    0    0  0.83447402609E+01  0.13455582774E+02  0.80451010592E+01  0.17759815571E+02  0.51100000000E-03 0.  1.
        -12    1    3    3    0    0 -0.10405695591E+02  0.11965291566E+02  0.14065752739E+02  0.21196511579E+02  0.00000000000E+00 0.  1.
</event>
<event>
 7    1  0.9953837E-014  0.5052886E+02  0.7816164E-02  0.1300439E+00
        -11   -1    0    0    0    0  0.00000000000E+00  0.00000000000E+00  0.45593999997E+02  0.45594000000E+02  0.51100000000E-03 0. -1.
         11   -1    0    0    0    0 -0.00000000000E+00 -0.00000000000E+00 -0.45593999997E+02  0.45594000000E+02  0.51100000000E-03 0.  1.
    9900012    2    1    2    0    0 -0.31531780286E+02  0.16804251038E+02 -0.19404381587E+02  0.50528855325E+02  0.29999986247E+02 0.  0.
         12    1    1    2    0    0  0.31531780286E+02 -0.16804251038E+02  0.19404381587E+02  0.40659144675E+02  0.00000000000E+00 0. -1.
         11    1    3    3    0    0  0.22606743181E+01  0.20652329647E+01 -0.54426694600E+01  0.62448768349E+01  0.51100000000E-03 0. -1.
        -11    1    3    3    0    0 -0.34125639502E+02  0.87217909203E+01 -0.86936852171E+01  0.36279595797E+02  0.51100000000E-03 0.  1.
        -12    1    3    3    0    0  0.33318489815E+00  0.60172271527E+01 -0.52680269096E+01  0.80043826935E+01  0.00000000000E+00 0.  1.
</event>
<event>
 7    1  0.9953837E-014  0.5052886E+02  0.7816164E-02  0.1300439E+00
        -11   -1    0    0    0    0  0.00000000000E+00  0.00000000000E+00  0.45593999997E+02  0.45594000000E+02  0.51100000000E-03 0. -1.
         11   -1    0    0    0    0 -0.00000000000E+00 -0.00000000000E+00 -0.45593999997E+02  0.45594000000E+02  0.51100000000E-03 0.  1.
    9900012    2    1    2    0    0  0.19689696411E+02 -0.28369716351E+02 -0.21462540725E+02  0.50528860745E+02  0.30000002721E+02 0.  0.
         12    1    1    2    0    0 -0.19689696411E+02  0.28369716351E+02  0.21462540725E+02  0.40659139255E+02  0.00000000000E+00 0. -1.
         11    1    3    3    0    0  0.87798340811E+01 -0.41891101252E+01 -0.65704410828E+00  0.97501711448E+01  0.51100000000E-03 0. -1.
        -11    1    3    3    0    0 -0.45265703912E+01 -0.16500026208E+02 -0.62528036370E+01  0.18216428244E+02  0.51100000000E-03 0.  1.
        -12    1    3    3    0    0  0.15436432721E+02 -0.76805800172E+01 -0.14552692979E+02  0.22562261356E+02  0.00000000000E+00 0.  1.
</event>
<event>
 7    1  0.9953837E-014  0.5052900E+02  0.7816164E-02  0.1300438E+00
        -11   -1    0    0    0    0  0.00000000000E+00  0.00000000000E+00  0.45593999997E+02  0.45594000000E+02  0.51100000000E-03 0. -1.
         11   -1    0    0    0    0 -0.00000000000E+00 -0.00000000000E+00 -0.45593999997E+02  0.45594000000E+02  0.51100000000E-03 0.  1.
    9900012    2    1    2    0    0 -0.43501784977E+01  0.23981996717E+01 -0.40354415202E+02  0.50529000492E+02  0.30000427494E+02 0.  0.
         12    1    1    2    0    0  0.43501784977E+01 -0.23981996717E+01  0.40354415202E+02  0.40658999508E+02  0.00000000000E+00 0. -1.
         11    1    3    3    0    0 -0.81612506822E+01 -0.65121084953E+01 -0.13883245354E+02  0.17371185094E+02  0.51100000000E-03 0. -1.
        -11    1    3    3    0    0  0.61626529347E+01  0.12872752936E+02 -0.14567959081E+02  0.20393908193E+02  0.51100000000E-03 0.  1.
        -12    1    3    3    0    0 -0.23515807501E+01 -0.39624447686E+01 -0.11903210768E+02  0.12763907206E+02  0.00000000000E+00 0.  1.
</event>
<event>
 7    1  0.9953837E-014  0.5052886E+02  0.7816164E-02  0.1300439E+00
        -11   -1    0    0    0    0  0.00000000000E+00  0.00000000000E+00  0.45593999997E+02  0.45594000000E+02  0.51100000000E-03 0. -1.
         11   -1    0    0    0    0 -0.00000000000E+00 -0.00000000000E+00 -0.45593999997E+02  0.45594000000E+02  0.51100000000E-03 0.  1.
    9900012    2    1    2    0    0  0.14308046546E+02 -0.34180449161E+02  0.16737446003E+02  0.50528863271E+02  0.30000010398E+02 0.  0.
        -12    1    1    2    0    0 -0.14308046546E+02  0.34180449161E+02 -0.16737446003E+02  0.40659136729E+02  0.00000000000E+00 0.  1.
         11    1    3    3    0    0  0.14853946436E+02 -0.40547708029E+01  0.12309107775E+02  0.19712813738E+02  0.51100000000E-03 0. -1.
        -11    1    3    3    0    0 -0.73589184336E+00 -0.91602315920E+01 -0.74821684966E+00  0.92201522948E+01  0.51100000000E-03 0.  1.
         12    1    3    3    0    0  0.18999195359E+00 -0.20965446766E+02  0.51765550785E+01  0.21595897239E+02  0.00000000000E+00 0. -1.
</event>
<event>
 7    1  0.9953837E-014  0.5052890E+02  0.7816164E-02  0.1300439E+00
        -11   -1    0    0    0    0  0.00000000000E+00  0.00000000000E+00  0.45593999997E+02  0.45594000000E+02  0.51100000000E-03 0. -1.
         11   -1    0    0    0    0 -0.00000000000E+00 -0.00000000000E+00 -0.45593999997E+02  0.45594000000E+02  0.51100000000E-03 0.  1.
    9900012    2    1    2    0    0 -0.37778504094E+02  0.10985556999E+02  0.10259853606E+02  0.50528899787E+02  0.30000121392E+02 0.  0.
        -12    1    1    2    0    0  0.37778504094E+02 -0.10985556999E+02 -0.10259853606E+02  0.40659100213E+02  0.00000000000E+00 0.  1.
         11    1    3    3    0    0 -0.24170022079E+02 -0.66372186337E+01  0.40304658962E+01  0.25386754304E+02  0.51100000000E-03 0. -1.
        -11    1    3    3    0    0 -0.37895426394E+00  0.63744233365E+01  0.42362193589E+01  0.76630564349E+01  0.51100000000E-03 0.  1.
         12    1    3    3    0    0 -0.13229527751E+02  0.11248352296E+02  0.19931683506E+01  0.17479089048E+02  0.00000000000E+00 0. -1.
</event>
<event>
 7    1  0.9953837E-014  0.5052886E+02  0.7816164E-02  0.1300439E+00
        -11   -1    0    0    0    0  0.00000000000E+00  0.00000000000E+00  0.45593999997E+02  0.45594000000E+02  0.51100000000E-03 0.  1.
         11   -1    0    0    0    0 -0.00000000000E+00 -0.00000000000E+00 -0.45593999997E+02  0.45594000000E+02  0.51100000000E-03 0. -1.
    9900012    2    1    2    0    0  0.23308376006E+02  0.14705110313E+02 -0.29893895937E+02  0.50528859876E+02  0.30000000078E+02 0.  0.
         12    1    1    2    0    0 -0.23308376006E+02 -0.14705110313E+02  0.29893895937E+02  0.40659140124E+02  0.00000000000E+00 0. -1.
         11    1    3    3    0    0 -0.61011158366E+01  0.66060116330E+01 -0.61392477233E+01  0.10888221481E+02  0.51100000000E-03 0. -1.
        -11    1    3    3    0    0  0.11956007549E+02  0.43853355454E+01 -0.15265698744E+02  0.19880111739E+02  0.51100000000E-03 0.  1.
         12    1    3    3    0    0  0.17453484294E+02  0.37137631347E+01 -0.84889494696E+01  0.19760526656E+02  0.00000000000E+00 0. -1.
</event>
<event>
 7    1  0.9953837E-014  0.5052887E+02  0.7816164E-02  0.1300439E+00
        -11   -1    0    0    0    0  0.00000000000E+00  0.00000000000E+00  0.45593999997E+02  0.45594000000E+02  0.51100000000E-03 0. -1.
         11   -1    0    0    0    0 -0.00000000000E+00 -0.00000000000E+00 -0.45593999997E+02  0.45594000000E+02  0.51100000000E-03 0.  1.
    9900012    2    1    2    0    0 -0.35403423898E+02 -0.84302761345E+01  0.18129897624E+02  0.50528866127E+02  0.30000019080E+02 0.  0.
        -12    1    1    2    0    0  0.35403423898E+02  0.84302761345E+01 -0.18129897624E+02  0.40659133873E+02  0.00000000000E+00 0.  1.
         11    1    3    3    0    0 -0.32318927848E+02 -0.70006304773E+01  0.11515960273E+02  0.35016271440E+02  0.51100000000E-03 0. -1.
        -11    1    3    3    0    0 -0.37184392863E+01 -0.59232245112E+01  0.81335189659E+01  0.10726859296E+02  0.51100000000E-03 0.  1.
         12    1    3    3    0    0  0.63394323561E+00  0.44935788540E+01 -0.15195816149E+01  0.47857353905E+01  0.00000000000E+00 0. -1.
</event>
<event>
 7    1  0.9953837E-014  0.5052886E+02  0.7816164E-02  0.1300439E+00
        -11   -1    0    0    0    0  0.00000000000E+00  0.00000000000E+00  0.45593999997E+02  0.45594000000E+02  0.51100000000E-03 0. -1.
         11   -1    0    0    0    0 -0.00000000000E+00 -0.00000000000E+00 -0.45593999997E+02  0.45594000000E+02  0.51100000000E-03 0.  1.
    9900012    2    1    2    0    0  0.20899277967E+02 -0.31334936129E+02 -0.15313629920E+02  0.50528864458E+02  0.30000014005E+02 0.  0.
         12    1    1    2    0    0 -0.20899277967E+02  0.31334936129E+02  0.15313629920E+02  0.40659135542E+02  0.00000000000E+00 0. -1.
         11    1    3    3    0    0  0.15268333291E+02 -0.95415283587E+01  0.10470514137E+01  0.18034940583E+02  0.51100000000E-03 0. -1.
        -11    1    3    3    0    0  0.72531476579E+01 -0.21497717968E+02 -0.18857364001E+02  0.29501867840E+02  0.51100000000E-03 0.  1.
         12    1    3    3    0    0 -0.16222029819E+01 -0.29568980226E+00  0.24966826667E+01  0.29920560343E+01  0.00000000000E+00 0. -1.
</event>
<event>
 7    1  0.9953837E-014  0.5052885E+02  0.7816164E-02  0.1300439E+00
        -11   -1    0    0    0    0  0.00000000000E+00  0.00000000000E+00  0.45593999997E+02  0.45594000000E+02  0.51100000000E-03 0.  1.
         11   -1    0    0    0    0 -0.00000000000E+00 -0.00000000000E+00 -0.45593999997E+02  0.45594000000E+02  0.51100000000E-03 0. -1.
    9900012    2    1    2    0    0 -0.13231467100E+02 -0.35381815847E+02  0.15040667451E+02  0.50528852301E+02  0.29999977055E+02 0.  0.
         12    1    1    2    0    0  0.13231467100E+02  0.35381815847E+02 -0.15040667451E+02  0.40659147699E+02  0.00000000000E+00 0. -1.
         11    1    3    3    0    0 -0.81622603723E+01  0.12962111777E+00  0.54818937520E+01  0.98331304979E+01  0.51100000000E-03 0. -1.
        -11    1    3    3    0    0 -0.18427265927E+01 -0.15819420482E+02 -0.41837750558E+01  0.16466744659E+02  0.51100000000E-03 0.  1.
         12    1    3    3    0    0 -0.32264801346E+01 -0.19692016483E+02  0.13742548754E+02  0.24228977145E+02  0.00000000000E+00 0. -1.
</event>
<event>
 7    1  0.9953837E-014  0.5052886E+02  0.7816164E-02  0.1300439E+00
        -11   -1    0    0    0    0  0.00000000000E+00  0.00000000000E+00  0.45593999997E+02  0.45594000000E+02  0.51100000000E-03 0. -1.
         11   -1    0    0    0    0 -0.00000000000E+00 -0.00000000000E+00 -0.45593999997E+02  0.45594000000E+02  0.51100000000E-03 0.  1.
    9900012    2    1    2    0    0  0.18096553795E+00 -0.15055208452E+02 -0.37768682476E+02  0.50528862945E+02  0.30000009407E+02 0.  0.
         12    1    1    2    0    0 -0.18096553795E+00  0.15055208452E+02  0.37768682476E+02  0.40659137055E+02  0.00000000000E+00 0. -1.
         11    1    3    3    0    0  0.22906964397E+01 -0.47615915627E+01 -0.40760501292E+01  0.66733971338E+01  0.51100000000E-03 0. -1.
        -11    1    3    3    0    0 -0.75844482010E+01  0.60362916697E+01 -0.65126212796E+01  0.11677966768E+02  0.51100000000E-03 0.  1.
        -12    1    3    3    0    0  0.54747172993E+01 -0.16329908559E+02 -0.27180011068E+02  0.32177499043E+02  0.00000000000E+00 0.  1.
</event>
<event>
 7    1  0.9953837E-014  0.5052886E+02  0.7816164E-02  0.1300439E+00
        -11   -1    0    0    0    0  0.00000000000E+00  0.00000000000E+00  0.45593999997E+02  0.45594000000E+02  0.51100000000E-03 0. -1.
         11   -1    0    0    0    0 -0.00000000000E+00 -0.00000000000E+00 -0.45593999997E+02  0.45594000000E+02  0.51100000000E-03 0.  1.
    9900012    2    1    2    0    0  0.18322664783E+02 -0.36289139026E+02 -0.73770393222E+00  0.50528857571E+02  0.29999993072E+02 0.  0.
         12    1    1    2    0    0 -0.18322664783E+02  0.36289139026E+02  0.73770393222E+00  0.40659142429E+02  0.00000000000E+00 0. -1.
         11    1    3    3    0    0 -0.55122860582E+01 -0.59548747981E+01 -0.57981667628E+00  0.81352331920E+01  0.51100000000E-03 0. -1.
        -11    1    3    3    0    0  0.15532980920E+02 -0.30021419674E+02 -0.20821301504E+01  0.33865829411E+02  0.51100000000E-03 0.  1.
        -12    1    3    3    0    0  0.83019699214E+01 -0.31284455425E+00  0.19242428945E+01  0.85277949675E+01  0.00000000000E+00 0.  1.
</event>
<event>
 7    1  0.9953837E-014  0.5052886E+02  0.7816164E-02  0.1300439E+00
        -11   -1    0    0    0    0  0.00000000000E+00  0.00000000000E+00  0.45593999997E+02  0.45594000000E+02  0.51100000000E-03 0. -1.
         11   -1    0    0    0    0 -0.00000000000E+00 -0.00000000000E+00 -0.45593999997E+02  0.45594000000E+02  0.51100000000E-03 0.  1.
    9900012    2    1    2    0    0  0.26979448226E+02  0.17571959824E+02  0.24829440020E+02  0.50528862154E+02  0.30000007004E+02 0.  0.
        -12    1    1    2    0    0 -0.26979448226E+02 -0.17571959824E+02 -0.24829440020E+02  0.40659137846E+02  0.00000000000E+00 0.  1.
         11    1    3    3    0    0  0.13722812286E+02  0.12706349739E+02  0.18244697954E+02  0.26127301897E+02  0.51100000000E-03 0. -1.
        -11    1    3    3    0    0  0.10181476312E+02 -0.36301571774E+01 -0.30117305909E+01  0.11221008085E+02  0.51100000000E-03 0.  1.
        -12    1    3    3    0    0  0.30751596286E+01  0.84957672619E+01  0.95964726574E+01  0.13180552173E+02  0.00000000000E+00 0.  1.
</event>
<event>
 7    1  0.9953837E-014  0.5052887E+02  0.7816164E-02  0.1300439E+00
        -11   -1    0    0    0    0  0.00000000000E+00  0.00000000000E+00  0.45593999997E+02  0.45594000000E+02  0.51100000000E-03 0. -1.
         11   -1    0    0    0    0 -0.00000000000E+00 -0.00000000000E+00 -0.45593999997E+02  0.45594000000E+02  0.51100000000E-03 0.  1.
    9900012    2    1    2    0    0  0.22002097593E+02  0.25473782510E+01  0.34096677608E+02  0.50528869926E+02  0.30000030628E+02 0.  0.
        -12    1    1    2    0    0 -0.22002097593E+02 -0.25473782510E+01 -0.34096677608E+02  0.40659130074E+02  0.00000000000E+00 0.  1.
         11    1    3    3    0    0  0.27290092003E+02  0.75114581443E+01  0.30867158419E+02  0.41880217216E+02  0.51100000000E-03 0. -1.
        -11    1    3    3    0    0 -0.46589822211E+01 -0.34173290226E+01  0.37635828017E+01  0.68955644259E+01  0.51100000000E-03 0.  1.
         12    1    3    3    0    0 -0.62901218860E+00 -0.15467508708E+01 -0.53406361246E+00  0.17530882841E+01  0.00000000000E+00 0. -1.
</event>
<event>
 7    1  0.9953837E-014  0.5052887E+02  0.7816164E-02  0.1300439E+00
        -11   -1    0    0    0    0  0.00000000000E+00  0.00000000000E+00  0.45593999997E+02  0.45594000000E+02  0.51100000000E-03 0. -1.
         11   -1    0    0    0    0 -0.00000000000E+00 -0.00000000000E+00 -0.45593999997E+02  0.45594000000E+02  0.51100000000E-03 0.  1.
    9900012    2    1    2    0    0  0.23149923959E+02  0.11203139215E+02 -0.31491828719E+02  0.50528873305E+02  0.30000040897E+02 0.  0.
         12    1    1    2    0    0 -0.23149923959E+02 -0.11203139215E+02  0.31491828719E+02  0.40659126695E+02  0.00000000000E+00 0. -1.
         11    1    3    3    0    0  0.68223530168E+01  0.60879795574E+01 -0.67623497919E+01  0.11372658913E+02  0.51100000000E-03 0. -1.
        -11    1    3    3    0    0 -0.26653707723E+01 -0.69860040813E+01 -0.36951325992E+01  0.83404112347E+01  0.51100000000E-03 0.  1.
        -12    1    3    3    0    0  0.18992941714E+02  0.12101163739E+02 -0.21034346328E+02  0.30815803157E+02  0.00000000000E+00 0.  1.
</event>
<event>
 7    1  0.9953837E-014  0.5052891E+02  0.7816164E-02  0.1300439E+00
        -11   -1    0    0    0    0  0.00000000000E+00  0.00000000000E+00  0.45593999997E+02  0.45594000000E+02  0.51100000000E-03 0. -1.
         11   -1    0    0    0    0 -0.00000000000E+00 -0.00000000000E+00 -0.45593999997E+02  0.45594000000E+02  0.51100000000E-03 0.  1.
    9900012    2    1    2    0    0 -0.17712202812E+02  0.66130703552E+01  0.35995926900E+02  0.50528910224E+02  0.30000153118E+02 0.  0.
        -12    1    1    2    0    0  0.17712202812E+02 -0.66130703552E+01 -0.35995926900E+02  0.40659089776E+02  0.00000000000E+00 0.  1.
         11    1    3    3    0    0 -0.61731881278E+01  0.76863047141E+01  0.35766612584E+02  0.37100378810E+02  0.51100000000E-03 0. -1.
        -11    1    3    3    0    0 -0.12383166023E+02 -0.96259064406E+00  0.72803626132E+00  0.12441841446E+02  0.51100000000E-03 0.  1.
         12    1    3    3    0    0  0.84415133952E+00 -0.11064371487E+00 -0.49872194518E+00  0.98668996866E+00  0.00000000000E+00 0. -1.
</event>
<event>
 7    1  0.9953837E-014  0.5052886E+02  0.7816164E-02  0.1300439E+00
        -11   -1    0    0    0    0  0.00000000000E+00  0.00000000000E+00  0.45593999997E+02  0.45594000000E+02  0.51100000000E-03 0. -1.
         11   -1    0    0    0    0 -0.00000000000E+00 -0.00000000000E+00 -0.45593999997E+02  0.45594000000E+02  0.51100000000E-03 0.  1.
    9900012    2    1    2    0    0  0.19856361167E+02  0.86708510650E+01 -0.34405045864E+02  0.50528856897E+02  0.29999991024E+02 0.  0.
         12    1    1    2    0    0 -0.19856361167E+02 -0.86708510650E+01  0.34405045864E+02  0.40659143103E+02  0.00000000000E+00 0. -1.
         11    1    3    3    0    0 -0.85610643736E+00 -0.71026052508E+01 -0.25691401709E+01  0.76013420565E+01  0.51100000000E-03 0. -1.
        -11    1    3    3    0    0  0.11519645117E+02  0.99697187798E+01 -0.27058516431E+02  0.31052549459E+02  0.51100000000E-03 0.  1.
        -12    1    3    3    0    0  0.91928224868E+01  0.58037375360E+01 -0.47773892622E+01  0.11874965382E+02  0.00000000000E+00 0.  1.
</event>
<event>
 7    1  0.9953837E-014  0.5052887E+02  0.7816164E-02  0.1300439E+00
        -11   -1    0    0    0    0  0.00000000000E+00  0.00000000000E+00  0.45593999997E+02  0.45594000000E+02  0.51100000000E-03 0.  1.
         11   -1    0    0    0    0 -0.00000000000E+00 -0.00000000000E+00 -0.45593999997E+02  0.45594000000E+02  0.51100000000E-03 0. -1.
    9900012    2    1    2    0    0 -0.24909986158E+02  0.31062239341E+02 -0.82337350241E+01  0.50528874140E+02  0.30000043436E+02 0.  0.
         12    1    1    2    0    0  0.24909986158E+02 -0.31062239341E+02  0.82337350241E+01  0.40659125860E+02  0.00000000000E+00 0. -1.
         11    1    3    3    0    0  0.33503770373E+01  0.85182092585E+01 -0.81946076366E+01  0.12285622078E+02  0.51100000000E-03 0. -1.
        -11    1    3    3    0    0 -0.19684137732E+02  0.21176963883E+02  0.29410564770E+01  0.29061639510E+02  0.51100000000E-03 0.  1.
         12    1    3    3    0    0 -0.85762254630E+01  0.13670661991E+01 -0.29801838646E+01  0.91816125519E+01  0.00000000000E+00 0. -1.
</event>
<event>
 7    1  0.9953837E-014  0.5052886E+02  0.7816164E-02  0.1300439E+00
        -11   -1    0    0    0    0  0.00000000000E+00  0.00000000000E+00  0.45593999997E+02  0.45594000000E+02  0.51100000000E-03 0. -1.
         11   -1    0    0    0    0 -0.00000000000E+00 -0.00000000000E+00 -0.45593999997E+02  0.45594000000E+02  0.51100000000E-03 0.  1.
    9900012    2    1    2    0    0  0.29322043074E+02  0.18960956336E+02 -0.20829441308E+02  0.50528859571E+02  0.29999999152E+02 0.  0.
         12    1    1    2    0    0 -0.29322043074E+02 -0.18960956336E+02  0.20829441308E+02  0.40659140429E+02  0.00000000000E+00 0. -1.
         11    1    3    3    0    0  0.18527673321E+02  0.20876412281E+02 -0.15143389580E+02  0.31755653302E+02  0.51100000000E-03 0. -1.
        -11    1    3    3    0    0  0.12517332957E+02  0.18044761940E+01 -0.12115551101E+01  0.12704630052E+02  0.51100000000E-03 0.  1.
         12    1    3    3    0    0 -0.17229632046E+01 -0.37199321385E+01 -0.44744966184E+01  0.60685762175E+01  0.00000000000E+00 0. -1.
</event>
<event>
 7    1  0.9953837E-014  0.5052886E+02  0.7816164E-02  0.1300439E+00
        -11   -1    0    0    0    0  0.00000000000E+00  0.00000000000E+00  0.45593999997E+02  0.45594000000E+02  0.51100000000E-03 0. -1.
         11   -1    0    0    0    0 -0.00000000000E+00 -0.00000000000E+00 -0.45593999997E+02  0.45594000000E+02  0.51100000000E-03 0.  1.
    9900012    2    1    2    0    0  0.28169509805E+02 -0.11806288078E+02  0.26837578857E+02  0.50528863761E+02  0.30000011886E+02 0.  0.
        -12    1    1    2    0    0 -0.28169509805E+02  0.11806288078E+02 -0.26837578857E+02  0.40659136239E+02  0.00000000000E+00 0.  1.
         11    1    3    3    0    0  0.14468939282E+02 -0.16890960042E+02  0.14834782010E+02  0.26734350425E+02  0.51100000000E-03 0. -1.
        -11    1    3    3    0    0 -0.23071495576E+01  0.33012406198E+01  0.44590465186E+01  0.60086791250E+01  0.51100000000E-03 0.  1.
        -12    1    3    3    0    0  0.16007720081E+02  0.17834313452E+01  0.75437503284E+01  0.17785834210E+02  0.00000000000E+00 0.  1.
</event>
<event>
 7    1  0.9953837E-014  0.5052884E+02  0.7816164E-02  0.1300439E+00
        -11   -1    0    0    0    0  0.00000000000E+00  0.00000000000E+00  0.45593999997E+02  0.45594000000E+02  0.51100000000E-03 0. -1.
         11   -1    0    0    0    0 -0.00000000000E+00 -0.00000000000E+00 -0.45593999997E+02  0.45594000000E+02  0.51100000000E-03 0.  1.
    9900012    2    1    2    0    0 -0.32661466757E+02 -0.41893374572E+01 -0.23850471447E+02  0.50528844237E+02  0.29999952544E+02 0.  0.
         12    1    1    2    0    0  0.32661466757E+02  0.41893374572E+01  0.23850471447E+02  0.40659155763E+02  0.00000000000E+00 0. -1.
         11    1    3    3    0    0 -0.13171733514E+01  0.32245346477E+01  0.35273268271E+01  0.49572778960E+01  0.51100000000E-03 0. -1.
        -11    1    3    3    0    0 -0.28117553855E+02 -0.11682546207E+02 -0.26018782830E+02  0.40050665174E+02  0.51100000000E-03 0.  1.
        -12    1    3    3    0    0 -0.32267395505E+01  0.42686741021E+01 -0.13590154442E+01  0.55209011669E+01  0.00000000000E+00 0.  1.
</event>
<event>
 7    1  0.9953837E-014  0.5052886E+02  0.7816164E-02  0.1300439E+00
        -11   -1    0    0    0    0  0.00000000000E+00  0.00000000000E+00  0.45593999997E+02  0.45594000000E+02  0.51100000000E-03 0. -1.
         11   -1    0    0    0    0 -0.00000000000E+00 -0.00000000000E+00 -0.45593999997E+02  0.45594000000E+02  0.51100000000E-03 0.  1.
    9900012    2    1    2    0    0  0.30811810679E+02  0.19561688825E+02  0.17920339979E+02  0.50528856724E+02  0.29999990498E+02 0.  0.
        -12    1    1    2    0    0 -0.30811810679E+02 -0.19561688825E+02 -0.17920339979E+02  0.40659143276E+02  0.00000000000E+00 0.  1.
         11    1    3    3    0    0  0.19573431344E+01  0.91411297548E+01  0.11262334024E+01  0.94159358153E+01  0.51100000000E-03 0. -1.
        -11    1    3    3    0    0  0.25815103821E+02 -0.86877977006E+00  0.11882029825E+02  0.28431619662E+02  0.51100000000E-03 0.  1.
        -12    1    3    3    0    0  0.30393637228E+01  0.11289338840E+02  0.49120767520E+01  0.12681301246E+02  0.00000000000E+00 0.  1.
</event>
<event>
 7    1  0.9953837E-014  0.5052888E+02  0.7816164E-02  0.1300439E+00
        -11   -1    0    0    0    0  0.00000000000E+00  0.00000000000E+00  0.45593999997E+02  0.45594000000E+02  0.51100000000E-03 0. -1.
         11   -1    0    0    0    0 -0.00000000000E+00 -0.00000000000E+00 -0.45593999997E+02  0.45594000000E+02  0.51100000000E-03 0.  1.
    9900012    2    1    2    0    0  0.12232742668E+02 -0.20794641688E+01  0.38719500045E+02  0.50528882349E+02  0.30000068388E+02 0.  0.
        -12    1    1    2    0    0 -0.12232742668E+02  0.20794641688E+01 -0.38719500045E+02  0.40659117651E+02  0.00000000000E+00 0.  1.
         11    1    3    3    0    0 -0.45258735812E+01  0.35670375287E+01  0.19341363950E+02  0.20181567038E+02  0.51100000000E-03 0. -1.
        -11    1    3    3    0    0  0.88227813480E+01 -0.10656508285E+02  0.13123838873E+02  0.19069289095E+02  0.51100000000E-03 0.  1.
        -12    1    3    3    0    0  0.79358349015E+01  0.50100065878E+01  0.62542972215E+01  0.11278026216E+02  0.00000000000E+00 0.  1.
</event>
<event>
 7    1  0.9953837E-014  0.5052887E+02  0.7816164E-02  0.1300439E+00
        -11   -1    0    0    0    0  0.00000000000E+00  0.00000000000E+00  0.45593999997E+02  0.45594000000E+02  0.51100000000E-03 0. -1.
         11   -1    0    0    0    0 -0.00000000000E+00 -0.00000000000E+00 -0.45593999997E+02  0.45594000000E+02  0.51100000000E-03 0.  1.
    9900012    2    1    2    0    0  0.21454220899E+02  0.34476912808E+02  0.20552729496E+01  0.50528865011E+02  0.30000015688E+02 0.  0.
        -12    1    1    2    0    0 -0.21454220899E+02 -0.34476912808E+02 -0.20552729496E+01  0.40659134989E+02  0.00000000000E+00 0.  1.
         11    1    3    3    0    0  0.89918051330E+01  0.38180250729E+00  0.36626051972E+01  0.97166357242E+01  0.51100000000E-03 0. -1.
        -11    1    3    3    0    0  0.15285102709E+02  0.33361797215E+02  0.12655771517E+01  0.36718463530E+02  0.51100000000E-03 0.  1.
        -12    1    3    3    0    0 -0.28226869430E+01  0.73331308600E+00 -0.28729093992E+01  0.40937657574E+01  0.00000000000E+00 0.  1.
</event>
<event>
 7    1  0.9953837E-014  0.5052882E+02  0.7816164E-02  0.1300439E+00
        -11   -1    0    0    0    0  0.00000000000E+00  0.00000000000E+00  0.45593999997E+02  0.45594000000E+02  0.51100000000E-03 0. -1.
         11   -1    0    0    0    0 -0.00000000000E+00 -0.00000000000E+00 -0.45593999997E+02  0.45594000000E+02  0.51100000000E-03 0.  1.
    9900012    2    1    2    0    0  0.12855221039E+02 -0.19088629316E+02 -0.33519189152E+02  0.50528824915E+02  0.29999893813E+02 0.  0.
         12    1    1    2    0    0 -0.12855221039E+02  0.19088629316E+02  0.33519189152E+02  0.40659175085E+02  0.00000000000E+00 0. -1.
         11    1    3    3    0    0  0.19999207898E+02 -0.75671980493E+01 -0.16766929926E+02  0.27172794157E+02  0.51100000000E-03 0. -1.
        -11    1    3    3    0    0 -0.64971587632E+01 -0.13035519399E+02 -0.14373291326E+02  0.20462877163E+02  0.51100000000E-03 0.  1.
        -12    1    3    3    0    0 -0.64682809592E+00  0.15140881320E+01 -0.23789678999E+01  0.28931535953E+01  0.00000000000E+00 0.  1.
</event>
<event>
 7    1  0.9953837E-014  0.5052886E+02  0.7816164E-02  0.1300439E+00
        -11   -1    0    0    0    0  0.00000000000E+00  0.00000000000E+00  0.45593999997E+02  0.45594000000E+02  0.51100000000E-03 0. -1.
         11   -1    0    0    0    0 -0.00000000000E+00 -0.00000000000E+00 -0.45593999997E+02  0.45594000000E+02  0.51100000000E-03 0.  1.
    9900012    2    1    2    0    0 -0.26164167617E+02 -0.20111832429E+02 -0.23751122545E+02  0.50528864582E+02  0.30000014384E+02 0.  0.
         12    1    1    2    0    0  0.26164167617E+02  0.20111832429E+02  0.23751122545E+02  0.40659135418E+02  0.00000000000E+00 0. -1.
         11    1    3    3    0    0 -0.17436965198E+02  0.15571600638E+00 -0.39780151225E+01  0.17885653675E+02  0.51100000000E-03 0. -1.
        -11    1    3    3    0    0 -0.37207397194E+01 -0.70565727820E+01 -0.16219789934E+02  0.18075417263E+02  0.51100000000E-03 0.  1.
         12    1    3    3    0    0 -0.50064626998E+01 -0.13210975654E+02 -0.35533174886E+01  0.14567793644E+02  0.00000000000E+00 0. -1.
</event>
<event>
 7    1  0.9953837E-014  0.5052886E+02  0.7816164E-02  0.1300439E+00
        -11   -1    0    0    0    0  0.00000000000E+00  0.00000000000E+00  0.45593999997E+02  0.45594000000E+02  0.51100000000E-03 0. -1.
         11   -1    0    0    0    0 -0.00000000000E+00 -0.00000000000E+00 -0.45593999997E+02  0.45594000000E+02  0.51100000000E-03 0.  1.
    9900012    2    1    2    0    0 -0.35926079746E+02  0.50872396565E+01  0.18346724388E+02  0.50528861925E+02  0.30000006307E+02 0.  0.
        -12    1    1    2    0    0  0.35926079746E+02 -0.50872396565E+01 -0.18346724388E+02  0.40659138075E+02  0.00000000000E+00 0.  1.
         11    1    3    3    0    0 -0.12657477659E+02  0.27922973906E+01  0.86963464707E+01  0.15608815061E+02  0.51100000000E-03 0. -1.
        -11    1    3    3    0    0 -0.34557378586E+01 -0.41069341941E+01 -0.66005538632E+01  0.85074287646E+01  0.51100000000E-03 0.  1.
        -12    1    3    3    0    0 -0.19812864228E+02  0.64018764600E+01  0.16250931781E+02  0.26412618100E+02  0.00000000000E+00 0.  1.
</event>
<event>
 7    1  0.9953837E-014  0.5052886E+02  0.7816164E-02  0.1300439E+00
        -11   -1    0    0    0    0  0.00000000000E+00  0.00000000000E+00  0.45593999997E+02  0.45594000000E+02  0.51100000000E-03 0. -1.
         11   -1    0    0    0    0 -0.00000000000E+00 -0.00000000000E+00 -0.45593999997E+02  0.45594000000E+02  0.51100000000E-03 0.  1.
    9900012    2    1    2    0    0 -0.95417551859E+01  0.96550960285E+01  0.38326230342E+02  0.50528857073E+02  0.29999991558E+02 0.  0.
        -12    1    1    2    0    0  0.95417551859E+01 -0.96550960285E+01 -0.38326230342E+02  0.40659142927E+02  0.00000000000E+00 0.  1.
         11    1    3    3    0    0 -0.11494694813E+02 -0.23566495346E+01  0.36025188511E+02  0.37887940210E+02  0.51100000000E-03 0. -1.
        -11    1    3    3    0    0  0.88083908538E+00  0.74538556184E+01  0.26147721394E+01  0.79481365537E+01  0.51100000000E-03 0.  1.
         12    1    3    3    0    0  0.10721005423E+01  0.45578899447E+01 -0.31373030811E+00  0.46927803088E+01  0.00000000000E+00 0. -1.
</event>
<event>
 7    1  0.9953837E-014  0.5052886E+02  0.7816164E-02  0.1300439E+00
        -11   -1    0    0    0    0  0.00000000000E+00  0.00000000000E+00  0.45593999997E+02  0.45594000000E+02  0.51100000000E-03 0. -1.
         11   -1    0    0    0    0 -0.00000000000E+00 -0.00000000000E+00 -0.45593999997E+02  0.45594000000E+02  0.51100000000E-03 0.  1.
    9900012    2    1    2    0    0  0.36265054475E+02 -0.18376439030E+02 -0.56412183340E+00  0.50528856860E+02  0.29999990910E+02 0.  0.
         12    1    1    2    0    0 -0.36265054475E+02  0.18376439030E+02  0.56412183340E+00  0.40659143140E+02  0.00000000000E+00 0. -1.
         11    1    3    3    0    0  0.13264432739E+01  0.49099925940E+01 -0.10076598671E+01  0.51848681469E+01  0.51100000000E-03 0. -1.
        -11    1    3    3    0    0  0.13805698758E+02 -0.14723789104E+02 -0.69918934699E+01  0.21360567838E+02  0.51100000000E-03 0.  1.
         12    1    3    3    0    0  0.21132912442E+02 -0.85626425191E+01  0.74354315035E+01  0.23983420875E+02  0.00000000000E+00 0. -1.
</event>
<event>
 7    1  0.9953837E-014  0.5052883E+02  0.7816164E-02  0.1300439E+00
        -11   -1    0    0    0    0  0.00000000000E+00  0.00000000000E+00  0.45593999997E+02  0.45594000000E+02  0.51100000000E-03 0. -1.
         11   -1    0    0    0    0 -0.00000000000E+00 -0.00000000000E+00 -0.45593999997E+02  0.45594000000E+02  0.51100000000E-03 0.  1.
    9900012    2    1    2    0    0  0.21000823306E+01  0.13231997056E+02 -0.38388434869E+02  0.50528831002E+02  0.29999912315E+02 0.  0.
         12    1    1    2    0    0 -0.21000823306E+01 -0.13231997056E+02  0.38388434869E+02  0.40659168998E+02  0.00000000000E+00 0. -1.
         11    1    3    3    0    0 -0.25006208699E+01 -0.45306065395E+01 -0.49981555671E+01  0.71945159451E+01  0.51100000000E-03 0. -1.
        -11    1    3    3    0    0  0.48518939325E+01  0.11009361591E+02 -0.34453109064E+02  0.36493336951E+02  0.51100000000E-03 0.  1.
        -12    1    3    3    0    0 -0.25119073207E+00  0.67532420044E+01  0.10628297618E+01  0.68409781067E+01  0.00000000000E+00 0.  1.
</event>
<event>
 7    1  0.9953837E-014  0.5052886E+02  0.7816164E-02  0.1300439E+00
        -11   -1    0    0    0    0  0.00000000000E+00  0.00000000000E+00  0.45593999997E+02  0.45594000000E+02  0.51100000000E-03 0. -1.
         11   -1    0    0    0    0 -0.00000000000E+00 -0.00000000000E+00 -0.45593999997E+02  0.45594000000E+02  0.51100000000E-03 0.  1.
    9900012    2    1    2    0    0  0.25780356286E+02 -0.15025944031E+01  0.31405110548E+02  0.50528861683E+02  0.30000005572E+02 0.  0.
        -12    1    1    2    0    0 -0.25780356286E+02  0.15025944031E+01 -0.31405110548E+02  0.40659138317E+02  0.00000000000E+00 0.  1.
         11    1    3    3    0    0  0.23486608569E+02  0.63772870030E+01  0.20452498357E+02  0.31789860976E+02  0.51100000000E-03 0. -1.
        -11    1    3    3    0    0  0.61228133420E+01 -0.77224002885E+01  0.11175520858E+02  0.14900220675E+02  0.51100000000E-03 0.  1.
         12    1    3    3    0    0 -0.38290656250E+01 -0.15748111758E+00 -0.22290866794E+00  0.38387800324E+01  0.00000000000E+00 0. -1.
</event>
<event>
 7    1  0.9953837E-014  0.5052886E+02  0.7816164E-02  0.1300439E+00
        -11   -1    0    0    0    0  0.00000000000E+00  0.00000000000E+00  0.45593999997E+02  0.45594000000E+02  0.51100000000E-03 0. -1.
         11   -1    0    0    0    0 -0.00000000000E+00 -0.00000000000E+00 -0.45593999997E+02  0.45594000000E+02  0.51100000000E-03 0.  1.
    9900012    2    1    2    0    0  0.82843494182E+00  0.11381194395E+02 -0.39024967564E+02  0.50528856088E+02  0.29999988564E+02 0.  0.
         12    1    1    2    0    0 -0.82843494182E+00 -0.11381194395E+02  0.39024967564E+02  0.40659143912E+02  0.00000000000E+00 0. -1.
         11    1    3    3    0    0  0.11051122783E+02 -0.49137800859E+00 -0.34607863475E+01  0.11590763975E+02  0.51100000000E-03 0. -1.
        -11    1    3    3    0    0 -0.25876643077E+01  0.33494105206E+01 -0.12385407925E+02  0.13088654901E+02  0.51100000000E-03 0.  1.
         12    1    3    3    0    0 -0.76350235336E+01  0.85231618825E+01 -0.23178773292E+02  0.25849437212E+02  0.00000000000E+00 0. -1.
</event>
<event>
 7    1  0.9953837E-014  0.5052886E+02  0.7816164E-02  0.1300439E+00
        -11   -1    0    0    0    0  0.00000000000E+00  0.00000000000E+00  0.45593999997E+02  0.45594000000E+02  0.51100000000E-03 0. -1.
         11   -1    0    0    0    0 -0.00000000000E+00 -0.00000000000E+00 -0.45593999997E+02  0.45594000000E+02  0.51100000000E-03 0.  1.
    9900012    2    1    2    0    0 -0.38222688754E+01 -0.34930656273E+02 -0.20454955927E+02  0.50528859466E+02  0.29999998832E+02 0.  0.
         12    1    1    2    0    0  0.38222688754E+01  0.34930656273E+02  0.20454955927E+02  0.40659140534E+02  0.00000000000E+00 0. -1.
         11    1    3    3    0    0  0.50072333975E+01  0.26363848433E+01 -0.46820040149E+00  0.56782147913E+01  0.51100000000E-03 0. -1.
        -11    1    3    3    0    0 -0.74595514280E+01 -0.26125325487E+02 -0.19261516491E+02  0.33304407472E+02  0.51100000000E-03 0.  1.
         12    1    3    3    0    0 -0.13699508449E+01 -0.11441715629E+02 -0.72523903480E+00  0.11546237202E+02  0.00000000000E+00 0. -1.
</event>
<event>
 7    1  0.9953837E-014  0.5052885E+02  0.7816164E-02  0.1300439E+00
        -11   -1    0    0    0    0  0.00000000000E+00  0.00000000000E+00  0.45593999997E+02  0.45594000000E+02  0.51100000000E-03 0. -1.
         11   -1    0    0    0    0 -0.00000000000E+00 -0.00000000000E+00 -0.45593999997E+02  0.45594000000E+02  0.51100000000E-03 0.  1.
    9900012    2    1    2    0    0 -0.25229935250E+02 -0.31125833699E+02 -0.69137170388E+01  0.50528848023E+02  0.29999964050E+02 0.  0.
         12    1    1    2    0    0  0.25229935250E+02  0.31125833699E+02  0.69137170388E+01  0.40659151977E+02  0.00000000000E+00 0. -1.
         11    1    3    3    0    0 -0.22317704086E+02 -0.11585143364E+02 -0.54101308070E+01  0.25720905466E+02  0.51100000000E-03 0. -1.
        -11    1    3    3    0    0 -0.72829276938E+01 -0.70389936410E+01 -0.47274138471E+01  0.11177518026E+02  0.51100000000E-03 0.  1.
         12    1    3    3    0    0  0.43706965292E+01 -0.12501696695E+02  0.32238276154E+01  0.13630424531E+02  0.00000000000E+00 0. -1.
</event>
<event>
 7    1  0.9953837E-014  0.5052886E+02  0.7816164E-02  0.1300439E+00
        -11   -1    0    0    0    0  0.00000000000E+00  0.00000000000E+00  0.45593999997E+02  0.45594000000E+02  0.51100000000E-03 0.  1.
         11   -1    0    0    0    0 -0.00000000000E+00 -0.00000000000E+00 -0.45593999997E+02  0.45594000000E+02  0.51100000000E-03 0. -1.
    9900012    2    1    2    0    0  0.26160370629E+02 -0.29565014002E+02 -0.97319201965E+01  0.50528864309E+02  0.30000013555E+02 0.  0.
         12    1    1    2    0    0 -0.26160370629E+02  0.29565014002E+02  0.97319201965E+01  0.40659135691E+02  0.00000000000E+00 0. -1.
         11    1    3    3    0    0  0.76134601269E+00  0.32509336860E+01  0.22792492173E+01  0.40426717450E+01  0.51100000000E-03 0. -1.
        -11    1    3    3    0    0  0.18378867067E+02 -0.23493933282E+02 -0.16374373580E+02  0.34027456063E+02  0.51100000000E-03 0.  1.
         12    1    3    3    0    0  0.70201575494E+01 -0.93220144067E+01  0.43632041664E+01  0.12458736502E+02  0.00000000000E+00 0. -1.
</event>
<event>
 7    1  0.9953837E-014  0.5052889E+02  0.7816164E-02  0.1300439E+00
        -11   -1    0    0    0    0  0.00000000000E+00  0.00000000000E+00  0.45593999997E+02  0.45594000000E+02  0.51100000000E-03 0. -1.
         11   -1    0    0    0    0 -0.00000000000E+00 -0.00000000000E+00 -0.45593999997E+02  0.45594000000E+02  0.51100000000E-03 0.  1.
    9900012    2    1    2    0    0  0.45836527156E+01  0.44320392445E+01 -0.40156071708E+02  0.50528893528E+02  0.30000102368E+02 0.  0.
         12    1    1    2    0    0 -0.45836527156E+01 -0.44320392445E+01  0.40156071708E+02  0.40659106472E+02  0.00000000000E+00 0. -1.
         11    1    3    3    0    0  0.54621060026E+01 -0.75192854753E+01 -0.26127142937E+02  0.27730882683E+02  0.51100000000E-03 0. -1.
        -11    1    3    3    0    0  0.61353486643E+01  0.53305474573E+01 -0.47479591378E+01  0.94127761931E+01  0.51100000000E-03 0.  1.
         12    1    3    3    0    0 -0.70138019514E+01  0.66207772626E+01 -0.92809696328E+01  0.13385234652E+02  0.00000000000E+00 0. -1.
</event>
<event>
 7    1  0.9953837E-014  0.5052886E+02  0.7816164E-02  0.1300439E+00
        -11   -1    0    0    0    0  0.00000000000E+00  0.00000000000E+00  0.45593999997E+02  0.45594000000E+02  0.51100000000E-03 0.  1.
         11   -1    0    0    0    0 -0.00000000000E+00 -0.00000000000E+00 -0.45593999997E+02  0.45594000000E+02  0.51100000000E-03 0. -1.
    9900012    2    1    2    0    0 -0.36252700505E+02  0.17904434172E+02 -0.42823764518E+01  0.50528858285E+02  0.29999995243E+02 0.  0.
        -12    1    1    2    0    0  0.36252700505E+02 -0.17904434172E+02  0.42823764518E+01  0.40659141715E+02  0.00000000000E+00 0.  1.
         11    1    3    3    0    0 -0.35030274929E+02  0.17918896038E+02  0.39535921853E+01  0.39545390228E+02  0.51100000000E-03 0. -1.
        -11    1    3    3    0    0  0.20917694431E+01 -0.19944869431E+01 -0.15930617533E+01  0.33002005364E+01  0.51100000000E-03 0.  1.
         12    1    3    3    0    0 -0.33141950185E+01  0.19800250779E+01 -0.66429068838E+01  0.76832675208E+01  0.00000000000E+00 0. -1.
</event>
<event>
 7    1  0.9953837E-014  0.5052886E+02  0.7816164E-02  0.1300439E+00
        -11   -1    0    0    0    0  0.00000000000E+00  0.00000000000E+00  0.45593999997E+02  0.45594000000E+02  0.51100000000E-03 0.  1.
         11   -1    0    0    0    0 -0.00000000000E+00 -0.00000000000E+00 -0.45593999997E+02  0.45594000000E+02  0.51100000000E-03 0. -1.
    9900012    2    1    2    0    0  0.36675019661E+02 -0.11160088942E+02  0.13548459250E+02  0.50528863261E+02  0.30000010369E+02 0.  0.
        -12    1    1    2    0    0 -0.36675019661E+02  0.11160088942E+02 -0.13548459250E+02  0.40659136739E+02  0.00000000000E+00 0.  1.
         11    1    3    3    0    0  0.31379043791E+01 -0.72024322408E+01 -0.52180051887E+01  0.94312805327E+01  0.51100000000E-03 0. -1.
        -11    1    3    3    0    0  0.13593963099E+02 -0.61460473021E+00  0.15480132252E+02  0.20610872531E+02  0.51100000000E-03 0.  1.
         12    1    3    3    0    0  0.19943152183E+02 -0.33430519708E+01  0.32863321869E+01  0.20486710197E+02  0.00000000000E+00 0. -1.
</event>
<event>
 7    1  0.9953837E-014  0.5052886E+02  0.7816164E-02  0.1300439E+00
        -11   -1    0    0    0    0  0.00000000000E+00  0.00000000000E+00  0.45593999997E+02  0.45594000000E+02  0.51100000000E-03 0. -1.
         11   -1    0    0    0    0 -0.00000000000E+00 -0.00000000000E+00 -0.45593999997E+02  0.45594000000E+02  0.51100000000E-03 0.  1.
    9900012    2    1    2    0    0 -0.25691482729E+01 -0.17154941840E+02 -0.36773265610E+02  0.50528860609E+02  0.30000002307E+02 0.  0.
         12    1    1    2    0    0  0.25691482729E+01  0.17154941840E+02  0.36773265610E+02  0.40659139391E+02  0.00000000000E+00 0. -1.
         11    1    3    3    0    0  0.93081009469E+01 -0.64460389046E+01 -0.55179165049E+01  0.12595219872E+02  0.51100000000E-03 0. -1.
        -11    1    3    3    0    0 -0.77703495254E+01 -0.21479611333E+01 -0.25695627531E+02  0.26930602356E+02  0.51100000000E-03 0.  1.
         12    1    3    3    0    0 -0.41068996944E+01 -0.85609418024E+01 -0.55597215743E+01  0.11003038382E+02  0.00000000000E+00 0. -1.
</event>
<event>
 7    1  0.9953837E-014  0.5052886E+02  0.7816164E-02  0.1300439E+00
        -11   -1    0    0    0    0  0.00000000000E+00  0.00000000000E+00  0.45593999997E+02  0.45594000000E+02  0.51100000000E-03 0. -1.
         11   -1    0    0    0    0 -0.00000000000E+00 -0.00000000000E+00 -0.45593999997E+02  0.45594000000E+02  0.51100000000E-03 0.  1.
    9900012    2    1    2    0    0 -0.29091593780E+02 -0.52838714109E+01 -0.27909238206E+02  0.50528859540E+02  0.29999999057E+02 0.  0.
         12    1    1    2    0    0  0.29091593780E+02  0.52838714109E+01  0.27909238206E+02  0.40659140460E+02  0.00000000000E+00 0. -1.
         11    1    3    3    0    0 -0.16360550784E+02  0.87402560900E+00  0.89259585678E+00  0.16408176936E+02  0.51100000000E-03 0. -1.
        -11    1    3    3    0    0 -0.63231730061E+01 -0.92270693747E+01 -0.17292140843E+02  0.20594646423E+02  0.51100000000E-03 0.  1.
         12    1    3    3    0    0 -0.64078699897E+01  0.30691723548E+01 -0.11509693220E+02  0.13526036181E+02  0.00000000000E+00 0. -1.
</event>
<event>
 7    1  0.9953837E-014  0.5052886E+02  0.7816164E-02  0.1300439E+00
        -11   -1    0    0    0    0  0.00000000000E+00  0.00000000000E+00  0.45593999997E+02  0.45594000000E+02  0.51100000000E-03 0. -1.
         11   -1    0    0    0    0 -0.00000000000E+00 -0.00000000000E+00 -0.45593999997E+02  0.45594000000E+02  0.51100000000E-03 0.  1.
    9900012    2    1    2    0    0  0.16362720316E+02  0.17062775648E+02 -0.33080038787E+02  0.50528857177E+02  0.29999991875E+02 0.  0.
         12    1    1    2    0    0 -0.16362720316E+02 -0.17062775648E+02  0.33080038787E+02  0.40659142823E+02  0.00000000000E+00 0. -1.
         11    1    3    3    0    0 -0.18617697260E+01  0.48656288609E+01 -0.12890582631E+02  0.13903512202E+02  0.51100000000E-03 0.  1.
        -11    1    3    3    0    0  0.20086737221E+02  0.21548722979E+01 -0.15049534114E+02  0.25191446249E+02  0.51100000000E-03 0. -1.
         12    1    3    3    0    0 -0.18622471790E+01  0.10042274490E+02 -0.51399220418E+01  0.11433898726E+02  0.00000000000E+00 0. -1.
</event>
<event>
 7    1  0.9953837E-014  0.5052878E+02  0.7816164E-02  0.1300439E+00
        -11   -1    0    0    0    0  0.00000000000E+00  0.00000000000E+00  0.45593999997E+02  0.45594000000E+02  0.51100000000E-03 0. -1.
         11   -1    0    0    0    0 -0.00000000000E+00 -0.00000000000E+00 -0.45593999997E+02  0.45594000000E+02  0.51100000000E-03 0.  1.
    9900012    2    1    2    0    0  0.30346720082E+02 -0.23990058038E+01  0.26953544786E+02  0.50528779335E+02  0.29999755265E+02 0.  0.
        -12    1    1    2    0    0 -0.30346720082E+02  0.23990058038E+01 -0.26953544786E+02  0.40659220665E+02  0.00000000000E+00 0.  1.
         11    1    3    3    0    0  0.46223254331E+01 -0.39415819610E+01  0.28927720117E+01  0.67283052054E+01  0.51100000000E-03 0. -1.
        -11    1    3    3    0    0  0.27601623746E+02 -0.59575833180E+01  0.15299805528E+02  0.32115829148E+02  0.51100000000E-03 0.  1.
        -12    1    3    3    0    0 -0.18772290975E+01  0.75001594753E+01  0.87609672469E+01  0.11684644981E+02  0.00000000000E+00 0.  1.
</event>
<event>
 7    1  0.9953837E-014  0.5052882E+02  0.7816164E-02  0.1300439E+00
        -11   -1    0    0    0    0  0.00000000000E+00  0.00000000000E+00  0.45593999997E+02  0.45594000000E+02  0.51100000000E-03 0. -1.
         11   -1    0    0    0    0 -0.00000000000E+00 -0.00000000000E+00 -0.45593999997E+02  0.45594000000E+02  0.51100000000E-03 0.  1.
    9900012    2    1    2    0    0  0.88039416359E+01  0.31992809558E+01 -0.39565440480E+02  0.50528820627E+02  0.29999880777E+02 0.  0.
         12    1    1    2    0    0 -0.88039416359E+01 -0.31992809558E+01  0.39565440480E+02  0.40659179373E+02  0.00000000000E+00 0. -1.
         11    1    3    3    0    0  0.58193837885E+01  0.80882522428E+01 -0.37268571740E+01  0.10638351220E+02  0.51100000000E-03 0. -1.
        -11    1    3    3    0    0  0.83840938818E+01 -0.82412740502E+00 -0.29298531817E+02  0.30485671767E+02  0.51100000000E-03 0.  1.
         12    1    3    3    0    0 -0.53995360344E+01 -0.40648438820E+01 -0.65400514886E+01  0.94047976398E+01  0.00000000000E+00 0. -1.
</event>
<event>
 7    1  0.9953837E-014  0.5052886E+02  0.7816164E-02  0.1300439E+00
        -11   -1    0    0    0    0  0.00000000000E+00  0.00000000000E+00  0.45593999997E+02  0.45594000000E+02  0.51100000000E-03 0. -1.
         11   -1    0    0    0    0 -0.00000000000E+00 -0.00000000000E+00 -0.45593999997E+02  0.45594000000E+02  0.51100000000E-03 0.  1.
    9900012    2    1    2    0    0 -0.18882937343E+02 -0.30843075827E+02  0.18582383060E+02  0.50528860691E+02  0.30000002557E+02 0.  0.
        -12    1    1    2    0    0  0.18882937343E+02  0.30843075827E+02 -0.18582383060E+02  0.40659139309E+02  0.00000000000E+00 0.  1.
         11    1    3    3    0    0 -0.20559829624E+02 -0.15990427899E+02  0.21872807301E+02  0.34012057833E+02  0.51100000000E-03 0. -1.
        -11    1    3    3    0    0 -0.23770248732E+01 -0.55963557959E+01 -0.11817780493E+01  0.61940330207E+01  0.51100000000E-03 0.  1.
         12    1    3    3    0    0  0.40539171548E+01 -0.92562921326E+01 -0.21086461925E+01  0.10322769837E+02  0.00000000000E+00 0. -1.
</event>
<event>
 7    1  0.9953837E-014  0.5052887E+02  0.7816164E-02  0.1300439E+00
        -11   -1    0    0    0    0  0.00000000000E+00  0.00000000000E+00  0.45593999997E+02  0.45594000000E+02  0.51100000000E-03 0. -1.
         11   -1    0    0    0    0 -0.00000000000E+00 -0.00000000000E+00 -0.45593999997E+02  0.45594000000E+02  0.51100000000E-03 0.  1.
    9900012    2    1    2    0    0 -0.75566313221E+01 -0.13093791195E+02  0.37744068194E+02  0.50528871521E+02  0.30000035476E+02 0.  0.
        -12    1    1    2    0    0  0.75566313221E+01  0.13093791195E+02 -0.37744068194E+02  0.40659128479E+02  0.00000000000E+00 0.  1.
         11    1    3    3    0    0 -0.99298105478E+01 -0.41400023464E+01  0.15464709343E+02  0.18838736483E+02  0.51100000000E-03 0. -1.
        -11    1    3    3    0    0  0.93500482039E+00 -0.12646446695E+02  0.44708149967E+01  0.13446004426E+02  0.51100000000E-03 0.  1.
        -12    1    3    3    0    0  0.14381744053E+01  0.36926578464E+01  0.17808543855E+02  0.18244130613E+02  0.00000000000E+00 0.  1.
</event>
<event>
 7    1  0.9953837E-014  0.5052886E+02  0.7816164E-02  0.1300439E+00
        -11   -1    0    0    0    0  0.00000000000E+00  0.00000000000E+00  0.45593999997E+02  0.45594000000E+02  0.51100000000E-03 0.  1.
         11   -1    0    0    0    0 -0.00000000000E+00 -0.00000000000E+00 -0.45593999997E+02  0.45594000000E+02  0.51100000000E-03 0. -1.
    9900012    2    1    2    0    0 -0.63680247498E+01 -0.38574591073E+02  0.11163095557E+02  0.50528861814E+02  0.30000005969E+02 0.  0.
        -12    1    1    2    0    0  0.63680247498E+01  0.38574591073E+02 -0.11163095557E+02  0.40659138186E+02  0.00000000000E+00 0.  1.
         11    1    3    3    0    0 -0.43722568524E+01  0.19055856739E+01 -0.18757651964E+01  0.51250738606E+01  0.51100000000E-03 0. -1.
        -11    1    3    3    0    0  0.36641255065E+01 -0.16311656901E+02 -0.12459934272E+01  0.16764500185E+02  0.51100000000E-03 0.  1.
         12    1    3    3    0    0 -0.56598934040E+01 -0.24168519846E+02  0.14284854180E+02  0.28639287768E+02  0.00000000000E+00 0. -1.
</event>
<event>
 7    1  0.9953837E-014  0.5052886E+02  0.7816164E-02  0.1300439E+00
        -11   -1    0    0    0    0  0.00000000000E+00  0.00000000000E+00  0.45593999997E+02  0.45594000000E+02  0.51100000000E-03 0. -1.
         11   -1    0    0    0    0 -0.00000000000E+00 -0.00000000000E+00 -0.45593999997E+02  0.45594000000E+02  0.51100000000E-03 0.  1.
    9900012    2    1    2    0    0  0.17929341150E+02 -0.28190067690E+02  0.23173787150E+02  0.50528860790E+02  0.30000002857E+02 0.  0.
        -12    1    1    2    0    0 -0.17929341150E+02  0.28190067690E+02 -0.23173787150E+02  0.40659139210E+02  0.00000000000E+00 0.  1.
         11    1    3    3    0    0 -0.91264780269E+00 -0.23442357896E+02  0.12742636230E+02  0.26697412760E+02  0.51100000000E-03 0. -1.
        -11    1    3    3    0    0  0.11452807902E+02 -0.67524612303E+01  0.41485971893E+01  0.13927433375E+02  0.51100000000E-03 0.  1.
         12    1    3    3    0    0  0.73891810509E+01  0.20047514355E+01  0.62825537300E+01  0.99040146553E+01  0.00000000000E+00 0. -1.
</event>
<event>
 7    1  0.9953837E-014  0.5052885E+02  0.7816164E-02  0.1300439E+00
        -11   -1    0    0    0    0  0.00000000000E+00  0.00000000000E+00  0.45593999997E+02  0.45594000000E+02  0.51100000000E-03 0. -1.
         11   -1    0    0    0    0 -0.00000000000E+00 -0.00000000000E+00 -0.45593999997E+02  0.45594000000E+02  0.51100000000E-03 0.  1.
    9900012    2    1    2    0    0  0.19742926083E+01 -0.25158752838E+02 -0.31879546851E+02  0.50528853636E+02  0.29999981112E+02 0.  0.
         12    1    1    2    0    0 -0.19742926083E+01  0.25158752838E+02  0.31879546851E+02  0.40659146364E+02  0.00000000000E+00 0. -1.
         11    1    3    3    0    0 -0.76719932241E+01 -0.68119552279E+01 -0.20808861956E+02  0.23200667021E+02  0.51100000000E-03 0. -1.
        -11    1    3    3    0    0  0.93911299769E+01 -0.19439772171E+02 -0.63904223245E+01  0.22515229558E+02  0.51100000000E-03 0.  1.
        -12    1    3    3    0    0  0.25515585545E+00  0.10929745616E+01 -0.46802625705E+01  0.48129570569E+01  0.00000000000E+00 0.  1.
</event>
<event>
 7    1  0.9953837E-014  0.5052885E+02  0.7816164E-02  0.1300439E+00
        -11   -1    0    0    0    0  0.00000000000E+00  0.00000000000E+00  0.45593999997E+02  0.45594000000E+02  0.51100000000E-03 0.  1.
         11   -1    0    0    0    0 -0.00000000000E+00 -0.00000000000E+00 -0.45593999997E+02  0.45594000000E+02  0.51100000000E-03 0. -1.
    9900012    2    1    2    0    0 -0.31013706585E+02 -0.92632168696E+01 -0.24607091049E+02  0.50528854500E+02  0.29999983738E+02 0.  0.
         12    1    1    2    0    0  0.31013706585E+02  0.92632168696E+01  0.24607091049E+02  0.40659145500E+02  0.00000000000E+00 0. -1.
         11    1    3    3    0    0 -0.18500192051E+02 -0.31295639117E+00 -0.12857554491E+02  0.22531572412E+02  0.51100000000E-03 0. -1.
        -11    1    3    3    0    0 -0.44009436107E+01 -0.14780721117E+02 -0.71729926603E+01  0.17008522727E+02  0.51100000000E-03 0.  1.
        -12    1    3    3    0    0 -0.81125709229E+01  0.58304606382E+01 -0.45765438980E+01  0.10988759361E+02  0.00000000000E+00 0.  1.
</event>
<event>
 7    1  0.9953837E-014  0.5052886E+02  0.7816164E-02  0.1300439E+00
        -11   -1    0    0    0    0  0.00000000000E+00  0.00000000000E+00  0.45593999997E+02  0.45594000000E+02  0.51100000000E-03 0. -1.
         11   -1    0    0    0    0 -0.00000000000E+00 -0.00000000000E+00 -0.45593999997E+02  0.45594000000E+02  0.51100000000E-03 0.  1.
    9900012    2    1    2    0    0 -0.89605942160E+01 -0.55552870845E+01  0.39268461652E+02  0.50528861497E+02  0.30000005006E+02 0.  0.
        -12    1    1    2    0    0  0.89605942160E+01  0.55552870845E+01 -0.39268461652E+02  0.40659138503E+02  0.00000000000E+00 0.  1.
         11    1    3    3    0    0 -0.69858608091E+01 -0.59925942576E+01  0.98177461842E+01  0.13457398619E+02  0.51100000000E-03 0. -1.
        -11    1    3    3    0    0 -0.22972714031E+01  0.75892864065E+01  0.13131083374E+01  0.80373489302E+01  0.51100000000E-03 0.  1.
        -12    1    3    3    0    0  0.32253799609E+00 -0.71519792334E+01  0.28137607131E+02  0.29034113948E+02  0.00000000000E+00 0.  1.
</event>
<event>
 7    1  0.9953837E-014  0.5052885E+02  0.7816164E-02  0.1300439E+00
        -11   -1    0    0    0    0  0.00000000000E+00  0.00000000000E+00  0.45593999997E+02  0.45594000000E+02  0.51100000000E-03 0. -1.
         11   -1    0    0    0    0 -0.00000000000E+00 -0.00000000000E+00 -0.45593999997E+02  0.45594000000E+02  0.51100000000E-03 0.  1.
    9900012    2    1    2    0    0  0.81385031651E+01  0.23974157155E+02 -0.31814638784E+02  0.50528847451E+02  0.29999962311E+02 0.  0.
         12    1    1    2    0    0 -0.81385031651E+01 -0.23974157155E+02  0.31814638784E+02  0.40659152549E+02  0.00000000000E+00 0. -1.
         11    1    3    3    0    0 -0.38446989516E+01  0.36201248661E+01  0.23067855240E+01  0.57626620402E+01  0.51100000000E-03 0. -1.
        -11    1    3    3    0    0  0.55960554286E+01  0.19457302750E+02 -0.16886413748E+02  0.26363866108E+02  0.51100000000E-03 0.  1.
         12    1    3    3    0    0  0.63871466881E+01  0.89672953935E+00 -0.17235010560E+02  0.18402319302E+02  0.00000000000E+00 0. -1.
</event>
<event>
 7    1  0.9953837E-014  0.5052887E+02  0.7816164E-02  0.1300439E+00
        -11   -1    0    0    0    0  0.00000000000E+00  0.00000000000E+00  0.45593999997E+02  0.45594000000E+02  0.51100000000E-03 0. -1.
         11   -1    0    0    0    0 -0.00000000000E+00 -0.00000000000E+00 -0.45593999997E+02  0.45594000000E+02  0.51100000000E-03 0.  1.
    9900012    2    1    2    0    0  0.29441710269E+02  0.95584233910E+01 -0.26362600457E+02  0.50528874774E+02  0.30000045362E+02 0.  0.
         12    1    1    2    0    0 -0.29441710269E+02 -0.95584233910E+01  0.26362600457E+02  0.40659125226E+02  0.00000000000E+00 0. -1.
         11    1    3    3    0    0 -0.90220502841E+00  0.48221945651E+01 -0.15636341182E+02  0.16387882724E+02  0.51100000000E-03 0.  1.
        -11    1    3    3    0    0  0.27989860091E+02  0.44635658980E+01 -0.12698247707E+02  0.31058029292E+02  0.51100000000E-03 0. -1.
        -12    1    3    3    0    0  0.23540552066E+01  0.27266292788E+00  0.19719884321E+01  0.30829627575E+01  0.00000000000E+00 0.  1.
</event>
<event>
 7    1  0.9953837E-014  0.5052886E+02  0.7816164E-02  0.1300439E+00
        -11   -1    0    0    0    0  0.00000000000E+00  0.00000000000E+00  0.45593999997E+02  0.45594000000E+02  0.51100000000E-03 0. -1.
         11   -1    0    0    0    0 -0.00000000000E+00 -0.00000000000E+00 -0.45593999997E+02  0.45594000000E+02  0.51100000000E-03 0.  1.
    9900012    2    1    2    0    0 -0.11141467021E+02  0.35201794937E+02 -0.17025482312E+02  0.50528859550E+02  0.29999999089E+02 0.  0.
         12    1    1    2    0    0  0.11141467021E+02 -0.35201794937E+02  0.17025482312E+02  0.40659140450E+02  0.00000000000E+00 0. -1.
         11    1    3    3    0    0 -0.12008722349E+02  0.83340553400E+01  0.41552015252E+01  0.15196433491E+02  0.51100000000E-03 0. -1.
        -11    1    3    3    0    0 -0.17457926608E+01  0.12436127576E+02 -0.14598833386E+02  0.19256972700E+02  0.51100000000E-03 0.  1.
         12    1    3    3    0    0  0.26130479894E+01  0.14431612021E+02 -0.65818504507E+01  0.16075453359E+02  0.00000000000E+00 0. -1.
</event>
<event>
 7    1  0.9953837E-014  0.5052886E+02  0.7816164E-02  0.1300439E+00
        -11   -1    0    0    0    0  0.00000000000E+00  0.00000000000E+00  0.45593999997E+02  0.45594000000E+02  0.51100000000E-03 0. -1.
         11   -1    0    0    0    0 -0.00000000000E+00 -0.00000000000E+00 -0.45593999997E+02  0.45594000000E+02  0.51100000000E-03 0.  1.
    9900012    2    1    2    0    0 -0.38823064844E+00  0.13895972467E+02  0.38208859339E+02  0.50528859504E+02  0.29999998949E+02 0.  0.
        -12    1    1    2    0    0  0.38823064844E+00 -0.13895972467E+02 -0.38208859339E+02  0.40659140496E+02  0.00000000000E+00 0.  1.
         11    1    3    3    0    0  0.54352967988E+01  0.13733175502E+02  0.38335262665E+02  0.41082051123E+02  0.51100000000E-03 0. -1.
        -11    1    3    3    0    0 -0.44829767169E+01  0.90637444120E+00  0.33354504942E+01  0.56607265552E+01  0.51100000000E-03 0.  1.
         12    1    3    3    0    0 -0.13405507303E+01 -0.74357747601E+00 -0.34618538196E+01  0.37860818258E+01  0.00000000000E+00 0. -1.
</event>
<event>
 7    1  0.9953837E-014  0.5052886E+02  0.7816164E-02  0.1300439E+00
        -11   -1    0    0    0    0  0.00000000000E+00  0.00000000000E+00  0.45593999997E+02  0.45594000000E+02  0.51100000000E-03 0. -1.
         11   -1    0    0    0    0 -0.00000000000E+00 -0.00000000000E+00 -0.45593999997E+02  0.45594000000E+02  0.51100000000E-03 0.  1.
    9900012    2    1    2    0    0  0.34960326750E+02 -0.31664865217E+01  0.20516203917E+02  0.50528859496E+02  0.29999998924E+02 0.  0.
        -12    1    1    2    0    0 -0.34960326750E+02  0.31664865217E+01 -0.20516203917E+02  0.40659140504E+02  0.00000000000E+00 0.  1.
         11    1    3    3    0    0  0.18673368397E+02  0.92407156660E+01  0.10228096351E+02  0.23209900227E+02  0.51100000000E-03 0. -1.
        -11    1    3    3    0    0  0.76202641264E+00 -0.36119268843E+01  0.86451255113E+01  0.94002603920E+01  0.51100000000E-03 0.  1.
         12    1    3    3    0    0  0.15524931940E+02 -0.87952753035E+01  0.16429820554E+01  0.17918698877E+02  0.00000000000E+00 0. -1.
</event>
<event>
 7    1  0.9953837E-014  0.5052885E+02  0.7816164E-02  0.1300439E+00
        -11   -1    0    0    0    0  0.00000000000E+00  0.00000000000E+00  0.45593999997E+02  0.45594000000E+02  0.51100000000E-03 0. -1.
         11   -1    0    0    0    0 -0.00000000000E+00 -0.00000000000E+00 -0.45593999997E+02  0.45594000000E+02  0.51100000000E-03 0.  1.
    9900012    2    1    2    0    0 -0.69121340707E+01  0.31484157399E+02  0.24781782128E+02  0.50528849862E+02  0.29999969640E+02 0.  0.
        -12    1    1    2    0    0  0.69121340707E+01 -0.31484157399E+02 -0.24781782128E+02  0.40659150138E+02  0.00000000000E+00 0.  1.
         11    1    3    3    0    0  0.40608622113E+00  0.17703217051E+02  0.13440237244E+02  0.22230806944E+02  0.51100000000E-03 0. -1.
        -11    1    3    3    0    0 -0.75507437803E+00  0.43887691431E+01 -0.60250182013E+01  0.74921476558E+01  0.51100000000E-03 0.  1.
        -12    1    3    3    0    0 -0.65631459138E+01  0.93921712049E+01  0.17366563086E+02  0.20805895262E+02  0.00000000000E+00 0.  1.
</event>
<event>
 7    1  0.9953837E-014  0.5052886E+02  0.7816164E-02  0.1300439E+00
        -11   -1    0    0    0    0  0.00000000000E+00  0.00000000000E+00  0.45593999997E+02  0.45594000000E+02  0.51100000000E-03 0. -1.
         11   -1    0    0    0    0 -0.00000000000E+00 -0.00000000000E+00 -0.45593999997E+02  0.45594000000E+02  0.51100000000E-03 0.  1.
    9900012    2    1    2    0    0  0.13854260172E+02  0.32849187209E+02 -0.19548805709E+02  0.50528862898E+02  0.30000009266E+02 0.  0.
         12    1    1    2    0    0 -0.13854260172E+02 -0.32849187209E+02  0.19548805709E+02  0.40659137102E+02  0.00000000000E+00 0. -1.
         11    1    3    3    0    0  0.40576828437E+01  0.16130376302E+02 -0.18727386642E+02  0.25047332001E+02  0.51100000000E-03 0. -1.
        -11    1    3    3    0    0  0.11743267778E+02  0.14460302812E+02  0.46952161197E+01  0.19210667615E+02  0.51100000000E-03 0.  1.
         12    1    3    3    0    0 -0.19466904492E+01  0.22585080943E+01 -0.55166351875E+01  0.62708632826E+01  0.00000000000E+00 0. -1.
</event>
<event>
 7    1  0.9953837E-014  0.5052887E+02  0.7816164E-02  0.1300439E+00
        -11   -1    0    0    0    0  0.00000000000E+00  0.00000000000E+00  0.45593999997E+02  0.45594000000E+02  0.51100000000E-03 0.  1.
         11   -1    0    0    0    0 -0.00000000000E+00 -0.00000000000E+00 -0.45593999997E+02  0.45594000000E+02  0.51100000000E-03 0. -1.
    9900012    2    1    2    0    0  0.37317992556E+01  0.33429530292E+02 -0.22840870487E+02  0.50528865899E+02  0.30000018385E+02 0.  0.
         12    1    1    2    0    0 -0.37317992556E+01 -0.33429530292E+02  0.22840870487E+02  0.40659134101E+02  0.00000000000E+00 0. -1.
         11    1    3    3    0    0  0.49830042420E+01  0.75615455730E+00 -0.90219804896E+01  0.10334323065E+02  0.51100000000E-03 0. -1.
        -11    1    3    3    0    0  0.49920715286E+01  0.30213954547E+02 -0.89521490414E+01  0.31905247221E+02  0.51100000000E-03 0.  1.
        -12    1    3    3    0    0 -0.62432765151E+01  0.24594211885E+01 -0.48667409563E+01  0.82892956131E+01  0.00000000000E+00 0.  1.
</event>
<event>
 7    1  0.9953837E-014  0.5052885E+02  0.7816164E-02  0.1300439E+00
        -11   -1    0    0    0    0  0.00000000000E+00  0.00000000000E+00  0.45593999997E+02  0.45594000000E+02  0.51100000000E-03 0. -1.
         11   -1    0    0    0    0 -0.00000000000E+00 -0.00000000000E+00 -0.45593999997E+02  0.45594000000E+02  0.51100000000E-03 0.  1.
    9900012    2    1    2    0    0 -0.10490784543E+02  0.13448459402E+02  0.36908652493E+02  0.50528852819E+02  0.29999978628E+02 0.  0.
        -12    1    1    2    0    0  0.10490784543E+02 -0.13448459402E+02 -0.36908652493E+02  0.40659147181E+02  0.00000000000E+00 0.  1.
         11    1    3    3    0    0 -0.78558466470E+01 -0.43605696026E+01  0.47977818932E+01  0.10185656835E+02  0.51100000000E-03 0. -1.
        -11    1    3    3    0    0 -0.54491008541E+01  0.19899779007E+02  0.24994766865E+02  0.32410372962E+02  0.51100000000E-03 0.  1.
        -12    1    3    3    0    0  0.28141629578E+01 -0.20907500025E+01  0.71161037357E+01  0.79328230223E+01  0.00000000000E+00 0.  1.
</event>
<event>
 7    1  0.9953837E-014  0.5052885E+02  0.7816164E-02  0.1300439E+00
        -11   -1    0    0    0    0  0.00000000000E+00  0.00000000000E+00  0.45593999997E+02  0.45594000000E+02  0.51100000000E-03 0. -1.
         11   -1    0    0    0    0 -0.00000000000E+00 -0.00000000000E+00 -0.45593999997E+02  0.45594000000E+02  0.51100000000E-03 0.  1.
    9900012    2    1    2    0    0 -0.14759504902E+02  0.55993290304E+01 -0.37469600154E+02  0.50528850891E+02  0.29999972770E+02 0.  0.
         12    1    1    2    0    0  0.14759504902E+02 -0.55993290304E+01  0.37469600154E+02  0.40659149109E+02  0.00000000000E+00 0. -1.
         11    1    3    3    0    0 -0.42168127834E+01  0.46045538555E+01  0.14687581442E+01  0.64140998594E+01  0.51100000000E-03 0. -1.
        -11    1    3    3    0    0 -0.71821011652E+01  0.15764895088E+00 -0.39883100229E+02  0.40524919673E+02  0.51100000000E-03 0.  1.
        -12    1    3    3    0    0 -0.33605909532E+01  0.83712622396E+00  0.94474193125E+00  0.35898313590E+01  0.00000000000E+00 0.  1.
</event>
<event>
 7    1  0.9953837E-014  0.5052886E+02  0.7816164E-02  0.1300439E+00
        -11   -1    0    0    0    0  0.00000000000E+00  0.00000000000E+00  0.45593999997E+02  0.45594000000E+02  0.51100000000E-03 0. -1.
         11   -1    0    0    0    0 -0.00000000000E+00 -0.00000000000E+00 -0.45593999997E+02  0.45594000000E+02  0.51100000000E-03 0.  1.
    9900012    2    1    2    0    0 -0.10479465351E+02  0.13142175562E+02  0.37022015493E+02  0.50528860760E+02  0.30000002767E+02 0.  0.
        -12    1    1    2    0    0  0.10479465351E+02 -0.13142175562E+02 -0.37022015493E+02  0.40659139240E+02  0.00000000000E+00 0.  1.
         11    1    3    3    0    0  0.10363732530E+01 -0.12637123591E+01  0.20146018585E+01  0.25941586990E+01  0.51100000000E-03 0. -1.
        -11    1    3    3    0    0  0.12749236461E+01  0.17595486377E+02  0.11735188283E+02  0.21188232947E+02  0.51100000000E-03 0.  1.
        -12    1    3    3    0    0 -0.12790762250E+02 -0.31895984553E+01  0.23272225352E+02  0.26746469114E+02  0.00000000000E+00 0.  1.
</event>
<event>
 7    1  0.9953837E-014  0.5052887E+02  0.7816164E-02  0.1300439E+00
        -11   -1    0    0    0    0  0.00000000000E+00  0.00000000000E+00  0.45593999997E+02  0.45594000000E+02  0.51100000000E-03 0. -1.
         11   -1    0    0    0    0 -0.00000000000E+00 -0.00000000000E+00 -0.45593999997E+02  0.45594000000E+02  0.51100000000E-03 0.  1.
    9900012    2    1    2    0    0 -0.39089740117E+02 -0.90678246706E+01 -0.65522121987E+01  0.50528871734E+02  0.30000036122E+02 0.  0.
         12    1    1    2    0    0  0.39089740117E+02  0.90678246706E+01  0.65522121987E+01  0.40659128266E+02  0.00000000000E+00 0. -1.
         11    1    3    3    0    0 -0.28764547791E+01 -0.58475492976E+01 -0.38220256032E+01  0.75548464483E+01  0.51100000000E-03 0. -1.
        -11    1    3    3    0    0 -0.12165798098E+02  0.77032818927E+00  0.97304608228E+01  0.15597497138E+02  0.51100000000E-03 0.  1.
        -12    1    3    3    0    0 -0.24047487240E+02 -0.39906035622E+01 -0.12460647418E+02  0.27376528148E+02  0.00000000000E+00 0.  1.
</event>
<event>
 7    1  0.9953837E-014  0.5052884E+02  0.7816164E-02  0.1300439E+00
        -11   -1    0    0    0    0  0.00000000000E+00  0.00000000000E+00  0.45593999997E+02  0.45594000000E+02  0.51100000000E-03 0. -1.
         11   -1    0    0    0    0 -0.00000000000E+00 -0.00000000000E+00 -0.45593999997E+02  0.45594000000E+02  0.51100000000E-03 0.  1.
    9900012    2    1    2    0    0  0.15374575640E+02 -0.59194038898E+01 -0.37171898444E+02  0.50528844174E+02  0.29999952352E+02 0.  0.
         12    1    1    2    0    0 -0.15374575640E+02  0.59194038898E+01  0.37171898444E+02  0.40659155826E+02  0.00000000000E+00 0. -1.
         11    1    3    3    0    0  0.18326889370E+02  0.76628550244E+01 -0.24776411963E+02  0.31756334976E+02  0.51100000000E-03 0. -1.
        -11    1    3    3    0    0 -0.90092823245E+00 -0.70067560609E+01 -0.76202779952E+01  0.10391099035E+02  0.51100000000E-03 0.  1.
         12    1    3    3    0    0 -0.20513854972E+01 -0.65755028533E+01 -0.47752084860E+01  0.83814101628E+01  0.00000000000E+00 0. -1.
</event>
<event>
 7    1  0.9953837E-014  0.5052886E+02  0.7816164E-02  0.1300439E+00
        -11   -1    0    0    0    0  0.00000000000E+00  0.00000000000E+00  0.45593999997E+02  0.45594000000E+02  0.51100000000E-03 0. -1.
         11   -1    0    0    0    0 -0.00000000000E+00 -0.00000000000E+00 -0.45593999997E+02  0.45594000000E+02  0.51100000000E-03 0.  1.
    9900012    2    1    2    0    0  0.11601359480E+02 -0.29426311480E+02 -0.25547334503E+02  0.50528860199E+02  0.30000001062E+02 0.  0.
         12    1    1    2    0    0 -0.11601359480E+02  0.29426311480E+02  0.25547334503E+02  0.40659139801E+02  0.00000000000E+00 0. -1.
         11    1    3    3    0    0 -0.33249734560E+01  0.15137106560E+01 -0.59800059427E+01  0.70076557970E+01  0.51100000000E-03 0. -1.
        -11    1    3    3    0    0  0.16302204446E+02 -0.19039020509E+02 -0.67100596017E+01  0.25947467542E+02  0.51100000000E-03 0.  1.
        -12    1    3    3    0    0 -0.13758715107E+01 -0.11901001628E+02 -0.12857268959E+02  0.17573736860E+02  0.00000000000E+00 0.  1.
</event>
<event>
 7    1  0.9953837E-014  0.5052887E+02  0.7816164E-02  0.1300439E+00
        -11   -1    0    0    0    0  0.00000000000E+00  0.00000000000E+00  0.45593999997E+02  0.45594000000E+02  0.51100000000E-03 0. -1.
         11   -1    0    0    0    0 -0.00000000000E+00 -0.00000000000E+00 -0.45593999997E+02  0.45594000000E+02  0.51100000000E-03 0.  1.
    9900012    2    1    2    0    0 -0.18041908896E+02  0.19573426341E+02  0.30733291631E+02  0.50528871753E+02  0.30000036180E+02 0.  0.
        -12    1    1    2    0    0  0.18041908896E+02 -0.19573426341E+02 -0.30733291631E+02  0.40659128247E+02  0.00000000000E+00 0.  1.
         11    1    3    3    0    0  0.36806922799E+01 -0.12250118909E+01 -0.15382466737E+01  0.41730507883E+01  0.51100000000E-03 0. -1.
        -11    1    3    3    0    0 -0.10147056668E+02  0.22656698089E+01  0.16126414585E+02  0.19187424692E+02  0.51100000000E-03 0.  1.
         12    1    3    3    0    0 -0.11575544508E+02  0.18532768423E+02  0.16145123720E+02  0.27168396272E+02  0.00000000000E+00 0. -1.
</event>
<event>
 7    1  0.1508832E-013  0.5052881E+02  0.7816164E-02  0.1300439E+00
        -11   -1    0    0    0    0  0.00000000000E+00  0.00000000000E+00  0.45593999997E+02  0.45594000000E+02  0.51100000000E-03 0. -1.
         11   -1    0    0    0    0 -0.00000000000E+00 -0.00000000000E+00 -0.45593999997E+02  0.45594000000E+02  0.51100000000E-03 0.  1.
    9900012    2    1    2    0    0  0.99358564504E+00  0.26231244489E+01  0.40562318529E+02  0.50528810648E+02  0.29999850446E+02 0.  0.
        -12    1    1    2    0    0 -0.99358564504E+00 -0.26231244489E+01 -0.40562318529E+02  0.40659189352E+02  0.00000000000E+00 0.  1.
         11    1    3    3    0    0 -0.84025569152E+01  0.67711056519E+01  0.85747718699E+01  0.13783234285E+02  0.51100000000E-03 0. -1.
        -11    1    3    3    0    0  0.10469648173E+02  0.29597328210E+01  0.18504111907E+02  0.21465686781E+02  0.51100000000E-03 0.  1.
         12    1    3    3    0    0 -0.10735056130E+01 -0.71077140240E+01  0.13483434752E+02  0.15279889582E+02  0.00000000000E+00 0. -1.
</event>
<event>
 7    1  0.9953837E-014  0.5052886E+02  0.7816164E-02  0.1300439E+00
        -11   -1    0    0    0    0  0.00000000000E+00  0.00000000000E+00  0.45593999997E+02  0.45594000000E+02  0.51100000000E-03 0. -1.
         11   -1    0    0    0    0 -0.00000000000E+00 -0.00000000000E+00 -0.45593999997E+02  0.45594000000E+02  0.51100000000E-03 0.  1.
    9900012    2    1    2    0    0  0.32918480501E+02 -0.69275181600E+01 -0.22837449444E+02  0.50528856336E+02  0.29999989319E+02 0.  0.
         12    1    1    2    0    0 -0.32918480501E+02  0.69275181600E+01  0.22837449444E+02  0.40659143664E+02  0.00000000000E+00 0. -1.
         11    1    3    3    0    0  0.30387439456E+02 -0.28544538418E+01 -0.23383190102E+02  0.38448900674E+02  0.51100000000E-03 0. -1.
        -11    1    3    3    0    0  0.37604968040E+01  0.30483400218E+01  0.20559678309E+00  0.48452021011E+01  0.51100000000E-03 0.  1.
         12    1    3    3    0    0 -0.12294557586E+01 -0.71214043401E+01  0.34014387466E+00  0.72347535613E+01  0.00000000000E+00 0. -1.
</event>
<event>
 7    1  0.9953837E-014  0.5052886E+02  0.7816164E-02  0.1300439E+00
        -11   -1    0    0    0    0  0.00000000000E+00  0.00000000000E+00  0.45593999997E+02  0.45594000000E+02  0.51100000000E-03 0.  1.
         11   -1    0    0    0    0 -0.00000000000E+00 -0.00000000000E+00 -0.45593999997E+02  0.45594000000E+02  0.51100000000E-03 0. -1.
    9900012    2    1    2    0    0 -0.23524060228E+01  0.38839007430E+02  0.11796738988E+02  0.50528863720E+02  0.30000011764E+02 0.  0.
        -12    1    1    2    0    0  0.23524060228E+01 -0.38839007430E+02 -0.11796738988E+02  0.40659136280E+02  0.00000000000E+00 0.  1.
         11    1    3    3    0    0 -0.52927203897E+01 -0.12063625806E+01  0.69848935137E+01  0.88462951261E+01  0.51100000000E-03 0. -1.
        -11    1    3    3    0    0 -0.37855145253E+01  0.14350772237E+02  0.19188695450E+01  0.14965187757E+02  0.51100000000E-03 0.  1.
         12    1    3    3    0    0  0.67258288922E+01  0.25694597774E+02  0.28929759292E+01  0.26717380837E+02  0.00000000000E+00 0. -1.
</event>
<event>
 7    1  0.9953837E-014  0.5052885E+02  0.7816164E-02  0.1300439E+00
        -11   -1    0    0    0    0  0.00000000000E+00  0.00000000000E+00  0.45593999997E+02  0.45594000000E+02  0.51100000000E-03 0. -1.
         11   -1    0    0    0    0 -0.00000000000E+00 -0.00000000000E+00 -0.45593999997E+02  0.45594000000E+02  0.51100000000E-03 0.  1.
    9900012    2    1    2    0    0  0.34225425269E+02  0.18830682287E+02  0.11277962496E+02  0.50528846439E+02  0.29999959235E+02 0.  0.
        -12    1    1    2    0    0 -0.34225425269E+02 -0.18830682287E+02 -0.11277962496E+02  0.40659153561E+02  0.00000000000E+00 0.  1.
         11    1    3    3    0    0  0.18851041858E+02  0.34538139564E+01  0.44077862800E+01  0.19665177094E+02  0.51100000000E-03 0. -1.
        -11    1    3    3    0    0  0.18841308009E+02  0.17706084859E+02  0.52454949082E+01  0.26382106542E+02  0.51100000000E-03 0.  1.
        -12    1    3    3    0    0 -0.34669245973E+01 -0.23292165288E+01  0.16246813083E+01  0.44815628028E+01  0.00000000000E+00 0.  1.
</event>
<event>
 7    1  0.9953837E-014  0.5052884E+02  0.7816164E-02  0.1300439E+00
        -11   -1    0    0    0    0  0.00000000000E+00  0.00000000000E+00  0.45593999997E+02  0.45594000000E+02  0.51100000000E-03 0. -1.
         11   -1    0    0    0    0 -0.00000000000E+00 -0.00000000000E+00 -0.45593999997E+02  0.45594000000E+02  0.51100000000E-03 0.  1.
    9900012    2    1    2    0    0  0.86392836384E+01 -0.32745085919E+02 -0.22500871780E+02  0.50528842305E+02  0.29999946669E+02 0.  0.
         12    1    1    2    0    0 -0.86392836384E+01  0.32745085919E+02  0.22500871780E+02  0.40659157695E+02  0.00000000000E+00 0. -1.
         11    1    3    3    0    0 -0.51154837877E+01 -0.30206200458E+01  0.12093749362E+01  0.60625826048E+01  0.51100000000E-03 0. -1.
        -11    1    3    3    0    0  0.51811881908E+01 -0.25097279152E+02 -0.96985501347E+01  0.27400365087E+02  0.51100000000E-03 0.  1.
        -12    1    3    3    0    0  0.85735792353E+01 -0.46271867214E+01 -0.14011696581E+02  0.17065894613E+02  0.00000000000E+00 0.  1.
</event>
<event>
 7    1  0.9953837E-014  0.5052887E+02  0.7816164E-02  0.1300439E+00
        -11   -1    0    0    0    0  0.00000000000E+00  0.00000000000E+00  0.45593999997E+02  0.45594000000E+02  0.51100000000E-03 0. -1.
         11   -1    0    0    0    0 -0.00000000000E+00 -0.00000000000E+00 -0.45593999997E+02  0.45594000000E+02  0.51100000000E-03 0.  1.
    9900012    2    1    2    0    0 -0.63971429729E+01 -0.54115287301E+01  0.39786393398E+02  0.50528865959E+02  0.30000018568E+02 0.  0.
        -12    1    1    2    0    0  0.63971429729E+01  0.54115287301E+01 -0.39786393398E+02  0.40659134041E+02  0.00000000000E+00 0.  1.
         11    1    3    3    0    0  0.88845207202E+00  0.10417608706E+02  0.13771371895E+02  0.17290650722E+02  0.51100000000E-03 0. -1.
        -11    1    3    3    0    0 -0.23941921619E+01 -0.15463021306E+02  0.18092907965E+02  0.23920503818E+02  0.51100000000E-03 0.  1.
         12    1    3    3    0    0 -0.48914028830E+01 -0.36611613043E+00  0.79221135372E+01  0.93177114187E+01  0.00000000000E+00 0. -1.
</event>
<event>
 7    1  0.9953837E-014  0.5052885E+02  0.7816164E-02  0.1300439E+00
        -11   -1    0    0    0    0  0.00000000000E+00  0.00000000000E+00  0.45593999997E+02  0.45594000000E+02  0.51100000000E-03 0. -1.
         11   -1    0    0    0    0 -0.00000000000E+00 -0.00000000000E+00 -0.45593999997E+02  0.45594000000E+02  0.51100000000E-03 0.  1.
    9900012    2    1    2    0    0  0.16696369329E+02  0.16289025041E+02  0.33302633516E+02  0.50528849927E+02  0.29999969839E+02 0.  0.
        -12    1    1    2    0    0 -0.16696369329E+02 -0.16289025041E+02 -0.33302633516E+02  0.40659150073E+02  0.00000000000E+00 0.  1.
         11    1    3    3    0    0  0.30196651758E+01  0.13976824811E+02  0.17928496987E+02  0.22932531785E+02  0.51100000000E-03 0. -1.
        -11    1    3    3    0    0  0.11341157855E+02 -0.55526305652E+01  0.33930507125E+01  0.13075410551E+02  0.51100000000E-03 0.  1.
        -12    1    3    3    0    0  0.23355462980E+01  0.78648307953E+01  0.11981085816E+02  0.14520907592E+02  0.00000000000E+00 0.  1.
</event>
<event>
 7    1  0.9953837E-014  0.5052886E+02  0.7816164E-02  0.1300439E+00
        -11   -1    0    0    0    0  0.00000000000E+00  0.00000000000E+00  0.45593999997E+02  0.45594000000E+02  0.51100000000E-03 0. -1.
         11   -1    0    0    0    0 -0.00000000000E+00 -0.00000000000E+00 -0.45593999997E+02  0.45594000000E+02  0.51100000000E-03 0.  1.
    9900012    2    1    2    0    0 -0.17322611305E+02 -0.27226839369E+02 -0.24734427670E+02  0.50528861339E+02  0.30000004526E+02 0.  0.
         12    1    1    2    0    0  0.17322611305E+02  0.27226839369E+02  0.24734427670E+02  0.40659138661E+02  0.00000000000E+00 0. -1.
         11    1    3    3    0    0 -0.57025780874E+01  0.36013287703E+01 -0.20177498939E+01  0.70399062956E+01  0.51100000000E-03 0. -1.
        -11    1    3    3    0    0 -0.19745106740E-01 -0.13161949487E+02 -0.17178263839E+02  0.21640934660E+02  0.51100000000E-03 0.  1.
         12    1    3    3    0    0 -0.11600288111E+02 -0.17666218653E+02 -0.55384139373E+01  0.21848020384E+02  0.00000000000E+00 0. -1.
</event>
<event>
 7    1  0.1231912E-013  0.5052887E+02  0.7816164E-02  0.1300439E+00
        -11   -1    0    0    0    0  0.00000000000E+00  0.00000000000E+00  0.45593999997E+02  0.45594000000E+02  0.51100000000E-03 0. -1.
         11   -1    0    0    0    0 -0.00000000000E+00 -0.00000000000E+00 -0.45593999997E+02  0.45594000000E+02  0.51100000000E-03 0.  1.
    9900012    2    1    2    0    0  0.28197243480E+02 -0.67327185490E+01  0.28508791603E+02  0.50528865263E+02  0.30000016453E+02 0.  0.
        -12    1    1    2    0    0 -0.28197243480E+02  0.67327185490E+01 -0.28508791603E+02  0.40659134737E+02  0.00000000000E+00 0.  1.
         11    1    3    3    0    0 -0.18741211096E+01 -0.49627882547E+01  0.67792163831E+01  0.86080992225E+01  0.51100000000E-03 0. -1.
        -11    1    3    3    0    0  0.21065631153E+02 -0.14233016241E+01  0.32522396530E+01  0.21362669927E+02  0.51100000000E-03 0.  1.
         12    1    3    3    0    0  0.90057334367E+01 -0.34662867023E+00  0.18477335567E+02  0.20558096113E+02  0.00000000000E+00 0. -1.
</event>
<event>
 7    1  0.9953837E-014  0.5052886E+02  0.7816164E-02  0.1300439E+00
        -11   -1    0    0    0    0  0.00000000000E+00  0.00000000000E+00  0.45593999997E+02  0.45594000000E+02  0.51100000000E-03 0. -1.
         11   -1    0    0    0    0 -0.00000000000E+00 -0.00000000000E+00 -0.45593999997E+02  0.45594000000E+02  0.51100000000E-03 0.  1.
    9900012    2    1    2    0    0 -0.17737645047E+02  0.33194052374E+02  0.15384942069E+02  0.50528860716E+02  0.30000002633E+02 0.  0.
        -12    1    1    2    0    0  0.17737645047E+02 -0.33194052374E+02 -0.15384942069E+02  0.40659139284E+02  0.00000000000E+00 0.  1.
         11    1    3    3    0    0 -0.13446422376E+02  0.96194865331E+01  0.18788511467E+02  0.25026964643E+02  0.51100000000E-03 0. -1.
        -11    1    3    3    0    0 -0.34981393399E+01  0.42189155068E+01 -0.27189332984E+01  0.61179102181E+01  0.51100000000E-03 0.  1.
         12    1    3    3    0    0 -0.79308333117E+00  0.19355650334E+02 -0.68463609916E+00  0.19383985855E+02  0.00000000000E+00 0. -1.
</event>
<event>
 7    1  0.9953837E-014  0.5052886E+02  0.7816164E-02  0.1300439E+00
        -11   -1    0    0    0    0  0.00000000000E+00  0.00000000000E+00  0.45593999997E+02  0.45594000000E+02  0.51100000000E-03 0. -1.
         11   -1    0    0    0    0 -0.00000000000E+00 -0.00000000000E+00 -0.45593999997E+02  0.45594000000E+02  0.51100000000E-03 0.  1.
    9900012    2    1    2    0    0 -0.11464959493E+02  0.31720047886E+02 -0.22705917258E+02  0.50528863111E+02  0.30000009912E+02 0.  0.
         12    1    1    2    0    0  0.11464959493E+02 -0.31720047886E+02  0.22705917258E+02  0.40659136889E+02  0.00000000000E+00 0. -1.
         11    1    3    3    0    0 -0.14920480927E+02  0.15159142987E+02 -0.20499454697E+02  0.29540616282E+02  0.51100000000E-03 0.  1.
        -11    1    3    3    0    0  0.74025203907E+01  0.12856393677E+02 -0.38581549809E+01  0.15328715753E+02  0.51100000000E-03 0. -1.
         12    1    3    3    0    0 -0.39469989567E+01  0.37045112211E+01  0.16516924194E+01  0.56595310760E+01  0.00000000000E+00 0. -1.
</event>
<event>
 7    1  0.9953837E-014  0.5052886E+02  0.7816164E-02  0.1300439E+00
        -11   -1    0    0    0    0  0.00000000000E+00  0.00000000000E+00  0.45593999997E+02  0.45594000000E+02  0.51100000000E-03 0. -1.
         11   -1    0    0    0    0 -0.00000000000E+00 -0.00000000000E+00 -0.45593999997E+02  0.45594000000E+02  0.51100000000E-03 0.  1.
    9900012    2    1    2    0    0  0.20099082208E+02  0.18962405469E+01 -0.35293016034E+02  0.50528858167E+02  0.29999994884E+02 0.  0.
         12    1    1    2    0    0 -0.20099082208E+02 -0.18962405469E+01  0.35293016034E+02  0.40659141833E+02  0.00000000000E+00 0. -1.
         11    1    3    3    0    0 -0.49571751892E+01  0.84905616579E+01 -0.66800421925E+01  0.11886386628E+02  0.51100000000E-03 0. -1.
        -11    1    3    3    0    0  0.19551807794E+02 -0.45044430018E+01 -0.21473038110E+02  0.29388000285E+02  0.51100000000E-03 0.  1.
         12    1    3    3    0    0  0.55044496028E+01 -0.20898781091E+01 -0.71399357314E+01  0.92544712539E+01  0.00000000000E+00 0. -1.
</event>
<event>
 7    1  0.9953837E-014  0.5052885E+02  0.7816164E-02  0.1300439E+00
        -11   -1    0    0    0    0  0.00000000000E+00  0.00000000000E+00  0.45593999997E+02  0.45594000000E+02  0.51100000000E-03 0. -1.
         11   -1    0    0    0    0 -0.00000000000E+00 -0.00000000000E+00 -0.45593999997E+02  0.45594000000E+02  0.51100000000E-03 0.  1.
    9900012    2    1    2    0    0  0.36369729760E+02 -0.72298424318E+01 -0.16677476401E+02  0.50528854860E+02  0.29999984832E+02 0.  0.
         12    1    1    2    0    0 -0.36369729760E+02  0.72298424318E+01  0.16677476401E+02  0.40659145140E+02  0.00000000000E+00 0. -1.
         11    1    3    3    0    0  0.99345145769E+01 -0.48715039815E+01  0.45816622414E+01  0.11975715431E+02  0.51100000000E-03 0. -1.
        -11    1    3    3    0    0  0.17021657468E+02  0.73046471065E+01 -0.10455384581E+02  0.21269926170E+02  0.51100000000E-03 0.  1.
         12    1    3    3    0    0  0.94135577156E+01 -0.96629855568E+01 -0.10803754061E+02  0.17283213259E+02  0.00000000000E+00 0. -1.
</event>
<event>
 7    1  0.9953837E-014  0.5052886E+02  0.7816164E-02  0.1300439E+00
        -11   -1    0    0    0    0  0.00000000000E+00  0.00000000000E+00  0.45593999997E+02  0.45594000000E+02  0.51100000000E-03 0. -1.
         11   -1    0    0    0    0 -0.00000000000E+00 -0.00000000000E+00 -0.45593999997E+02  0.45594000000E+02  0.51100000000E-03 0.  1.
    9900012    2    1    2    0    0 -0.13960055918E+02 -0.21819064238E+02  0.31340244636E+02  0.50528860077E+02  0.30000000689E+02 0.  0.
        -12    1    1    2    0    0  0.13960055918E+02  0.21819064238E+02 -0.31340244636E+02  0.40659139923E+02  0.00000000000E+00 0.  1.
         11    1    3    3    0    0 -0.22302489520E+01 -0.62857865778E+01  0.12627244736E+01  0.67881953896E+01  0.51100000000E-03 0. -1.
        -11    1    3    3    0    0  0.36904304027E+01  0.47678489011E+01  0.37892605443E+01  0.71211063350E+01  0.51100000000E-03 0.  1.
        -12    1    3    3    0    0 -0.15420237369E+02 -0.20301126561E+02  0.26288259618E+02  0.36619558352E+02  0.00000000000E+00 0.  1.
</event>
<event>
 7    1  0.9953837E-014  0.5052886E+02  0.7816164E-02  0.1300439E+00
        -11   -1    0    0    0    0  0.00000000000E+00  0.00000000000E+00  0.45593999997E+02  0.45594000000E+02  0.51100000000E-03 0. -1.
         11   -1    0    0    0    0 -0.00000000000E+00 -0.00000000000E+00 -0.45593999997E+02  0.45594000000E+02  0.51100000000E-03 0.  1.
    9900012    2    1    2    0    0 -0.16522485489E+02 -0.23323054748E+02 -0.28917270221E+02  0.50528856791E+02  0.29999990701E+02 0.  0.
         12    1    1    2    0    0  0.16522485489E+02  0.23323054748E+02  0.28917270221E+02  0.40659143209E+02  0.00000000000E+00 0. -1.
         11    1    3    3    0    0  0.19183439857E+01  0.23686875220E+01  0.14384216427E+01  0.33704274666E+01  0.51100000000E-03 0. -1.
        -11    1    3    3    0    0 -0.18269605487E+02 -0.28134805664E+02 -0.29086100803E+02  0.44399853992E+02  0.51100000000E-03 0.  1.
        -12    1    3    3    0    0 -0.17122398787E+00  0.24430633937E+01 -0.12695910607E+01  0.27585753317E+01  0.00000000000E+00 0.  1.
</event>
<event>
 7    1  0.9953837E-014  0.5052886E+02  0.7816164E-02  0.1300439E+00
        -11   -1    0    0    0    0  0.00000000000E+00  0.00000000000E+00  0.45593999997E+02  0.45594000000E+02  0.51100000000E-03 0. -1.
         11   -1    0    0    0    0 -0.00000000000E+00 -0.00000000000E+00 -0.45593999997E+02  0.45594000000E+02  0.51100000000E-03 0.  1.
    9900012    2    1    2    0    0 -0.13074621972E+02  0.34414121525E+02  0.17259431793E+02  0.50528862210E+02  0.30000007173E+02 0.  0.
        -12    1    1    2    0    0  0.13074621972E+02 -0.34414121525E+02 -0.17259431793E+02  0.40659137790E+02  0.00000000000E+00 0.  1.
         11    1    3    3    0    0 -0.59705729502E+01 -0.11421134813E+01  0.16902204468E+01  0.63094381666E+01  0.51100000000E-03 0. -1.
        -11    1    3    3    0    0 -0.12410115834E+02  0.31255301298E+02  0.91627428846E+01  0.34854851766E+02  0.51100000000E-03 0.  1.
        -12    1    3    3    0    0  0.53060668119E+01  0.43009337082E+01  0.64064684616E+01  0.93645722766E+01  0.00000000000E+00 0.  1.
</event>
<event>
 7    1  0.9953837E-014  0.5052886E+02  0.7816164E-02  0.1300439E+00
        -11   -1    0    0    0    0  0.00000000000E+00  0.00000000000E+00  0.45593999997E+02  0.45594000000E+02  0.51100000000E-03 0. -1.
         11   -1    0    0    0    0 -0.00000000000E+00 -0.00000000000E+00 -0.45593999997E+02  0.45594000000E+02  0.51100000000E-03 0.  1.
    9900012    2    1    2    0    0  0.57830469476E+01 -0.15849679347E+02  0.36993374842E+02  0.50528858966E+02  0.29999997313E+02 0.  0.
        -12    1    1    2    0    0 -0.57830469476E+01  0.15849679347E+02 -0.36993374842E+02  0.40659141034E+02  0.00000000000E+00 0.  1.
         11    1    3    3    0    0  0.24093519234E+01 -0.29734456391E+01  0.11268858912E+02  0.11900988913E+02  0.51100000000E-03 0. -1.
        -11    1    3    3    0    0  0.30097122953E+01 -0.15768546152E+02  0.37821755149E+01  0.16492733786E+02  0.51100000000E-03 0.  1.
        -12    1    3    3    0    0  0.36398272890E+00  0.28923124433E+01  0.21942340415E+02  0.22135136267E+02  0.00000000000E+00 0.  1.
</event>
<event>
 7    1  0.9953837E-014  0.5052885E+02  0.7816164E-02  0.1300439E+00
        -11   -1    0    0    0    0  0.00000000000E+00  0.00000000000E+00  0.45593999997E+02  0.45594000000E+02  0.51100000000E-03 0. -1.
         11   -1    0    0    0    0 -0.00000000000E+00 -0.00000000000E+00 -0.45593999997E+02  0.45594000000E+02  0.51100000000E-03 0.  1.
    9900012    2    1    2    0    0 -0.21157507402E+02  0.31009813100E+02  0.15617868471E+02  0.50528850433E+02  0.29999971376E+02 0.  0.
        -12    1    1    2    0    0  0.21157507402E+02 -0.31009813100E+02 -0.15617868471E+02  0.40659149567E+02  0.00000000000E+00 0.  1.
         11    1    3    3    0    0 -0.91263506355E+01  0.14538750906E+02  0.85783439869E+01  0.19189933290E+02  0.51100000000E-03 0. -1.
        -11    1    3    3    0    0  0.52228172141E+01  0.63806711071E+01 -0.32439429174E+01  0.88608097453E+01  0.51100000000E-03 0.  1.
        -12    1    3    3    0    0 -0.17253973981E+02  0.10090391086E+02  0.10283467401E+02  0.22478107398E+02  0.00000000000E+00 0.  1.
</event>
<event>
 7    1  0.9953837E-014  0.5052886E+02  0.7816164E-02  0.1300439E+00
        -11   -1    0    0    0    0  0.00000000000E+00  0.00000000000E+00  0.45593999997E+02  0.45594000000E+02  0.51100000000E-03 0. -1.
         11   -1    0    0    0    0 -0.00000000000E+00 -0.00000000000E+00 -0.45593999997E+02  0.45594000000E+02  0.51100000000E-03 0.  1.
    9900012    2    1    2    0    0  0.29279556791E+02  0.27836531790E+02 -0.45826622063E+01  0.50528859073E+02  0.29999997639E+02 0.  0.
         12    1    1    2    0    0 -0.29279556791E+02 -0.27836531790E+02  0.45826622063E+01  0.40659140927E+02  0.00000000000E+00 0. -1.
         11    1    3    3    0    0  0.99178524521E+01  0.95052542792E+00  0.45986113959E+01  0.10973355133E+02  0.51100000000E-03 0. -1.
        -11    1    3    3    0    0  0.16717328614E+02  0.23288659841E+02 -0.14893445085E+02  0.32305502008E+02  0.51100000000E-03 0.  1.
        -12    1    3    3    0    0  0.26443757250E+01  0.35973465209E+01  0.57121714831E+01  0.72500019323E+01  0.00000000000E+00 0.  1.
</event>
<event>
 7    1  0.9953837E-014  0.5052885E+02  0.7816164E-02  0.1300439E+00
        -11   -1    0    0    0    0  0.00000000000E+00  0.00000000000E+00  0.45593999997E+02  0.45594000000E+02  0.51100000000E-03 0. -1.
         11   -1    0    0    0    0 -0.00000000000E+00 -0.00000000000E+00 -0.45593999997E+02  0.45594000000E+02  0.51100000000E-03 0.  1.
    9900012    2    1    2    0    0  0.29914647654E+02  0.16571052754E+02  0.21992733085E+02  0.50528852909E+02  0.29999978902E+02 0.  0.
        -12    1    1    2    0    0 -0.29914647654E+02 -0.16571052754E+02 -0.21992733085E+02  0.40659147091E+02  0.00000000000E+00 0.  1.
         11    1    3    3    0    0  0.20331884193E+02  0.14990258664E+02  0.17927926374E+02  0.30975860181E+02  0.51100000000E-03 0. -1.
        -11    1    3    3    0    0  0.40474272449E+01  0.68880002971E+01 -0.35532600053E+01  0.87436761332E+01  0.51100000000E-03 0.  1.
         12    1    3    3    0    0  0.55353362161E+01 -0.53072062067E+01  0.76180667161E+01  0.10809316594E+02  0.00000000000E+00 0. -1.
</event>
<event>
 7    1  0.9953837E-014  0.5052886E+02  0.7816164E-02  0.1300439E+00
        -11   -1    0    0    0    0  0.00000000000E+00  0.00000000000E+00  0.45593999997E+02  0.45594000000E+02  0.51100000000E-03 0. -1.
         11   -1    0    0    0    0 -0.00000000000E+00 -0.00000000000E+00 -0.45593999997E+02  0.45594000000E+02  0.51100000000E-03 0.  1.
    9900012    2    1    2    0    0  0.70320197109E+01  0.24155000191E+02  0.31941389081E+02  0.50528859922E+02  0.30000000220E+02 0.  0.
        -12    1    1    2    0    0 -0.70320197109E+01 -0.24155000191E+02 -0.31941389081E+02  0.40659140078E+02  0.00000000000E+00 0.  1.
         11    1    3    3    0    0  0.10382882285E+02  0.21250741218E+02  0.29518578903E+02  0.37825186682E+02  0.51100000000E-03 0. -1.
        -11    1    3    3    0    0 -0.73266991268E+01  0.31555496402E+01  0.32857305010E+01  0.86275163757E+01  0.51100000000E-03 0.  1.
        -12    1    3    3    0    0  0.39758365531E+01 -0.25129066680E+00 -0.86292032337E+00  0.40761568641E+01  0.00000000000E+00 0.  1.
</event>
<event>
 7    1  0.9953837E-014  0.5052885E+02  0.7816164E-02  0.1300439E+00
        -11   -1    0    0    0    0  0.00000000000E+00  0.00000000000E+00  0.45593999997E+02  0.45594000000E+02  0.51100000000E-03 0. -1.
         11   -1    0    0    0    0 -0.00000000000E+00 -0.00000000000E+00 -0.45593999997E+02  0.45594000000E+02  0.51100000000E-03 0.  1.
    9900012    2    1    2    0    0  0.28725822403E+02  0.21674649490E+02 -0.18926246584E+02  0.50528854498E+02  0.29999983731E+02 0.  0.
         12    1    1    2    0    0 -0.28725822403E+02 -0.21674649490E+02  0.18926246584E+02  0.40659145502E+02  0.00000000000E+00 0. -1.
         11    1    3    3    0    0  0.17623050003E+02 -0.28217469783E+00 -0.53787314409E+01  0.18427758034E+02  0.51100000000E-03 0. -1.
        -11    1    3    3    0    0  0.71619836229E+01  0.23667059753E+02 -0.10672258747E+02  0.26931781111E+02  0.51100000000E-03 0.  1.
        -12    1    3    3    0    0  0.39407887762E+01 -0.17102355657E+01 -0.28752563968E+01  0.51693153527E+01  0.00000000000E+00 0.  1.
</event>
<event>
 7    1  0.9953837E-014  0.5052885E+02  0.7816164E-02  0.1300439E+00
        -11   -1    0    0    0    0  0.00000000000E+00  0.00000000000E+00  0.45593999997E+02  0.45594000000E+02  0.51100000000E-03 0. -1.
         11   -1    0    0    0    0 -0.00000000000E+00 -0.00000000000E+00 -0.45593999997E+02  0.45594000000E+02  0.51100000000E-03 0.  1.
    9900012    2    1    2    0    0  0.53423320629E+01 -0.28869325342E+02 -0.28128058721E+02  0.50528854104E+02  0.29999982535E+02 0.  0.
         12    1    1    2    0    0 -0.53423320629E+01  0.28869325342E+02  0.28128058721E+02  0.40659145896E+02  0.00000000000E+00 0. -1.
         11    1    3    3    0    0  0.38207512632E+01 -0.13079127582E+02 -0.46590182848E+01  0.14400283683E+02  0.51100000000E-03 0. -1.
        -11    1    3    3    0    0  0.70407428743E+01 -0.65496221269E+00 -0.17626084507E+02  0.18991574211E+02  0.51100000000E-03 0.  1.
        -12    1    3    3    0    0 -0.55191620746E+01 -0.15135235548E+02 -0.58429559289E+01  0.17136996210E+02  0.00000000000E+00 0.  1.
</event>
<event>
 7    1  0.9953837E-014  0.5052886E+02  0.7816164E-02  0.1300439E+00
        -11   -1    0    0    0    0  0.00000000000E+00  0.00000000000E+00  0.45593999997E+02  0.45594000000E+02  0.51100000000E-03 0. -1.
         11   -1    0    0    0    0 -0.00000000000E+00 -0.00000000000E+00 -0.45593999997E+02  0.45594000000E+02  0.51100000000E-03 0.  1.
    9900012    2    1    2    0    0  0.14707554983E+02  0.93522379504E+01  0.36734029835E+02  0.50528862329E+02  0.30000007534E+02 0.  0.
        -12    1    1    2    0    0 -0.14707554983E+02 -0.93522379504E+01 -0.36734029835E+02  0.40659137671E+02  0.00000000000E+00 0.  1.
         11    1    3    3    0    0 -0.59276011031E+01 -0.48970302582E+01  0.10090738672E+02  0.12686227469E+02  0.51100000000E-03 0. -1.
        -11    1    3    3    0    0  0.96415668952E+01  0.12046236112E+02  0.12943764536E+02  0.20139827638E+02  0.51100000000E-03 0.  1.
         12    1    3    3    0    0  0.10993589191E+02  0.22030320963E+01  0.13699526627E+02  0.17702807221E+02  0.00000000000E+00 0. -1.
</event>
<event>
 7    1  0.9953837E-014  0.5052888E+02  0.7816164E-02  0.1300439E+00
        -11   -1    0    0    0    0  0.00000000000E+00  0.00000000000E+00  0.45593999997E+02  0.45594000000E+02  0.51100000000E-03 0. -1.
         11   -1    0    0    0    0 -0.00000000000E+00 -0.00000000000E+00 -0.45593999997E+02  0.45594000000E+02  0.51100000000E-03 0.  1.
    9900012    2    1    2    0    0 -0.59414489130E+01 -0.50669627171E+01  0.39902243569E+02  0.50528880873E+02  0.30000063902E+02 0.  0.
        -12    1    1    2    0    0  0.59414489130E+01  0.50669627171E+01 -0.39902243569E+02  0.40659119127E+02  0.00000000000E+00 0.  1.
         11    1    3    3    0    0  0.15384878992E+01 -0.66664035364E+01  0.16347397501E+02  0.17721322931E+02  0.51100000000E-03 0. -1.
        -11    1    3    3    0    0 -0.36189606214E+01 -0.76926797358E+01  0.20654322672E+02  0.22335515279E+02  0.51100000000E-03 0.  1.
        -12    1    3    3    0    0 -0.38609761909E+01  0.92921205550E+01  0.29005233957E+01  0.10472042662E+02  0.00000000000E+00 0.  1.
</event>
<event>
 7    1  0.9953837E-014  0.5052886E+02  0.7816164E-02  0.1300439E+00
        -11   -1    0    0    0    0  0.00000000000E+00  0.00000000000E+00  0.45593999997E+02  0.45594000000E+02  0.51100000000E-03 0. -1.
         11   -1    0    0    0    0 -0.00000000000E+00 -0.00000000000E+00 -0.45593999997E+02  0.45594000000E+02  0.51100000000E-03 0.  1.
    9900012    2    1    2    0    0  0.31916081480E+02 -0.19726017516E+02 -0.15665671722E+02  0.50528864562E+02  0.30000014322E+02 0.  0.
         12    1    1    2    0    0 -0.31916081480E+02  0.19726017516E+02  0.15665671722E+02  0.40659135438E+02  0.00000000000E+00 0. -1.
         11    1    3    3    0    0 -0.24030773508E+01 -0.67835221264E+01  0.25047415716E+01  0.76200186217E+01  0.51100000000E-03 0. -1.
        -11    1    3    3    0    0  0.25826333257E+02 -0.14091996479E+02 -0.10015837694E+02  0.31078945594E+02  0.51100000000E-03 0.  1.
        -12    1    3    3    0    0  0.84928255743E+01  0.11495010896E+01 -0.81545756001E+01  0.11829900347E+02  0.00000000000E+00 0.  1.
</event>
<event>
 7    1  0.1065199E-013  0.5052886E+02  0.7816164E-02  0.1300439E+00
        -11   -1    0    0    0    0  0.00000000000E+00  0.00000000000E+00  0.45593999997E+02  0.45594000000E+02  0.51100000000E-03 0. -1.
         11   -1    0    0    0    0 -0.00000000000E+00 -0.00000000000E+00 -0.45593999997E+02  0.45594000000E+02  0.51100000000E-03 0.  1.
    9900012    2    1    2    0    0  0.43693558751E+00 -0.16087635225E+02  0.37338490206E+02  0.50528858707E+02  0.29999996525E+02 0.  0.
        -12    1    1    2    0    0 -0.43693558751E+00  0.16087635225E+02 -0.37338490206E+02  0.40659141293E+02  0.00000000000E+00 0.  1.
         11    1    3    3    0    0  0.85118616426E+00 -0.20430939083E+02  0.14344766807E+02  0.24978393157E+02  0.51100000000E-03 0. -1.
        -11    1    3    3    0    0 -0.39488160549E+00  0.16624943689E+01 -0.59538713185E+00  0.18095041052E+01  0.51100000000E-03 0.  1.
         12    1    3    3    0    0 -0.19368971261E-01  0.26808094889E+01  0.23589110531E+02  0.23740961444E+02  0.00000000000E+00 0. -1.
</event>
<event>
 7    1  0.9953837E-014  0.5052884E+02  0.7816164E-02  0.1300439E+00
        -11   -1    0    0    0    0  0.00000000000E+00  0.00000000000E+00  0.45593999997E+02  0.45594000000E+02  0.51100000000E-03 0. -1.
         11   -1    0    0    0    0 -0.00000000000E+00 -0.00000000000E+00 -0.45593999997E+02  0.45594000000E+02  0.51100000000E-03 0.  1.
    9900012    2    1    2    0    0  0.35847537049E+02 -0.12945990751E+02  0.14160603539E+02  0.50528840127E+02  0.29999940049E+02 0.  0.
        -12    1    1    2    0    0 -0.35847537049E+02  0.12945990751E+02 -0.14160603539E+02  0.40659159873E+02  0.00000000000E+00 0.  1.
         11    1    3    3    0    0  0.35659538509E+02 -0.15398383903E+02  0.57160701888E+01  0.39260493784E+02  0.51100000000E-03 0. -1.
        -11    1    3    3    0    0 -0.21207047723E+01 -0.93356405440E+00  0.56221196894E+00  0.23843265578E+01  0.51100000000E-03 0.  1.
         12    1    3    3    0    0  0.23087033128E+01  0.33859572062E+01  0.78823213811E+01  0.88840197852E+01  0.00000000000E+00 0. -1.
</event>
<event>
 7    1  0.9953837E-014  0.5052886E+02  0.7816164E-02  0.1300439E+00
        -11   -1    0    0    0    0  0.00000000000E+00  0.00000000000E+00  0.45593999997E+02  0.45594000000E+02  0.51100000000E-03 0. -1.
         11   -1    0    0    0    0 -0.00000000000E+00 -0.00000000000E+00 -0.45593999997E+02  0.45594000000E+02  0.51100000000E-03 0.  1.
    9900012    2    1    2    0    0 -0.30581744522E+02  0.20910246359E+02 -0.16753633398E+02  0.50528859172E+02  0.29999997940E+02 0.  0.
         12    1    1    2    0    0  0.30581744522E+02 -0.20910246359E+02  0.16753633398E+02  0.40659140828E+02  0.00000000000E+00 0. -1.
         11    1    3    3    0    0 -0.10440578703E+02  0.48246249408E+01  0.25943176317E+00  0.11504346769E+02  0.51100000000E-03 0. -1.
        -11    1    3    3    0    0  0.51722144544E+01  0.28597059722E+00 -0.14973525119E+01  0.53921838202E+01  0.51100000000E-03 0.  1.
        -12    1    3    3    0    0 -0.25313380273E+02  0.15799650821E+02 -0.15515712649E+02  0.33632328583E+02  0.00000000000E+00 0.  1.
</event>
<event>
 7    1  0.9953837E-014  0.5052886E+02  0.7816164E-02  0.1300439E+00
        -11   -1    0    0    0    0  0.00000000000E+00  0.00000000000E+00  0.45593999997E+02  0.45594000000E+02  0.51100000000E-03 0.  1.
         11   -1    0    0    0    0 -0.00000000000E+00 -0.00000000000E+00 -0.45593999997E+02  0.45594000000E+02  0.51100000000E-03 0. -1.
    9900012    2    1    2    0    0  0.28149307233E+02  0.29006784316E+02 -0.44032708844E+01  0.50528857995E+02  0.29999994363E+02 0.  0.
         12    1    1    2    0    0 -0.28149307233E+02 -0.29006784316E+02  0.44032708844E+01  0.40659142005E+02  0.00000000000E+00 0. -1.
         11    1    3    3    0    0 -0.32436259595E+01  0.87950600952E+01 -0.82737086458E+01  0.12503137465E+02  0.51100000000E-03 0. -1.
        -11    1    3    3    0    0  0.22806362775E+02  0.11399803307E+02  0.32930557685E+01  0.25708557233E+02  0.51100000000E-03 0.  1.
        -12    1    3    3    0    0  0.85865704178E+01  0.88119209136E+01  0.57738199289E+00  0.12317163297E+02  0.00000000000E+00 0.  1.
</event>
<event>
 7    1  0.9953837E-014  0.5052886E+02  0.7816164E-02  0.1300439E+00
        -11   -1    0    0    0    0  0.00000000000E+00  0.00000000000E+00  0.45593999997E+02  0.45594000000E+02  0.51100000000E-03 0. -1.
         11   -1    0    0    0    0 -0.00000000000E+00 -0.00000000000E+00 -0.45593999997E+02  0.45594000000E+02  0.51100000000E-03 0.  1.
    9900012    2    1    2    0    0 -0.51955174278E+01 -0.14376332755E+01  0.40300191163E+02  0.50528860823E+02  0.30000002959E+02 0.  0.
        -12    1    1    2    0    0  0.51955174278E+01  0.14376332755E+01 -0.40300191163E+02  0.40659139177E+02  0.00000000000E+00 0.  1.
         11    1    3    3    0    0 -0.15246941206E+02  0.91291400454E+00  0.25653394152E+02  0.29856310219E+02  0.51100000000E-03 0. -1.
        -11    1    3    3    0    0  0.94926448721E+01 -0.18890681792E+01  0.48081966264E+01  0.10807295698E+02  0.51100000000E-03 0.  1.
        -12    1    3    3    0    0  0.55877890609E+00 -0.46147910075E+00  0.98386003848E+01  0.98652549059E+01  0.00000000000E+00 0.  1.
</event>
<event>
 7    1  0.9953837E-014  0.5052886E+02  0.7816164E-02  0.1300439E+00
        -11   -1    0    0    0    0  0.00000000000E+00  0.00000000000E+00  0.45593999997E+02  0.45594000000E+02  0.51100000000E-03 0. -1.
         11   -1    0    0    0    0 -0.00000000000E+00 -0.00000000000E+00 -0.45593999997E+02  0.45594000000E+02  0.51100000000E-03 0.  1.
    9900012    2    1    2    0    0  0.87402745028E+01 -0.66511175660E+01 -0.39147616319E+02  0.50528860478E+02  0.30000001908E+02 0.  0.
         12    1    1    2    0    0 -0.87402745028E+01  0.66511175660E+01  0.39147616319E+02  0.40659139522E+02  0.00000000000E+00 0. -1.
         11    1    3    3    0    0 -0.58627395603E+01 -0.10864986486E+01 -0.29688436396E+01  0.66607977963E+01  0.51100000000E-03 0. -1.
        -11    1    3    3    0    0  0.15741426371E+02  0.10512698601E+01 -0.32700607140E+02  0.36307401175E+02  0.51100000000E-03 0.  1.
        -12    1    3    3    0    0 -0.11384123074E+01 -0.66158887774E+01 -0.34781655386E+01  0.75606615062E+01  0.00000000000E+00 0.  1.
</event>
<event>
 7    1  0.9953837E-014  0.5052887E+02  0.7816164E-02  0.1300439E+00
        -11   -1    0    0    0    0  0.00000000000E+00  0.00000000000E+00  0.45593999997E+02  0.45594000000E+02  0.51100000000E-03 0. -1.
         11   -1    0    0    0    0 -0.00000000000E+00 -0.00000000000E+00 -0.45593999997E+02  0.45594000000E+02  0.51100000000E-03 0.  1.
    9900012    2    1    2    0    0 -0.94815523776E+01 -0.21050791734E+02  0.33468334645E+02  0.50528867053E+02  0.30000021894E+02 0.  0.
        -12    1    1    2    0    0  0.94815523776E+01  0.21050791734E+02 -0.33468334645E+02  0.40659132947E+02  0.00000000000E+00 0.  1.
         11    1    3    3    0    0  0.56895912619E+01 -0.14099885023E+02  0.27191526284E+02  0.31153768765E+02  0.51100000000E-03 0. -1.
        -11    1    3    3    0    0 -0.11762089319E+02 -0.75307521580E+01  0.73130725187E+01  0.15765151542E+02  0.51100000000E-03 0.  1.
         12    1    3    3    0    0 -0.34090543208E+01  0.57984544695E+00 -0.10362641577E+01  0.36099467460E+01  0.00000000000E+00 0. -1.
</event>
<event>
 7    1  0.9953837E-014  0.5052887E+02  0.7816164E-02  0.1300439E+00
        -11   -1    0    0    0    0  0.00000000000E+00  0.00000000000E+00  0.45593999997E+02  0.45594000000E+02  0.51100000000E-03 0. -1.
         11   -1    0    0    0    0 -0.00000000000E+00 -0.00000000000E+00 -0.45593999997E+02  0.45594000000E+02  0.51100000000E-03 0.  1.
    9900012    2    1    2    0    0 -0.16795217440E+02  0.28227501198E+02 -0.23964425264E+02  0.50528870263E+02  0.30000031651E+02 0.  0.
         12    1    1    2    0    0  0.16795217440E+02 -0.28227501198E+02  0.23964425264E+02  0.40659129737E+02  0.00000000000E+00 0. -1.
         11    1    3    3    0    0 -0.52716441167E+01  0.18270698332E+01  0.12508029966E+01  0.57177726665E+01  0.51100000000E-03 0. -1.
        -11    1    3    3    0    0 -0.15167893343E+02  0.10846645621E+02 -0.21404596407E+02  0.28387875181E+02  0.51100000000E-03 0.  1.
        -12    1    3    3    0    0  0.36443200197E+01  0.15553785744E+02 -0.38106318541E+01  0.16423222415E+02  0.00000000000E+00 0.  1.
</event>
<event>
 7    1  0.9953837E-014  0.5052886E+02  0.7816164E-02  0.1300439E+00
        -11   -1    0    0    0    0  0.00000000000E+00  0.00000000000E+00  0.45593999997E+02  0.45594000000E+02  0.51100000000E-03 0. -1.
         11   -1    0    0    0    0 -0.00000000000E+00 -0.00000000000E+00 -0.45593999997E+02  0.45594000000E+02  0.51100000000E-03 0.  1.
    9900012    2    1    2    0    0  0.10877257601E+02  0.29695129743E+02 -0.25554841585E+02  0.50528863366E+02  0.30000010687E+02 0.  0.
         12    1    1    2    0    0 -0.10877257601E+02 -0.29695129743E+02  0.25554841585E+02  0.40659136634E+02  0.00000000000E+00 0. -1.
         11    1    3    3    0    0 -0.19931487965E+01 -0.32133050462E+01 -0.98497832792E+01  0.10550649381E+02  0.51100000000E-03 0. -1.
        -11    1    3    3    0    0  0.14184082306E+02  0.26883808189E+02 -0.14572703231E+02  0.33708915932E+02  0.51100000000E-03 0.  1.
        -12    1    3    3    0    0 -0.13136759084E+01  0.60246266005E+01 -0.11323550753E+01  0.62692980535E+01  0.00000000000E+00 0.  1.
</event>
<event>
 7    1  0.9953837E-014  0.5052886E+02  0.7816164E-02  0.1300439E+00
        -11   -1    0    0    0    0  0.00000000000E+00  0.00000000000E+00  0.45593999997E+02  0.45594000000E+02  0.51100000000E-03 0. -1.
         11   -1    0    0    0    0 -0.00000000000E+00 -0.00000000000E+00 -0.45593999997E+02  0.45594000000E+02  0.51100000000E-03 0.  1.
    9900012    2    1    2    0    0  0.38259882885E+02  0.86668015717E+01 -0.10688012253E+02  0.50528859653E+02  0.29999999401E+02 0.  0.
         12    1    1    2    0    0 -0.38259882885E+02 -0.86668015717E+01  0.10688012253E+02  0.40659140347E+02  0.00000000000E+00 0. -1.
         11    1    3    3    0    0  0.36743853456E+02  0.37163940584E+01 -0.54028141437E+01  0.37324425683E+02  0.51100000000E-03 0. -1.
        -11    1    3    3    0    0  0.50098265979E+01  0.25387764442E+01 -0.66879264753E+01  0.87333904742E+01  0.51100000000E-03 0.  1.
         12    1    3    3    0    0 -0.34937971691E+01  0.24116310691E+01  0.14027283663E+01  0.44710434959E+01  0.00000000000E+00 0. -1.
</event>
<event>
 7    1  0.9953837E-014  0.5052886E+02  0.7816164E-02  0.1300439E+00
        -11   -1    0    0    0    0  0.00000000000E+00  0.00000000000E+00  0.45593999997E+02  0.45594000000E+02  0.51100000000E-03 0. -1.
         11   -1    0    0    0    0 -0.00000000000E+00 -0.00000000000E+00 -0.45593999997E+02  0.45594000000E+02  0.51100000000E-03 0.  1.
    9900012    2    1    2    0    0  0.21697004955E+02 -0.29040469327E+02 -0.18413485617E+02  0.50528864061E+02  0.30000012800E+02 0.  0.
         12    1    1    2    0    0 -0.21697004955E+02  0.29040469327E+02  0.18413485617E+02  0.40659135939E+02  0.00000000000E+00 0. -1.
         11    1    3    3    0    0  0.18933171060E+02 -0.16519165650E+02 -0.13943739054E+01  0.25165295131E+02  0.51100000000E-03 0. -1.
        -11    1    3    3    0    0  0.23555974872E+00  0.18807132279E+01 -0.79148773380E+01  0.81386641519E+01  0.51100000000E-03 0.  1.
        -12    1    3    3    0    0  0.25282741459E+01 -0.14402016905E+02 -0.91042343732E+01  0.17224904778E+02  0.00000000000E+00 0.  1.
</event>
<event>
 7    1  0.9953837E-014  0.5052886E+02  0.7816164E-02  0.1300439E+00
        -11   -1    0    0    0    0  0.00000000000E+00  0.00000000000E+00  0.45593999997E+02  0.45594000000E+02  0.51100000000E-03 0. -1.
         11   -1    0    0    0    0 -0.00000000000E+00 -0.00000000000E+00 -0.45593999997E+02  0.45594000000E+02  0.51100000000E-03 0.  1.
    9900012    2    1    2    0    0 -0.85455751176E+01 -0.37270240405E+02 -0.13822726728E+02  0.50528862673E+02  0.30000008581E+02 0.  0.
         12    1    1    2    0    0  0.85455751176E+01  0.37270240405E+02  0.13822726728E+02  0.40659137327E+02  0.00000000000E+00 0. -1.
         11    1    3    3    0    0 -0.89968716235E+01 -0.40563236920E+01  0.31981250443E+01  0.10374269370E+02  0.51100000000E-03 0. -1.
        -11    1    3    3    0    0 -0.32766203616E+01 -0.31919634445E+02 -0.16757455629E+02  0.36199608058E+02  0.51100000000E-03 0.  1.
         12    1    3    3    0    0  0.37279168676E+01 -0.12942822681E+01 -0.26339614349E+00  0.39549852452E+01  0.00000000000E+00 0. -1.
</event>
<event>
 7    1  0.9953837E-014  0.5052886E+02  0.7816164E-02  0.1300439E+00
        -11   -1    0    0    0    0  0.00000000000E+00  0.00000000000E+00  0.45593999997E+02  0.45594000000E+02  0.51100000000E-03 0.  1.
         11   -1    0    0    0    0 -0.00000000000E+00 -0.00000000000E+00 -0.45593999997E+02  0.45594000000E+02  0.51100000000E-03 0. -1.
    9900012    2    1    2    0    0 -0.40161173216E+02  0.33450693919E+01 -0.53904191825E+01  0.50528856597E+02  0.29999990111E+02 0.  0.
         12    1    1    2    0    0  0.40161173216E+02 -0.33450693919E+01  0.53904191825E+01  0.40659143403E+02  0.00000000000E+00 0. -1.
         11    1    3    3    0    0 -0.11280172770E+02 -0.22852264404E+01  0.51074295545E+01  0.12591679575E+02  0.51100000000E-03 0.  1.
        -11    1    3    3    0    0 -0.20104425675E+02  0.11742718893E+02 -0.13389148938E+02  0.26857935294E+02  0.51100000000E-03 0. -1.
         12    1    3    3    0    0 -0.87765747712E+01 -0.61124230611E+01  0.28913002013E+01  0.11079241727E+02  0.00000000000E+00 0. -1.
</event>
<event>
 7    1  0.9953837E-014  0.5052887E+02  0.7816164E-02  0.1300439E+00
        -11   -1    0    0    0    0  0.00000000000E+00  0.00000000000E+00  0.45593999997E+02  0.45594000000E+02  0.51100000000E-03 0. -1.
         11   -1    0    0    0    0 -0.00000000000E+00 -0.00000000000E+00 -0.45593999997E+02  0.45594000000E+02  0.51100000000E-03 0.  1.
    9900012    2    1    2    0    0  0.89717598760E+00 -0.37710019132E+00 -0.40647477820E+02  0.50528873320E+02  0.30000040943E+02 0.  0.
         12    1    1    2    0    0 -0.89717598760E+00  0.37710019132E+00  0.40647477820E+02  0.40659126680E+02  0.00000000000E+00 0. -1.
         11    1    3    3    0    0 -0.47909196561E+01 -0.13508615580E+02 -0.14068506497E+02  0.20083786530E+02  0.51100000000E-03 0. -1.
        -11    1    3    3    0    0  0.42115663614E+01  0.86316777817E+01 -0.21226480919E+02  0.23298211197E+02  0.51100000000E-03 0.  1.
         12    1    3    3    0    0  0.14765292823E+01  0.44998376074E+01 -0.53524904036E+01  0.71468755925E+01  0.00000000000E+00 0. -1.
</event>
<event>
 7    1  0.9953837E-014  0.5052885E+02  0.7816164E-02  0.1300439E+00
        -11   -1    0    0    0    0  0.00000000000E+00  0.00000000000E+00  0.45593999997E+02  0.45594000000E+02  0.51100000000E-03 0.  1.
         11   -1    0    0    0    0 -0.00000000000E+00 -0.00000000000E+00 -0.45593999997E+02  0.45594000000E+02  0.51100000000E-03 0. -1.
    9900012    2    1    2    0    0  0.29186156103E+02  0.25449594471E+02  0.12395664859E+02  0.50528854976E+02  0.29999985185E+02 0.  0.
        -12    1    1    2    0    0 -0.29186156103E+02 -0.25449594471E+02 -0.12395664859E+02  0.40659145024E+02  0.00000000000E+00 0.  1.
         11    1    3    3    0    0 -0.50224366437E+00  0.15547534350E+02 -0.17375279356E+01  0.15652382460E+02  0.51100000000E-03 0. -1.
        -11    1    3    3    0    0  0.23957316137E+02  0.70080063647E+01  0.86013383917E+01  0.26401669873E+02  0.51100000000E-03 0.  1.
        -12    1    3    3    0    0  0.57310836303E+01  0.28940537559E+01  0.55318544026E+01  0.84748026438E+01  0.00000000000E+00 0.  1.
</event>
<event>
 7    1  0.9953837E-014  0.5052886E+02  0.7816164E-02  0.1300439E+00
        -11   -1    0    0    0    0  0.00000000000E+00  0.00000000000E+00  0.45593999997E+02  0.45594000000E+02  0.51100000000E-03 0. -1.
         11   -1    0    0    0    0 -0.00000000000E+00 -0.00000000000E+00 -0.45593999997E+02  0.45594000000E+02  0.51100000000E-03 0.  1.
    9900012    2    1    2    0    0  0.16738755875E+02  0.31319723248E+02 -0.19800379393E+02  0.50528855436E+02  0.29999986583E+02 0.  0.
         12    1    1    2    0    0 -0.16738755875E+02 -0.31319723248E+02  0.19800379393E+02  0.40659144564E+02  0.00000000000E+00 0. -1.
         11    1    3    3    0    0 -0.46498069904E+00  0.18657474184E+02 -0.11055896245E+01  0.18695985629E+02  0.51100000000E-03 0. -1.
        -11    1    3    3    0    0  0.12748489889E+02  0.13446162656E+02 -0.19860104709E+02  0.27161499295E+02  0.51100000000E-03 0.  1.
         12    1    3    3    0    0  0.44552466856E+01 -0.78391359219E+00  0.11653149404E+01  0.46713705119E+01  0.00000000000E+00 0. -1.
</event>
<event>
 7    1  0.9953837E-014  0.5052886E+02  0.7816164E-02  0.1300439E+00
        -11   -1    0    0    0    0  0.00000000000E+00  0.00000000000E+00  0.45593999997E+02  0.45594000000E+02  0.51100000000E-03 0.  1.
         11   -1    0    0    0    0 -0.00000000000E+00 -0.00000000000E+00 -0.45593999997E+02  0.45594000000E+02  0.51100000000E-03 0. -1.
    9900012    2    1    2    0    0  0.27418608925E+02  0.29906948829E+02  0.26381698244E+01  0.50528860269E+02  0.30000001272E+02 0.  0.
         12    1    1    2    0    0 -0.27418608925E+02 -0.29906948829E+02 -0.26381698244E+01  0.40659139731E+02  0.00000000000E+00 0. -1.
         11    1    3    3    0    0  0.45543175564E+01 -0.44057330632E+01 -0.14894978415E+01  0.65092930729E+01  0.51100000000E-03 0. -1.
        -11    1    3    3    0    0  0.21831087148E+02  0.30743766867E+02 -0.96118390257E+00  0.37718688232E+02  0.51100000000E-03 0.  1.
         12    1    3    3    0    0  0.10332042206E+01  0.35689150260E+01  0.50888515684E+01  0.63008789633E+01  0.00000000000E+00 0. -1.
</event>
<event>
 7    1  0.9953837E-014  0.5052886E+02  0.7816164E-02  0.1300439E+00
        -11   -1    0    0    0    0  0.00000000000E+00  0.00000000000E+00  0.45593999997E+02  0.45594000000E+02  0.51100000000E-03 0. -1.
         11   -1    0    0    0    0 -0.00000000000E+00 -0.00000000000E+00 -0.45593999997E+02  0.45594000000E+02  0.51100000000E-03 0.  1.
    9900012    2    1    2    0    0  0.21257947943E+02  0.38664993802E+01 -0.34442926555E+02  0.50528863783E+02  0.30000011954E+02 0.  0.
         12    1    1    2    0    0 -0.21257947943E+02 -0.38664993802E+01  0.34442926555E+02  0.40659136217E+02  0.00000000000E+00 0. -1.
         11    1    3    3    0    0 -0.54244725082E+00 -0.47644516313E+01 -0.97963348124E+00  0.48942752667E+01  0.51100000000E-03 0. -1.
        -11    1    3    3    0    0  0.15883534426E+02  0.73438910072E+01 -0.76110084424E+01  0.19082632176E+02  0.51100000000E-03 0.  1.
        -12    1    3    3    0    0  0.59168607677E+01  0.12870600043E+01 -0.25852284632E+02  0.26551956340E+02  0.00000000000E+00 0.  1.
</event>
<event>
 7    1  0.9953837E-014  0.5052886E+02  0.7816164E-02  0.1300439E+00
        -11   -1    0    0    0    0  0.00000000000E+00  0.00000000000E+00  0.45593999997E+02  0.45594000000E+02  0.51100000000E-03 0. -1.
         11   -1    0    0    0    0 -0.00000000000E+00 -0.00000000000E+00 -0.45593999997E+02  0.45594000000E+02  0.51100000000E-03 0.  1.
    9900012    2    1    2    0    0  0.30417172643E+02  0.25480664637E+02  0.88711505065E+01  0.50528856216E+02  0.29999988954E+02 0.  0.
        -12    1    1    2    0    0 -0.30417172643E+02 -0.25480664637E+02 -0.88711505065E+01  0.40659143784E+02  0.00000000000E+00 0.  1.
         11    1    3    3    0    0  0.16157244677E+02  0.10488242180E+02 -0.39860942889E+01  0.19671012367E+02  0.51100000000E-03 0. -1.
        -11    1    3    3    0    0  0.38567374132E+01 -0.37850243057E+01  0.65344074705E+01  0.84793463026E+01  0.51100000000E-03 0.  1.
         12    1    3    3    0    0  0.10403190553E+02  0.18777446763E+02  0.63228373249E+01  0.22378497547E+02  0.00000000000E+00 0. -1.
</event>
<event>
 7    1  0.9953837E-014  0.5052887E+02  0.7816164E-02  0.1300439E+00
        -11   -1    0    0    0    0  0.00000000000E+00  0.00000000000E+00  0.45593999997E+02  0.45594000000E+02  0.51100000000E-03 0.  1.
         11   -1    0    0    0    0 -0.00000000000E+00 -0.00000000000E+00 -0.45593999997E+02  0.45594000000E+02  0.51100000000E-03 0. -1.
    9900012    2    1    2    0    0 -0.24588054215E+02  0.32339959784E+02  0.16491195080E+01  0.50528868135E+02  0.30000025183E+02 0.  0.
         12    1    1    2    0    0  0.24588054215E+02 -0.32339959784E+02 -0.16491195080E+01  0.40659131865E+02  0.00000000000E+00 0. -1.
         11    1    3    3    0    0 -0.11335598809E+02  0.20980853217E+02  0.82010435147E+01  0.25218031586E+02  0.51100000000E-03 0.  1.
        -11    1    3    3    0    0 -0.62975275030E+01 -0.35435983560E+01 -0.50100809463E+01  0.87930002450E+01  0.51100000000E-03 0. -1.
        -12    1    3    3    0    0 -0.69549279031E+01  0.14902704923E+02 -0.15418430603E+01  0.16517836304E+02  0.00000000000E+00 0.  1.
</event>
<event>
 7    1  0.9953837E-014  0.5052886E+02  0.7816164E-02  0.1300439E+00
        -11   -1    0    0    0    0  0.00000000000E+00  0.00000000000E+00  0.45593999997E+02  0.45594000000E+02  0.51100000000E-03 0. -1.
         11   -1    0    0    0    0 -0.00000000000E+00 -0.00000000000E+00 -0.45593999997E+02  0.45594000000E+02  0.51100000000E-03 0.  1.
    9900012    2    1    2    0    0 -0.12101220171E+02  0.19364993386E+02  0.33641095244E+02  0.50528858498E+02  0.29999995891E+02 0.  0.
        -12    1    1    2    0    0  0.12101220171E+02 -0.19364993386E+02 -0.33641095244E+02  0.40659141502E+02  0.00000000000E+00 0.  1.
         11    1    3    3    0    0 -0.64487112117E+01  0.25623058413E+02  0.23627499792E+02  0.35445532094E+02  0.51100000000E-03 0. -1.
        -11    1    3    3    0    0 -0.11062081958E+01 -0.13076510701E+01 -0.11425678512E+01  0.20589097720E+01  0.51100000000E-03 0.  1.
         12    1    3    3    0    0 -0.45463007638E+01 -0.49504139565E+01  0.11156163303E+02  0.13024416632E+02  0.00000000000E+00 0. -1.
</event>
<event>
 7    1  0.9953837E-014  0.5052887E+02  0.7816164E-02  0.1300439E+00
        -11   -1    0    0    0    0  0.00000000000E+00  0.00000000000E+00  0.45593999997E+02  0.45594000000E+02  0.51100000000E-03 0. -1.
         11   -1    0    0    0    0 -0.00000000000E+00 -0.00000000000E+00 -0.45593999997E+02  0.45594000000E+02  0.51100000000E-03 0.  1.
    9900012    2    1    2    0    0  0.26034932163E+02  0.20957629069E+02 -0.23154380500E+02  0.50528865168E+02  0.30000016165E+02 0.  0.
         12    1    1    2    0    0 -0.26034932163E+02 -0.20957629069E+02  0.23154380500E+02  0.40659134832E+02  0.00000000000E+00 0. -1.
         11    1    3    3    0    0  0.21088719454E+01  0.12029276479E+02  0.23907234880E+01  0.12444532637E+02  0.51100000000E-03 0.  1.
        -11    1    3    3    0    0  0.16819891182E+02  0.11728041869E+02 -0.20020588951E+02  0.28657977732E+02  0.51100000000E-03 0. -1.
         12    1    3    3    0    0  0.71061690354E+01 -0.27996892783E+01 -0.55245150372E+01  0.94263547997E+01  0.00000000000E+00 0. -1.
</event>
<event>
 7    1  0.9953837E-014  0.5052886E+02  0.7816164E-02  0.1300439E+00
        -11   -1    0    0    0    0  0.00000000000E+00  0.00000000000E+00  0.45593999997E+02  0.45594000000E+02  0.51100000000E-03 0. -1.
         11   -1    0    0    0    0 -0.00000000000E+00 -0.00000000000E+00 -0.45593999997E+02  0.45594000000E+02  0.51100000000E-03 0.  1.
    9900012    2    1    2    0    0  0.20585991933E-02 -0.22788195160E+02 -0.33672894123E+02  0.50528860296E+02  0.30000001355E+02 0.  0.
         12    1    1    2    0    0 -0.20585991933E-02  0.22788195160E+02  0.33672894123E+02  0.40659139704E+02  0.00000000000E+00 0. -1.
         11    1    3    3    0    0 -0.10565603261E+02 -0.12515389462E+02 -0.36670983134E+01  0.16784354500E+02  0.51100000000E-03 0. -1.
        -11    1    3    3    0    0  0.19996076544E+01 -0.20488022513E+01 -0.10716335896E+02  0.11092153837E+02  0.51100000000E-03 0.  1.
         12    1    3    3    0    0  0.85680542058E+01 -0.82240034460E+01 -0.19289459913E+02  0.22652351959E+02  0.00000000000E+00 0. -1.
</event>
<event>
 7    1  0.9953837E-014  0.5052886E+02  0.7816164E-02  0.1300439E+00
        -11   -1    0    0    0    0  0.00000000000E+00  0.00000000000E+00  0.45593999997E+02  0.45594000000E+02  0.51100000000E-03 0. -1.
         11   -1    0    0    0    0 -0.00000000000E+00 -0.00000000000E+00 -0.45593999997E+02  0.45594000000E+02  0.51100000000E-03 0.  1.
    9900012    2    1    2    0    0 -0.33267317823E+02 -0.34969185464E+01 -0.23113262294E+02  0.50528858737E+02  0.29999996616E+02 0.  0.
         12    1    1    2    0    0  0.33267317823E+02  0.34969185464E+01  0.23113262294E+02  0.40659141263E+02  0.00000000000E+00 0. -1.
         11    1    3    3    0    0 -0.10288916767E+02 -0.43079848193E+01 -0.13314425257E+00  0.11155190232E+02  0.51100000000E-03 0. -1.
        -11    1    3    3    0    0 -0.17733219136E+02 -0.77832843320E+00 -0.27184241327E+02  0.32466226033E+02  0.51100000000E-03 0.  1.
        -12    1    3    3    0    0 -0.52451819194E+01  0.15893947061E+01  0.42041232857E+01  0.69074424718E+01  0.00000000000E+00 0.  1.
</event>
<event>
 7    1  0.9953837E-014  0.5052877E+02  0.7816164E-02  0.1300439E+00
        -11   -1    0    0    0    0  0.00000000000E+00  0.00000000000E+00  0.45593999997E+02  0.45594000000E+02  0.51100000000E-03 0. -1.
         11   -1    0    0    0    0 -0.00000000000E+00 -0.00000000000E+00 -0.45593999997E+02  0.45594000000E+02  0.51100000000E-03 0.  1.
    9900012    2    1    2    0    0 -0.19742307829E+02 -0.15126363096E+02  0.32165313142E+02  0.50528770439E+02  0.29999728226E+02 0.  0.
        -12    1    1    2    0    0  0.19742307829E+02  0.15126363096E+02 -0.32165313142E+02  0.40659229561E+02  0.00000000000E+00 0.  1.
         11    1    3    3    0    0 -0.24968028150E+02 -0.18161313308E+02  0.30492667465E+02  0.43393991521E+02  0.51100000000E-03 0. -1.
        -11    1    3    3    0    0  0.16260883814E+01  0.23089258686E+01 -0.50012559519E+00  0.28680006909E+01  0.51100000000E-03 0.  1.
         12    1    3    3    0    0  0.35996319388E+01  0.72602434247E+00  0.21727712725E+01  0.42667782276E+01  0.00000000000E+00 0. -1.
</event>
<event>
 7    1  0.9953837E-014  0.5052888E+02  0.7816164E-02  0.1300439E+00
        -11   -1    0    0    0    0  0.00000000000E+00  0.00000000000E+00  0.45593999997E+02  0.45594000000E+02  0.51100000000E-03 0. -1.
         11   -1    0    0    0    0 -0.00000000000E+00 -0.00000000000E+00 -0.45593999997E+02  0.45594000000E+02  0.51100000000E-03 0.  1.
    9900012    2    1    2    0    0 -0.52338708568E+01  0.13974982998E+02  0.37821563004E+02  0.50528878244E+02  0.30000055910E+02 0.  0.
        -12    1    1    2    0    0  0.52338708568E+01 -0.13974982998E+02 -0.37821563004E+02  0.40659121756E+02  0.00000000000E+00 0.  1.
         11    1    3    3    0    0  0.10041481118E+02  0.55877849167E+01  0.11781627883E+02  0.16457868609E+02  0.51100000000E-03 0. -1.
        -11    1    3    3    0    0 -0.15972584967E+02  0.51487970827E+01  0.14876346151E+02  0.22426307253E+02  0.51100000000E-03 0.  1.
        -12    1    3    3    0    0  0.69723299233E+00  0.32384009983E+01  0.11163588969E+02  0.11644702381E+02  0.00000000000E+00 0.  1.
</event>
<event>
 7    1  0.9953837E-014  0.5052886E+02  0.7816164E-02  0.1300439E+00
        -11   -1    0    0    0    0  0.00000000000E+00  0.00000000000E+00  0.45593999997E+02  0.45594000000E+02  0.51100000000E-03 0. -1.
         11   -1    0    0    0    0 -0.00000000000E+00 -0.00000000000E+00 -0.45593999997E+02  0.45594000000E+02  0.51100000000E-03 0.  1.
    9900012    2    1    2    0    0 -0.71307429466E+01  0.29738575327E+02 -0.26794310690E+02  0.50528862739E+02  0.30000008782E+02 0.  0.
         12    1    1    2    0    0  0.71307429466E+01 -0.29738575327E+02  0.26794310690E+02  0.40659137261E+02  0.00000000000E+00 0. -1.
         11    1    3    3    0    0  0.62355160141E+01  0.49370015592E+01 -0.51952213902E+01  0.94997878877E+01  0.51100000000E-03 0. -1.
        -11    1    3    3    0    0 -0.18248961180E+02  0.13920491944E+02 -0.13884040285E+02  0.26824825349E+02  0.51100000000E-03 0.  1.
        -12    1    3    3    0    0  0.48827022196E+01  0.10881081823E+02 -0.77150490148E+01  0.14204249502E+02  0.00000000000E+00 0.  1.
</event>
<event>
 7    1  0.9953837E-014  0.5052886E+02  0.7816164E-02  0.1300439E+00
        -11   -1    0    0    0    0  0.00000000000E+00  0.00000000000E+00  0.45593999997E+02  0.45594000000E+02  0.51100000000E-03 0. -1.
         11   -1    0    0    0    0 -0.00000000000E+00 -0.00000000000E+00 -0.45593999997E+02  0.45594000000E+02  0.51100000000E-03 0.  1.
    9900012    2    1    2    0    0 -0.14742032493E+02  0.33358898293E+02  0.17972814641E+02  0.50528859779E+02  0.29999999785E+02 0.  0.
        -12    1    1    2    0    0  0.14742032493E+02 -0.33358898293E+02 -0.17972814641E+02  0.40659140221E+02  0.00000000000E+00 0.  1.
         11    1    3    3    0    0 -0.46760889354E+01  0.24154006709E+01 -0.57563924314E+01  0.77997450099E+01  0.51100000000E-03 0. -1.
        -11    1    3    3    0    0 -0.72151782090E+01  0.19591390134E+02  0.22909913435E+02  0.30995894854E+02  0.51100000000E-03 0.  1.
        -12    1    3    3    0    0 -0.28507653483E+01  0.11352107489E+02  0.81929363756E+00  0.11733219915E+02  0.00000000000E+00 0.  1.
</event>
<event>
 7    1  0.9953837E-014  0.5052886E+02  0.7816164E-02  0.1300439E+00
        -11   -1    0    0    0    0  0.00000000000E+00  0.00000000000E+00  0.45593999997E+02  0.45594000000E+02  0.51100000000E-03 0. -1.
         11   -1    0    0    0    0 -0.00000000000E+00 -0.00000000000E+00 -0.45593999997E+02  0.45594000000E+02  0.51100000000E-03 0.  1.
    9900012    2    1    2    0    0 -0.13562884074E+02  0.29426001396E+02 -0.24562662475E+02  0.50528858710E+02  0.29999996536E+02 0.  0.
         12    1    1    2    0    0  0.13562884074E+02 -0.29426001396E+02  0.24562662475E+02  0.40659141290E+02  0.00000000000E+00 0. -1.
         11    1    3    3    0    0 -0.22169007319E-01  0.11836084429E+02  0.52259823159E+01  0.12938480494E+02  0.51100000000E-03 0. -1.
        -11    1    3    3    0    0 -0.28866110415E+01  0.66885920631E+01 -0.13091512975E+02  0.14981905731E+02  0.51100000000E-03 0.  1.
         12    1    3    3    0    0 -0.10654104025E+02  0.10901324904E+02 -0.16697131816E+02  0.22608472485E+02  0.00000000000E+00 0. -1.
</event>
<event>
 7    1  0.9953837E-014  0.5052887E+02  0.7816164E-02  0.1300439E+00
        -11   -1    0    0    0    0  0.00000000000E+00  0.00000000000E+00  0.45593999997E+02  0.45594000000E+02  0.51100000000E-03 0. -1.
         11   -1    0    0    0    0 -0.00000000000E+00 -0.00000000000E+00 -0.45593999997E+02  0.45594000000E+02  0.51100000000E-03 0.  1.
    9900012    2    1    2    0    0 -0.13096193131E+02  0.22608002142E+02  0.31153381646E+02  0.50528865438E+02  0.30000016984E+02 0.  0.
        -12    1    1    2    0    0  0.13096193131E+02 -0.22608002142E+02 -0.31153381646E+02  0.40659134562E+02  0.00000000000E+00 0.  1.
         11    1    3    3    0    0 -0.54792337025E+01  0.21813794102E+02  0.14793684215E+02  0.26920562921E+02  0.51100000000E-03 0. -1.
        -11    1    3    3    0    0 -0.10209354061E+02 -0.42805353483E+01  0.88030441139E+01  0.14143814165E+02  0.51100000000E-03 0.  1.
         12    1    3    3    0    0  0.25923946326E+01  0.50747433885E+01  0.75566533172E+01  0.94644883510E+01  0.00000000000E+00 0. -1.
</event>
<event>
 7    1  0.9953837E-014  0.5052885E+02  0.7816164E-02  0.1300439E+00
        -11   -1    0    0    0    0  0.00000000000E+00  0.00000000000E+00  0.45593999997E+02  0.45594000000E+02  0.51100000000E-03 0. -1.
         11   -1    0    0    0    0 -0.00000000000E+00 -0.00000000000E+00 -0.45593999997E+02  0.45594000000E+02  0.51100000000E-03 0.  1.
    9900012    2    1    2    0    0  0.83271894544E+01  0.14466637472E+02 -0.37074796418E+02  0.50528853262E+02  0.29999979976E+02 0.  0.
         12    1    1    2    0    0 -0.83271894544E+01 -0.14466637472E+02  0.37074796418E+02  0.40659146738E+02  0.00000000000E+00 0. -1.
         11    1    3    3    0    0 -0.11038993202E+02  0.84695700939E+01 -0.15370575872E+02  0.20732766130E+02  0.51100000000E-03 0. -1.
        -11    1    3    3    0    0  0.10363207626E+02  0.19638934512E+01 -0.11046223589E+02  0.15273244764E+02  0.51100000000E-03 0.  1.
         12    1    3    3    0    0  0.90029750307E+01  0.40331739271E+01 -0.10657996957E+02  0.14522842369E+02  0.00000000000E+00 0. -1.
</event>
<event>
 7    1  0.9953837E-014  0.5052885E+02  0.7816164E-02  0.1300439E+00
        -11   -1    0    0    0    0  0.00000000000E+00  0.00000000000E+00  0.45593999997E+02  0.45594000000E+02  0.51100000000E-03 0. -1.
         11   -1    0    0    0    0 -0.00000000000E+00 -0.00000000000E+00 -0.45593999997E+02  0.45594000000E+02  0.51100000000E-03 0.  1.
    9900012    2    1    2    0    0 -0.14377996287E+02  0.32848265659E+02  0.19168489551E+02  0.50528851882E+02  0.29999975781E+02 0.  0.
        -12    1    1    2    0    0  0.14377996287E+02 -0.32848265659E+02 -0.19168489551E+02  0.40659148118E+02  0.00000000000E+00 0.  1.
         11    1    3    3    0    0 -0.37990054369E+01  0.21221870403E+02  0.88720284020E+01  0.23313367709E+02  0.51100000000E-03 0. -1.
        -11    1    3    3    0    0 -0.17425180102E+01 -0.49328219838E+01 -0.97513622435E+00  0.53216531883E+01  0.51100000000E-03 0.  1.
        -12    1    3    3    0    0 -0.88364728404E+01  0.16559217239E+02  0.11271597373E+02  0.21893830985E+02  0.00000000000E+00 0.  1.
</event>
<event>
 7    1  0.9953837E-014  0.5052887E+02  0.7816164E-02  0.1300439E+00
        -11   -1    0    0    0    0  0.00000000000E+00  0.00000000000E+00  0.45593999997E+02  0.45594000000E+02  0.51100000000E-03 0. -1.
         11   -1    0    0    0    0 -0.00000000000E+00 -0.00000000000E+00 -0.45593999997E+02  0.45594000000E+02  0.51100000000E-03 0.  1.
    9900012    2    1    2    0    0 -0.90561630727E+01 -0.18105088106E+02  0.35261265539E+02  0.50528866311E+02  0.30000019638E+02 0.  0.
        -12    1    1    2    0    0  0.90561630727E+01  0.18105088106E+02 -0.35261265539E+02  0.40659133689E+02  0.00000000000E+00 0.  1.
         11    1    3    3    0    0 -0.48855331610E+01 -0.19849729504E+02  0.16686830172E+02  0.26388074903E+02  0.51100000000E-03 0.  1.
        -11    1    3    3    0    0 -0.12377208354E+01  0.70207729431E+01  0.16116873670E+02  0.17623189914E+02  0.51100000000E-03 0. -1.
         12    1    3    3    0    0 -0.29329090764E+01 -0.52761315446E+01  0.24575616974E+01  0.65176014931E+01  0.00000000000E+00 0. -1.
</event>
<event>
 7    1  0.9953837E-014  0.5052886E+02  0.7816164E-02  0.1300439E+00
        -11   -1    0    0    0    0  0.00000000000E+00  0.00000000000E+00  0.45593999997E+02  0.45594000000E+02  0.51100000000E-03 0. -1.
         11   -1    0    0    0    0 -0.00000000000E+00 -0.00000000000E+00 -0.45593999997E+02  0.45594000000E+02  0.51100000000E-03 0.  1.
    9900012    2    1    2    0    0  0.21030095851E+02 -0.18442845649E+02  0.29508681458E+02  0.50528858733E+02  0.29999996605E+02 0.  0.
        -12    1    1    2    0    0 -0.21030095851E+02  0.18442845649E+02 -0.29508681458E+02  0.40659141267E+02  0.00000000000E+00 0.  1.
         11    1    3    3    0    0  0.94574594702E+01  0.35993762126E+00  0.13256835890E+02  0.16288547903E+02  0.51100000000E-03 0. -1.
        -11    1    3    3    0    0  0.16512025468E+02 -0.16235212613E+02  0.84376449401E+01  0.24645952326E+02  0.51100000000E-03 0.  1.
        -12    1    3    3    0    0 -0.49393890876E+01 -0.25675706571E+01  0.78142006283E+01  0.95943585037E+01  0.00000000000E+00 0.  1.
</event>
<event>
 7    1  0.9953837E-014  0.5052886E+02  0.7816164E-02  0.1300439E+00
        -11   -1    0    0    0    0  0.00000000000E+00  0.00000000000E+00  0.45593999997E+02  0.45594000000E+02  0.51100000000E-03 0. -1.
         11   -1    0    0    0    0 -0.00000000000E+00 -0.00000000000E+00 -0.45593999997E+02  0.45594000000E+02  0.51100000000E-03 0.  1.
    9900012    2    1    2    0    0 -0.14054344538E+02 -0.69390657557E+01  0.37516536686E+02  0.50528858852E+02  0.29999996968E+02 0.  0.
        -12    1    1    2    0    0  0.14054344538E+02  0.69390657557E+01 -0.37516536686E+02  0.40659141148E+02  0.00000000000E+00 0.  1.
         11    1    3    3    0    0 -0.14902837299E+01 -0.34968268080E+01  0.32932416569E+02  0.33151060385E+02  0.51100000000E-03 0. -1.
        -11    1    3    3    0    0 -0.36059035944E+01  0.26524179259E+01 -0.17741333865E+01  0.48151231677E+01  0.51100000000E-03 0.  1.
        -12    1    3    3    0    0 -0.89581572134E+01 -0.60946568736E+01  0.63582535033E+01  0.12562675299E+02  0.00000000000E+00 0.  1.
</event>
<event>
 7    1  0.9953837E-014  0.5052887E+02  0.7816164E-02  0.1300439E+00
        -11   -1    0    0    0    0  0.00000000000E+00  0.00000000000E+00  0.45593999997E+02  0.45594000000E+02  0.51100000000E-03 0. -1.
         11   -1    0    0    0    0 -0.00000000000E+00 -0.00000000000E+00 -0.45593999997E+02  0.45594000000E+02  0.51100000000E-03 0.  1.
    9900012    2    1    2    0    0 -0.53994482835E+01 -0.36101557178E+02  0.17907774448E+02  0.50528869929E+02  0.30000030637E+02 0.  0.
        -12    1    1    2    0    0  0.53994482835E+01  0.36101557178E+02 -0.17907774448E+02  0.40659130071E+02  0.00000000000E+00 0.  1.
         11    1    3    3    0    0  0.17354314438E+01 -0.28277359108E+02  0.21428942982E+02  0.35522110832E+02  0.51100000000E-03 0. -1.
        -11    1    3    3    0    0 -0.47717076188E+01  0.14548923308E+01 -0.16158845615E+01  0.52437570949E+01  0.51100000000E-03 0.  1.
         12    1    3    3    0    0 -0.23631721085E+01 -0.92790904005E+01 -0.19052839725E+01  0.97630020020E+01  0.00000000000E+00 0. -1.
</event>
<event>
 7    1  0.9953837E-014  0.5052886E+02  0.7816164E-02  0.1300439E+00
        -11   -1    0    0    0    0  0.00000000000E+00  0.00000000000E+00  0.45593999997E+02  0.45594000000E+02  0.51100000000E-03 0. -1.
         11   -1    0    0    0    0 -0.00000000000E+00 -0.00000000000E+00 -0.45593999997E+02  0.45594000000E+02  0.51100000000E-03 0.  1.
    9900012    2    1    2    0    0 -0.21090065233E+02 -0.50547309960E+01 -0.34392215921E+02  0.50528859910E+02  0.30000000181E+02 0.  0.
         12    1    1    2    0    0  0.21090065233E+02  0.50547309960E+01  0.34392215921E+02  0.40659140090E+02  0.00000000000E+00 0. -1.
         11    1    3    3    0    0 -0.23294440935E+02  0.37840693390E+00 -0.12463581633E+02  0.26421866657E+02  0.51100000000E-03 0. -1.
        -11    1    3    3    0    0 -0.95912792263E+00 -0.19456059452E+01 -0.17529359211E+02  0.17663061554E+02  0.51100000000E-03 0.  1.
         12    1    3    3    0    0  0.31635036248E+01 -0.34875319848E+01 -0.43992750768E+01  0.64439316981E+01  0.00000000000E+00 0. -1.
</event>
<event>
 7    1  0.9953837E-014  0.5052882E+02  0.7816164E-02  0.1300439E+00
        -11   -1    0    0    0    0  0.00000000000E+00  0.00000000000E+00  0.45593999997E+02  0.45594000000E+02  0.51100000000E-03 0. -1.
         11   -1    0    0    0    0 -0.00000000000E+00 -0.00000000000E+00 -0.45593999997E+02  0.45594000000E+02  0.51100000000E-03 0.  1.
    9900012    2    1    2    0    0 -0.11108066709E+02  0.10521977039E+02 -0.37670511274E+02  0.50528824326E+02  0.29999892023E+02 0.  0.
         12    1    1    2    0    0  0.11108066709E+02 -0.10521977039E+02  0.37670511274E+02  0.40659175674E+02  0.00000000000E+00 0. -1.
         11    1    3    3    0    0  0.19595401839E+01 -0.66626792592E+01 -0.68367199921E+00  0.69784310777E+01  0.51100000000E-03 0. -1.
        -11    1    3    3    0    0 -0.10762495788E+02  0.94194031185E+01 -0.18638514706E+02  0.23493631081E+02  0.51100000000E-03 0.  1.
         12    1    3    3    0    0 -0.23051111047E+01  0.77652531795E+01 -0.18348324569E+02  0.20056762167E+02  0.00000000000E+00 0. -1.
</event>
<event>
 7    1  0.9953837E-014  0.5052885E+02  0.7816164E-02  0.1300439E+00
        -11   -1    0    0    0    0  0.00000000000E+00  0.00000000000E+00  0.45593999997E+02  0.45594000000E+02  0.51100000000E-03 0.  1.
         11   -1    0    0    0    0 -0.00000000000E+00 -0.00000000000E+00 -0.45593999997E+02  0.45594000000E+02  0.51100000000E-03 0. -1.
    9900012    2    1    2    0    0  0.31144692299E+02  0.23072954962E+02  0.12280623323E+02  0.50528845824E+02  0.29999957367E+02 0.  0.
        -12    1    1    2    0    0 -0.31144692299E+02 -0.23072954962E+02 -0.12280623323E+02  0.40659154176E+02  0.00000000000E+00 0.  1.
         11    1    3    3    0    0  0.24013448114E+02  0.26272796022E+02  0.80402939243E+01  0.36490434744E+02  0.51100000000E-03 0. -1.
        -11    1    3    3    0    0 -0.28147956773E+00 -0.29480405262E+01 -0.26058881310E+01  0.39447213975E+01  0.51100000000E-03 0.  1.
         12    1    3    3    0    0  0.74127237529E+01 -0.25180053389E+00  0.68462175300E+01  0.10093689683E+02  0.00000000000E+00 0. -1.
</event>
<event>
 7    1  0.9953837E-014  0.5052886E+02  0.7816164E-02  0.1300439E+00
        -11   -1    0    0    0    0  0.00000000000E+00  0.00000000000E+00  0.45593999997E+02  0.45594000000E+02  0.51100000000E-03 0. -1.
         11   -1    0    0    0    0 -0.00000000000E+00 -0.00000000000E+00 -0.45593999997E+02  0.45594000000E+02  0.51100000000E-03 0.  1.
    9900012    2    1    2    0    0  0.91843231912E+01 -0.44958988813E+01 -0.39352263249E+02  0.50528861765E+02  0.30000005820E+02 0.  0.
         12    1    1    2    0    0 -0.91843231912E+01  0.44958988813E+01  0.39352263249E+02  0.40659138235E+02  0.00000000000E+00 0. -1.
         11    1    3    3    0    0  0.98164301143E+00 -0.72895467457E+01  0.83772253490E+00  0.74028976804E+01  0.51100000000E-03 0. -1.
        -11    1    3    3    0    0  0.48487352204E+01  0.74553213457E+01 -0.16437877289E+02  0.18689458516E+02  0.51100000000E-03 0.  1.
         12    1    3    3    0    0  0.33539449594E+01 -0.46616734813E+01 -0.23752108494E+02  0.24436505568E+02  0.00000000000E+00 0. -1.
</event>
<event>
 7    1  0.9953837E-014  0.5052886E+02  0.7816164E-02  0.1300439E+00
        -11   -1    0    0    0    0  0.00000000000E+00  0.00000000000E+00  0.45593999997E+02  0.45594000000E+02  0.51100000000E-03 0.  1.
         11   -1    0    0    0    0 -0.00000000000E+00 -0.00000000000E+00 -0.45593999997E+02  0.45594000000E+02  0.51100000000E-03 0. -1.
    9900012    2    1    2    0    0 -0.33732512906E+00 -0.39973296102E+02  0.74288343251E+01  0.50528858728E+02  0.29999996590E+02 0.  0.
        -12    1    1    2    0    0  0.33732512906E+00  0.39973296102E+02 -0.74288343251E+01  0.40659141272E+02  0.00000000000E+00 0.  1.
         11    1    3    3    0    0  0.13322689000E+02 -0.20892121935E+02  0.60504449218E+01  0.25506522404E+02  0.51100000000E-03 0. -1.
        -11    1    3    3    0    0 -0.75161803781E+01 -0.64646788914E+01  0.40994808458E+01  0.10728037291E+02  0.51100000000E-03 0.  1.
         12    1    3    3    0    0 -0.61438337513E+01 -0.12616495276E+02 -0.27210914425E+01  0.14294299033E+02  0.00000000000E+00 0. -1.
</event>
<event>
 7    1  0.9953837E-014  0.5052886E+02  0.7816164E-02  0.1300439E+00
        -11   -1    0    0    0    0  0.00000000000E+00  0.00000000000E+00  0.45593999997E+02  0.45594000000E+02  0.51100000000E-03 0. -1.
         11   -1    0    0    0    0 -0.00000000000E+00 -0.00000000000E+00 -0.45593999997E+02  0.45594000000E+02  0.51100000000E-03 0.  1.
    9900012    2    1    2    0    0  0.91181305778E+01  0.19827372268E+02 -0.34305983811E+02  0.50528861770E+02  0.30000005838E+02 0.  0.
         12    1    1    2    0    0 -0.91181305778E+01 -0.19827372268E+02  0.34305983811E+02  0.40659138230E+02  0.00000000000E+00 0. -1.
         11    1    3    3    0    0 -0.46249122454E+01  0.30682883081E+01 -0.61795471035E+01  0.83060826558E+01  0.51100000000E-03 0. -1.
        -11    1    3    3    0    0  0.14140867159E+02  0.21619239761E+02 -0.19702170801E+02  0.32488939447E+02  0.51100000000E-03 0.  1.
        -12    1    3    3    0    0 -0.39782433585E+00 -0.48601558006E+01 -0.84242659069E+01  0.97338396678E+01  0.00000000000E+00 0.  1.
</event>
<event>
 7    1  0.9953837E-014  0.5052886E+02  0.7816164E-02  0.1300439E+00
        -11   -1    0    0    0    0  0.00000000000E+00  0.00000000000E+00  0.45593999997E+02  0.45594000000E+02  0.51100000000E-03 0. -1.
         11   -1    0    0    0    0 -0.00000000000E+00 -0.00000000000E+00 -0.45593999997E+02  0.45594000000E+02  0.51100000000E-03 0.  1.
    9900012    2    1    2    0    0  0.21870228787E+02 -0.20921309730E+02  0.27150642073E+02  0.50528862368E+02  0.30000007652E+02 0.  0.
        -12    1    1    2    0    0 -0.21870228787E+02  0.20921309730E+02 -0.27150642073E+02  0.40659137632E+02  0.00000000000E+00 0.  1.
         11    1    3    3    0    0  0.10480389466E+02 -0.22477087076E+02  0.26272371525E+02  0.36128873669E+02  0.51100000000E-03 0. -1.
        -11    1    3    3    0    0  0.61114337986E+00  0.33073607064E+01  0.89303156759E+00  0.34798903309E+01  0.51100000000E-03 0.  1.
         12    1    3    3    0    0  0.10778695942E+02 -0.17515833604E+01 -0.14761019323E-01  0.10920098368E+02  0.00000000000E+00 0. -1.
</event>
<event>
 7    1  0.9953837E-014  0.5052885E+02  0.7816164E-02  0.1300439E+00
        -11   -1    0    0    0    0  0.00000000000E+00  0.00000000000E+00  0.45593999997E+02  0.45594000000E+02  0.51100000000E-03 0. -1.
         11   -1    0    0    0    0 -0.00000000000E+00 -0.00000000000E+00 -0.45593999997E+02  0.45594000000E+02  0.51100000000E-03 0.  1.
    9900012    2    1    2    0    0  0.98641891259E+01  0.17359479486E+02 -0.35419099687E+02  0.50528851241E+02  0.29999973834E+02 0.  0.
         12    1    1    2    0    0 -0.98641891259E+01 -0.17359479486E+02  0.35419099687E+02  0.40659148759E+02  0.00000000000E+00 0. -1.
         11    1    3    3    0    0 -0.21028563594E+00 -0.50870468560E+01 -0.89408171336E+01  0.10288852076E+02  0.51100000000E-03 0.  1.
        -11    1    3    3    0    0  0.14678441967E+02  0.14589503832E+02 -0.14859666994E+02  0.25477833191E+02  0.51100000000E-03 0. -1.
        -12    1    3    3    0    0 -0.46039672056E+01  0.78570225100E+01 -0.11618615559E+02  0.14762165974E+02  0.00000000000E+00 0.  1.
</event>
<event>
 7    1  0.9953837E-014  0.5052885E+02  0.7816164E-02  0.1300439E+00
        -11   -1    0    0    0    0  0.00000000000E+00  0.00000000000E+00  0.45593999997E+02  0.45594000000E+02  0.51100000000E-03 0. -1.
         11   -1    0    0    0    0 -0.00000000000E+00 -0.00000000000E+00 -0.45593999997E+02  0.45594000000E+02  0.51100000000E-03 0.  1.
    9900012    2    1    2    0    0  0.23747889484E+02 -0.11595841376E+02 -0.30898874024E+02  0.50528853328E+02  0.29999980176E+02 0.  0.
         12    1    1    2    0    0 -0.23747889484E+02  0.11595841376E+02  0.30898874024E+02  0.40659146672E+02  0.00000000000E+00 0. -1.
         11    1    3    3    0    0  0.56239795954E+01 -0.41153743433E+01  0.55707973966E+01  0.89218404139E+01  0.51100000000E-03 0. -1.
        -11    1    3    3    0    0  0.11812699659E+02 -0.66690748062E+01 -0.22829826497E+02  0.26555929849E+02  0.51100000000E-03 0.  1.
         12    1    3    3    0    0  0.63112102296E+01 -0.81139222659E+00 -0.13639844923E+02  0.15051083065E+02  0.00000000000E+00 0. -1.
</event>
<event>
 7    1  0.9953837E-014  0.5052885E+02  0.7816164E-02  0.1300439E+00
        -11   -1    0    0    0    0  0.00000000000E+00  0.00000000000E+00  0.45593999997E+02  0.45594000000E+02  0.51100000000E-03 0. -1.
         11   -1    0    0    0    0 -0.00000000000E+00 -0.00000000000E+00 -0.45593999997E+02  0.45594000000E+02  0.51100000000E-03 0.  1.
    9900012    2    1    2    0    0 -0.10741088581E+02 -0.90584963136E+01  0.38154146907E+02  0.50528852621E+02  0.29999978026E+02 0.  0.
        -12    1    1    2    0    0  0.10741088581E+02  0.90584963136E+01 -0.38154146907E+02  0.40659147379E+02  0.00000000000E+00 0.  1.
         11    1    3    3    0    0 -0.11382187836E+02  0.53639311521E+01  0.12748764757E+02  0.17912480577E+02  0.51100000000E-03 0.  1.
        -11    1    3    3    0    0  0.23326207220E+01 -0.15831803200E+02  0.25819026564E+02  0.30376129526E+02  0.51100000000E-03 0. -1.
         12    1    3    3    0    0 -0.16915214675E+01  0.14093757346E+01 -0.41364441409E+00  0.22402425175E+01  0.00000000000E+00 0. -1.
</event>
<event>
 7    1  0.9953837E-014  0.5052886E+02  0.7816164E-02  0.1300439E+00
        -11   -1    0    0    0    0  0.00000000000E+00  0.00000000000E+00  0.45593999997E+02  0.45594000000E+02  0.51100000000E-03 0. -1.
         11   -1    0    0    0    0 -0.00000000000E+00 -0.00000000000E+00 -0.45593999997E+02  0.45594000000E+02  0.51100000000E-03 0.  1.
    9900012    2    1    2    0    0  0.16136959242E+02 -0.26290206124E+02 -0.26487528377E+02  0.50528861406E+02  0.30000004731E+02 0.  0.
         12    1    1    2    0    0 -0.16136959242E+02  0.26290206124E+02  0.26487528377E+02  0.40659138594E+02  0.00000000000E+00 0. -1.
         11    1    3    3    0    0 -0.15173478228E+01 -0.10582836783E+02 -0.18877298996E+02  0.21694496916E+02  0.51100000000E-03 0. -1.
        -11    1    3    3    0    0  0.13520615344E+02 -0.89850927800E+01  0.20474743263E+01  0.16362490120E+02  0.51100000000E-03 0.  1.
        -12    1    3    3    0    0  0.41336917208E+01 -0.67222765609E+01 -0.96577037076E+01  0.12471874370E+02  0.00000000000E+00 0.  1.
</event>
<event>
 7    1  0.9953837E-014  0.5052887E+02  0.7816164E-02  0.1300439E+00
        -11   -1    0    0    0    0  0.00000000000E+00  0.00000000000E+00  0.45593999997E+02  0.45594000000E+02  0.51100000000E-03 0.  1.
         11   -1    0    0    0    0 -0.00000000000E+00 -0.00000000000E+00 -0.45593999997E+02  0.45594000000E+02  0.51100000000E-03 0. -1.
    9900012    2    1    2    0    0 -0.27947474581E+02  0.28377413498E+02 -0.81747177444E+01  0.50528868892E+02  0.30000027483E+02 0.  0.
         12    1    1    2    0    0  0.27947474581E+02 -0.28377413498E+02  0.81747177444E+01  0.40659131108E+02  0.00000000000E+00 0. -1.
         11    1    3    3    0    0 -0.38736413927E+01  0.23641622839E+00 -0.64531051696E+01  0.75301764165E+01  0.51100000000E-03 0. -1.
        -11    1    3    3    0    0 -0.15404239339E+02  0.27886904469E+02  0.47046533777E+01  0.32204095922E+02  0.51100000000E-03 0.  1.
        -12    1    3    3    0    0 -0.86695938491E+01  0.25409280031E+00 -0.64262659525E+01  0.10794596553E+02  0.00000000000E+00 0.  1.
</event>
<event>
 7    1  0.9953837E-014  0.5052885E+02  0.7816164E-02  0.1300439E+00
        -11   -1    0    0    0    0  0.00000000000E+00  0.00000000000E+00  0.45593999997E+02  0.45594000000E+02  0.51100000000E-03 0. -1.
         11   -1    0    0    0    0 -0.00000000000E+00 -0.00000000000E+00 -0.45593999997E+02  0.45594000000E+02  0.51100000000E-03 0.  1.
    9900012    2    1    2    0    0  0.30182169977E+02 -0.61428627998E+01  0.26541827646E+02  0.50528846508E+02  0.29999959445E+02 0.  0.
        -12    1    1    2    0    0 -0.30182169977E+02  0.61428627998E+01 -0.26541827646E+02  0.40659153492E+02  0.00000000000E+00 0.  1.
         11    1    3    3    0    0  0.10932822469E+02  0.77488250297E+01  0.14559056326E+02  0.19787294354E+02  0.51100000000E-03 0. -1.
        -11    1    3    3    0    0  0.13529269144E+02 -0.15280689778E+02  0.13734231585E+02  0.24600197584E+02  0.51100000000E-03 0.  1.
         12    1    3    3    0    0  0.57200783641E+01  0.13890019483E+01 -0.17514602646E+01  0.61413545706E+01  0.00000000000E+00 0. -1.
</event>
<event>
 7    1  0.9953837E-014  0.5052886E+02  0.7816164E-02  0.1300439E+00
        -11   -1    0    0    0    0  0.00000000000E+00  0.00000000000E+00  0.45593999997E+02  0.45594000000E+02  0.51100000000E-03 0. -1.
         11   -1    0    0    0    0 -0.00000000000E+00 -0.00000000000E+00 -0.45593999997E+02  0.45594000000E+02  0.51100000000E-03 0.  1.
    9900012    2    1    2    0    0  0.28605509968E+02 -0.22534665104E+02  0.18085330060E+02  0.50528862094E+02  0.30000006820E+02 0.  0.
        -12    1    1    2    0    0 -0.28605509968E+02  0.22534665104E+02 -0.18085330060E+02  0.40659137906E+02  0.00000000000E+00 0.  1.
         11    1    3    3    0    0 -0.37016279941E+01 -0.44343237000E+01  0.10195562068E+02  0.11718138190E+02  0.51100000000E-03 0. -1.
        -11    1    3    3    0    0  0.19804523537E+02 -0.10002943731E+02  0.88426683411E+01  0.23884530966E+02  0.51100000000E-03 0.  1.
         12    1    3    3    0    0  0.12502614425E+02 -0.80973976737E+01 -0.95290034929E+00  0.14926192938E+02  0.00000000000E+00 0. -1.
</event>
<event>
 7    1  0.9953837E-014  0.5052886E+02  0.7816164E-02  0.1300439E+00
        -11   -1    0    0    0    0  0.00000000000E+00  0.00000000000E+00  0.45593999997E+02  0.45594000000E+02  0.51100000000E-03 0. -1.
         11   -1    0    0    0    0 -0.00000000000E+00 -0.00000000000E+00 -0.45593999997E+02  0.45594000000E+02  0.51100000000E-03 0.  1.
    9900012    2    1    2    0    0  0.28318315202E+02  0.16359280725E+02  0.24158073157E+02  0.50528861539E+02  0.30000005134E+02 0.  0.
        -12    1    1    2    0    0 -0.28318315202E+02 -0.16359280725E+02 -0.24158073157E+02  0.40659138461E+02  0.00000000000E+00 0.  1.
         11    1    3    3    0    0  0.18318322611E+02  0.14018678123E+02  0.12854999197E+01  0.23102744208E+02  0.51100000000E-03 0. -1.
        -11    1    3    3    0    0  0.84075734257E+01  0.65251809331E+01  0.15551730376E+02  0.18844670204E+02  0.51100000000E-03 0.  1.
         12    1    3    3    0    0  0.15924191651E+01 -0.41845783315E+01  0.73208428611E+01  0.85814471278E+01  0.00000000000E+00 0. -1.
</event>
<event>
 7    1  0.9953837E-014  0.5052886E+02  0.7816164E-02  0.1300439E+00
        -11   -1    0    0    0    0  0.00000000000E+00  0.00000000000E+00  0.45593999997E+02  0.45594000000E+02  0.51100000000E-03 0. -1.
         11   -1    0    0    0    0 -0.00000000000E+00 -0.00000000000E+00 -0.45593999997E+02  0.45594000000E+02  0.51100000000E-03 0.  1.
    9900012    2    1    2    0    0  0.94445693136E+01 -0.22549254898E+02  0.32488405714E+02  0.50528864596E+02  0.30000014426E+02 0.  0.
        -12    1    1    2    0    0 -0.94445693136E+01  0.22549254898E+02 -0.32488405714E+02  0.40659135404E+02  0.00000000000E+00 0.  1.
         11    1    3    3    0    0  0.98028981844E+01 -0.20128248592E+00  0.31019911798E+01  0.10283952401E+02  0.51100000000E-03 0. -1.
        -11    1    3    3    0    0 -0.72178603700E+01 -0.48359260270E+01  0.94754688158E+01  0.12855667948E+02  0.51100000000E-03 0.  1.
         12    1    3    3    0    0  0.68595314992E+01 -0.17512046385E+02  0.19910945719E+02  0.27389244246E+02  0.00000000000E+00 0. -1.
</event>
<event>
 7    1  0.9953837E-014  0.5052885E+02  0.7816164E-02  0.1300439E+00
        -11   -1    0    0    0    0  0.00000000000E+00  0.00000000000E+00  0.45593999997E+02  0.45594000000E+02  0.51100000000E-03 0. -1.
         11   -1    0    0    0    0 -0.00000000000E+00 -0.00000000000E+00 -0.45593999997E+02  0.45594000000E+02  0.51100000000E-03 0.  1.
    9900012    2    1    2    0    0  0.15350991943E+02  0.16985316230E+02  0.33600785172E+02  0.50528847460E+02  0.29999962340E+02 0.  0.
        -12    1    1    2    0    0 -0.15350991943E+02 -0.16985316230E+02 -0.33600785172E+02  0.40659152540E+02  0.00000000000E+00 0.  1.
         11    1    3    3    0    0  0.64861315060E+01  0.57667902621E+01  0.15234416829E+02  0.17533203593E+02  0.51100000000E-03 0. -1.
        -11    1    3    3    0    0 -0.63919036979E+01 -0.25286803212E+01  0.47221527905E+01  0.83396273471E+01  0.51100000000E-03 0.  1.
        -12    1    3    3    0    0  0.15256764135E+02  0.13747206289E+02  0.13644215553E+02  0.24656016521E+02  0.00000000000E+00 0.  1.
</event>
<event>
 7    1  0.9953837E-014  0.5052884E+02  0.7816164E-02  0.1300439E+00
        -11   -1    0    0    0    0  0.00000000000E+00  0.00000000000E+00  0.45593999997E+02  0.45594000000E+02  0.51100000000E-03 0.  1.
         11   -1    0    0    0    0 -0.00000000000E+00 -0.00000000000E+00 -0.45593999997E+02  0.45594000000E+02  0.51100000000E-03 0. -1.
    9900012    2    1    2    0    0 -0.26271098427E+02  0.37059086566E+00 -0.31029975282E+02  0.50528839701E+02  0.29999938756E+02 0.  0.
         12    1    1    2    0    0  0.26271098427E+02 -0.37059086566E+00  0.31029975282E+02  0.40659160299E+02  0.00000000000E+00 0. -1.
         11    1    3    3    0    0 -0.17980088277E+01 -0.10927303711E+02 -0.61125033974E+01  0.12649169941E+02  0.51100000000E-03 0. -1.
        -11    1    3    3    0    0 -0.84368505892E+01  0.89016449388E+01 -0.11865114616E+02  0.17064603001E+02  0.51100000000E-03 0.  1.
        -12    1    3    3    0    0 -0.16036239011E+02  0.23962496381E+01 -0.13052357269E+02  0.20815066760E+02  0.00000000000E+00 0.  1.
</event>
<event>
 7    1  0.9953837E-014  0.5052887E+02  0.7816164E-02  0.1300439E+00
        -11   -1    0    0    0    0  0.00000000000E+00  0.00000000000E+00  0.45593999997E+02  0.45594000000E+02  0.51100000000E-03 0. -1.
         11   -1    0    0    0    0 -0.00000000000E+00 -0.00000000000E+00 -0.45593999997E+02  0.45594000000E+02  0.51100000000E-03 0.  1.
    9900012    2    1    2    0    0  0.14675315608E+02  0.14456633972E+02  0.35054328676E+02  0.50528866796E+02  0.30000021113E+02 0.  0.
        -12    1    1    2    0    0 -0.14675315608E+02 -0.14456633972E+02 -0.35054328676E+02  0.40659133204E+02  0.00000000000E+00 0.  1.
         11    1    3    3    0    0  0.27070108771E+01  0.12010546008E+02  0.11986448516E+02  0.17183016952E+02  0.51100000000E-03 0. -1.
        -11    1    3    3    0    0  0.25784568246E+01 -0.80298822248E+00 -0.38214896191E+01  0.46794244146E+01  0.51100000000E-03 0.  1.
        -12    1    3    3    0    0  0.93898479061E+01  0.32490761866E+01  0.26889369779E+02  0.28666425429E+02  0.00000000000E+00 0.  1.
</event>
<event>
 7    1  0.1124589E-013  0.5052886E+02  0.7816164E-02  0.1300439E+00
        -11   -1    0    0    0    0  0.00000000000E+00  0.00000000000E+00  0.45593999997E+02  0.45594000000E+02  0.51100000000E-03 0. -1.
         11   -1    0    0    0    0 -0.00000000000E+00 -0.00000000000E+00 -0.45593999997E+02  0.45594000000E+02  0.51100000000E-03 0.  1.
    9900012    2    1    2    0    0  0.23686782432E+02  0.24354402730E+02  0.22337519604E+02  0.50528863556E+02  0.30000011265E+02 0.  0.
        -12    1    1    2    0    0 -0.23686782432E+02 -0.24354402730E+02 -0.22337519604E+02  0.40659136444E+02  0.00000000000E+00 0.  1.
         11    1    3    3    0    0  0.24226318167E+02  0.12742612680E+02  0.19013287179E+02  0.33328572719E+02  0.51100000000E-03 0. -1.
        -11    1    3    3    0    0 -0.17124504940E+01 -0.23258414769E+01  0.63405964645E+00  0.29570351987E+01  0.51100000000E-03 0.  1.
         12    1    3    3    0    0  0.11729147589E+01  0.13937631527E+02  0.26901727786E+01  0.14243255638E+02  0.00000000000E+00 0. -1.
</event>
<event>
 7    1  0.1086788E-013  0.5052886E+02  0.7816164E-02  0.1300439E+00
        -11   -1    0    0    0    0  0.00000000000E+00  0.00000000000E+00  0.45593999997E+02  0.45594000000E+02  0.51100000000E-03 0. -1.
         11   -1    0    0    0    0 -0.00000000000E+00 -0.00000000000E+00 -0.45593999997E+02  0.45594000000E+02  0.51100000000E-03 0.  1.
    9900012    2    1    2    0    0  0.19869472018E+02 -0.10028537117E+02  0.34026430227E+02  0.50528862910E+02  0.30000009300E+02 0.  0.
        -12    1    1    2    0    0 -0.19869472018E+02  0.10028537117E+02 -0.34026430227E+02  0.40659137090E+02  0.00000000000E+00 0.  1.
         11    1    3    3    0    0  0.66181856770E+01 -0.78192812439E+01 -0.11943847536E+01  0.10313490972E+02  0.51100000000E-03 0. -1.
        -11    1    3    3    0    0  0.40862697096E+01  0.58970696375E+01  0.12879940119E+02  0.14743333686E+02  0.51100000000E-03 0.  1.
         12    1    3    3    0    0  0.91650166311E+01 -0.81063255108E+01  0.22340874861E+02  0.25472038251E+02  0.00000000000E+00 0. -1.
</event>
<event>
 7    1  0.9953837E-014  0.5052886E+02  0.7816164E-02  0.1300439E+00
        -11   -1    0    0    0    0  0.00000000000E+00  0.00000000000E+00  0.45593999997E+02  0.45594000000E+02  0.51100000000E-03 0. -1.
         11   -1    0    0    0    0 -0.00000000000E+00 -0.00000000000E+00 -0.45593999997E+02  0.45594000000E+02  0.51100000000E-03 0.  1.
    9900012    2    1    2    0    0  0.25838830090E+02  0.41568753015E+01 -0.31116568359E+02  0.50528861063E+02  0.30000003687E+02 0.  0.
         12    1    1    2    0    0 -0.25838830090E+02 -0.41568753015E+01  0.31116568359E+02  0.40659138937E+02  0.00000000000E+00 0. -1.
         11    1    3    3    0    0  0.37720580210E+01 -0.14238856982E+01 -0.15198299992E+02  0.15724000607E+02  0.51100000000E-03 0. -1.
        -11    1    3    3    0    0  0.17348941290E+02 -0.29767210587E+01 -0.18829917286E+01  0.17702889319E+02  0.51100000000E-03 0.  1.
        -12    1    3    3    0    0  0.47178307789E+01  0.85574820584E+01 -0.14035276638E+02  0.17101971136E+02  0.00000000000E+00 0.  1.
</event>
<event>
 7    1  0.9953837E-014  0.5052896E+02  0.7816164E-02  0.1300438E+00
        -11   -1    0    0    0    0  0.00000000000E+00  0.00000000000E+00  0.45593999997E+02  0.45594000000E+02  0.51100000000E-03 0. -1.
         11   -1    0    0    0    0 -0.00000000000E+00 -0.00000000000E+00 -0.45593999997E+02  0.45594000000E+02  0.51100000000E-03 0.  1.
    9900012    2    1    2    0    0  0.19185575448E+02 -0.13206525722E+02 -0.33326545335E+02  0.50528963478E+02  0.30000314986E+02 0.  0.
         12    1    1    2    0    0 -0.19185575448E+02  0.13206525722E+02  0.33326545335E+02  0.40659036522E+02  0.00000000000E+00 0. -1.
         11    1    3    3    0    0  0.50980932838E+00  0.64843639426E+01 -0.79719800352E+01  0.10288797171E+02  0.51100000000E-03 0. -1.
        -11    1    3    3    0    0  0.17836321794E+02 -0.93004882638E+01 -0.20568450930E+02  0.28769682497E+02  0.51100000000E-03 0.  1.
         12    1    3    3    0    0  0.83944432567E+00 -0.10390401401E+02 -0.47861143704E+01  0.11470483809E+02  0.00000000000E+00 0. -1.
</event>
<event>
 7    1  0.9953837E-014  0.5052887E+02  0.7816164E-02  0.1300439E+00
        -11   -1    0    0    0    0  0.00000000000E+00  0.00000000000E+00  0.45593999997E+02  0.45594000000E+02  0.51100000000E-03 0. -1.
         11   -1    0    0    0    0 -0.00000000000E+00 -0.00000000000E+00 -0.45593999997E+02  0.45594000000E+02  0.51100000000E-03 0.  1.
    9900012    2    1    2    0    0  0.11048411494E+02 -0.18050764638E+02  0.34716965511E+02  0.50528865788E+02  0.30000018051E+02 0.  0.
        -12    1    1    2    0    0 -0.11048411494E+02  0.18050764638E+02 -0.34716965511E+02  0.40659134212E+02  0.00000000000E+00 0.  1.
         11    1    3    3    0    0  0.20608033305E+02 -0.16507783577E+02  0.21228319431E+02  0.33879780127E+02  0.51100000000E-03 0. -1.
        -11    1    3    3    0    0 -0.36548569287E+01 -0.99178236838E+00  0.60227217996E+01  0.71144071835E+01  0.51100000000E-03 0.  1.
         12    1    3    3    0    0 -0.59047648827E+01 -0.55119869271E+00  0.74659242805E+01  0.95346784781E+01  0.00000000000E+00 0. -1.
</event>
<event>
 7    1  0.9953837E-014  0.5052886E+02  0.7816164E-02  0.1300439E+00
        -11   -1    0    0    0    0  0.00000000000E+00  0.00000000000E+00  0.45593999997E+02  0.45594000000E+02  0.51100000000E-03 0. -1.
         11   -1    0    0    0    0 -0.00000000000E+00 -0.00000000000E+00 -0.45593999997E+02  0.45594000000E+02  0.51100000000E-03 0.  1.
    9900012    2    1    2    0    0  0.23691950108E+02  0.60175812171E+01 -0.32490699045E+02  0.50528864396E+02  0.30000013818E+02 0.  0.
         12    1    1    2    0    0 -0.23691950108E+02 -0.60175812171E+01  0.32490699045E+02  0.40659135604E+02  0.00000000000E+00 0. -1.
         11    1    3    3    0    0  0.29965700631E+01 -0.34240390805E+00  0.64920897814E+00  0.30851491273E+01  0.51100000000E-03 0. -1.
        -11    1    3    3    0    0  0.19249627432E+02  0.26038074049E+01 -0.37049331756E+02  0.41832773672E+02  0.51100000000E-03 0.  1.
        -12    1    3    3    0    0  0.14457526125E+01  0.37561777203E+01  0.39094237324E+01  0.56109415968E+01  0.00000000000E+00 0.  1.
</event>
<event>
 7    1  0.9953837E-014  0.5052889E+02  0.7816164E-02  0.1300439E+00
        -11   -1    0    0    0    0  0.00000000000E+00  0.00000000000E+00  0.45593999997E+02  0.45594000000E+02  0.51100000000E-03 0. -1.
         11   -1    0    0    0    0 -0.00000000000E+00 -0.00000000000E+00 -0.45593999997E+02  0.45594000000E+02  0.51100000000E-03 0.  1.
    9900012    2    1    2    0    0 -0.77765730849E+01  0.11735369535E+02  0.38144058589E+02  0.50528890409E+02  0.30000092889E+02 0.  0.
        -12    1    1    2    0    0  0.77765730849E+01 -0.11735369535E+02 -0.38144058589E+02  0.40659109591E+02  0.00000000000E+00 0.  1.
         11    1    3    3    0    0 -0.29471653944E+01 -0.34992840745E+01  0.10192833846E+02  0.11172494572E+02  0.51100000000E-03 0. -1.
        -11    1    3    3    0    0  0.77124078612E+01  0.53545612629E+01  0.32327053196E+01  0.99299015746E+01  0.51100000000E-03 0.  1.
        -12    1    3    3    0    0 -0.12541815552E+02  0.98800923461E+01  0.24718519423E+02  0.29426494263E+02  0.00000000000E+00 0.  1.
</event>
<event>
 7    1  0.9953837E-014  0.5052884E+02  0.7816164E-02  0.1300439E+00
        -11   -1    0    0    0    0  0.00000000000E+00  0.00000000000E+00  0.45593999997E+02  0.45594000000E+02  0.51100000000E-03 0. -1.
         11   -1    0    0    0    0 -0.00000000000E+00 -0.00000000000E+00 -0.45593999997E+02  0.45594000000E+02  0.51100000000E-03 0.  1.
    9900012    2    1    2    0    0  0.91080484441E+01  0.85592142244E+01 -0.38690442745E+02  0.50528842921E+02  0.29999948543E+02 0.  0.
         12    1    1    2    0    0 -0.91080484441E+01 -0.85592142244E+01  0.38690442745E+02  0.40659157079E+02  0.00000000000E+00 0. -1.
         11    1    3    3    0    0  0.16368715603E+02  0.10601203855E+02 -0.13236692484E+02  0.23569692443E+02  0.51100000000E-03 0. -1.
        -11    1    3    3    0    0 -0.27141869619E+01  0.14949944633E+01 -0.98633956390E+01  0.10338684302E+02  0.51100000000E-03 0.  1.
         12    1    3    3    0    0 -0.45464801975E+01 -0.35369840936E+01 -0.15590354622E+02  0.16620466176E+02  0.00000000000E+00 0. -1.
</event>
<event>
 7    1  0.9953837E-014  0.5052888E+02  0.7816164E-02  0.1300439E+00
        -11   -1    0    0    0    0  0.00000000000E+00  0.00000000000E+00  0.45593999997E+02  0.45594000000E+02  0.51100000000E-03 0. -1.
         11   -1    0    0    0    0 -0.00000000000E+00 -0.00000000000E+00 -0.45593999997E+02  0.45594000000E+02  0.51100000000E-03 0.  1.
    9900012    2    1    2    0    0 -0.24609948557E+01  0.31301093598E+02  0.25833098940E+02  0.50528881011E+02  0.30000064320E+02 0.  0.
        -12    1    1    2    0    0  0.24609948557E+01 -0.31301093598E+02 -0.25833098940E+02  0.40659118989E+02  0.00000000000E+00 0.  1.
         11    1    3    3    0    0  0.40078784779E+01  0.20415182363E+02  0.25826659427E+02  0.33164123662E+02  0.51100000000E-03 0. -1.
        -11    1    3    3    0    0 -0.25726333878E+01  0.72541615179E+01 -0.56857420467E+01  0.95691674015E+01  0.51100000000E-03 0.  1.
        -12    1    3    3    0    0 -0.38962399458E+01  0.36317497173E+01  0.56921815596E+01  0.77955899477E+01  0.00000000000E+00 0.  1.
</event>
<event>
 7    1  0.9953837E-014  0.5052887E+02  0.7816164E-02  0.1300439E+00
        -11   -1    0    0    0    0  0.00000000000E+00  0.00000000000E+00  0.45593999997E+02  0.45594000000E+02  0.51100000000E-03 0. -1.
         11   -1    0    0    0    0 -0.00000000000E+00 -0.00000000000E+00 -0.45593999997E+02  0.45594000000E+02  0.51100000000E-03 0.  1.
    9900012    2    1    2    0    0  0.28513426551E+01  0.40241414552E+02  0.50659117714E+01  0.50528867420E+02  0.30000023011E+02 0.  0.
        -12    1    1    2    0    0 -0.28513426551E+01 -0.40241414552E+02 -0.50659117714E+01  0.40659132580E+02  0.00000000000E+00 0.  1.
         11    1    3    3    0    0  0.35930766386E+01  0.44720595816E+02  0.71503994046E+01  0.45430937716E+02  0.51100000000E-03 0. -1.
        -11    1    3    3    0    0 -0.98843176469E-01 -0.28474224993E+01 -0.16447678558E+01  0.32898094813E+01  0.51100000000E-03 0.  1.
         12    1    3    3    0    0 -0.64289080704E+00 -0.16317587652E+01 -0.43971977746E+00  0.18081202228E+01  0.00000000000E+00 0. -1.
</event>
<event>
 7    1  0.9953837E-014  0.5052886E+02  0.7816164E-02  0.1300439E+00
        -11   -1    0    0    0    0  0.00000000000E+00  0.00000000000E+00  0.45593999997E+02  0.45594000000E+02  0.51100000000E-03 0. -1.
         11   -1    0    0    0    0 -0.00000000000E+00 -0.00000000000E+00 -0.45593999997E+02  0.45594000000E+02  0.51100000000E-03 0.  1.
    9900012    2    1    2    0    0  0.29648755945E+02 -0.37887169044E+00  0.27820370736E+02  0.50528864487E+02  0.30000014093E+02 0.  0.
        -12    1    1    2    0    0 -0.29648755945E+02  0.37887169044E+00 -0.27820370736E+02  0.40659135513E+02  0.00000000000E+00 0.  1.
         11    1    3    3    0    0  0.87039541554E+01 -0.11664308044E+01  0.28165353452E+02  0.29502652662E+02  0.51100000000E-03 0. -1.
        -11    1    3    3    0    0  0.10001981230E+02  0.11652833103E+01 -0.38042222709E+00  0.10076816712E+02  0.51100000000E-03 0.  1.
         12    1    3    3    0    0  0.10942820559E+02 -0.37772419632E+00  0.35439510597E-01  0.10949395112E+02  0.00000000000E+00 0. -1.
</event>
<event>
 7    1  0.9953837E-014  0.5052886E+02  0.7816164E-02  0.1300439E+00
        -11   -1    0    0    0    0  0.00000000000E+00  0.00000000000E+00  0.45593999997E+02  0.45594000000E+02  0.51100000000E-03 0. -1.
         11   -1    0    0    0    0 -0.00000000000E+00 -0.00000000000E+00 -0.45593999997E+02  0.45594000000E+02  0.51100000000E-03 0.  1.
    9900012    2    1    2    0    0  0.35862265823E+01  0.33367366567E+02  0.22954806623E+02  0.50528864252E+02  0.30000013380E+02 0.  0.
        -12    1    1    2    0    0 -0.35862265823E+01 -0.33367366567E+02 -0.22954806623E+02  0.40659135748E+02  0.00000000000E+00 0.  1.
         11    1    3    3    0    0 -0.25076188294E+01  0.15149629570E+02 -0.42120937695E+00  0.15361537875E+02  0.51100000000E-03 0. -1.
        -11    1    3    3    0    0  0.77927100074E+01  0.14054741494E+02  0.25541565724E+02  0.30176707368E+02  0.51100000000E-03 0.  1.
        -12    1    3    3    0    0 -0.16988645958E+01  0.41629955033E+01 -0.21655497243E+01  0.49906190081E+01  0.00000000000E+00 0.  1.
</event>
<event>
 7    1  0.9953837E-014  0.5052885E+02  0.7816164E-02  0.1300439E+00
        -11   -1    0    0    0    0  0.00000000000E+00  0.00000000000E+00  0.45593999997E+02  0.45594000000E+02  0.51100000000E-03 0. -1.
         11   -1    0    0    0    0 -0.00000000000E+00 -0.00000000000E+00 -0.45593999997E+02  0.45594000000E+02  0.51100000000E-03 0.  1.
    9900012    2    1    2    0    0  0.72006488727E+01  0.58184829373E+01  0.39591186269E+02  0.50528854435E+02  0.29999983541E+02 0.  0.
        -12    1    1    2    0    0 -0.72006488727E+01 -0.58184829373E+01 -0.39591186269E+02  0.40659145565E+02  0.00000000000E+00 0.  1.
         11    1    3    3    0    0 -0.58128332605E+01  0.24374091708E+00  0.67277861937E+01  0.88944672397E+01  0.51100000000E-03 0. -1.
        -11    1    3    3    0    0  0.13433470263E+02  0.12534886224E+02  0.21281962911E+02  0.28115893043E+02  0.51100000000E-03 0.  1.
        -12    1    3    3    0    0 -0.41998812960E+00 -0.69601442042E+01  0.11581437164E+02  0.13518494153E+02  0.00000000000E+00 0.  1.
</event>
<event>
 7    1  0.9953837E-014  0.5052886E+02  0.7816164E-02  0.1300439E+00
        -11   -1    0    0    0    0  0.00000000000E+00  0.00000000000E+00  0.45593999997E+02  0.45594000000E+02  0.51100000000E-03 0. -1.
         11   -1    0    0    0    0 -0.00000000000E+00 -0.00000000000E+00 -0.45593999997E+02  0.45594000000E+02  0.51100000000E-03 0.  1.
    9900012    2    1    2    0    0 -0.36668452205E+01  0.33403662911E+02  0.22889190472E+02  0.50528862156E+02  0.30000007009E+02 0.  0.
        -12    1    1    2    0    0  0.36668452205E+01 -0.33403662911E+02 -0.22889190472E+02  0.40659137844E+02  0.00000000000E+00 0.  1.
         11    1    3    3    0    0  0.77629145614E+01  0.22728770785E+02  0.18264581473E+02  0.30173743562E+02  0.51100000000E-03 0. -1.
        -11    1    3    3    0    0  0.11540424770E+01 -0.10077969347E+01 -0.14811482369E+01  0.21310253544E+01  0.51100000000E-03 0.  1.
         12    1    3    3    0    0 -0.12583802259E+02  0.11682689061E+02  0.61057572362E+01  0.18224093240E+02  0.00000000000E+00 0. -1.
</event>
<event>
 7    1  0.9953837E-014  0.5052888E+02  0.7816164E-02  0.1300439E+00
        -11   -1    0    0    0    0  0.00000000000E+00  0.00000000000E+00  0.45593999997E+02  0.45594000000E+02  0.51100000000E-03 0. -1.
         11   -1    0    0    0    0 -0.00000000000E+00 -0.00000000000E+00 -0.45593999997E+02  0.45594000000E+02  0.51100000000E-03 0.  1.
    9900012    2    1    2    0    0 -0.22253755780E+02  0.28068542715E+01 -0.33912472322E+02  0.50528882251E+02  0.30000068089E+02 0.  0.
         12    1    1    2    0    0  0.22253755780E+02 -0.28068542715E+01  0.33912472322E+02  0.40659117749E+02  0.00000000000E+00 0. -1.
         11    1    3    3    0    0 -0.18686118565E+02 -0.85740107178E+01 -0.13422627431E+02  0.24553036761E+02  0.51100000000E-03 0. -1.
        -11    1    3    3    0    0 -0.19377639846E+01  0.68506503207E+01 -0.19887985830E+02  0.21123880318E+02  0.51100000000E-03 0.  1.
         12    1    3    3    0    0 -0.16298732302E+01  0.45302146686E+01 -0.60185906124E+00  0.48519651709E+01  0.00000000000E+00 0. -1.
</event>
<event>
 7    1  0.9953837E-014  0.5052886E+02  0.7816164E-02  0.1300439E+00
        -11   -1    0    0    0    0  0.00000000000E+00  0.00000000000E+00  0.45593999997E+02  0.45594000000E+02  0.51100000000E-03 0. -1.
         11   -1    0    0    0    0 -0.00000000000E+00 -0.00000000000E+00 -0.45593999997E+02  0.45594000000E+02  0.51100000000E-03 0.  1.
    9900012    2    1    2    0    0 -0.36194930312E+02 -0.17955472355E+02  0.45490224635E+01  0.50528861136E+02  0.30000003909E+02 0.  0.
        -12    1    1    2    0    0  0.36194930312E+02  0.17955472355E+02 -0.45490224635E+01  0.40659138864E+02  0.00000000000E+00 0.  1.
         11    1    3    3    0    0 -0.16307466426E+02 -0.13035095823E+02 -0.17344256536E+01  0.20948876269E+02  0.51100000000E-03 0. -1.
        -11    1    3    3    0    0 -0.16103549200E+02  0.60874649683E+01  0.29009376790E+01  0.17458435390E+02  0.51100000000E-03 0.  1.
        -12    1    3    3    0    0 -0.37839146864E+01 -0.11007841501E+02  0.33825104381E+01  0.12121549477E+02  0.00000000000E+00 0.  1.
</event>
<event>
 7    1  0.9953837E-014  0.5052887E+02  0.7816164E-02  0.1300439E+00
        -11   -1    0    0    0    0  0.00000000000E+00  0.00000000000E+00  0.45593999997E+02  0.45594000000E+02  0.51100000000E-03 0.  1.
         11   -1    0    0    0    0 -0.00000000000E+00 -0.00000000000E+00 -0.45593999997E+02  0.45594000000E+02  0.51100000000E-03 0. -1.
    9900012    2    1    2    0    0  0.17982326477E+02  0.30599749988E+02  0.19835722819E+02  0.50528872309E+02  0.30000037871E+02 0.  0.
        -12    1    1    2    0    0 -0.17982326477E+02 -0.30599749988E+02 -0.19835722819E+02  0.40659127691E+02  0.00000000000E+00 0.  1.
         11    1    3    3    0    0  0.68417700891E+01  0.24013544967E+02  0.25445438123E+02  0.35650111940E+02  0.51100000000E-03 0. -1.
        -11    1    3    3    0    0  0.80833342210E+01  0.64475557057E+01 -0.57198261308E+01  0.11816415613E+02  0.51100000000E-03 0.  1.
         12    1    3    3    0    0  0.30572221667E+01  0.13864931503E+00  0.11011082683E+00  0.30623447558E+01  0.00000000000E+00 0. -1.
</event>
<event>
 7    1  0.9953837E-014  0.5052889E+02  0.7816164E-02  0.1300439E+00
        -11   -1    0    0    0    0  0.00000000000E+00  0.00000000000E+00  0.45593999997E+02  0.45594000000E+02  0.51100000000E-03 0. -1.
         11   -1    0    0    0    0 -0.00000000000E+00 -0.00000000000E+00 -0.45593999997E+02  0.45594000000E+02  0.51100000000E-03 0.  1.
    9900012    2    1    2    0    0  0.17768339838E+02 -0.22902897437E+02  0.28511521363E+02  0.50528887097E+02  0.30000082820E+02 0.  0.
        -12    1    1    2    0    0 -0.17768339838E+02  0.22902897437E+02 -0.28511521363E+02  0.40659112903E+02  0.00000000000E+00 0.  1.
         11    1    3    3    0    0  0.39711202306E+01 -0.24631999526E+02  0.19445524307E+02  0.31632793306E+02  0.51100000000E-03 0. -1.
        -11    1    3    3    0    0  0.79790487849E+01  0.36353019156E+01  0.10817508430E+01  0.88346377785E+01  0.51100000000E-03 0.  1.
         12    1    3    3    0    0  0.58181708223E+01 -0.19061998273E+01  0.79842462130E+01  0.10061456012E+02  0.00000000000E+00 0. -1.
</event>
<event>
 7    1  0.9953837E-014  0.5052886E+02  0.7816164E-02  0.1300439E+00
        -11   -1    0    0    0    0  0.00000000000E+00  0.00000000000E+00  0.45593999997E+02  0.45594000000E+02  0.51100000000E-03 0. -1.
         11   -1    0    0    0    0 -0.00000000000E+00 -0.00000000000E+00 -0.45593999997E+02  0.45594000000E+02  0.51100000000E-03 0.  1.
    9900012    2    1    2    0    0  0.15924461735E+02  0.13491432899E+01  0.37386587803E+02  0.50528860600E+02  0.30000002280E+02 0.  0.
        -12    1    1    2    0    0 -0.15924461735E+02 -0.13491432899E+01 -0.37386587803E+02  0.40659139400E+02  0.00000000000E+00 0.  1.
         11    1    3    3    0    0  0.49840213913E+01  0.37681869588E+01  0.12513802396E+02  0.13986956526E+02  0.51100000000E-03 0. -1.
        -11    1    3    3    0    0 -0.70523474110E+01 -0.48952930413E+01  0.87009751703E+01  0.12223193819E+02  0.51100000000E-03 0.  1.
        -12    1    3    3    0    0  0.17992787755E+02  0.24762493724E+01  0.16171810237E+02  0.24318710255E+02  0.00000000000E+00 0.  1.
</event>
<event>
 7    1  0.9953837E-014  0.5052886E+02  0.7816164E-02  0.1300439E+00
        -11   -1    0    0    0    0  0.00000000000E+00  0.00000000000E+00  0.45593999997E+02  0.45594000000E+02  0.51100000000E-03 0. -1.
         11   -1    0    0    0    0 -0.00000000000E+00 -0.00000000000E+00 -0.45593999997E+02  0.45594000000E+02  0.51100000000E-03 0.  1.
    9900012    2    1    2    0    0 -0.11232099820E+02 -0.18487626544E+02  0.34426926157E+02  0.50528860238E+02  0.30000001178E+02 0.  0.
        -12    1    1    2    0    0  0.11232099820E+02  0.18487626544E+02 -0.34426926157E+02  0.40659139762E+02  0.00000000000E+00 0.  1.
         11    1    3    3    0    0 -0.22616024406E+01 -0.75690881426E+01  0.29508921326E+02  0.30548033963E+02  0.51100000000E-03 0. -1.
        -11    1    3    3    0    0 -0.29963992644E+01  0.23044893217E+00 -0.36315059942E+01  0.47137406917E+01  0.51100000000E-03 0.  1.
        -12    1    3    3    0    0 -0.59740981150E+01 -0.11148987334E+02  0.85495108256E+01  0.15267085583E+02  0.00000000000E+00 0.  1.
</event>
<event>
 7    1  0.9953837E-014  0.5052873E+02  0.7816164E-02  0.1300439E+00
        -11   -1    0    0    0    0  0.00000000000E+00  0.00000000000E+00  0.45593999997E+02  0.45594000000E+02  0.51100000000E-03 0. -1.
         11   -1    0    0    0    0 -0.00000000000E+00 -0.00000000000E+00 -0.45593999997E+02  0.45594000000E+02  0.51100000000E-03 0.  1.
    9900012    2    1    2    0    0 -0.47687645307E-01  0.77116619859E+01 -0.39921220556E+02  0.50528734692E+02  0.29999619568E+02 0.  0.
         12    1    1    2    0    0  0.47687645307E-01 -0.77116619859E+01  0.39921220556E+02  0.40659265308E+02  0.00000000000E+00 0. -1.
         11    1    3    3    0    0  0.33357627145E+01 -0.27429934796E+01 -0.11095905141E+01  0.44589816647E+01  0.51100000000E-03 0. -1.
        -11    1    3    3    0    0 -0.71366235074E+01  0.10461263971E+02 -0.40138588369E+02  0.42088902522E+02  0.51100000000E-03 0.  1.
        -12    1    3    3    0    0  0.37531731476E+01 -0.66085051020E-02  0.13269583274E+01  0.39808505060E+01  0.00000000000E+00 0.  1.
</event>
<event>
 7    1  0.9953837E-014  0.5052888E+02  0.7816164E-02  0.1300439E+00
        -11   -1    0    0    0    0  0.00000000000E+00  0.00000000000E+00  0.45593999997E+02  0.45594000000E+02  0.51100000000E-03 0. -1.
         11   -1    0    0    0    0 -0.00000000000E+00 -0.00000000000E+00 -0.45593999997E+02  0.45594000000E+02  0.51100000000E-03 0.  1.
    9900012    2    1    2    0    0 -0.12207625616E+02 -0.57142295311E+01  0.38359941894E+02  0.50528884363E+02  0.30000074508E+02 0.  0.
        -12    1    1    2    0    0  0.12207625616E+02  0.57142295311E+01 -0.38359941894E+02  0.40659115637E+02  0.00000000000E+00 0.  1.
         11    1    3    3    0    0 -0.17129419625E+02 -0.39122800177E+01  0.36064657626E+02  0.40117109586E+02  0.51100000000E-03 0. -1.
        -11    1    3    3    0    0  0.67179076079E+01 -0.31480821425E+01  0.32652543911E+00  0.74261243545E+01  0.51100000000E-03 0.  1.
        -12    1    3    3    0    0 -0.17961135985E+01  0.13461326291E+01  0.19687588291E+01  0.29856504218E+01  0.00000000000E+00 0.  1.
</event>
<event>
 7    1  0.9953837E-014  0.5052887E+02  0.7816164E-02  0.1300439E+00
        -11   -1    0    0    0    0  0.00000000000E+00  0.00000000000E+00  0.45593999997E+02  0.45594000000E+02  0.51100000000E-03 0. -1.
         11   -1    0    0    0    0 -0.00000000000E+00 -0.00000000000E+00 -0.45593999997E+02  0.45594000000E+02  0.51100000000E-03 0.  1.
    9900012    2    1    2    0    0 -0.33578558585E+01 -0.36149621081E+01 -0.40358663782E+02  0.50528869546E+02  0.30000029473E+02 0.  0.
         12    1    1    2    0    0  0.33578558585E+01  0.36149621081E+01  0.40358663782E+02  0.40659130454E+02  0.00000000000E+00 0. -1.
         11    1    3    3    0    0  0.54713971984E+01  0.61419503080E+01 -0.25266718212E+02  0.26571917325E+02  0.51100000000E-03 0. -1.
        -11    1    3    3    0    0 -0.99182975551E+01 -0.12423125856E+01 -0.74883978655E+01  0.12489678531E+02  0.51100000000E-03 0.  1.
        -12    1    3    3    0    0  0.10890444981E+01 -0.85145998305E+01 -0.76035477042E+01  0.11467273690E+02  0.00000000000E+00 0.  1.
</event>
<event>
 7    1  0.9953837E-014  0.5052887E+02  0.7816164E-02  0.1300439E+00
        -11   -1    0    0    0    0  0.00000000000E+00  0.00000000000E+00  0.45593999997E+02  0.45594000000E+02  0.51100000000E-03 0. -1.
         11   -1    0    0    0    0 -0.00000000000E+00 -0.00000000000E+00 -0.45593999997E+02  0.45594000000E+02  0.51100000000E-03 0.  1.
    9900012    2    1    2    0    0 -0.86236797139E+00 -0.16305907566E+02  0.37236258209E+02  0.50528865411E+02  0.30000016904E+02 0.  0.
        -12    1    1    2    0    0  0.86236797139E+00  0.16305907566E+02 -0.37236258209E+02  0.40659134589E+02  0.00000000000E+00 0.  1.
         11    1    3    3    0    0  0.23614729483E+01 -0.67171180774E+01  0.40577328084E+00  0.71316815667E+01  0.51100000000E-03 0. -1.
        -11    1    3    3    0    0 -0.93158728808E+01 -0.20093390916E+01  0.30095485476E+02  0.31568357218E+02  0.51100000000E-03 0.  1.
        -12    1    3    3    0    0  0.60920319611E+01 -0.75794503973E+01  0.67349994521E+01  0.11828826626E+02  0.00000000000E+00 0.  1.
</event>
<event>
 7    1  0.9953837E-014  0.5052888E+02  0.7816164E-02  0.1300439E+00
        -11   -1    0    0    0    0  0.00000000000E+00  0.00000000000E+00  0.45593999997E+02  0.45594000000E+02  0.51100000000E-03 0. -1.
         11   -1    0    0    0    0 -0.00000000000E+00 -0.00000000000E+00 -0.45593999997E+02  0.45594000000E+02  0.51100000000E-03 0.  1.
    9900012    2    1    2    0    0 -0.21696716734E+00 -0.86353788276E+01 -0.39730930618E+02  0.50528884294E+02  0.30000074299E+02 0.  0.
         12    1    1    2    0    0  0.21696716734E+00  0.86353788276E+01  0.39730930618E+02  0.40659115706E+02  0.00000000000E+00 0. -1.
         11    1    3    3    0    0  0.64882221252E+01  0.30096601940E+01 -0.24053400255E+01  0.75459089398E+01  0.51100000000E-03 0. -1.
        -11    1    3    3    0    0 -0.40538641732E+01 -0.66693300207E+01 -0.36451406960E+02  0.37277591758E+02  0.51100000000E-03 0.  1.
        -12    1    3    3    0    0 -0.26513251193E+01 -0.49757090008E+01 -0.87418363264E+00  0.57053835956E+01  0.00000000000E+00 0.  1.
</event>
<event>
 7    1  0.9953837E-014  0.5052885E+02  0.7816164E-02  0.1300439E+00
        -11   -1    0    0    0    0  0.00000000000E+00  0.00000000000E+00  0.45593999997E+02  0.45594000000E+02  0.51100000000E-03 0. -1.
         11   -1    0    0    0    0 -0.00000000000E+00 -0.00000000000E+00 -0.45593999997E+02  0.45594000000E+02  0.51100000000E-03 0.  1.
    9900012    2    1    2    0    0 -0.17851123443E+02  0.15242653610E+02  0.33198871817E+02  0.50528853585E+02  0.29999980958E+02 0.  0.
        -12    1    1    2    0    0  0.17851123443E+02 -0.15242653610E+02 -0.33198871817E+02  0.40659146415E+02  0.00000000000E+00 0.  1.
         11    1    3    3    0    0 -0.43001372806E+01 -0.42104039971E+01  0.55899329327E+01  0.82137709308E+01  0.51100000000E-03 0. -1.
        -11    1    3    3    0    0 -0.74380983521E+01  0.23521392800E+02  0.20208800054E+02  0.31890074102E+02  0.51100000000E-03 0.  1.
        -12    1    3    3    0    0 -0.61128878099E+01 -0.40683351928E+01  0.74001388301E+01  0.10425008553E+02  0.00000000000E+00 0.  1.
</event>
<event>
 7    1  0.9953837E-014  0.5052881E+02  0.7816164E-02  0.1300439E+00
        -11   -1    0    0    0    0  0.00000000000E+00  0.00000000000E+00  0.45593999997E+02  0.45594000000E+02  0.51100000000E-03 0. -1.
         11   -1    0    0    0    0 -0.00000000000E+00 -0.00000000000E+00 -0.45593999997E+02  0.45594000000E+02  0.51100000000E-03 0.  1.
    9900012    2    1    2    0    0  0.16646021282E+02  0.19406451582E+02 -0.31614378960E+02  0.50528814758E+02  0.29999862937E+02 0.  0.
         12    1    1    2    0    0 -0.16646021282E+02 -0.19406451582E+02  0.31614378960E+02  0.40659185242E+02  0.00000000000E+00 0. -1.
         11    1    3    3    0    0 -0.36724611764E+01  0.10370661238E+02  0.12493088422E+00  0.11002417625E+02  0.51100000000E-03 0. -1.
        -11    1    3    3    0    0  0.49816246762E+00  0.10138056234E+01 -0.58060953259E+01  0.59149565409E+01  0.51100000000E-03 0.  1.
         12    1    3    3    0    0  0.19820319991E+02  0.80219847207E+01 -0.25933214518E+02  0.33611440592E+02  0.00000000000E+00 0. -1.
</event>
<event>
 7    1  0.9953837E-014  0.5052886E+02  0.7816164E-02  0.1300439E+00
        -11   -1    0    0    0    0  0.00000000000E+00  0.00000000000E+00  0.45593999997E+02  0.45594000000E+02  0.51100000000E-03 0. -1.
         11   -1    0    0    0    0 -0.00000000000E+00 -0.00000000000E+00 -0.45593999997E+02  0.45594000000E+02  0.51100000000E-03 0.  1.
    9900012    2    1    2    0    0 -0.16398020838E+02  0.12926219377E+02 -0.34888160474E+02  0.50528856181E+02  0.29999988848E+02 0.  0.
         12    1    1    2    0    0  0.16398020838E+02 -0.12926219377E+02  0.34888160474E+02  0.40659143819E+02  0.00000000000E+00 0. -1.
         11    1    3    3    0    0 -0.20126924244E+00  0.53620238269E+01 -0.12269650023E+02  0.13391643692E+02  0.51100000000E-03 0. -1.
        -11    1    3    3    0    0 -0.81491876035E+01  0.90206947253E+01  0.94652606688E+00  0.12193363104E+02  0.51100000000E-03 0.  1.
        -12    1    3    3    0    0 -0.80475639922E+01 -0.14564991751E+01 -0.23565036518E+02  0.24943849386E+02  0.00000000000E+00 0.  1.
</event>
<event>
 7    1  0.9953837E-014  0.5052883E+02  0.7816164E-02  0.1300439E+00
        -11   -1    0    0    0    0  0.00000000000E+00  0.00000000000E+00  0.45593999997E+02  0.45594000000E+02  0.51100000000E-03 0. -1.
         11   -1    0    0    0    0 -0.00000000000E+00 -0.00000000000E+00 -0.45593999997E+02  0.45594000000E+02  0.51100000000E-03 0.  1.
    9900012    2    1    2    0    0  0.70426219328E+00  0.21211003598E+02  0.34680908923E+02  0.50528830031E+02  0.29999909361E+02 0.  0.
        -12    1    1    2    0    0 -0.70426219328E+00 -0.21211003598E+02 -0.34680908923E+02  0.40659169969E+02  0.00000000000E+00 0.  1.
         11    1    3    3    0    0  0.71482871704E+01  0.20670656139E+02  0.23842949457E+02  0.32355220193E+02  0.51100000000E-03 0. -1.
        -11    1    3    3    0    0 -0.10366263943E+02 -0.55580856333E+00  0.66302511479E+01  0.12317815628E+02  0.51100000000E-03 0.  1.
         12    1    3    3    0    0  0.39222389662E+01  0.10961560232E+01  0.42077083181E+01  0.58557942096E+01  0.00000000000E+00 0. -1.
</event>
<event>
 7    1  0.9953837E-014  0.5052885E+02  0.7816164E-02  0.1300439E+00
        -11   -1    0    0    0    0  0.00000000000E+00  0.00000000000E+00  0.45593999997E+02  0.45594000000E+02  0.51100000000E-03 0. -1.
         11   -1    0    0    0    0 -0.00000000000E+00 -0.00000000000E+00 -0.45593999997E+02  0.45594000000E+02  0.51100000000E-03 0.  1.
    9900012    2    1    2    0    0  0.72249613499E+01  0.36593475064E+02 -0.16182818594E+02  0.50528854640E+02  0.29999984162E+02 0.  0.
         12    1    1    2    0    0 -0.72249613499E+01 -0.36593475064E+02  0.16182818594E+02  0.40659145360E+02  0.00000000000E+00 0. -1.
         11    1    3    3    0    0 -0.38232900297E+00 -0.25753656463E+01 -0.94531881370E+01  0.98051746488E+01  0.51100000000E-03 0. -1.
        -11    1    3    3    0    0  0.87213799003E+00  0.12492509927E+02 -0.36166146389E+01  0.13034697183E+02  0.51100000000E-03 0.  1.
         12    1    3    3    0    0  0.67351523628E+01  0.26676330784E+02 -0.31130158181E+01  0.27688982808E+02  0.00000000000E+00 0. -1.
</event>
<event>
 7    1  0.9953837E-014  0.5052890E+02  0.7816164E-02  0.1300439E+00
        -11   -1    0    0    0    0  0.00000000000E+00  0.00000000000E+00  0.45593999997E+02  0.45594000000E+02  0.51100000000E-03 0. -1.
         11   -1    0    0    0    0 -0.00000000000E+00 -0.00000000000E+00 -0.45593999997E+02  0.45594000000E+02  0.51100000000E-03 0.  1.
    9900012    2    1    2    0    0 -0.10307348613E+02  0.15524660913E+02 -0.36137317895E+02  0.50528901676E+02  0.30000127133E+02 0.  0.
         12    1    1    2    0    0  0.10307348613E+02 -0.15524660913E+02  0.36137317895E+02  0.40659098324E+02  0.00000000000E+00 0. -1.
         11    1    3    3    0    0 -0.95535001199E+01  0.38364243616E+00 -0.11368907586E+01  0.96285547678E+01  0.51100000000E-03 0. -1.
        -11    1    3    3    0    0  0.64142750664E+01  0.10741512388E+02 -0.23865697968E+02  0.26946141704E+02  0.51100000000E-03 0.  1.
        -12    1    3    3    0    0 -0.71681235599E+01  0.43995060889E+01 -0.11134729169E+02  0.13954205203E+02  0.00000000000E+00 0.  1.
</event>
<event>
 7    1  0.9953837E-014  0.5052887E+02  0.7816164E-02  0.1300439E+00
        -11   -1    0    0    0    0  0.00000000000E+00  0.00000000000E+00  0.45593999997E+02  0.45594000000E+02  0.51100000000E-03 0. -1.
         11   -1    0    0    0    0 -0.00000000000E+00 -0.00000000000E+00 -0.45593999997E+02  0.45594000000E+02  0.51100000000E-03 0.  1.
    9900012    2    1    2    0    0 -0.15392327967E+02 -0.24529774773E+02 -0.28539999960E+02  0.50528865622E+02  0.30000017544E+02 0.  0.
         12    1    1    2    0    0  0.15392327967E+02  0.24529774773E+02  0.28539999960E+02  0.40659134378E+02  0.00000000000E+00 0. -1.
         11    1    3    3    0    0 -0.44055253336E+01 -0.20915285847E+01  0.57879197801E+01  0.75685639937E+01  0.51100000000E-03 0. -1.
        -11    1    3    3    0    0 -0.30745870126E+01 -0.11503396578E+02 -0.20000136809E+02  0.23276311794E+02  0.51100000000E-03 0.  1.
         12    1    3    3    0    0 -0.79122156210E+01 -0.10934849610E+02 -0.14327782932E+02  0.19683989834E+02  0.00000000000E+00 0. -1.
</event>
<event>
 7    1  0.9953837E-014  0.5052886E+02  0.7816164E-02  0.1300439E+00
        -11   -1    0    0    0    0  0.00000000000E+00  0.00000000000E+00  0.45593999997E+02  0.45594000000E+02  0.51100000000E-03 0. -1.
         11   -1    0    0    0    0 -0.00000000000E+00 -0.00000000000E+00 -0.45593999997E+02  0.45594000000E+02  0.51100000000E-03 0.  1.
    9900012    2    1    2    0    0  0.10382678943E+02  0.43842061349E+01 -0.39065894850E+02  0.50528862947E+02  0.30000009414E+02 0.  0.
         12    1    1    2    0    0 -0.10382678943E+02 -0.43842061349E+01  0.39065894850E+02  0.40659137053E+02  0.00000000000E+00 0. -1.
         11    1    3    3    0    0 -0.36858029839E+01  0.25530092172E+00 -0.50111677200E-01  0.36949741052E+01  0.51100000000E-03 0. -1.
        -11    1    3    3    0    0  0.18383872693E+02  0.79687849645E+01 -0.28542300457E+02  0.34873073060E+02  0.51100000000E-03 0.  1.
        -12    1    3    3    0    0 -0.43153907665E+01 -0.38398797513E+01 -0.10473482716E+02  0.11960815782E+02  0.00000000000E+00 0.  1.
</event>
<event>
 7    1  0.9953837E-014  0.5052886E+02  0.7816164E-02  0.1300439E+00
        -11   -1    0    0    0    0  0.00000000000E+00  0.00000000000E+00  0.45593999997E+02  0.45594000000E+02  0.51100000000E-03 0. -1.
         11   -1    0    0    0    0 -0.00000000000E+00 -0.00000000000E+00 -0.45593999997E+02  0.45594000000E+02  0.51100000000E-03 0.  1.
    9900012    2    1    2    0    0 -0.77914672191E+01  0.46716725579E+01  0.39631223183E+02  0.50528864042E+02  0.30000012741E+02 0.  0.
        -12    1    1    2    0    0  0.77914672191E+01 -0.46716725579E+01 -0.39631223183E+02  0.40659135958E+02  0.00000000000E+00 0.  1.
         11    1    3    3    0    0  0.46157789173E-01 -0.11244091537E+02  0.11408167662E+02  0.16018052776E+02  0.51100000000E-03 0. -1.
        -11    1    3    3    0    0 -0.98459471505E+00  0.11848205219E+02  0.16622812486E+02  0.20436909963E+02  0.51100000000E-03 0.  1.
         12    1    3    3    0    0 -0.68530302932E+01  0.40675588767E+01  0.11600243035E+02  0.14073901303E+02  0.00000000000E+00 0. -1.
</event>
<event>
 7    1  0.9953837E-014  0.5052885E+02  0.7816164E-02  0.1300439E+00
        -11   -1    0    0    0    0  0.00000000000E+00  0.00000000000E+00  0.45593999997E+02  0.45594000000E+02  0.51100000000E-03 0. -1.
         11   -1    0    0    0    0 -0.00000000000E+00 -0.00000000000E+00 -0.45593999997E+02  0.45594000000E+02  0.51100000000E-03 0.  1.
    9900012    2    1    2    0    0  0.41419405384E+01  0.15525828172E+02 -0.37349152844E+02  0.50528853059E+02  0.29999979357E+02 0.  0.
         12    1    1    2    0    0 -0.41419405384E+01 -0.15525828172E+02  0.37349152844E+02  0.40659146941E+02  0.00000000000E+00 0. -1.
         11    1    3    3    0    0  0.51276300041E+01  0.12162135958E+02 -0.16627784654E+01  0.13303194090E+02  0.51100000000E-03 0. -1.
        -11    1    3    3    0    0  0.11539131225E+01  0.57246240582E+01 -0.31085250181E+02  0.31629031209E+02  0.51100000000E-03 0.  1.
        -12    1    3    3    0    0 -0.21396025882E+01 -0.23609318436E+01 -0.46011241970E+01  0.55966277598E+01  0.00000000000E+00 0.  1.
</event>
<event>
 7    1  0.9953837E-014  0.5052885E+02  0.7816164E-02  0.1300439E+00
        -11   -1    0    0    0    0  0.00000000000E+00  0.00000000000E+00  0.45593999997E+02  0.45594000000E+02  0.51100000000E-03 0. -1.
         11   -1    0    0    0    0 -0.00000000000E+00 -0.00000000000E+00 -0.45593999997E+02  0.45594000000E+02  0.51100000000E-03 0.  1.
    9900012    2    1    2    0    0 -0.73397997617E+01 -0.12688211145E+01  0.39971039224E+02  0.50528849195E+02  0.29999967612E+02 0.  0.
        -12    1    1    2    0    0  0.73397997617E+01  0.12688211145E+01 -0.39971039224E+02  0.40659150805E+02  0.00000000000E+00 0.  1.
         11    1    3    3    0    0  0.40569552671E+01  0.63604454875E+01  0.25172951946E+02  0.26279110769E+02  0.51100000000E-03 0. -1.
        -11    1    3    3    0    0 -0.10760945263E+02 -0.11121172422E+02  0.10625546826E+02  0.18771805044E+02  0.51100000000E-03 0.  1.
        -12    1    3    3    0    0 -0.63580976598E+00  0.34919058202E+01  0.41725404519E+01  0.54779333821E+01  0.00000000000E+00 0.  1.
</event>
<event>
 7    1  0.9953837E-014  0.5052885E+02  0.7816164E-02  0.1300439E+00
        -11   -1    0    0    0    0  0.00000000000E+00  0.00000000000E+00  0.45593999997E+02  0.45594000000E+02  0.51100000000E-03 0. -1.
         11   -1    0    0    0    0 -0.00000000000E+00 -0.00000000000E+00 -0.45593999997E+02  0.45594000000E+02  0.51100000000E-03 0.  1.
    9900012    2    1    2    0    0 -0.22692921984E+02 -0.11888150689E+01  0.33716232617E+02  0.50528851812E+02  0.29999975569E+02 0.  0.
        -12    1    1    2    0    0  0.22692921984E+02  0.11888150689E+01 -0.33716232617E+02  0.40659148188E+02  0.00000000000E+00 0.  1.
         11    1    3    3    0    0 -0.12135431953E+02 -0.14759581095E+02  0.12396455797E+02  0.22776875540E+02  0.51100000000E-03 0. -1.
        -11    1    3    3    0    0 -0.10505039465E+02  0.11110118293E+02  0.17958947309E+02  0.23586317460E+02  0.51100000000E-03 0.  1.
         12    1    3    3    0    0 -0.52450565187E-01  0.24606477331E+01  0.33608295120E+01  0.41656588119E+01  0.00000000000E+00 0. -1.
</event>
<event>
 7    1  0.9953837E-014  0.5052888E+02  0.7816164E-02  0.1300439E+00
        -11   -1    0    0    0    0  0.00000000000E+00  0.00000000000E+00  0.45593999997E+02  0.45594000000E+02  0.51100000000E-03 0. -1.
         11   -1    0    0    0    0 -0.00000000000E+00 -0.00000000000E+00 -0.45593999997E+02  0.45594000000E+02  0.51100000000E-03 0.  1.
    9900012    2    1    2    0    0 -0.13993126979E+02 -0.19409859937E+02  0.32872688519E+02  0.50528881517E+02  0.30000065858E+02 0.  0.
        -12    1    1    2    0    0  0.13993126979E+02  0.19409859937E+02 -0.32872688519E+02  0.40659118483E+02  0.00000000000E+00 0.  1.
         11    1    3    3    0    0 -0.93702425197E+01  0.27485130788E+01  0.58056439281E+01  0.11360513664E+02  0.51100000000E-03 0. -1.
        -11    1    3    3    0    0  0.28783470878E+00 -0.20733674841E+02  0.27014199638E+02  0.34054883696E+02  0.51100000000E-03 0.  1.
        -12    1    3    3    0    0 -0.49107191678E+01 -0.14246981745E+01  0.52844952882E-01  0.51134841568E+01  0.00000000000E+00 0.  1.
</event>
<event>
 7    1  0.9953837E-014  0.5052887E+02  0.7816164E-02  0.1300439E+00
        -11   -1    0    0    0    0  0.00000000000E+00  0.00000000000E+00  0.45593999997E+02  0.45594000000E+02  0.51100000000E-03 0. -1.
         11   -1    0    0    0    0 -0.00000000000E+00 -0.00000000000E+00 -0.45593999997E+02  0.45594000000E+02  0.51100000000E-03 0.  1.
    9900012    2    1    2    0    0 -0.37000924815E+02  0.13752519271E+02 -0.97449985529E+01  0.50528865476E+02  0.30000017101E+02 0.  0.
         12    1    1    2    0    0  0.37000924815E+02 -0.13752519271E+02  0.97449985529E+01  0.40659134524E+02  0.00000000000E+00 0. -1.
         11    1    3    3    0    0 -0.31124305471E+01  0.39765195094E+01 -0.64773457379E+01  0.82131564814E+01  0.51100000000E-03 0. -1.
        -11    1    3    3    0    0 -0.36155535193E+02  0.55632816460E+01 -0.55766153490E+01  0.37003668289E+02  0.51100000000E-03 0.  1.
         12    1    3    3    0    0  0.22670409258E+01  0.42127181155E+01  0.23089625339E+01  0.53120407061E+01  0.00000000000E+00 0. -1.
</event>
<event>
 7    1  0.9953837E-014  0.5052886E+02  0.7816164E-02  0.1300439E+00
        -11   -1    0    0    0    0  0.00000000000E+00  0.00000000000E+00  0.45593999997E+02  0.45594000000E+02  0.51100000000E-03 0. -1.
         11   -1    0    0    0    0 -0.00000000000E+00 -0.00000000000E+00 -0.45593999997E+02  0.45594000000E+02  0.51100000000E-03 0.  1.
    9900012    2    1    2    0    0 -0.30498665191E+02 -0.21231573174E+02  0.16499000448E+02  0.50528864573E+02  0.30000014356E+02 0.  0.
        -12    1    1    2    0    0  0.30498665191E+02  0.21231573174E+02 -0.16499000448E+02  0.40659135427E+02  0.00000000000E+00 0.  1.
         11    1    3    3    0    0 -0.15312340914E+02 -0.15152692486E+02  0.13838475141E+02  0.25604204114E+02  0.51100000000E-03 0. -1.
        -11    1    3    3    0    0 -0.66712740738E+01  0.66662028131E+01  0.15396792273E+01  0.95558762077E+01  0.51100000000E-03 0.  1.
        -12    1    3    3    0    0 -0.85150502039E+01 -0.12745083501E+02  0.11208460801E+01  0.15368784251E+02  0.00000000000E+00 0.  1.
</event>
<event>
 7    1  0.9953837E-014  0.5052886E+02  0.7816164E-02  0.1300439E+00
        -11   -1    0    0    0    0  0.00000000000E+00  0.00000000000E+00  0.45593999997E+02  0.45594000000E+02  0.51100000000E-03 0. -1.
         11   -1    0    0    0    0 -0.00000000000E+00 -0.00000000000E+00 -0.45593999997E+02  0.45594000000E+02  0.51100000000E-03 0.  1.
    9900012    2    1    2    0    0 -0.17869032685E+02  0.36462400873E+02  0.20873089020E+01  0.50528857547E+02  0.29999993001E+02 0.  0.
         12    1    1    2    0    0  0.17869032685E+02 -0.36462400873E+02 -0.20873089020E+01  0.40659142453E+02  0.00000000000E+00 0. -1.
         11    1    3    3    0    0 -0.19619420601E+02  0.11837527678E+02 -0.67024874804E+01  0.23874087730E+02  0.51100000000E-03 0. -1.
        -11    1    3    3    0    0 -0.24361687076E+00  0.21507285395E+01 -0.55373190913E+00  0.22341892754E+01  0.51100000000E-03 0.  1.
         12    1    3    3    0    0  0.19940047866E+01  0.22474144655E+02  0.93435282915E+01  0.24420580542E+02  0.00000000000E+00 0. -1.
</event>
<event>
 7    1  0.9953837E-014  0.5052888E+02  0.7816164E-02  0.1300439E+00
        -11   -1    0    0    0    0  0.00000000000E+00  0.00000000000E+00  0.45593999997E+02  0.45594000000E+02  0.51100000000E-03 0. -1.
         11   -1    0    0    0    0 -0.00000000000E+00 -0.00000000000E+00 -0.45593999997E+02  0.45594000000E+02  0.51100000000E-03 0.  1.
    9900012    2    1    2    0    0 -0.28764480217E+01  0.18502302736E+01  0.40515019827E+02  0.50528878799E+02  0.30000057596E+02 0.  0.
        -12    1    1    2    0    0  0.28764480217E+01 -0.18502302736E+01 -0.40515019827E+02  0.40659121201E+02  0.00000000000E+00 0.  1.
         11    1    3    3    0    0  0.10775677346E+01 -0.85046299726E+01  0.26775024561E+02  0.28113908012E+02  0.51100000000E-03 0. -1.
        -11    1    3    3    0    0 -0.58869349938E+01  0.55598493319E+01  0.39895760791E+00  0.81072249042E+01  0.51100000000E-03 0.  1.
        -12    1    3    3    0    0  0.19329192374E+01  0.47950109143E+01  0.13341037658E+02  0.14307745883E+02  0.00000000000E+00 0.  1.
</event>
<event>
 7    1  0.9953837E-014  0.5052886E+02  0.7816164E-02  0.1300439E+00
        -11   -1    0    0    0    0  0.00000000000E+00  0.00000000000E+00  0.45593999997E+02  0.45594000000E+02  0.51100000000E-03 0. -1.
         11   -1    0    0    0    0 -0.00000000000E+00 -0.00000000000E+00 -0.45593999997E+02  0.45594000000E+02  0.51100000000E-03 0.  1.
    9900012    2    1    2    0    0  0.21300166888E+02  0.14609428740E+02  0.31401165319E+02  0.50528859565E+02  0.29999999133E+02 0.  0.
        -12    1    1    2    0    0 -0.21300166888E+02 -0.14609428740E+02 -0.31401165319E+02  0.40659140435E+02  0.00000000000E+00 0.  1.
         11    1    3    3    0    0  0.14261382158E+01 -0.18489946105E+01  0.21980178497E+02  0.22103866139E+02  0.51100000000E-03 0.  1.
        -11    1    3    3    0    0  0.15025375709E+02  0.79116955036E+01  0.63591509035E+01  0.18132722945E+02  0.51100000000E-03 0. -1.
        -12    1    3    3    0    0  0.48486529635E+01  0.85467278470E+01  0.30618359184E+01  0.10292270480E+02  0.00000000000E+00 0.  1.
</event>
<event>
 7    1  0.9953837E-014  0.5052886E+02  0.7816164E-02  0.1300439E+00
        -11   -1    0    0    0    0  0.00000000000E+00  0.00000000000E+00  0.45593999997E+02  0.45594000000E+02  0.51100000000E-03 0.  1.
         11   -1    0    0    0    0 -0.00000000000E+00 -0.00000000000E+00 -0.45593999997E+02  0.45594000000E+02  0.51100000000E-03 0. -1.
    9900012    2    1    2    0    0  0.15827636946E+02 -0.28172740285E+02 -0.24676885070E+02  0.50528855355E+02  0.29999986338E+02 0.  0.
         12    1    1    2    0    0 -0.15827636946E+02  0.28172740285E+02  0.24676885070E+02  0.40659144645E+02  0.00000000000E+00 0. -1.
         11    1    3    3    0    0  0.97344327919E+01 -0.23900570657E+02 -0.29664401412E+02  0.39318865331E+02  0.51100000000E-03 0. -1.
        -11    1    3    3    0    0  0.33117591789E+01 -0.49947330996E+01  0.56767451390E+01  0.82547285376E+01  0.51100000000E-03 0.  1.
         12    1    3    3    0    0  0.27814449754E+01  0.72256347155E+00 -0.68922879668E+00  0.29552614869E+01  0.00000000000E+00 0. -1.
</event>
<event>
 7    1  0.1034410E-013  0.5052886E+02  0.7816164E-02  0.1300439E+00
        -11   -1    0    0    0    0  0.00000000000E+00  0.00000000000E+00  0.45593999997E+02  0.45594000000E+02  0.51100000000E-03 0. -1.
         11   -1    0    0    0    0 -0.00000000000E+00 -0.00000000000E+00 -0.45593999997E+02  0.45594000000E+02  0.51100000000E-03 0.  1.
    9900012    2    1    2    0    0  0.46522294793E+01 -0.27957208179E+02  0.29153337552E+02  0.50528858116E+02  0.29999994730E+02 0.  0.
        -12    1    1    2    0    0 -0.46522294793E+01  0.27957208179E+02 -0.29153337552E+02  0.40659141884E+02  0.00000000000E+00 0.  1.
         11    1    3    3    0    0  0.10835010625E+02 -0.24931110332E+02  0.20833155048E+02  0.34248767381E+02  0.51100000000E-03 0. -1.
        -11    1    3    3    0    0 -0.59848176524E+01 -0.58798439490E+01  0.10351245133E+01  0.84535253129E+01  0.51100000000E-03 0.  1.
         12    1    3    3    0    0 -0.19796349317E+00  0.28537461028E+01  0.72850579916E+01  0.78265654220E+01  0.00000000000E+00 0. -1.
</event>
<event>
 7    1  0.9953837E-014  0.5052886E+02  0.7816164E-02  0.1300439E+00
        -11   -1    0    0    0    0  0.00000000000E+00  0.00000000000E+00  0.45593999997E+02  0.45594000000E+02  0.51100000000E-03 0. -1.
         11   -1    0    0    0    0 -0.00000000000E+00 -0.00000000000E+00 -0.45593999997E+02  0.45594000000E+02  0.51100000000E-03 0.  1.
    9900012    2    1    2    0    0  0.53617722021E+01 -0.36244918231E+02  0.17627332376E+02  0.50528861477E+02  0.30000004946E+02 0.  0.
        -12    1    1    2    0    0 -0.53617722021E+01  0.36244918231E+02 -0.17627332376E+02  0.40659138523E+02  0.00000000000E+00 0.  1.
         11    1    3    3    0    0 -0.66763565197E+01 -0.79072751898E+01  0.13719162084E+02  0.17184706743E+02  0.51100000000E-03 0. -1.
        -11    1    3    3    0    0  0.94358778258E+01 -0.80882621888E+01  0.35500258711E+01  0.12925109652E+02  0.51100000000E-03 0.  1.
         12    1    3    3    0    0  0.26022508960E+01 -0.20249380852E+02  0.35814442176E+00  0.20419045082E+02  0.00000000000E+00 0. -1.
</event>
<event>
 7    1  0.9953837E-014  0.5052886E+02  0.7816164E-02  0.1300439E+00
        -11   -1    0    0    0    0  0.00000000000E+00  0.00000000000E+00  0.45593999997E+02  0.45594000000E+02  0.51100000000E-03 0. -1.
         11   -1    0    0    0    0 -0.00000000000E+00 -0.00000000000E+00 -0.45593999997E+02  0.45594000000E+02  0.51100000000E-03 0.  1.
    9900012    2    1    2    0    0 -0.55743272572E+01 -0.19937679972E+02 -0.34994018666E+02  0.50528861427E+02  0.30000004795E+02 0.  0.
         12    1    1    2    0    0  0.55743272572E+01  0.19937679972E+02  0.34994018666E+02  0.40659138573E+02  0.00000000000E+00 0. -1.
         11    1    3    3    0    0 -0.77601267377E+01 -0.13002414370E+02 -0.51429769504E+01  0.15991640272E+02  0.51100000000E-03 0. -1.
        -11    1    3    3    0    0  0.87573319454E+01 -0.15934231907E+01 -0.15151249174E+02  0.17572427609E+02  0.51100000000E-03 0.  1.
        -12    1    3    3    0    0 -0.65715324649E+01 -0.53418424115E+01 -0.14699792542E+02  0.16964793546E+02  0.00000000000E+00 0.  1.
</event>
<event>
 7    1  0.9953837E-014  0.5052886E+02  0.7816164E-02  0.1300439E+00
        -11   -1    0    0    0    0  0.00000000000E+00  0.00000000000E+00  0.45593999997E+02  0.45594000000E+02  0.51100000000E-03 0. -1.
         11   -1    0    0    0    0 -0.00000000000E+00 -0.00000000000E+00 -0.45593999997E+02  0.45594000000E+02  0.51100000000E-03 0.  1.
    9900012    2    1    2    0    0  0.26232768353E+01 -0.21144922359E+02 -0.34629121344E+02  0.50528863660E+02  0.30000011580E+02 0.  0.
         12    1    1    2    0    0 -0.26232768353E+01  0.21144922359E+02  0.34629121344E+02  0.40659136340E+02  0.00000000000E+00 0. -1.
         11    1    3    3    0    0  0.25776247098E+01  0.12618377322E+01 -0.18265701171E+02  0.18489786995E+02  0.51100000000E-03 0. -1.
        -11    1    3    3    0    0 -0.47990339004E+00 -0.24715486526E+01  0.32211313196E+01  0.40883428483E+01  0.51100000000E-03 0.  1.
        -12    1    3    3    0    0  0.52555551551E+00 -0.19935211439E+02 -0.19584551492E+02  0.27950733816E+02  0.00000000000E+00 0.  1.
</event>
<event>
 7    1  0.9953837E-014  0.5052886E+02  0.7816164E-02  0.1300439E+00
        -11   -1    0    0    0    0  0.00000000000E+00  0.00000000000E+00  0.45593999997E+02  0.45594000000E+02  0.51100000000E-03 0. -1.
         11   -1    0    0    0    0 -0.00000000000E+00 -0.00000000000E+00 -0.45593999997E+02  0.45594000000E+02  0.51100000000E-03 0.  1.
    9900012    2    1    2    0    0 -0.10357083435E+02 -0.13851985364E+02 -0.36796994970E+02  0.50528861856E+02  0.30000006098E+02 0.  0.
         12    1    1    2    0    0  0.10357083435E+02  0.13851985364E+02  0.36796994970E+02  0.40659138144E+02  0.00000000000E+00 0. -1.
         11    1    3    3    0    0 -0.38987987218E+01  0.89983710967E+01 -0.12624884004E+02  0.15986213130E+02  0.51100000000E-03 0. -1.
        -11    1    3    3    0    0 -0.40039744586E+01 -0.49420731295E+01 -0.85178375760E+01  0.10630590553E+02  0.51100000000E-03 0.  1.
         12    1    3    3    0    0 -0.24543102549E+01 -0.17908283331E+02 -0.15654273389E+02  0.23912058172E+02  0.00000000000E+00 0. -1.
</event>
<event>
 7    1  0.9953837E-014  0.5052886E+02  0.7816164E-02  0.1300439E+00
        -11   -1    0    0    0    0  0.00000000000E+00  0.00000000000E+00  0.45593999997E+02  0.45594000000E+02  0.51100000000E-03 0. -1.
         11   -1    0    0    0    0 -0.00000000000E+00 -0.00000000000E+00 -0.45593999997E+02  0.45594000000E+02  0.51100000000E-03 0.  1.
    9900012    2    1    2    0    0  0.22273782264E+02 -0.87429664648E+01  0.32872552893E+02  0.50528861143E+02  0.30000003929E+02 0.  0.
        -12    1    1    2    0    0 -0.22273782264E+02  0.87429664648E+01 -0.32872552893E+02  0.40659138857E+02  0.00000000000E+00 0.  1.
         11    1    3    3    0    0  0.77894344560E+01 -0.11244606074E+02  0.96957548996E+01  0.16766756342E+02  0.51100000000E-03 0. -1.
        -11    1    3    3    0    0  0.16055485689E+02  0.66228631835E+01  0.10395539260E+02  0.20241249325E+02  0.51100000000E-03 0.  1.
        -12    1    3    3    0    0 -0.15711378813E+01 -0.41212235744E+01  0.12781258733E+02  0.13520855476E+02  0.00000000000E+00 0.  1.
</event>
<event>
 7    1  0.9953837E-014  0.5052886E+02  0.7816164E-02  0.1300439E+00
        -11   -1    0    0    0    0  0.00000000000E+00  0.00000000000E+00  0.45593999997E+02  0.45594000000E+02  0.51100000000E-03 0. -1.
         11   -1    0    0    0    0 -0.00000000000E+00 -0.00000000000E+00 -0.45593999997E+02  0.45594000000E+02  0.51100000000E-03 0.  1.
    9900012    2    1    2    0    0 -0.21918826619E+02 -0.59277403230E+01  0.33728219057E+02  0.50528858021E+02  0.29999994440E+02 0.  0.
        -12    1    1    2    0    0  0.21918826619E+02  0.59277403230E+01 -0.33728219057E+02  0.40659141979E+02  0.00000000000E+00 0.  1.
         11    1    3    3    0    0 -0.61735045048E+01 -0.17971982141E+01 -0.22335382943E+01  0.68066712030E+01  0.51100000000E-03 0.  1.
        -11    1    3    3    0    0  0.64712902362E+00  0.51395846117E+01  0.13199150116E+02  0.14179269022E+02  0.51100000000E-03 0. -1.
         12    1    3    3    0    0 -0.16392451138E+02 -0.92701267206E+01  0.22762607236E+02  0.29542917796E+02  0.00000000000E+00 0. -1.
</event>
<event>
 7    1  0.9953837E-014  0.5052885E+02  0.7816164E-02  0.1300439E+00
        -11   -1    0    0    0    0  0.00000000000E+00  0.00000000000E+00  0.45593999997E+02  0.45594000000E+02  0.51100000000E-03 0. -1.
         11   -1    0    0    0    0 -0.00000000000E+00 -0.00000000000E+00 -0.45593999997E+02  0.45594000000E+02  0.51100000000E-03 0.  1.
    9900012    2    1    2    0    0  0.10460662822E+02 -0.44030979605E+01 -0.39042978014E+02  0.50528845181E+02  0.29999955413E+02 0.  0.
         12    1    1    2    0    0 -0.10460662822E+02  0.44030979605E+01  0.39042978014E+02  0.40659154819E+02  0.00000000000E+00 0. -1.
         11    1    3    3    0    0 -0.11471204269E+01 -0.48889221044E+00  0.19159203625E+01  0.22859684958E+01  0.51100000000E-03 0. -1.
        -11    1    3    3    0    0  0.97521829876E+01 -0.79014877181E+01 -0.41905001983E+02  0.43744345608E+02  0.51100000000E-03 0.  1.
        -12    1    3    3    0    0  0.18556002616E+01  0.39872819680E+01  0.94610360627E+00  0.44985310777E+01  0.00000000000E+00 0.  1.
</event>
<event>
 7    1  0.9953837E-014  0.5052886E+02  0.7816164E-02  0.1300439E+00
        -11   -1    0    0    0    0  0.00000000000E+00  0.00000000000E+00  0.45593999997E+02  0.45594000000E+02  0.51100000000E-03 0. -1.
         11   -1    0    0    0    0 -0.00000000000E+00 -0.00000000000E+00 -0.45593999997E+02  0.45594000000E+02  0.51100000000E-03 0.  1.
    9900012    2    1    2    0    0 -0.80242324394E+01 -0.10401427021E+02  0.38478410185E+02  0.50528855387E+02  0.29999986435E+02 0.  0.
        -12    1    1    2    0    0  0.80242324394E+01  0.10401427021E+02 -0.38478410185E+02  0.40659144613E+02  0.00000000000E+00 0.  1.
         11    1    3    3    0    0 -0.34154346085E+00 -0.30188504051E+01  0.17760157692E+02  0.18018138394E+02  0.51100000000E-03 0. -1.
        -11    1    3    3    0    0  0.39674320170E+01  0.27021950791E+01 -0.18832486672E+01  0.51564523520E+01  0.51100000000E-03 0.  1.
        -12    1    3    3    0    0 -0.11650120996E+02 -0.10084771695E+02  0.22601501160E+02  0.27354264641E+02  0.00000000000E+00 0.  1.
</event>
<event>
 7    1  0.9953837E-014  0.5052888E+02  0.7816164E-02  0.1300439E+00
        -11   -1    0    0    0    0  0.00000000000E+00  0.00000000000E+00  0.45593999997E+02  0.45594000000E+02  0.51100000000E-03 0. -1.
         11   -1    0    0    0    0 -0.00000000000E+00 -0.00000000000E+00 -0.45593999997E+02  0.45594000000E+02  0.51100000000E-03 0.  1.
    9900012    2    1    2    0    0  0.39264546151E+01 -0.34429629879E+02 -0.21268466784E+02  0.50528878775E+02  0.30000057526E+02 0.  0.
         12    1    1    2    0    0 -0.39264546151E+01  0.34429629879E+02  0.21268466784E+02  0.40659121225E+02  0.00000000000E+00 0. -1.
         11    1    3    3    0    0  0.16492758404E+00  0.65101323311E+00 -0.44329934160E+01  0.44835756071E+01  0.51100000000E-03 0. -1.
        -11    1    3    3    0    0 -0.40902564007E+01 -0.30517904448E+02 -0.51060727903E+01  0.31211290728E+02  0.51100000000E-03 0.  1.
        -12    1    3    3    0    0  0.78517834318E+01 -0.45627386643E+01 -0.11729400577E+02  0.14834012440E+02  0.00000000000E+00 0.  1.
</event>
<event>
 7    1  0.9953837E-014  0.5052886E+02  0.7816164E-02  0.1300439E+00
        -11   -1    0    0    0    0  0.00000000000E+00  0.00000000000E+00  0.45593999997E+02  0.45594000000E+02  0.51100000000E-03 0. -1.
         11   -1    0    0    0    0 -0.00000000000E+00 -0.00000000000E+00 -0.45593999997E+02  0.45594000000E+02  0.51100000000E-03 0.  1.
    9900012    2    1    2    0    0  0.84694622166E+01  0.37626442856E+02  0.12871851746E+02  0.50528861303E+02  0.30000004417E+02 0.  0.
        -12    1    1    2    0    0 -0.84694622166E+01 -0.37626442856E+02 -0.12871851746E+02  0.40659138697E+02  0.00000000000E+00 0.  1.
         11    1    3    3    0    0  0.11901321200E+02  0.37200303675E+02  0.54693401681E+01  0.39438784489E+02  0.51100000000E-03 0. -1.
        -11    1    3    3    0    0 -0.31306541890E+01 -0.11285650068E+01 -0.19086092222E+00  0.33333290834E+01  0.51100000000E-03 0.  1.
         12    1    3    3    0    0 -0.30120479442E+00  0.15547041873E+01  0.75933724998E+01  0.77567477308E+01  0.00000000000E+00 0. -1.
</event>
<event>
 7    1  0.9953837E-014  0.5052886E+02  0.7816164E-02  0.1300439E+00
        -11   -1    0    0    0    0  0.00000000000E+00  0.00000000000E+00  0.45593999997E+02  0.45594000000E+02  0.51100000000E-03 0. -1.
         11   -1    0    0    0    0 -0.00000000000E+00 -0.00000000000E+00 -0.45593999997E+02  0.45594000000E+02  0.51100000000E-03 0.  1.
    9900012    2    1    2    0    0  0.21730152545E+02  0.21528668802E+02  0.26785868511E+02  0.50528857585E+02  0.29999993116E+02 0.  0.
        -12    1    1    2    0    0 -0.21730152545E+02 -0.21528668802E+02 -0.26785868511E+02  0.40659142415E+02  0.00000000000E+00 0.  1.
         11    1    3    3    0    0  0.17398071555E+02  0.54486703394E+01  0.23109824835E+01  0.18377201707E+02  0.51100000000E-03 0. -1.
        -11    1    3    3    0    0  0.81262640244E-01  0.16537462405E+02  0.20192543910E+02  0.26100442453E+02  0.51100000000E-03 0.  1.
        -12    1    3    3    0    0  0.42508183502E+01 -0.45746394270E+00  0.42823421178E+01  0.60512134253E+01  0.00000000000E+00 0.  1.
</event>
<event>
 7    1  0.9953837E-014  0.5052885E+02  0.7816164E-02  0.1300439E+00
        -11   -1    0    0    0    0  0.00000000000E+00  0.00000000000E+00  0.45593999997E+02  0.45594000000E+02  0.51100000000E-03 0.  1.
         11   -1    0    0    0    0 -0.00000000000E+00 -0.00000000000E+00 -0.45593999997E+02  0.45594000000E+02  0.51100000000E-03 0. -1.
    9900012    2    1    2    0    0  0.36352391289E+02 -0.13907645006E+02 -0.11757854486E+02  0.50528854852E+02  0.29999984808E+02 0.  0.
         12    1    1    2    0    0 -0.36352391289E+02  0.13907645006E+02  0.11757854486E+02  0.40659145148E+02  0.00000000000E+00 0. -1.
         11    1    3    3    0    0  0.70929171317E+01 -0.27229461556E+01 -0.74441071353E+01  0.10636664915E+02  0.51100000000E-03 0. -1.
        -11    1    3    3    0    0  0.18875944438E+00  0.17519352269E+01  0.61493486755E+01  0.63968270698E+01  0.51100000000E-03 0.  1.
        -12    1    3    3    0    0  0.29070714713E+02 -0.12936634077E+02 -0.10463096027E+02  0.33495362868E+02  0.00000000000E+00 0.  1.
</event>
<event>
 7    1  0.9953837E-014  0.5052885E+02  0.7816164E-02  0.1300439E+00
        -11   -1    0    0    0    0  0.00000000000E+00  0.00000000000E+00  0.45593999997E+02  0.45594000000E+02  0.51100000000E-03 0. -1.
         11   -1    0    0    0    0 -0.00000000000E+00 -0.00000000000E+00 -0.45593999997E+02  0.45594000000E+02  0.51100000000E-03 0.  1.
    9900012    2    1    2    0    0  0.24043749366E+02  0.30871056126E+01  0.32642524063E+02  0.50528849962E+02  0.29999969944E+02 0.  0.
        -12    1    1    2    0    0 -0.24043749366E+02 -0.30871056126E+01 -0.32642524063E+02  0.40659150038E+02  0.00000000000E+00 0.  1.
         11    1    3    3    0    0  0.25055269716E+02 -0.14182281230E+01  0.35243719908E+02  0.43265433140E+02  0.51100000000E-03 0. -1.
        -11    1    3    3    0    0  0.94544706983E-01  0.53353432470E+01 -0.24518695587E+01  0.58725199752E+01  0.51100000000E-03 0.  1.
         12    1    3    3    0    0 -0.11060650568E+01 -0.83000951137E+00 -0.14932628662E+00  0.13908968469E+01  0.00000000000E+00 0. -1.
</event>
<event>
 7    1  0.9953837E-014  0.5052886E+02  0.7816164E-02  0.1300439E+00
        -11   -1    0    0    0    0  0.00000000000E+00  0.00000000000E+00  0.45593999997E+02  0.45594000000E+02  0.51100000000E-03 0. -1.
         11   -1    0    0    0    0 -0.00000000000E+00 -0.00000000000E+00 -0.45593999997E+02  0.45594000000E+02  0.51100000000E-03 0.  1.
    9900012    2    1    2    0    0  0.26734918065E+02 -0.16120296855E+01  0.30591032326E+02  0.50528859054E+02  0.29999997581E+02 0.  0.
        -12    1    1    2    0    0 -0.26734918065E+02  0.16120296855E+01 -0.30591032326E+02  0.40659140946E+02  0.00000000000E+00 0.  1.
         11    1    3    3    0    0  0.10825884291E+02 -0.10944138541E+02  0.37913729553E+01  0.15853972633E+02  0.51100000000E-03 0. -1.
        -11    1    3    3    0    0  0.16770100859E+02  0.10874792917E+02  0.22913725272E+02  0.30406187033E+02  0.51100000000E-03 0.  1.
        -12    1    3    3    0    0 -0.86106708523E+00 -0.15426840616E+01  0.38859340993E+01  0.42686993878E+01  0.00000000000E+00 0.  1.
</event>
<event>
 7    1  0.9953837E-014  0.5052886E+02  0.7816164E-02  0.1300439E+00
        -11   -1    0    0    0    0  0.00000000000E+00  0.00000000000E+00  0.45593999997E+02  0.45594000000E+02  0.51100000000E-03 0. -1.
         11   -1    0    0    0    0 -0.00000000000E+00 -0.00000000000E+00 -0.45593999997E+02  0.45594000000E+02  0.51100000000E-03 0.  1.
    9900012    2    1    2    0    0  0.66067404302E+01  0.34083786670E+02 -0.21161564918E+02  0.50528863725E+02  0.30000011777E+02 0.  0.
         12    1    1    2    0    0 -0.66067404302E+01 -0.34083786670E+02  0.21161564918E+02  0.40659136275E+02  0.00000000000E+00 0. -1.
         11    1    3    3    0    0  0.26652325365E+01  0.20046944279E+02 -0.21185209931E+02  0.29288164153E+02  0.51100000000E-03 0. -1.
        -11    1    3    3    0    0  0.17272178921E+00 -0.71448029250E+00  0.51297386812E+01  0.51821360560E+01  0.51100000000E-03 0.  1.
        -12    1    3    3    0    0  0.37687861045E+01  0.14751322684E+02 -0.51060936685E+01  0.16058563515E+02  0.00000000000E+00 0.  1.
</event>
<event>
 7    1  0.9953837E-014  0.5052886E+02  0.7816164E-02  0.1300439E+00
        -11   -1    0    0    0    0  0.00000000000E+00  0.00000000000E+00  0.45593999997E+02  0.45594000000E+02  0.51100000000E-03 0. -1.
         11   -1    0    0    0    0 -0.00000000000E+00 -0.00000000000E+00 -0.45593999997E+02  0.45594000000E+02  0.51100000000E-03 0.  1.
    9900012    2    1    2    0    0 -0.34145993449E+02  0.14159050863E+02 -0.16933354088E+02  0.50528855019E+02  0.29999985314E+02 0.  0.
         12    1    1    2    0    0  0.34145993449E+02 -0.14159050863E+02  0.16933354088E+02  0.40659144981E+02  0.00000000000E+00 0. -1.
         11    1    3    3    0    0 -0.19732712360E+02  0.19074555567E+02  0.25929899651E+00  0.27446053330E+02  0.51100000000E-03 0. -1.
        -11    1    3    3    0    0 -0.80582344065E+01 -0.15323775235E+01 -0.92023928690E+01  0.12327504103E+02  0.51100000000E-03 0.  1.
         12    1    3    3    0    0 -0.63550466827E+01 -0.33831271804E+01 -0.79902602152E+01  0.10755297586E+02  0.00000000000E+00 0. -1.
</event>
<event>
 7    1  0.9953837E-014  0.5052887E+02  0.7816164E-02  0.1300439E+00
        -11   -1    0    0    0    0  0.00000000000E+00  0.00000000000E+00  0.45593999997E+02  0.45594000000E+02  0.51100000000E-03 0. -1.
         11   -1    0    0    0    0 -0.00000000000E+00 -0.00000000000E+00 -0.45593999997E+02  0.45594000000E+02  0.51100000000E-03 0.  1.
    9900012    2    1    2    0    0 -0.25576269345E+01  0.38763918867E+02 -0.11999238837E+02  0.50528873175E+02  0.30000040503E+02 0.  0.
         12    1    1    2    0    0  0.25576269345E+01 -0.38763918867E+02  0.11999238837E+02  0.40659126825E+02  0.00000000000E+00 0. -1.
         11    1    3    3    0    0  0.41172685424E+01  0.24040252626E+01 -0.28377191519E+01  0.55483229862E+01  0.51100000000E-03 0. -1.
        -11    1    3    3    0    0 -0.13876077305E+02  0.12997712606E+02 -0.41870367481E+00  0.19017396441E+02  0.51100000000E-03 0.  1.
        -12    1    3    3    0    0  0.72011818284E+01  0.23362180999E+02 -0.87428160099E+01  0.25963153748E+02  0.00000000000E+00 0.  1.
</event>
<event>
 7    1  0.9953837E-014  0.5052886E+02  0.7816164E-02  0.1300439E+00
        -11   -1    0    0    0    0  0.00000000000E+00  0.00000000000E+00  0.45593999997E+02  0.45594000000E+02  0.51100000000E-03 0.  1.
         11   -1    0    0    0    0 -0.00000000000E+00 -0.00000000000E+00 -0.45593999997E+02  0.45594000000E+02  0.51100000000E-03 0. -1.
    9900012    2    1    2    0    0 -0.22653755679E+02  0.32931474812E+02 -0.74492381944E+01  0.50528857985E+02  0.29999994332E+02 0.  0.
         12    1    1    2    0    0  0.22653755679E+02 -0.32931474812E+02  0.74492381944E+01  0.40659142015E+02  0.00000000000E+00 0. -1.
         11    1    3    3    0    0  0.17136745177E+01  0.59452731919E+01  0.70848624784E+01  0.94062867423E+01  0.51100000000E-03 0. -1.
        -11    1    3    3    0    0 -0.20089620102E+02  0.24760463955E+02 -0.77749107455E+01  0.32819546744E+02  0.51100000000E-03 0.  1.
         12    1    3    3    0    0 -0.42778100947E+01  0.22257376656E+01 -0.67591899274E+01  0.83030244993E+01  0.00000000000E+00 0. -1.
</event>
<event>
 7    1  0.9953837E-014  0.5052886E+02  0.7816164E-02  0.1300439E+00
        -11   -1    0    0    0    0  0.00000000000E+00  0.00000000000E+00  0.45593999997E+02  0.45594000000E+02  0.51100000000E-03 0. -1.
         11   -1    0    0    0    0 -0.00000000000E+00 -0.00000000000E+00 -0.45593999997E+02  0.45594000000E+02  0.51100000000E-03 0.  1.
    9900012    2    1    2    0    0  0.25037270885E+02  0.17093183098E+01  0.31990291932E+02  0.50528862277E+02  0.30000007378E+02 0.  0.
        -12    1    1    2    0    0 -0.25037270885E+02 -0.17093183098E+01 -0.31990291932E+02  0.40659137723E+02  0.00000000000E+00 0.  1.
         11    1    3    3    0    0  0.56120973258E+01  0.68893893388E+01  0.51168234150E+01  0.10253838500E+02  0.51100000000E-03 0. -1.
        -11    1    3    3    0    0  0.96956685903E-01 -0.95233340060E+01  0.49726591588E+01  0.10743864787E+02  0.51100000000E-03 0.  1.
        -12    1    3    3    0    0  0.19328216873E+02  0.43432629770E+01  0.21900809358E+02  0.29531158991E+02  0.00000000000E+00 0.  1.
</event>
<event>
 7    1  0.9953837E-014  0.5052879E+02  0.7816164E-02  0.1300439E+00
        -11   -1    0    0    0    0  0.00000000000E+00  0.00000000000E+00  0.45593999997E+02  0.45594000000E+02  0.51100000000E-03 0. -1.
         11   -1    0    0    0    0 -0.00000000000E+00 -0.00000000000E+00 -0.45593999997E+02  0.45594000000E+02  0.51100000000E-03 0.  1.
    9900012    2    1    2    0    0 -0.25401393605E+02  0.62500007779E+01 -0.31126809932E+02  0.50528786981E+02  0.29999778507E+02 0.  0.
         12    1    1    2    0    0  0.25401393605E+02 -0.62500007779E+01  0.31126809932E+02  0.40659213019E+02  0.00000000000E+00 0. -1.
         11    1    3    3    0    0 -0.59308442508E+01 -0.17395470818E+01  0.26236804556E+01  0.67145094363E+01  0.51100000000E-03 0.  1.
        -11    1    3    3    0    0 -0.20886395682E+02  0.11556182995E+01 -0.24244587645E+02  0.32021508531E+02  0.51100000000E-03 0. -1.
         12    1    3    3    0    0  0.14158463287E+01  0.68339295601E+01 -0.95059027427E+01  0.11792769014E+02  0.00000000000E+00 0. -1.
</event>
<event>
 7    1  0.9953837E-014  0.5052886E+02  0.7816164E-02  0.1300439E+00
        -11   -1    0    0    0    0  0.00000000000E+00  0.00000000000E+00  0.45593999997E+02  0.45594000000E+02  0.51100000000E-03 0. -1.
         11   -1    0    0    0    0 -0.00000000000E+00 -0.00000000000E+00 -0.45593999997E+02  0.45594000000E+02  0.51100000000E-03 0.  1.
    9900012    2    1    2    0    0  0.75876953117E+00 -0.29482675799E+01  0.40545011243E+02  0.50528856507E+02  0.29999989837E+02 0.  0.
        -12    1    1    2    0    0 -0.75876953117E+00  0.29482675799E+01 -0.40545011243E+02  0.40659143493E+02  0.00000000000E+00 0.  1.
         11    1    3    3    0    0 -0.70274711944E+01  0.15905627465E+01  0.40480581203E+02  0.41116817679E+02  0.51100000000E-03 0. -1.
        -11    1    3    3    0    0  0.52496202109E+01 -0.19450925342E+01  0.94794269643E+00  0.56780712343E+01  0.51100000000E-03 0.  1.
         12    1    3    3    0    0  0.25366205147E+01 -0.25937377922E+01 -0.88351265687E+00  0.37339675929E+01  0.00000000000E+00 0. -1.
</event>
<event>
 7    1  0.9953837E-014  0.5052884E+02  0.7816164E-02  0.1300439E+00
        -11   -1    0    0    0    0  0.00000000000E+00  0.00000000000E+00  0.45593999997E+02  0.45594000000E+02  0.51100000000E-03 0. -1.
         11   -1    0    0    0    0 -0.00000000000E+00 -0.00000000000E+00 -0.45593999997E+02  0.45594000000E+02  0.51100000000E-03 0.  1.
    9900012    2    1    2    0    0  0.16743247302E+02 -0.34034441106E+02 -0.14645402493E+02  0.50528839584E+02  0.29999938398E+02 0.  0.
         12    1    1    2    0    0 -0.16743247302E+02  0.34034441106E+02  0.14645402493E+02  0.40659160416E+02  0.00000000000E+00 0. -1.
         11    1    3    3    0    0  0.10012780930E+02 -0.35229036856E+02 -0.77774124471E+01  0.37441006455E+02  0.51100000000E-03 0. -1.
        -11    1    3    3    0    0  0.51054440964E+01  0.12126734958E+01 -0.89933694500E+01  0.10412340311E+02  0.51100000000E-03 0.  1.
         12    1    3    3    0    0  0.16250222760E+01 -0.18077745458E-01  0.21253794045E+01  0.26754928173E+01  0.00000000000E+00 0. -1.
</event>
<event>
 7    1  0.9953837E-014  0.5052883E+02  0.7816164E-02  0.1300439E+00
        -11   -1    0    0    0    0  0.00000000000E+00  0.00000000000E+00  0.45593999997E+02  0.45594000000E+02  0.51100000000E-03 0. -1.
         11   -1    0    0    0    0 -0.00000000000E+00 -0.00000000000E+00 -0.45593999997E+02  0.45594000000E+02  0.51100000000E-03 0.  1.
    9900012    2    1    2    0    0 -0.39335515981E+02 -0.15351516551E+01  0.10174916075E+02  0.50528826063E+02  0.29999897302E+02 0.  0.
        -12    1    1    2    0    0  0.39335515981E+02  0.15351516551E+01 -0.10174916075E+02  0.40659173937E+02  0.00000000000E+00 0.  1.
         11    1    3    3    0    0 -0.32453592299E+02 -0.84247979210E+01  0.78610259159E+00  0.33538497741E+02  0.51100000000E-03 0. -1.
        -11    1    3    3    0    0 -0.70335593206E+01  0.61862964247E+01  0.20147613365E+01  0.95812568943E+01  0.51100000000E-03 0.  1.
         12    1    3    3    0    0  0.15163563926E+00  0.70334984115E+00  0.73740521470E+01  0.74090714285E+01  0.00000000000E+00 0. -1.
</event>
<event>
 7    1  0.9953837E-014  0.5052885E+02  0.7816164E-02  0.1300439E+00
        -11   -1    0    0    0    0  0.00000000000E+00  0.00000000000E+00  0.45593999997E+02  0.45594000000E+02  0.51100000000E-03 0.  1.
         11   -1    0    0    0    0 -0.00000000000E+00 -0.00000000000E+00 -0.45593999997E+02  0.45594000000E+02  0.51100000000E-03 0. -1.
    9900012    2    1    2    0    0  0.26350391349E+02 -0.28826604123E+02  0.11307090777E+02  0.50528849353E+02  0.29999968093E+02 0.  0.
         12    1    1    2    0    0 -0.26350391349E+02  0.28826604123E+02 -0.11307090777E+02  0.40659150647E+02  0.00000000000E+00 0. -1.
         11    1    3    3    0    0 -0.34879206983E+01 -0.77338768065E+01 -0.28457437596E+01  0.89485584907E+01  0.51100000000E-03 0. -1.
        -11    1    3    3    0    0  0.19313156710E+02 -0.15996302631E+02  0.15991716425E+02  0.29742473240E+02  0.51100000000E-03 0.  1.
         12    1    3    3    0    0  0.10525155338E+02 -0.50964246851E+01 -0.18388818876E+01  0.11837817622E+02  0.00000000000E+00 0. -1.
</event>
<event>
 7    1  0.9953837E-014  0.5052886E+02  0.7816164E-02  0.1300439E+00
        -11   -1    0    0    0    0  0.00000000000E+00  0.00000000000E+00  0.45593999997E+02  0.45594000000E+02  0.51100000000E-03 0. -1.
         11   -1    0    0    0    0 -0.00000000000E+00 -0.00000000000E+00 -0.45593999997E+02  0.45594000000E+02  0.51100000000E-03 0.  1.
    9900012    2    1    2    0    0  0.19269493642E+02  0.27402833423E+02 -0.23042061763E+02  0.50528864801E+02  0.30000015050E+02 0.  0.
         12    1    1    2    0    0 -0.19269493642E+02 -0.27402833423E+02  0.23042061763E+02  0.40659135199E+02  0.00000000000E+00 0. -1.
         11    1    3    3    0    0  0.14913493696E+02  0.13240068676E+02 -0.44197709083E+01  0.20426602456E+02  0.51100000000E-03 0. -1.
        -11    1    3    3    0    0 -0.33706144905E+01 -0.53967739923E+00 -0.11561021898E+02  0.12054439901E+02  0.51100000000E-03 0.  1.
        -12    1    3    3    0    0  0.77266144369E+01  0.14702442146E+02 -0.70612689568E+01  0.18047822445E+02  0.00000000000E+00 0.  1.
</event>
<event>
 7    1  0.9953837E-014  0.5052886E+02  0.7816164E-02  0.1300439E+00
        -11   -1    0    0    0    0  0.00000000000E+00  0.00000000000E+00  0.45593999997E+02  0.45594000000E+02  0.51100000000E-03 0. -1.
         11   -1    0    0    0    0 -0.00000000000E+00 -0.00000000000E+00 -0.45593999997E+02  0.45594000000E+02  0.51100000000E-03 0.  1.
    9900012    2    1    2    0    0 -0.23635902076E+01 -0.14751817953E+02 -0.37814856010E+02  0.50528855560E+02  0.29999986959E+02 0.  0.
         12    1    1    2    0    0  0.23635902076E+01  0.14751817953E+02  0.37814856010E+02  0.40659144440E+02  0.00000000000E+00 0. -1.
         11    1    3    3    0    0 -0.68201303111E+01 -0.14957077664E+02 -0.71174146221E+01  0.17913289505E+02  0.51100000000E-03 0. -1.
        -11    1    3    3    0    0  0.16003142494E+01 -0.45058342399E+01 -0.20223048189E+02  0.20780645472E+02  0.51100000000E-03 0.  1.
         12    1    3    3    0    0  0.28562258542E+01  0.47110939508E+01 -0.10474393198E+02  0.11834920583E+02  0.00000000000E+00 0. -1.
</event>
<event>
 7    1  0.9953837E-014  0.5052887E+02  0.7816164E-02  0.1300439E+00
        -11   -1    0    0    0    0  0.00000000000E+00  0.00000000000E+00  0.45593999997E+02  0.45594000000E+02  0.51100000000E-03 0. -1.
         11   -1    0    0    0    0 -0.00000000000E+00 -0.00000000000E+00 -0.45593999997E+02  0.45594000000E+02  0.51100000000E-03 0.  1.
    9900012    2    1    2    0    0 -0.14495097428E+02  0.81696188877E+00  0.37978805499E+02  0.50528868881E+02  0.30000027452E+02 0.  0.
        -12    1    1    2    0    0  0.14495097428E+02 -0.81696188877E+00 -0.37978805499E+02  0.40659131119E+02  0.00000000000E+00 0.  1.
         11    1    3    3    0    0 -0.18248057570E+02 -0.83161962414E+01  0.21217497588E+02  0.29194741464E+02  0.51100000000E-03 0. -1.
        -11    1    3    3    0    0 -0.54070817492E+00  0.78646167024E+01  0.14020286315E+02  0.16084557495E+02  0.51100000000E-03 0.  1.
        -12    1    3    3    0    0  0.42936683171E+01  0.12685414278E+01  0.27410215958E+01  0.52495699214E+01  0.00000000000E+00 0.  1.
</event>
<event>
 7    1  0.9953837E-014  0.5052887E+02  0.7816164E-02  0.1300439E+00
        -11   -1    0    0    0    0  0.00000000000E+00  0.00000000000E+00  0.45593999997E+02  0.45594000000E+02  0.51100000000E-03 0. -1.
         11   -1    0    0    0    0 -0.00000000000E+00 -0.00000000000E+00 -0.45593999997E+02  0.45594000000E+02  0.51100000000E-03 0.  1.
    9900012    2    1    2    0    0  0.20080767313E+02  0.77147253339E+01  0.34502331816E+02  0.50528866910E+02  0.30000021461E+02 0.  0.
        -12    1    1    2    0    0 -0.20080767313E+02 -0.77147253339E+01 -0.34502331816E+02  0.40659133090E+02  0.00000000000E+00 0.  1.
         11    1    3    3    0    0  0.89795383173E+01 -0.81267497247E+01  0.21493193257E+02  0.24670499106E+02  0.51100000000E-03 0. -1.
        -11    1    3    3    0    0  0.41279060427E+01  0.19998891285E+01 -0.12964102550E+01  0.47665338175E+01  0.51100000000E-03 0.  1.
         12    1    3    3    0    0  0.69733229525E+01  0.13841585930E+02  0.14305548814E+02  0.21091833987E+02  0.00000000000E+00 0. -1.
</event>
<event>
 7    1  0.9953837E-014  0.5052887E+02  0.7816164E-02  0.1300439E+00
        -11   -1    0    0    0    0  0.00000000000E+00  0.00000000000E+00  0.45593999997E+02  0.45594000000E+02  0.51100000000E-03 0.  1.
         11   -1    0    0    0    0 -0.00000000000E+00 -0.00000000000E+00 -0.45593999997E+02  0.45594000000E+02  0.51100000000E-03 0. -1.
    9900012    2    1    2    0    0  0.27901642504E+02 -0.18501409434E+02 -0.23072957409E+02  0.50528866106E+02  0.30000019016E+02 0.  0.
         12    1    1    2    0    0 -0.27901642504E+02  0.18501409434E+02  0.23072957409E+02  0.40659133894E+02  0.00000000000E+00 0. -1.
         11    1    3    3    0    0 -0.51054499341E+01 -0.64461378737E+01 -0.39680041105E+01  0.91303542866E+01  0.51100000000E-03 0. -1.
        -11    1    3    3    0    0  0.91178437664E+01 -0.76951097236E+01 -0.31419787921E+01  0.12337820699E+02  0.51100000000E-03 0.  1.
         12    1    3    3    0    0  0.23889248671E+02 -0.43601618364E+01 -0.15962974506E+02  0.29060691121E+02  0.00000000000E+00 0. -1.
</event>
<event>
 7    1  0.9953837E-014  0.5052886E+02  0.7816164E-02  0.1300439E+00
        -11   -1    0    0    0    0  0.00000000000E+00  0.00000000000E+00  0.45593999997E+02  0.45594000000E+02  0.51100000000E-03 0.  1.
         11   -1    0    0    0    0 -0.00000000000E+00 -0.00000000000E+00 -0.45593999997E+02  0.45594000000E+02  0.51100000000E-03 0. -1.
    9900012    2    1    2    0    0  0.72672199249E+00 -0.36292697115E+02 -0.18316060245E+02  0.50528855252E+02  0.29999986024E+02 0.  0.
         12    1    1    2    0    0 -0.72672199249E+00  0.36292697115E+02  0.18316060245E+02  0.40659144748E+02  0.00000000000E+00 0. -1.
         11    1    3    3    0    0  0.10172777287E+02 -0.53456999702E+01 -0.44755797861E+01  0.12332587749E+02  0.51100000000E-03 0. -1.
        -11    1    3    3    0    0  0.28297022394E+01 -0.18711701349E+01  0.67232846453E+00  0.34583982221E+01  0.51100000000E-03 0.  1.
         12    1    3    3    0    0 -0.12275757534E+02 -0.29075827010E+02 -0.14512808923E+02  0.34737869281E+02  0.00000000000E+00 0. -1.
</event>
<event>
 7    1  0.9953837E-014  0.5052885E+02  0.7816164E-02  0.1300439E+00
        -11   -1    0    0    0    0  0.00000000000E+00  0.00000000000E+00  0.45593999997E+02  0.45594000000E+02  0.51100000000E-03 0.  1.
         11   -1    0    0    0    0 -0.00000000000E+00 -0.00000000000E+00 -0.45593999997E+02  0.45594000000E+02  0.51100000000E-03 0. -1.
    9900012    2    1    2    0    0 -0.26835666303E+02 -0.26716398639E+02  0.14807004195E+02  0.50528852009E+02  0.29999976165E+02 0.  0.
        -12    1    1    2    0    0  0.26835666303E+02  0.26716398639E+02 -0.14807004195E+02  0.40659147991E+02  0.00000000000E+00 0.  1.
         11    1    3    3    0    0 -0.12316700553E+02 -0.56427103961E+01  0.11544103396E+02  0.17799090331E+02  0.51100000000E-03 0. -1.
        -11    1    3    3    0    0 -0.11001356108E+02 -0.44416912198E+01 -0.60803224066E+01  0.13331495713E+02  0.51100000000E-03 0.  1.
        -12    1    3    3    0    0 -0.35176096414E+01 -0.16631997023E+02  0.93432232058E+01  0.19398265965E+02  0.00000000000E+00 0.  1.
</event>
<event>
 7    1  0.9953837E-014  0.5052886E+02  0.7816164E-02  0.1300439E+00
        -11   -1    0    0    0    0  0.00000000000E+00  0.00000000000E+00  0.45593999997E+02  0.45594000000E+02  0.51100000000E-03 0. -1.
         11   -1    0    0    0    0 -0.00000000000E+00 -0.00000000000E+00 -0.45593999997E+02  0.45594000000E+02  0.51100000000E-03 0.  1.
    9900012    2    1    2    0    0  0.21169093282E+02  0.28056760709E+02  0.20441466581E+02  0.50528857267E+02  0.29999992148E+02 0.  0.
        -12    1    1    2    0    0 -0.21169093282E+02 -0.28056760709E+02 -0.20441466581E+02  0.40659142733E+02  0.00000000000E+00 0.  1.
         11    1    3    3    0    0  0.15827519791E+02  0.31569829076E+02  0.11424653998E+02  0.37117209079E+02  0.51100000000E-03 0. -1.
        -11    1    3    3    0    0  0.38976921925E+01 -0.59334386049E+01  0.67316793998E+01  0.97833126245E+01  0.51100000000E-03 0.  1.
        -12    1    3    3    0    0  0.14438812986E+01  0.24203702376E+01  0.22851331832E+01  0.36283355629E+01  0.00000000000E+00 0.  1.
</event>
<event>
 7    1  0.9953837E-014  0.5052888E+02  0.7816164E-02  0.1300439E+00
        -11   -1    0    0    0    0  0.00000000000E+00  0.00000000000E+00  0.45593999997E+02  0.45594000000E+02  0.51100000000E-03 0. -1.
         11   -1    0    0    0    0 -0.00000000000E+00 -0.00000000000E+00 -0.45593999997E+02  0.45594000000E+02  0.51100000000E-03 0.  1.
    9900012    2    1    2    0    0  0.21000577493E+02 -0.17875927133E+02 -0.29876266302E+02  0.50528876619E+02  0.30000050972E+02 0.  0.
         12    1    1    2    0    0 -0.21000577493E+02  0.17875927133E+02  0.29876266302E+02  0.40659123381E+02  0.00000000000E+00 0. -1.
         11    1    3    3    0    0  0.17383025050E+00  0.66407817215E+01 -0.71679169180E+00  0.66816157791E+01  0.51100000000E-03 0. -1.
        -11    1    3    3    0    0  0.91781545157E+01 -0.14359383043E+02 -0.12585821142E+02  0.21185686106E+02  0.51100000000E-03 0.  1.
         12    1    3    3    0    0  0.11648592727E+02 -0.10157325812E+02 -0.16573653468E+02  0.22661574735E+02  0.00000000000E+00 0. -1.
</event>
<event>
 7    1  0.9953837E-014  0.5052885E+02  0.7816164E-02  0.1300439E+00
        -11   -1    0    0    0    0  0.00000000000E+00  0.00000000000E+00  0.45593999997E+02  0.45594000000E+02  0.51100000000E-03 0. -1.
         11   -1    0    0    0    0 -0.00000000000E+00 -0.00000000000E+00 -0.45593999997E+02  0.45594000000E+02  0.51100000000E-03 0.  1.
    9900012    2    1    2    0    0 -0.13366390929E+02  0.15929564893E+02 -0.34939305437E+02  0.50528849633E+02  0.29999968944E+02 0.  0.
         12    1    1    2    0    0  0.13366390929E+02 -0.15929564893E+02  0.34939305437E+02  0.40659150367E+02  0.00000000000E+00 0. -1.
         11    1    3    3    0    0 -0.27754306006E+01  0.59682094289E+00  0.34586776355E+01  0.44745571294E+01  0.51100000000E-03 0. -1.
        -11    1    3    3    0    0 -0.11547056674E+02  0.27594560324E+01 -0.24884154276E+02  0.27571185134E+02  0.51100000000E-03 0.  1.
        -12    1    3    3    0    0  0.95609634487E+00  0.12573287918E+02 -0.13513828796E+02  0.18483107369E+02  0.00000000000E+00 0.  1.
</event>
<event>
 7    1  0.9953837E-014  0.5052887E+02  0.7816164E-02  0.1300439E+00
        -11   -1    0    0    0    0  0.00000000000E+00  0.00000000000E+00  0.45593999997E+02  0.45594000000E+02  0.51100000000E-03 0. -1.
         11   -1    0    0    0    0 -0.00000000000E+00 -0.00000000000E+00 -0.45593999997E+02  0.45594000000E+02  0.51100000000E-03 0.  1.
    9900012    2    1    2    0    0  0.52035725340E+01  0.32163648449E+02 -0.24322563915E+02  0.50528873545E+02  0.30000041629E+02 0.  0.
         12    1    1    2    0    0 -0.52035725340E+01 -0.32163648449E+02  0.24322563915E+02  0.40659126455E+02  0.00000000000E+00 0. -1.
         11    1    3    3    0    0  0.85348683972E+01  0.17330238063E+01  0.31695659671E+01  0.92678745542E+01  0.51100000000E-03 0. -1.
        -11    1    3    3    0    0  0.41092483754E+00  0.84459311541E+01 -0.80527373902E+01  0.11676865676E+02  0.51100000000E-03 0.  1.
         12    1    3    3    0    0 -0.37422207007E+01  0.21984693489E+02 -0.19439392492E+02  0.29584133315E+02  0.00000000000E+00 0. -1.
</event>
<event>
 7    1  0.9953837E-014  0.5052886E+02  0.7816164E-02  0.1300439E+00
        -11   -1    0    0    0    0  0.00000000000E+00  0.00000000000E+00  0.45593999997E+02  0.45594000000E+02  0.51100000000E-03 0. -1.
         11   -1    0    0    0    0 -0.00000000000E+00 -0.00000000000E+00 -0.45593999997E+02  0.45594000000E+02  0.51100000000E-03 0.  1.
    9900012    2    1    2    0    0 -0.24855740546E+02 -0.53851839784E+01 -0.31723142597E+02  0.50528858091E+02  0.29999994652E+02 0.  0.
         12    1    1    2    0    0  0.24855740546E+02  0.53851839784E+01  0.31723142597E+02  0.40659141909E+02  0.00000000000E+00 0. -1.
         11    1    3    3    0    0  0.38606216152E+00  0.17480550474E+01  0.79170290788E+00  0.19574305088E+01  0.51100000000E-03 0. -1.
        -11    1    3    3    0    0 -0.25190897307E+02  0.27073558821E+01 -0.27947856134E+02  0.37722589330E+02  0.51100000000E-03 0.  1.
        -12    1    3    3    0    0 -0.50905401009E-01 -0.98405949079E+01 -0.45669893706E+01  0.10848838252E+02  0.00000000000E+00 0.  1.
</event>
<event>
 7    1  0.1024075E-013  0.5052886E+02  0.7816164E-02  0.1300439E+00
        -11   -1    0    0    0    0  0.00000000000E+00  0.00000000000E+00  0.45593999997E+02  0.45594000000E+02  0.51100000000E-03 0.  1.
         11   -1    0    0    0    0 -0.00000000000E+00 -0.00000000000E+00 -0.45593999997E+02  0.45594000000E+02  0.51100000000E-03 0. -1.
    9900012    2    1    2    0    0 -0.15323140370E+02 -0.19739956645E+02  0.32073371400E+02  0.50528859919E+02  0.30000000210E+02 0.  0.
        -12    1    1    2    0    0  0.15323140370E+02  0.19739956645E+02 -0.32073371400E+02  0.40659140081E+02  0.00000000000E+00 0.  1.
         11    1    3    3    0    0 -0.20138702017E+02 -0.16391136101E+02  0.12117176420E+02  0.28654190379E+02  0.51100000000E-03 0. -1.
        -11    1    3    3    0    0  0.11193376155E+01  0.20807975746E+01  0.45555401134E+01  0.51318204596E+01  0.51100000000E-03 0.  1.
         12    1    3    3    0    0  0.36962240317E+01 -0.54296181184E+01  0.15400654867E+02  0.16742849080E+02  0.00000000000E+00 0. -1.
</event>
<event>
 7    1  0.9953837E-014  0.5052886E+02  0.7816164E-02  0.1300439E+00
        -11   -1    0    0    0    0  0.00000000000E+00  0.00000000000E+00  0.45593999997E+02  0.45594000000E+02  0.51100000000E-03 0. -1.
         11   -1    0    0    0    0 -0.00000000000E+00 -0.00000000000E+00 -0.45593999997E+02  0.45594000000E+02  0.51100000000E-03 0.  1.
    9900012    2    1    2    0    0 -0.29395329379E+02 -0.69573702278E+01 -0.27215351031E+02  0.50528859312E+02  0.29999998364E+02 0.  0.
         12    1    1    2    0    0  0.29395329379E+02  0.69573702278E+01  0.27215351031E+02  0.40659140688E+02  0.00000000000E+00 0. -1.
         11    1    3    3    0    0 -0.17899476852E+01  0.36808302106E+01 -0.61664042743E+01  0.74011462416E+01  0.51100000000E-03 0. -1.
        -11    1    3    3    0    0 -0.29350156480E+02 -0.11698108684E+02 -0.23903084742E+02  0.39618618004E+02  0.51100000000E-03 0.  1.
        -12    1    3    3    0    0  0.17447747861E+01  0.10599082458E+01  0.28541379848E+01  0.35090950657E+01  0.00000000000E+00 0.  1.
</event>
<event>
 7    1  0.9953837E-014  0.5052881E+02  0.7816164E-02  0.1300439E+00
        -11   -1    0    0    0    0  0.00000000000E+00  0.00000000000E+00  0.45593999997E+02  0.45594000000E+02  0.51100000000E-03 0. -1.
         11   -1    0    0    0    0 -0.00000000000E+00 -0.00000000000E+00 -0.45593999997E+02  0.45594000000E+02  0.51100000000E-03 0.  1.
    9900012    2    1    2    0    0  0.97095008393E+01  0.34632259269E+02  0.18960536645E+02  0.50528809913E+02  0.29999848212E+02 0.  0.
        -12    1    1    2    0    0 -0.97095008393E+01 -0.34632259269E+02 -0.18960536645E+02  0.40659190087E+02  0.00000000000E+00 0.  1.
         11    1    3    3    0    0 -0.11432905013E+01  0.20296198090E+02  0.17955976476E+02  0.27123050373E+02  0.51100000000E-03 0. -1.
        -11    1    3    3    0    0  0.23293711565E+01  0.15308007950E+01 -0.59147513862E+01  0.65386241122E+01  0.51100000000E-03 0.  1.
        -12    1    3    3    0    0  0.85234201840E+01  0.12805260385E+02  0.69193115551E+01  0.16867135428E+02  0.00000000000E+00 0.  1.
</event>
<event>
 7    1  0.9953837E-014  0.5052889E+02  0.7816164E-02  0.1300439E+00
        -11   -1    0    0    0    0  0.00000000000E+00  0.00000000000E+00  0.45593999997E+02  0.45594000000E+02  0.51100000000E-03 0. -1.
         11   -1    0    0    0    0 -0.00000000000E+00 -0.00000000000E+00 -0.45593999997E+02  0.45594000000E+02  0.51100000000E-03 0.  1.
    9900012    2    1    2    0    0  0.13790687527E+01 -0.78221613493E+01 -0.39875748277E+02  0.50528888605E+02  0.30000087404E+02 0.  0.
         12    1    1    2    0    0 -0.13790687527E+01  0.78221613493E+01  0.39875748277E+02  0.40659111395E+02  0.00000000000E+00 0. -1.
         11    1    3    3    0    0  0.60518149920E+01 -0.16560305462E+02 -0.19794271140E+02  0.26508137466E+02  0.51100000000E-03 0. -1.
        -11    1    3    3    0    0 -0.98054401225E-01  0.67607789501E+01 -0.16648220221E+02  0.17968889322E+02  0.51100000000E-03 0.  1.
         12    1    3    3    0    0 -0.45746918381E+01  0.19773651627E+01 -0.34332569150E+01  0.60518618163E+01  0.00000000000E+00 0. -1.
</event>
<event>
 7    1  0.9953837E-014  0.5052886E+02  0.7816164E-02  0.1300439E+00
        -11   -1    0    0    0    0  0.00000000000E+00  0.00000000000E+00  0.45593999997E+02  0.45594000000E+02  0.51100000000E-03 0. -1.
         11   -1    0    0    0    0 -0.00000000000E+00 -0.00000000000E+00 -0.45593999997E+02  0.45594000000E+02  0.51100000000E-03 0.  1.
    9900012    2    1    2    0    0 -0.55383438876E+00 -0.94938118899E+01  0.39531337135E+02  0.50528858194E+02  0.29999994965E+02 0.  0.
        -12    1    1    2    0    0  0.55383438876E+00  0.94938118899E+01 -0.39531337135E+02  0.40659141806E+02  0.00000000000E+00 0.  1.
         11    1    3    3    0    0  0.32346955978E-02 -0.37509560787E+01  0.47686937568E+01  0.60671346099E+01  0.51100000000E-03 0. -1.
        -11    1    3    3    0    0  0.12170669032E+02  0.16185394453E+01  0.20980550799E+02  0.24309018218E+02  0.51100000000E-03 0.  1.
        -12    1    3    3    0    0 -0.12727738117E+02 -0.73613952565E+01  0.13782092580E+02  0.20152705366E+02  0.00000000000E+00 0.  1.
</event>
<event>
 7    1  0.9953837E-014  0.5052880E+02  0.7816164E-02  0.1300439E+00
        -11   -1    0    0    0    0  0.00000000000E+00  0.00000000000E+00  0.45593999997E+02  0.45594000000E+02  0.51100000000E-03 0. -1.
         11   -1    0    0    0    0 -0.00000000000E+00 -0.00000000000E+00 -0.45593999997E+02  0.45594000000E+02  0.51100000000E-03 0.  1.
    9900012    2    1    2    0    0 -0.27806678495E+02 -0.24864396233E+02 -0.16177794216E+02  0.50528799385E+02  0.29999816210E+02 0.  0.
         12    1    1    2    0    0  0.27806678495E+02  0.24864396233E+02  0.16177794216E+02  0.40659200615E+02  0.00000000000E+00 0. -1.
         11    1    3    3    0    0 -0.85688045050E+01 -0.56637534035E+01  0.87583010843E+01  0.13498531454E+02  0.51100000000E-03 0. -1.
        -11    1    3    3    0    0 -0.13177704907E+02 -0.13315779401E+02 -0.15078270524E+02  0.24048204297E+02  0.51100000000E-03 0.  1.
         12    1    3    3    0    0 -0.60601690834E+01 -0.58848634282E+01 -0.98578247759E+01  0.12982063634E+02  0.00000000000E+00 0. -1.
</event>
<event>
 7    1  0.9953837E-014  0.5052886E+02  0.7816164E-02  0.1300439E+00
        -11   -1    0    0    0    0  0.00000000000E+00  0.00000000000E+00  0.45593999997E+02  0.45594000000E+02  0.51100000000E-03 0. -1.
         11   -1    0    0    0    0 -0.00000000000E+00 -0.00000000000E+00 -0.45593999997E+02  0.45594000000E+02  0.51100000000E-03 0.  1.
    9900012    2    1    2    0    0  0.17505701553E+01  0.13336278167E+02  0.38369844325E+02  0.50528858780E+02  0.29999996749E+02 0.  0.
        -12    1    1    2    0    0 -0.17505701553E+01 -0.13336278167E+02 -0.38369844325E+02  0.40659141220E+02  0.00000000000E+00 0.  1.
         11    1    3    3    0    0 -0.34636905491E+01  0.63678968610E+01  0.86010125663E+01  0.11248318989E+02  0.51100000000E-03 0. -1.
        -11    1    3    3    0    0  0.92727075824E+01 -0.39269966484E+01  0.24552433967E+02  0.26537264790E+02  0.51100000000E-03 0.  1.
        -12    1    3    3    0    0 -0.40584468781E+01  0.10895377955E+02  0.52163977914E+01  0.12743275001E+02  0.00000000000E+00 0.  1.
</event>
<event>
 7    1  0.9953837E-014  0.5052886E+02  0.7816164E-02  0.1300439E+00
        -11   -1    0    0    0    0  0.00000000000E+00  0.00000000000E+00  0.45593999997E+02  0.45594000000E+02  0.51100000000E-03 0.  1.
         11   -1    0    0    0    0 -0.00000000000E+00 -0.00000000000E+00 -0.45593999997E+02  0.45594000000E+02  0.51100000000E-03 0. -1.
    9900012    2    1    2    0    0  0.17147141177E+02  0.36753901653E+02 -0.28795871529E+01  0.50528858846E+02  0.29999996947E+02 0.  0.
        -12    1    1    2    0    0 -0.17147141177E+02 -0.36753901653E+02  0.28795871529E+01  0.40659141154E+02  0.00000000000E+00 0.  1.
         11    1    3    3    0    0  0.20974088923E+02  0.21920403958E+02 -0.20097760064E+01  0.30404863356E+02  0.51100000000E-03 0. -1.
        -11    1    3    3    0    0 -0.28979328648E+00  0.16280564979E+02 -0.75006174381E+00  0.16300410089E+02  0.51100000000E-03 0.  1.
        -12    1    3    3    0    0 -0.35371544595E+01 -0.14470672844E+01 -0.11974940268E+00  0.38235854005E+01  0.00000000000E+00 0.  1.
</event>
<event>
 7    1  0.9953837E-014  0.5052886E+02  0.7816164E-02  0.1300439E+00
        -11   -1    0    0    0    0  0.00000000000E+00  0.00000000000E+00  0.45593999997E+02  0.45594000000E+02  0.51100000000E-03 0. -1.
         11   -1    0    0    0    0 -0.00000000000E+00 -0.00000000000E+00 -0.45593999997E+02  0.45594000000E+02  0.51100000000E-03 0.  1.
    9900012    2    1    2    0    0  0.33622447437E+01  0.17180744309E+01  0.40483442652E+02  0.50528860825E+02  0.30000002965E+02 0.  0.
        -12    1    1    2    0    0 -0.33622447437E+01 -0.17180744309E+01 -0.40483442652E+02  0.40659139175E+02  0.00000000000E+00 0.  1.
         11    1    3    3    0    0 -0.49073219198E+01 -0.75422432371E+01  0.23549109834E+02  0.25209677025E+02  0.51100000000E-03 0. -1.
        -11    1    3    3    0    0 -0.85932436689E+00  0.96178380499E+01  0.79802571479E+01  0.12527000899E+02  0.51100000000E-03 0.  1.
        -12    1    3    3    0    0  0.91288910305E+01 -0.35752038184E+00  0.89540756705E+01  0.12792182901E+02  0.00000000000E+00 0.  1.
</event>
<event>
 7    1  0.9953837E-014  0.5052886E+02  0.7816164E-02  0.1300439E+00
        -11   -1    0    0    0    0  0.00000000000E+00  0.00000000000E+00  0.45593999997E+02  0.45594000000E+02  0.51100000000E-03 0. -1.
         11   -1    0    0    0    0 -0.00000000000E+00 -0.00000000000E+00 -0.45593999997E+02  0.45594000000E+02  0.51100000000E-03 0.  1.
    9900012    2    1    2    0    0  0.15124898841E+02 -0.21980180396E+02 -0.30680202632E+02  0.50528859223E+02  0.29999998095E+02 0.  0.
         12    1    1    2    0    0 -0.15124898841E+02  0.21980180396E+02  0.30680202632E+02  0.40659140777E+02  0.00000000000E+00 0. -1.
         11    1    3    3    0    0 -0.43944997750E+01 -0.37825946933E+01 -0.70346236033E+01  0.91162262141E+01  0.51100000000E-03 0. -1.
        -11    1    3    3    0    0  0.12546946577E+02  0.12309186069E+01 -0.48890793265E+01  0.13521986760E+02  0.51100000000E-03 0.  1.
        -12    1    3    3    0    0  0.69724520393E+01 -0.19428504310E+02 -0.18756499702E+02  0.27890646249E+02  0.00000000000E+00 0.  1.
</event>
<event>
 7    1  0.9953837E-014  0.5052886E+02  0.7816164E-02  0.1300439E+00
        -11   -1    0    0    0    0  0.00000000000E+00  0.00000000000E+00  0.45593999997E+02  0.45594000000E+02  0.51100000000E-03 0. -1.
         11   -1    0    0    0    0 -0.00000000000E+00 -0.00000000000E+00 -0.45593999997E+02  0.45594000000E+02  0.51100000000E-03 0.  1.
    9900012    2    1    2    0    0 -0.29041225606E+02 -0.22887367479E+02 -0.16909803178E+02  0.50528858120E+02  0.29999994743E+02 0.  0.
         12    1    1    2    0    0  0.29041225606E+02  0.22887367479E+02  0.16909803178E+02  0.40659141880E+02  0.00000000000E+00 0. -1.
         11    1    3    3    0    0  0.36412707901E+01  0.11318140814E+01  0.28793131306E+01  0.47781063662E+01  0.51100000000E-03 0. -1.
        -11    1    3    3    0    0 -0.98348798802E+01 -0.74389566647E+01 -0.99848726109E+01  0.15866966308E+02  0.51100000000E-03 0.  1.
         12    1    3    3    0    0 -0.22847616516E+02 -0.16580224896E+02 -0.98042436980E+01  0.29883785446E+02  0.00000000000E+00 0. -1.
</event>
<event>
 7    1  0.9953837E-014  0.5052886E+02  0.7816164E-02  0.1300439E+00
        -11   -1    0    0    0    0  0.00000000000E+00  0.00000000000E+00  0.45593999997E+02  0.45594000000E+02  0.51100000000E-03 0. -1.
         11   -1    0    0    0    0 -0.00000000000E+00 -0.00000000000E+00 -0.45593999997E+02  0.45594000000E+02  0.51100000000E-03 0.  1.
    9900012    2    1    2    0    0 -0.18045901925E+02  0.24532393992E+02  0.26938313597E+02  0.50528859936E+02  0.30000000263E+02 0.  0.
        -12    1    1    2    0    0  0.18045901925E+02 -0.24532393992E+02 -0.26938313597E+02  0.40659140064E+02  0.00000000000E+00 0.  1.
         11    1    3    3    0    0 -0.11629040456E+02  0.49121618345E+01  0.22356041891E+02  0.25674043801E+02  0.51100000000E-03 0. -1.
        -11    1    3    3    0    0 -0.91454580830E+01  0.13066035463E+02 -0.76472018488E+00  0.15967012353E+02  0.51100000000E-03 0.  1.
         12    1    3    3    0    0  0.27285966135E+01  0.65541966946E+01  0.53469918911E+01  0.88878037824E+01  0.00000000000E+00 0. -1.
</event>
<event>
 7    1  0.9953837E-014  0.5052885E+02  0.7816164E-02  0.1300439E+00
        -11   -1    0    0    0    0  0.00000000000E+00  0.00000000000E+00  0.45593999997E+02  0.45594000000E+02  0.51100000000E-03 0. -1.
         11   -1    0    0    0    0 -0.00000000000E+00 -0.00000000000E+00 -0.45593999997E+02  0.45594000000E+02  0.51100000000E-03 0.  1.
    9900012    2    1    2    0    0 -0.21332500856E+02 -0.65444461906E+01 -0.33989128907E+02  0.50528852781E+02  0.29999978513E+02 0.  0.
         12    1    1    2    0    0  0.21332500856E+02  0.65444461906E+01  0.33989128907E+02  0.40659147219E+02  0.00000000000E+00 0. -1.
         11    1    3    3    0    0 -0.55099113567E+01  0.10193997831E+02 -0.58782348938E+01  0.12993473772E+02  0.51100000000E-03 0. -1.
        -11    1    3    3    0    0 -0.11967434133E+02 -0.59345318156E+01 -0.14005658503E+02  0.19354498649E+02  0.51100000000E-03 0.  1.
         12    1    3    3    0    0 -0.38551553664E+01 -0.10803912206E+02 -0.14105235510E+02  0.18180880360E+02  0.00000000000E+00 0. -1.
</event>
<event>
 7    1  0.9953837E-014  0.5052887E+02  0.7816164E-02  0.1300439E+00
        -11   -1    0    0    0    0  0.00000000000E+00  0.00000000000E+00  0.45593999997E+02  0.45594000000E+02  0.51100000000E-03 0. -1.
         11   -1    0    0    0    0 -0.00000000000E+00 -0.00000000000E+00 -0.45593999997E+02  0.45594000000E+02  0.51100000000E-03 0.  1.
    9900012    2    1    2    0    0  0.40696501799E+01 -0.23698741201E+02  0.32786778466E+02  0.50528865365E+02  0.30000016764E+02 0.  0.
        -12    1    1    2    0    0 -0.40696501799E+01  0.23698741201E+02 -0.32786778466E+02  0.40659134635E+02  0.00000000000E+00 0.  1.
         11    1    3    3    0    0  0.18899437347E+01  0.39258791901E+00  0.20785375858E+02  0.20874814069E+02  0.51100000000E-03 0. -1.
        -11    1    3    3    0    0 -0.18853998634E+01 -0.12496120122E+02  0.23217696668E+00  0.12639685801E+02  0.51100000000E-03 0.  1.
        -12    1    3    3    0    0  0.40651063087E+01 -0.11595208998E+02  0.11769225641E+02  0.17014365495E+02  0.00000000000E+00 0.  1.
</event>
<event>
 7    1  0.9953837E-014  0.5052886E+02  0.7816164E-02  0.1300439E+00
        -11   -1    0    0    0    0  0.00000000000E+00  0.00000000000E+00  0.45593999997E+02  0.45594000000E+02  0.51100000000E-03 0. -1.
         11   -1    0    0    0    0 -0.00000000000E+00 -0.00000000000E+00 -0.45593999997E+02  0.45594000000E+02  0.51100000000E-03 0.  1.
    9900012    2    1    2    0    0 -0.30621384841E+02  0.26507538881E+02  0.35842575307E+01  0.50528859218E+02  0.29999998078E+02 0.  0.
         12    1    1    2    0    0  0.30621384841E+02 -0.26507538881E+02 -0.35842575307E+01  0.40659140782E+02  0.00000000000E+00 0. -1.
         11    1    3    3    0    0 -0.15275614498E+02  0.10620198967E+02 -0.84217791368E+01  0.20422031938E+02  0.51100000000E-03 0. -1.
        -11    1    3    3    0    0  0.86449245678E+00  0.98853835318E+01  0.68876656462E+01  0.12079242240E+02  0.51100000000E-03 0.  1.
        -12    1    3    3    0    0 -0.16210262800E+02  0.60019563820E+01  0.51183710213E+01  0.18027585040E+02  0.00000000000E+00 0.  1.
</event>
<event>
 7    1  0.9953837E-014  0.5052886E+02  0.7816164E-02  0.1300439E+00
        -11   -1    0    0    0    0  0.00000000000E+00  0.00000000000E+00  0.45593999997E+02  0.45594000000E+02  0.51100000000E-03 0. -1.
         11   -1    0    0    0    0 -0.00000000000E+00 -0.00000000000E+00 -0.45593999997E+02  0.45594000000E+02  0.51100000000E-03 0.  1.
    9900012    2    1    2    0    0 -0.13141239959E+02  0.24597004914E+02 -0.29588181617E+02  0.50528864128E+02  0.30000013005E+02 0.  0.
         12    1    1    2    0    0  0.13141239959E+02 -0.24597004914E+02  0.29588181617E+02  0.40659135872E+02  0.00000000000E+00 0. -1.
         11    1    3    3    0    0  0.33532174934E+01  0.10866245925E+01  0.88092429795E+00  0.36332971861E+01  0.51100000000E-03 0. -1.
        -11    1    3    3    0    0 -0.18576029088E+02  0.11460614026E+02 -0.25829290618E+02  0.33816664303E+02  0.51100000000E-03 0.  1.
        -12    1    3    3    0    0  0.20815716348E+01  0.12049766295E+02 -0.46398152972E+01  0.13078902639E+02  0.00000000000E+00 0.  1.
</event>
<event>
 7    1  0.9953837E-014  0.5052886E+02  0.7816164E-02  0.1300439E+00
        -11   -1    0    0    0    0  0.00000000000E+00  0.00000000000E+00  0.45593999997E+02  0.45594000000E+02  0.51100000000E-03 0. -1.
         11   -1    0    0    0    0 -0.00000000000E+00 -0.00000000000E+00 -0.45593999997E+02  0.45594000000E+02  0.51100000000E-03 0.  1.
    9900012    2    1    2    0    0  0.31876110596E+02 -0.66941545869E+00 -0.25231557514E+02  0.50528855415E+02  0.29999986521E+02 0.  0.
         12    1    1    2    0    0 -0.31876110596E+02  0.66941545869E+00  0.25231557514E+02  0.40659144585E+02  0.00000000000E+00 0. -1.
         11    1    3    3    0    0  0.47921421039E+01 -0.77346324176E+00  0.14760344324E+01  0.50736130359E+01  0.51100000000E-03 0. -1.
        -11    1    3    3    0    0  0.12048874654E+02 -0.88585891317E+01 -0.23201717292E+02  0.27603798061E+02  0.51100000000E-03 0.  1.
        -12    1    3    3    0    0  0.15035093838E+02  0.89626369148E+01 -0.35058746546E+01  0.17851444319E+02  0.00000000000E+00 0.  1.
</event>
<event>
 7    1  0.9953837E-014  0.5052886E+02  0.7816164E-02  0.1300439E+00
        -11   -1    0    0    0    0  0.00000000000E+00  0.00000000000E+00  0.45593999997E+02  0.45594000000E+02  0.51100000000E-03 0. -1.
         11   -1    0    0    0    0 -0.00000000000E+00 -0.00000000000E+00 -0.45593999997E+02  0.45594000000E+02  0.51100000000E-03 0.  1.
    9900012    2    1    2    0    0 -0.12309495686E+02 -0.34420534605E+02 -0.17800816897E+02  0.50528856271E+02  0.29999989122E+02 0.  0.
         12    1    1    2    0    0  0.12309495686E+02  0.34420534605E+02  0.17800816897E+02  0.40659143729E+02  0.00000000000E+00 0. -1.
         11    1    3    3    0    0  0.47144098215E+01 -0.44835709168E+01  0.35253431413E+01  0.73997373370E+01  0.51100000000E-03 0. -1.
        -11    1    3    3    0    0 -0.16066331908E+02 -0.29900728704E+02 -0.15659172040E+02  0.37381683580E+02  0.51100000000E-03 0.  1.
        -12    1    3    3    0    0 -0.95757359918E+00 -0.36234984088E-01 -0.56669879988E+01  0.57474353541E+01  0.00000000000E+00 0.  1.
</event>
<event>
 7    1  0.9953837E-014  0.5052885E+02  0.7816164E-02  0.1300439E+00
        -11   -1    0    0    0    0  0.00000000000E+00  0.00000000000E+00  0.45593999997E+02  0.45594000000E+02  0.51100000000E-03 0. -1.
         11   -1    0    0    0    0 -0.00000000000E+00 -0.00000000000E+00 -0.45593999997E+02  0.45594000000E+02  0.51100000000E-03 0.  1.
    9900012    2    1    2    0    0 -0.11402253057E+02 -0.15405461886E+02 -0.35858426233E+02  0.50528851427E+02  0.29999974399E+02 0.  0.
         12    1    1    2    0    0  0.11402253057E+02  0.15405461886E+02  0.35858426233E+02  0.40659148573E+02  0.00000000000E+00 0. -1.
         11    1    3    3    0    0  0.39142298790E+01 -0.15541205251E+02 -0.14524500238E+02  0.21628947354E+02  0.51100000000E-03 0. -1.
        -11    1    3    3    0    0 -0.63113337312E+01  0.48567653627E+01 -0.14821307281E+02  0.16825345555E+02  0.51100000000E-03 0.  1.
         12    1    3    3    0    0 -0.90051492049E+01 -0.47210219983E+01 -0.65126187138E+01  0.12074558519E+02  0.00000000000E+00 0. -1.
</event>
<event>
 7    1  0.9953837E-014  0.5052886E+02  0.7816164E-02  0.1300439E+00
        -11   -1    0    0    0    0  0.00000000000E+00  0.00000000000E+00  0.45593999997E+02  0.45594000000E+02  0.51100000000E-03 0. -1.
         11   -1    0    0    0    0 -0.00000000000E+00 -0.00000000000E+00 -0.45593999997E+02  0.45594000000E+02  0.51100000000E-03 0.  1.
    9900012    2    1    2    0    0  0.29761639224E+02 -0.92033057555E+01 -0.26128709357E+02  0.50528862543E+02  0.30000008184E+02 0.  0.
         12    1    1    2    0    0 -0.29761639224E+02  0.92033057555E+01  0.26128709357E+02  0.40659137457E+02  0.00000000000E+00 0. -1.
         11    1    3    3    0    0  0.10141125121E+02  0.61923530954E+01 -0.12907899135E+02  0.17544273024E+02  0.51100000000E-03 0. -1.
        -11    1    3    3    0    0  0.17020466216E+02 -0.15199731936E+02 -0.16955918479E+02  0.28429408944E+02  0.51100000000E-03 0.  1.
        -12    1    3    3    0    0  0.26000478870E+01 -0.19592691456E+00  0.37351082582E+01  0.45551805750E+01  0.00000000000E+00 0.  1.
</event>
<event>
 7    1  0.9953837E-014  0.5052887E+02  0.7816164E-02  0.1300439E+00
        -11   -1    0    0    0    0  0.00000000000E+00  0.00000000000E+00  0.45593999997E+02  0.45594000000E+02  0.51100000000E-03 0. -1.
         11   -1    0    0    0    0 -0.00000000000E+00 -0.00000000000E+00 -0.45593999997E+02  0.45594000000E+02  0.51100000000E-03 0.  1.
    9900012    2    1    2    0    0  0.74448135956E+01 -0.38029886896E+02 -0.12307191794E+02  0.50528874128E+02  0.30000043400E+02 0.  0.
         12    1    1    2    0    0 -0.74448135956E+01  0.38029886896E+02  0.12307191794E+02  0.40659125872E+02  0.00000000000E+00 0. -1.
         11    1    3    3    0    0 -0.56448287312E+01 -0.28577456602E+02 -0.17305275202E+01  0.29180984271E+02  0.51100000000E-03 0.  1.
        -11    1    3    3    0    0  0.90622112876E+01 -0.17042444552E+01 -0.80938164350E+01  0.12269392297E+02  0.51100000000E-03 0. -1.
         12    1    3    3    0    0  0.40274310392E+01 -0.77481858390E+01 -0.24828478386E+01  0.90784975608E+01  0.00000000000E+00 0. -1.
</event>
<event>
 7    1  0.9953837E-014  0.5052886E+02  0.7816164E-02  0.1300439E+00
        -11   -1    0    0    0    0  0.00000000000E+00  0.00000000000E+00  0.45593999997E+02  0.45594000000E+02  0.51100000000E-03 0. -1.
         11   -1    0    0    0    0 -0.00000000000E+00 -0.00000000000E+00 -0.45593999997E+02  0.45594000000E+02  0.51100000000E-03 0.  1.
    9900012    2    1    2    0    0 -0.21481269982E+00 -0.15323125116E+02 -0.37660607337E+02  0.50528860157E+02  0.30000000933E+02 0.  0.
         12    1    1    2    0    0  0.21481269982E+00  0.15323125116E+02  0.37660607337E+02  0.40659139843E+02  0.00000000000E+00 0. -1.
         11    1    3    3    0    0 -0.15685950933E+01  0.17010365191E+01  0.36323887150E+01  0.43067695369E+01  0.51100000000E-03 0. -1.
        -11    1    3    3    0    0  0.65090007623E+01 -0.74464969913E+01 -0.20004687904E+02  0.22316024439E+02  0.51100000000E-03 0.  1.
         12    1    3    3    0    0 -0.51552183688E+01 -0.95776646441E+01 -0.21288308148E+02  0.23906066181E+02  0.00000000000E+00 0. -1.
</event>
<event>
 7    1  0.9953837E-014  0.5052892E+02  0.7816164E-02  0.1300439E+00
        -11   -1    0    0    0    0  0.00000000000E+00  0.00000000000E+00  0.45593999997E+02  0.45594000000E+02  0.51100000000E-03 0. -1.
         11   -1    0    0    0    0 -0.00000000000E+00 -0.00000000000E+00 -0.45593999997E+02  0.45594000000E+02  0.51100000000E-03 0.  1.
    9900012    2    1    2    0    0  0.19693001676E+02  0.13186964791E+02  0.33037104219E+02  0.50528922163E+02  0.30000189405E+02 0.  0.
        -12    1    1    2    0    0 -0.19693001676E+02 -0.13186964791E+02 -0.33037104219E+02  0.40659077837E+02  0.00000000000E+00 0.  1.
         11    1    3    3    0    0  0.40897181128E+01  0.69689075498E+01 -0.87741708304E+00  0.81278119859E+01  0.51100000000E-03 0.  1.
        -11    1    3    3    0    0  0.71722445376E+00 -0.48752467085E+01  0.15451763085E+02  0.16218490191E+02  0.51100000000E-03 0. -1.
        -12    1    3    3    0    0  0.14886059110E+02  0.11093303949E+02  0.18462758217E+02  0.26182619985E+02  0.00000000000E+00 0.  1.
</event>
<event>
 7    1  0.9953837E-014  0.5052886E+02  0.7816164E-02  0.1300439E+00
        -11   -1    0    0    0    0  0.00000000000E+00  0.00000000000E+00  0.45593999997E+02  0.45594000000E+02  0.51100000000E-03 0. -1.
         11   -1    0    0    0    0 -0.00000000000E+00 -0.00000000000E+00 -0.45593999997E+02  0.45594000000E+02  0.51100000000E-03 0.  1.
    9900012    2    1    2    0    0  0.15353607634E+02 -0.20106969485E+02  0.31829895274E+02  0.50528859301E+02  0.29999998331E+02 0.  0.
        -12    1    1    2    0    0 -0.15353607634E+02  0.20106969485E+02 -0.31829895274E+02  0.40659140699E+02  0.00000000000E+00 0.  1.
         11    1    3    3    0    0  0.17387268108E+02 -0.94525801480E+01  0.26902897494E+02  0.33398117575E+02  0.51100000000E-03 0. -1.
        -11    1    3    3    0    0  0.26207457232E+01 -0.88948915635E+01 -0.10742470376E+01  0.93349564022E+01  0.51100000000E-03 0.  1.
         12    1    3    3    0    0 -0.46544061970E+01 -0.17594977739E+01  0.60012448170E+01  0.77957853239E+01  0.00000000000E+00 0. -1.
</event>
<event>
 7    1  0.9953837E-014  0.5052886E+02  0.7816164E-02  0.1300439E+00
        -11   -1    0    0    0    0  0.00000000000E+00  0.00000000000E+00  0.45593999997E+02  0.45594000000E+02  0.51100000000E-03 0. -1.
         11   -1    0    0    0    0 -0.00000000000E+00 -0.00000000000E+00 -0.45593999997E+02  0.45594000000E+02  0.51100000000E-03 0.  1.
    9900012    2    1    2    0    0  0.33770917025E+02 -0.15131024891E+02  0.16844678927E+02  0.50528856390E+02  0.29999989482E+02 0.  0.
        -12    1    1    2    0    0 -0.33770917025E+02  0.15131024891E+02 -0.16844678927E+02  0.40659143610E+02  0.00000000000E+00 0.  1.
         11    1    3    3    0    0  0.17666411309E+02 -0.19347006858E+02  0.10354422816E+02  0.28171312270E+02  0.51100000000E-03 0. -1.
        -11    1    3    3    0    0  0.67218705341E+01  0.49144802600E+01 -0.31352763860E+01  0.88975062788E+01  0.51100000000E-03 0.  1.
         12    1    3    3    0    0  0.93826351820E+01 -0.69849829278E+00  0.96255324971E+01  0.13460037841E+02  0.00000000000E+00 0. -1.
</event>
<event>
 7    1  0.9953837E-014  0.5052885E+02  0.7816164E-02  0.1300439E+00
        -11   -1    0    0    0    0  0.00000000000E+00  0.00000000000E+00  0.45593999997E+02  0.45594000000E+02  0.51100000000E-03 0. -1.
         11   -1    0    0    0    0 -0.00000000000E+00 -0.00000000000E+00 -0.45593999997E+02  0.45594000000E+02  0.51100000000E-03 0.  1.
    9900012    2    1    2    0    0 -0.15802385351E+01 -0.18486748314E+02  0.36178855467E+02  0.50528848509E+02  0.29999965529E+02 0.  0.
        -12    1    1    2    0    0  0.15802385351E+01  0.18486748314E+02 -0.36178855467E+02  0.40659151491E+02  0.00000000000E+00 0.  1.
         11    1    3    3    0    0 -0.24455864555E+01 -0.17716519360E+02  0.24286755986E+02  0.30161274309E+02  0.51100000000E-03 0. -1.
        -11    1    3    3    0    0 -0.29042134855E+01 -0.26935370791E+01 -0.29468683918E+01  0.49369658238E+01  0.51100000000E-03 0.  1.
        -12    1    3    3    0    0  0.37695614059E+01  0.19233081254E+01  0.14838967873E+02  0.15430608376E+02  0.00000000000E+00 0.  1.
</event>
<event>
 7    1  0.9953837E-014  0.5052885E+02  0.7816164E-02  0.1300439E+00
        -11   -1    0    0    0    0  0.00000000000E+00  0.00000000000E+00  0.45593999997E+02  0.45594000000E+02  0.51100000000E-03 0. -1.
         11   -1    0    0    0    0 -0.00000000000E+00 -0.00000000000E+00 -0.45593999997E+02  0.45594000000E+02  0.51100000000E-03 0.  1.
    9900012    2    1    2    0    0  0.23566349210E+02 -0.22450131807E+01 -0.33056823882E+02  0.50528849684E+02  0.29999969098E+02 0.  0.
         12    1    1    2    0    0 -0.23566349210E+02  0.22450131807E+01  0.33056823882E+02  0.40659150316E+02  0.00000000000E+00 0. -1.
         11    1    3    3    0    0  0.70868933714E+01 -0.89820215020E+01 -0.10030853165E+01  0.11485075025E+02  0.51100000000E-03 0.  1.
        -11    1    3    3    0    0  0.64012856629E+01  0.70386194032E+01 -0.24970834714E+02  0.26721923730E+02  0.51100000000E-03 0. -1.
        -12    1    3    3    0    0  0.10078170176E+02 -0.30161108191E+00 -0.70829038511E+01  0.12321850928E+02  0.00000000000E+00 0.  1.
</event>
<event>
 7    1  0.9953837E-014  0.5052885E+02  0.7816164E-02  0.1300439E+00
        -11   -1    0    0    0    0  0.00000000000E+00  0.00000000000E+00  0.45593999997E+02  0.45594000000E+02  0.51100000000E-03 0. -1.
         11   -1    0    0    0    0 -0.00000000000E+00 -0.00000000000E+00 -0.45593999997E+02  0.45594000000E+02  0.51100000000E-03 0.  1.
    9900012    2    1    2    0    0  0.43072554667E+01  0.31922798724E+01  0.40304138945E+02  0.50528847075E+02  0.29999961170E+02 0.  0.
        -12    1    1    2    0    0 -0.43072554667E+01 -0.31922798724E+01 -0.40304138945E+02  0.40659152925E+02  0.00000000000E+00 0.  1.
         11    1    3    3    0    0  0.74146562653E+00 -0.13263118517E+00  0.56732832392E+01  0.57230678207E+01  0.51100000000E-03 0. -1.
        -11    1    3    3    0    0  0.14387871799E+02  0.29702356290E+01  0.29210661761E+02  0.32697032210E+02  0.51100000000E-03 0.  1.
        -12    1    3    3    0    0 -0.10822081959E+02  0.35467542857E+00  0.54201939453E+01  0.12108747045E+02  0.00000000000E+00 0.  1.
</event>
<event>
 7    1  0.9953837E-014  0.5052887E+02  0.7816164E-02  0.1300439E+00
        -11   -1    0    0    0    0  0.00000000000E+00  0.00000000000E+00  0.45593999997E+02  0.45594000000E+02  0.51100000000E-03 0. -1.
         11   -1    0    0    0    0 -0.00000000000E+00 -0.00000000000E+00 -0.45593999997E+02  0.45594000000E+02  0.51100000000E-03 0.  1.
    9900012    2    1    2    0    0 -0.11500145375E+02  0.54405417237E+01  0.38617504826E+02  0.50528874125E+02  0.30000043390E+02 0.  0.
        -12    1    1    2    0    0  0.11500145375E+02 -0.54405417237E+01 -0.38617504826E+02  0.40659125875E+02  0.00000000000E+00 0.  1.
         11    1    3    3    0    0 -0.17535882176E+02  0.86406080026E+01  0.13674039477E+02  0.23856794131E+02  0.51100000000E-03 0. -1.
        -11    1    3    3    0    0 -0.35393959593E+00 -0.15245921523E+01  0.10559399808E+01  0.18880317721E+01  0.51100000000E-03 0.  1.
         12    1    3    3    0    0  0.63896763966E+01 -0.16754741266E+01  0.23887525369E+02  0.24784048222E+02  0.00000000000E+00 0. -1.
</event>
<event>
 7    1  0.9953837E-014  0.5052884E+02  0.7816164E-02  0.1300439E+00
        -11   -1    0    0    0    0  0.00000000000E+00  0.00000000000E+00  0.45593999997E+02  0.45594000000E+02  0.51100000000E-03 0. -1.
         11   -1    0    0    0    0 -0.00000000000E+00 -0.00000000000E+00 -0.45593999997E+02  0.45594000000E+02  0.51100000000E-03 0.  1.
    9900012    2    1    2    0    0  0.11465155037E+02 -0.27199387779E+02  0.27962669513E+02  0.50528839140E+02  0.29999937050E+02 0.  0.
        -12    1    1    2    0    0 -0.11465155037E+02  0.27199387779E+02 -0.27962669513E+02  0.40659160860E+02  0.00000000000E+00 0.  1.
         11    1    3    3    0    0 -0.35379013096E+01 -0.36003582729E+01  0.39409123715E+01  0.64039141118E+01  0.51100000000E-03 0. -1.
        -11    1    3    3    0    0  0.15654402629E+02 -0.19268408108E+02  0.59486102633E+01  0.25528764894E+02  0.51100000000E-03 0.  1.
        -12    1    3    3    0    0 -0.65134628204E+00 -0.43306213975E+01  0.18073146878E+02  0.18596160134E+02  0.00000000000E+00 0.  1.
</event>
<event>
 7    1  0.9953837E-014  0.5052886E+02  0.7816164E-02  0.1300439E+00
        -11   -1    0    0    0    0  0.00000000000E+00  0.00000000000E+00  0.45593999997E+02  0.45594000000E+02  0.51100000000E-03 0. -1.
         11   -1    0    0    0    0 -0.00000000000E+00 -0.00000000000E+00 -0.45593999997E+02  0.45594000000E+02  0.51100000000E-03 0.  1.
    9900012    2    1    2    0    0  0.26993547560E+02  0.23496372217E+02 -0.19298573502E+02  0.50528855194E+02  0.29999985846E+02 0.  0.
         12    1    1    2    0    0 -0.26993547560E+02 -0.23496372217E+02  0.19298573502E+02  0.40659144806E+02  0.00000000000E+00 0. -1.
         11    1    3    3    0    0  0.18309702530E+02  0.21666266507E+02 -0.13844813905E+01  0.28400512321E+02  0.51100000000E-03 0. -1.
        -11    1    3    3    0    0  0.95784311297E+01  0.40283612970E+01 -0.16005890396E+02  0.19083043920E+02  0.51100000000E-03 0.  1.
         12    1    3    3    0    0 -0.89458610051E+00 -0.21982555878E+01 -0.19082017156E+01  0.30452989521E+01  0.00000000000E+00 0. -1.
</event>
<event>
 7    1  0.9953837E-014  0.5052886E+02  0.7816164E-02  0.1300439E+00
        -11   -1    0    0    0    0  0.00000000000E+00  0.00000000000E+00  0.45593999997E+02  0.45594000000E+02  0.51100000000E-03 0.  1.
         11   -1    0    0    0    0 -0.00000000000E+00 -0.00000000000E+00 -0.45593999997E+02  0.45594000000E+02  0.51100000000E-03 0. -1.
    9900012    2    1    2    0    0 -0.18335781546E+01  0.39762211729E+02 -0.82927802692E+01  0.50528859638E+02  0.29999999354E+02 0.  0.
         12    1    1    2    0    0  0.18335781546E+01 -0.39762211729E+02  0.82927802692E+01  0.40659140362E+02  0.00000000000E+00 0. -1.
         11    1    3    3    0    0  0.82267960860E+01  0.69563874532E+01  0.72529823942E+00  0.10798034916E+02  0.51100000000E-03 0. -1.
        -11    1    3    3    0    0 -0.70235453897E+01  0.33430794725E+02 -0.48005545826E+01  0.34496283138E+02  0.51100000000E-03 0.  1.
         12    1    3    3    0    0 -0.30368288509E+01 -0.62497044898E+00 -0.42175239260E+01  0.52345415843E+01  0.00000000000E+00 0. -1.
</event>
<event>
 7    1  0.9953837E-014  0.5052886E+02  0.7816164E-02  0.1300439E+00
        -11   -1    0    0    0    0  0.00000000000E+00  0.00000000000E+00  0.45593999997E+02  0.45594000000E+02  0.51100000000E-03 0. -1.
         11   -1    0    0    0    0 -0.00000000000E+00 -0.00000000000E+00 -0.45593999997E+02  0.45594000000E+02  0.51100000000E-03 0.  1.
    9900012    2    1    2    0    0 -0.26215604273E+02  0.51304730101E+01 -0.30652666695E+02  0.50528860361E+02  0.30000001552E+02 0.  0.
         12    1    1    2    0    0  0.26215604273E+02 -0.51304730101E+01  0.30652666695E+02  0.40659139639E+02  0.00000000000E+00 0. -1.
         11    1    3    3    0    0 -0.33827056974E+01  0.39246209695E+01  0.50240934605E+01  0.72171228998E+01  0.51100000000E-03 0. -1.
        -11    1    3    3    0    0 -0.22376629364E+02  0.26194750646E+01 -0.35120456616E+02  0.41725551698E+02  0.51100000000E-03 0.  1.
        -12    1    3    3    0    0 -0.45626921220E+00 -0.14136230240E+01 -0.55630353917E+00  0.15861857633E+01  0.00000000000E+00 0.  1.
</event>
<event>
 7    1  0.9953837E-014  0.5052886E+02  0.7816164E-02  0.1300439E+00
        -11   -1    0    0    0    0  0.00000000000E+00  0.00000000000E+00  0.45593999997E+02  0.45594000000E+02  0.51100000000E-03 0. -1.
         11   -1    0    0    0    0 -0.00000000000E+00 -0.00000000000E+00 -0.45593999997E+02  0.45594000000E+02  0.51100000000E-03 0.  1.
    9900012    2    1    2    0    0  0.25028210909E+02 -0.29985527611E+02 -0.11296993907E+02  0.50528864756E+02  0.30000014913E+02 0.  0.
         12    1    1    2    0    0 -0.25028210909E+02  0.29985527611E+02  0.11296993907E+02  0.40659135244E+02  0.00000000000E+00 0. -1.
         11    1    3    3    0    0 -0.59509616047E+00 -0.15745997780E+01  0.25029966331E+01  0.30163713810E+01  0.51100000000E-03 0. -1.
        -11    1    3    3    0    0  0.21458815125E+02 -0.25692380677E+02 -0.20435778657E+02  0.39219895729E+02  0.51100000000E-03 0.  1.
        -12    1    3    3    0    0  0.41644919445E+01 -0.27185471563E+01  0.66357881168E+01  0.82925976465E+01  0.00000000000E+00 0.  1.
</event>
<event>
 7    1  0.9953837E-014  0.5052886E+02  0.7816164E-02  0.1300439E+00
        -11   -1    0    0    0    0  0.00000000000E+00  0.00000000000E+00  0.45593999997E+02  0.45594000000E+02  0.51100000000E-03 0. -1.
         11   -1    0    0    0    0 -0.00000000000E+00 -0.00000000000E+00 -0.45593999997E+02  0.45594000000E+02  0.51100000000E-03 0.  1.
    9900012    2    1    2    0    0  0.21463501956E+02 -0.48633960183E+01  0.34188173455E+02  0.50528859069E+02  0.29999997626E+02 0.  0.
        -12    1    1    2    0    0 -0.21463501956E+02  0.48633960183E+01 -0.34188173455E+02  0.40659140931E+02  0.00000000000E+00 0.  1.
         11    1    3    3    0    0  0.12805863594E+02 -0.73604548857E+01  0.62144640496E+01  0.16024543744E+02  0.51100000000E-03 0. -1.
        -11    1    3    3    0    0 -0.43640903662E+01  0.35778257390E+01  0.15273376149E+02  0.16282571694E+02  0.51100000000E-03 0.  1.
        -12    1    3    3    0    0  0.13021728728E+02 -0.10807668716E+01  0.12700333257E+02  0.18221743630E+02  0.00000000000E+00 0.  1.
</event>
<event>
 7    1  0.9953837E-014  0.5052886E+02  0.7816164E-02  0.1300439E+00
        -11   -1    0    0    0    0  0.00000000000E+00  0.00000000000E+00  0.45593999997E+02  0.45594000000E+02  0.51100000000E-03 0. -1.
         11   -1    0    0    0    0 -0.00000000000E+00 -0.00000000000E+00 -0.45593999997E+02  0.45594000000E+02  0.51100000000E-03 0.  1.
    9900012    2    1    2    0    0  0.21593250809E+02  0.13909352421E+02  0.31518684122E+02  0.50528855714E+02  0.29999987428E+02 0.  0.
        -12    1    1    2    0    0 -0.21593250809E+02 -0.13909352421E+02 -0.31518684122E+02  0.40659144286E+02  0.00000000000E+00 0.  1.
         11    1    3    3    0    0  0.10551723258E+02  0.22471328080E+02  0.21638815810E+02  0.32932321499E+02  0.51100000000E-03 0. -1.
        -11    1    3    3    0    0  0.20109061080E+01 -0.33623251267E+01  0.41392975905E+01  0.56993647397E+01  0.51100000000E-03 0.  1.
         12    1    3    3    0    0  0.90306214435E+01 -0.51996505325E+01  0.57405707218E+01  0.11897169475E+02  0.00000000000E+00 0. -1.
</event>
<event>
 7    1  0.9953837E-014  0.5052888E+02  0.7816164E-02  0.1300439E+00
        -11   -1    0    0    0    0  0.00000000000E+00  0.00000000000E+00  0.45593999997E+02  0.45594000000E+02  0.51100000000E-03 0. -1.
         11   -1    0    0    0    0 -0.00000000000E+00 -0.00000000000E+00 -0.45593999997E+02  0.45594000000E+02  0.51100000000E-03 0.  1.
    9900012    2    1    2    0    0  0.10131576476E+02  0.26538438107E+02 -0.29089972330E+02  0.50528880122E+02  0.30000061619E+02 0.  0.
         12    1    1    2    0    0 -0.10131576476E+02 -0.26538438107E+02  0.29089972330E+02  0.40659119878E+02  0.00000000000E+00 0. -1.
         11    1    3    3    0    0 -0.26322219925E+01  0.51954014590E+01 -0.12398260967E+02  0.13698089801E+02  0.51100000000E-03 0. -1.
        -11    1    3    3    0    0  0.79394882627E+01  0.44663579828E+01  0.37814992314E+01  0.98632430875E+01  0.51100000000E-03 0.  1.
        -12    1    3    3    0    0  0.48243102061E+01  0.16876678666E+02 -0.20473210595E+02  0.26967547234E+02  0.00000000000E+00 0.  1.
</event>
<event>
 7    1  0.9953837E-014  0.5052886E+02  0.7816164E-02  0.1300439E+00
        -11   -1    0    0    0    0  0.00000000000E+00  0.00000000000E+00  0.45593999997E+02  0.45594000000E+02  0.51100000000E-03 0. -1.
         11   -1    0    0    0    0 -0.00000000000E+00 -0.00000000000E+00 -0.45593999997E+02  0.45594000000E+02  0.51100000000E-03 0.  1.
    9900012    2    1    2    0    0 -0.30166963380E+02  0.13949609806E+02 -0.23420687787E+02  0.50528856997E+02  0.29999991328E+02 0.  0.
         12    1    1    2    0    0  0.30166963380E+02 -0.13949609806E+02  0.23420687787E+02  0.40659143003E+02  0.00000000000E+00 0. -1.
         11    1    3    3    0    0 -0.45431996734E+01  0.96556075758E+01  0.31767004200E+01  0.11133860370E+02  0.51100000000E-03 0. -1.
        -11    1    3    3    0    0 -0.15231647991E+01 -0.28815162480E+01 -0.62459729307E+01  0.70452356245E+01  0.51100000000E-03 0.  1.
         12    1    3    3    0    0 -0.24100598908E+02  0.71755184787E+01 -0.20351415276E+02  0.32349761002E+02  0.00000000000E+00 0. -1.
</event>
<event>
 7    1  0.1293296E-013  0.5052886E+02  0.7816164E-02  0.1300439E+00
        -11   -1    0    0    0    0  0.00000000000E+00  0.00000000000E+00  0.45593999997E+02  0.45594000000E+02  0.51100000000E-03 0. -1.
         11   -1    0    0    0    0 -0.00000000000E+00 -0.00000000000E+00 -0.45593999997E+02  0.45594000000E+02  0.51100000000E-03 0.  1.
    9900012    2    1    2    0    0  0.20817657652E+02 -0.51377596344E+01  0.34545533886E+02  0.50528863811E+02  0.30000012039E+02 0.  0.
        -12    1    1    2    0    0 -0.20817657652E+02  0.51377596344E+01 -0.34545533886E+02  0.40659136189E+02  0.00000000000E+00 0.  1.
         11    1    3    3    0    0  0.58398314819E+01 -0.12921229981E+02  0.21988872718E+02  0.26164333349E+02  0.51100000000E-03 0. -1.
        -11    1    3    3    0    0  0.95632886365E+01  0.37785317518E+01  0.19174999026E+00  0.10284481517E+02  0.51100000000E-03 0.  1.
         12    1    3    3    0    0  0.54145375337E+01  0.40049385945E+01  0.12364911178E+02  0.14080048945E+02  0.00000000000E+00 0. -1.
</event>
<event>
 7    1  0.9953837E-014  0.5052885E+02  0.7816164E-02  0.1300439E+00
        -11   -1    0    0    0    0  0.00000000000E+00  0.00000000000E+00  0.45593999997E+02  0.45594000000E+02  0.51100000000E-03 0. -1.
         11   -1    0    0    0    0 -0.00000000000E+00 -0.00000000000E+00 -0.45593999997E+02  0.45594000000E+02  0.51100000000E-03 0.  1.
    9900012    2    1    2    0    0 -0.11022068044E+02 -0.41509573248E+01 -0.38915932851E+02  0.50528852686E+02  0.29999978223E+02 0.  0.
         12    1    1    2    0    0  0.11022068044E+02  0.41509573248E+01  0.38915932851E+02  0.40659147314E+02  0.00000000000E+00 0. -1.
         11    1    3    3    0    0  0.87399237909E+01  0.32536492731E+01 -0.16941562156E+02  0.19338795981E+02  0.51100000000E-03 0. -1.
        -11    1    3    3    0    0 -0.12151442644E+02 -0.68798695371E+01 -0.17342001251E+02  0.22265111067E+02  0.51100000000E-03 0.  1.
         12    1    3    3    0    0 -0.76105491905E+01 -0.52473706080E+00 -0.46323694442E+01  0.89249456375E+01  0.00000000000E+00 0. -1.
</event>
<event>
 7    1  0.9953837E-014  0.5052884E+02  0.7816164E-02  0.1300439E+00
        -11   -1    0    0    0    0  0.00000000000E+00  0.00000000000E+00  0.45593999997E+02  0.45594000000E+02  0.51100000000E-03 0. -1.
         11   -1    0    0    0    0 -0.00000000000E+00 -0.00000000000E+00 -0.45593999997E+02  0.45594000000E+02  0.51100000000E-03 0.  1.
    9900012    2    1    2    0    0  0.47032211815E+01 -0.23163238707E+02 -0.33083395853E+02  0.50528843613E+02  0.29999950647E+02 0.  0.
         12    1    1    2    0    0 -0.47032211815E+01  0.23163238707E+02  0.33083395853E+02  0.40659156387E+02  0.00000000000E+00 0. -1.
         11    1    3    3    0    0 -0.10502342585E+02 -0.17188994776E+02 -0.11050623737E+02  0.22975574562E+02  0.51100000000E-03 0. -1.
        -11    1    3    3    0    0  0.14477334493E+02 -0.62314012241E+01 -0.21205656035E+02  0.26421646871E+02  0.51100000000E-03 0.  1.
         12    1    3    3    0    0  0.72822927331E+00  0.25715729321E+00 -0.82711608091E+00  0.11316221804E+01  0.00000000000E+00 0. -1.
</event>
<event>
 7    1  0.9953837E-014  0.5052886E+02  0.7816164E-02  0.1300439E+00
        -11   -1    0    0    0    0  0.00000000000E+00  0.00000000000E+00  0.45593999997E+02  0.45594000000E+02  0.51100000000E-03 0. -1.
         11   -1    0    0    0    0 -0.00000000000E+00 -0.00000000000E+00 -0.45593999997E+02  0.45594000000E+02  0.51100000000E-03 0.  1.
    9900012    2    1    2    0    0  0.28892671831E+02  0.18111424772E+02  0.22143963991E+02  0.50528864077E+02  0.30000012848E+02 0.  0.
        -12    1    1    2    0    0 -0.28892671831E+02 -0.18111424772E+02 -0.22143963991E+02  0.40659135923E+02  0.00000000000E+00 0.  1.
         11    1    3    3    0    0  0.78629004090E+01 -0.49174458227E+01 -0.24995964986E+01  0.96049184888E+01  0.51100000000E-03 0. -1.
        -11    1    3    3    0    0 -0.97648888540E-01  0.11010702964E+01 -0.69892168438E+00  0.13078160747E+01  0.51100000000E-03 0.  1.
         12    1    3    3    0    0  0.21127420310E+02  0.21927800298E+02  0.25342482174E+02  0.39616129513E+02  0.00000000000E+00 0. -1.
</event>
<event>
 7    1  0.9953837E-014  0.5052886E+02  0.7816164E-02  0.1300439E+00
        -11   -1    0    0    0    0  0.00000000000E+00  0.00000000000E+00  0.45593999997E+02  0.45594000000E+02  0.51100000000E-03 0. -1.
         11   -1    0    0    0    0 -0.00000000000E+00 -0.00000000000E+00 -0.45593999997E+02  0.45594000000E+02  0.51100000000E-03 0.  1.
    9900012    2    1    2    0    0  0.13765761518E+02  0.11057982691E+02  0.36625002331E+02  0.50528856292E+02  0.29999989184E+02 0.  0.
        -12    1    1    2    0    0 -0.13765761518E+02 -0.11057982691E+02 -0.36625002331E+02  0.40659143708E+02  0.00000000000E+00 0.  1.
         11    1    3    3    0    0  0.10624079298E+01  0.24500737477E+01  0.15488817571E+01  0.30871681096E+01  0.51100000000E-03 0. -1.
        -11    1    3    3    0    0  0.94527834686E+00  0.64652738533E+01 -0.32482953155E+01  0.72968993325E+01  0.51100000000E-03 0.  1.
        -12    1    3    3    0    0  0.11758075242E+02  0.21426350902E+01  0.38324415889E+02  0.40144788849E+02  0.00000000000E+00 0.  1.
</event>
<event>
 7    1  0.9953837E-014  0.5052884E+02  0.7816164E-02  0.1300439E+00
        -11   -1    0    0    0    0  0.00000000000E+00  0.00000000000E+00  0.45593999997E+02  0.45594000000E+02  0.51100000000E-03 0. -1.
         11   -1    0    0    0    0 -0.00000000000E+00 -0.00000000000E+00 -0.45593999997E+02  0.45594000000E+02  0.51100000000E-03 0.  1.
    9900012    2    1    2    0    0 -0.52865102339E+01  0.75218774844E+01 -0.39606073622E+02  0.50528844831E+02  0.29999954347E+02 0.  0.
         12    1    1    2    0    0  0.52865102339E+01 -0.75218774844E+01  0.39606073622E+02  0.40659155169E+02  0.00000000000E+00 0. -1.
         11    1    3    3    0    0 -0.84995064448E+01  0.31008894945E+01  0.10431318893E+01  0.91074282792E+01  0.51100000000E-03 0. -1.
        -11    1    3    3    0    0  0.32480205373E+01  0.47765789653E+01 -0.21312062801E+02  0.22080972921E+02  0.51100000000E-03 0.  1.
         12    1    3    3    0    0 -0.35024326474E-01 -0.35559097538E+00 -0.19337142710E+02  0.19340443631E+02  0.00000000000E+00 0. -1.
</event>
<event>
 7    1  0.9953837E-014  0.5052886E+02  0.7816164E-02  0.1300439E+00
        -11   -1    0    0    0    0  0.00000000000E+00  0.00000000000E+00  0.45593999997E+02  0.45594000000E+02  0.51100000000E-03 0. -1.
         11   -1    0    0    0    0 -0.00000000000E+00 -0.00000000000E+00 -0.45593999997E+02  0.45594000000E+02  0.51100000000E-03 0.  1.
    9900012    2    1    2    0    0  0.13332663396E+02  0.32964182327E+02  0.19717206428E+02  0.50528862539E+02  0.30000008174E+02 0.  0.
        -12    1    1    2    0    0 -0.13332663396E+02 -0.32964182327E+02 -0.19717206428E+02  0.40659137461E+02  0.00000000000E+00 0.  1.
         11    1    3    3    0    0  0.14108507464E+02  0.25263428293E+01  0.56939711435E+01  0.15422506236E+02  0.51100000000E-03 0. -1.
        -11    1    3    3    0    0 -0.22986340094E+01  0.29652709855E+02  0.14805395319E+02  0.33222983775E+02  0.51100000000E-03 0.  1.
        -12    1    3    3    0    0  0.15227899416E+01  0.78512964260E+00 -0.78216003483E+00  0.18833725288E+01  0.00000000000E+00 0.  1.
</event>
<event>
 7    1  0.9953837E-014  0.5052886E+02  0.7816164E-02  0.1300439E+00
        -11   -1    0    0    0    0  0.00000000000E+00  0.00000000000E+00  0.45593999997E+02  0.45594000000E+02  0.51100000000E-03 0. -1.
         11   -1    0    0    0    0 -0.00000000000E+00 -0.00000000000E+00 -0.45593999997E+02  0.45594000000E+02  0.51100000000E-03 0.  1.
    9900012    2    1    2    0    0  0.13172595412E+02  0.12020732955E+02  0.36539713554E+02  0.50528856412E+02  0.29999989550E+02 0.  0.
        -12    1    1    2    0    0 -0.13172595412E+02 -0.12020732955E+02 -0.36539713554E+02  0.40659143588E+02  0.00000000000E+00 0.  1.
         11    1    3    3    0    0  0.86593522171E+01  0.61109807409E+01  0.37320180432E+02  0.38795931928E+02  0.51100000000E-03 0. -1.
        -11    1    3    3    0    0  0.51407376852E+01  0.40226596832E+01 -0.42107641894E+01  0.77678510667E+01  0.51100000000E-03 0.  1.
        -12    1    3    3    0    0 -0.62749448983E+00  0.18870925310E+01  0.34302973115E+01  0.39650734168E+01  0.00000000000E+00 0.  1.
</event>
<event>
 7    1  0.9953837E-014  0.5052886E+02  0.7816164E-02  0.1300439E+00
        -11   -1    0    0    0    0  0.00000000000E+00  0.00000000000E+00  0.45593999997E+02  0.45594000000E+02  0.51100000000E-03 0. -1.
         11   -1    0    0    0    0 -0.00000000000E+00 -0.00000000000E+00 -0.45593999997E+02  0.45594000000E+02  0.51100000000E-03 0.  1.
    9900012    2    1    2    0    0 -0.13685940234E+02  0.11172006835E+02 -0.36620306239E+02  0.50528861718E+02  0.30000005677E+02 0.  0.
         12    1    1    2    0    0  0.13685940234E+02 -0.11172006835E+02  0.36620306239E+02  0.40659138282E+02  0.00000000000E+00 0. -1.
         11    1    3    3    0    0  0.25175494225E+01 -0.35626036378E+01 -0.43281155960E+01  0.61451431756E+01  0.51100000000E-03 0. -1.
        -11    1    3    3    0    0 -0.21049791658E+02  0.14546656191E+02 -0.27589736945E+02  0.37628347295E+02  0.51100000000E-03 0.  1.
        -12    1    3    3    0    0  0.48463020015E+01  0.18795428174E+00 -0.47024536981E+01  0.67553712470E+01  0.00000000000E+00 0.  1.
</event>
<event>
 7    1  0.9953837E-014  0.5052886E+02  0.7816164E-02  0.1300439E+00
        -11   -1    0    0    0    0  0.00000000000E+00  0.00000000000E+00  0.45593999997E+02  0.45594000000E+02  0.51100000000E-03 0. -1.
         11   -1    0    0    0    0 -0.00000000000E+00 -0.00000000000E+00 -0.45593999997E+02  0.45594000000E+02  0.51100000000E-03 0.  1.
    9900012    2    1    2    0    0  0.10959003146E+02 -0.56025993267E+01 -0.38751477407E+02  0.50528857481E+02  0.29999992799E+02 0.  0.
         12    1    1    2    0    0 -0.10959003146E+02  0.56025993267E+01  0.38751477407E+02  0.40659142519E+02  0.00000000000E+00 0. -1.
         11    1    3    3    0    0 -0.89016491088E+00 -0.35014482284E+01 -0.63873199784E+01  0.73382824988E+01  0.51100000000E-03 0. -1.
        -11    1    3    3    0    0  0.18048949928E+02  0.42672198949E+01 -0.27169144695E+02  0.32895838382E+02  0.51100000000E-03 0.  1.
        -12    1    3    3    0    0 -0.61997818714E+01 -0.63683709932E+01 -0.51950127336E+01  0.10294736600E+02  0.00000000000E+00 0.  1.
</event>
<event>
 7    1  0.9953837E-014  0.5052885E+02  0.7816164E-02  0.1300439E+00
        -11   -1    0    0    0    0  0.00000000000E+00  0.00000000000E+00  0.45593999997E+02  0.45594000000E+02  0.51100000000E-03 0. -1.
         11   -1    0    0    0    0 -0.00000000000E+00 -0.00000000000E+00 -0.45593999997E+02  0.45594000000E+02  0.51100000000E-03 0.  1.
    9900012    2    1    2    0    0  0.21670376165E+02 -0.54480431128E+01  0.33968808973E+02  0.50528851461E+02  0.29999974501E+02 0.  0.
        -12    1    1    2    0    0 -0.21670376165E+02  0.54480431128E+01 -0.33968808973E+02  0.40659148539E+02  0.00000000000E+00 0.  1.
         11    1    3    3    0    0  0.86965510476E+01 -0.92396478539E+01  0.53793025399E+01  0.13781799181E+02  0.51100000000E-03 0. -1.
        -11    1    3    3    0    0 -0.20884059163E+01  0.73165541646E+01  0.98988099787E+01  0.12485184955E+02  0.51100000000E-03 0.  1.
        -12    1    3    3    0    0  0.15062231033E+02 -0.35249494234E+01  0.18690696454E+02  0.24261867325E+02  0.00000000000E+00 0.  1.
</event>
<event>
 7    1  0.9953837E-014  0.5052886E+02  0.7816164E-02  0.1300439E+00
        -11   -1    0    0    0    0  0.00000000000E+00  0.00000000000E+00  0.45593999997E+02  0.45594000000E+02  0.51100000000E-03 0. -1.
         11   -1    0    0    0    0 -0.00000000000E+00 -0.00000000000E+00 -0.45593999997E+02  0.45594000000E+02  0.51100000000E-03 0.  1.
    9900012    2    1    2    0    0 -0.15742493477E+02  0.13362686133E+02 -0.35025395274E+02  0.50528858400E+02  0.29999995592E+02 0.  0.
         12    1    1    2    0    0  0.15742493477E+02 -0.13362686133E+02  0.35025395274E+02  0.40659141600E+02  0.00000000000E+00 0. -1.
         11    1    3    3    0    0 -0.14378073555E+02  0.12847810737E+02 -0.17257684800E+02  0.25877073343E+02  0.51100000000E-03 0. -1.
        -11    1    3    3    0    0 -0.14033588861E+01 -0.26043209562E+01 -0.20373506519E+02  0.20587172509E+02  0.51100000000E-03 0.  1.
        -12    1    3    3    0    0  0.38938963656E-01  0.31191963530E+01  0.26057960453E+01  0.40646125475E+01  0.00000000000E+00 0.  1.
</event>
<event>
 7    1  0.9953837E-014  0.5052886E+02  0.7816164E-02  0.1300439E+00
        -11   -1    0    0    0    0  0.00000000000E+00  0.00000000000E+00  0.45593999997E+02  0.45594000000E+02  0.51100000000E-03 0.  1.
         11   -1    0    0    0    0 -0.00000000000E+00 -0.00000000000E+00 -0.45593999997E+02  0.45594000000E+02  0.51100000000E-03 0. -1.
    9900012    2    1    2    0    0  0.16899584973E+02 -0.30435227765E+02  0.21006344494E+02  0.50528861170E+02  0.30000004014E+02 0.  0.
        -12    1    1    2    0    0 -0.16899584973E+02  0.30435227765E+02 -0.21006344494E+02  0.40659138830E+02  0.00000000000E+00 0.  1.
         11    1    3    3    0    0  0.28051386358E+01 -0.15488877565E+01 -0.40331320909E+01  0.51511174295E+01  0.51100000000E-03 0. -1.
        -11    1    3    3    0    0  0.21782546465E+00 -0.83703140748E+01  0.17642295114E+02  0.19528445478E+02  0.51100000000E-03 0.  1.
        -12    1    3    3    0    0  0.13876620872E+02 -0.20516025934E+02  0.73971814701E+01  0.25849298263E+02  0.00000000000E+00 0.  1.
</event>
<event>
 7    1  0.9953837E-014  0.5052887E+02  0.7816164E-02  0.1300439E+00
        -11   -1    0    0    0    0  0.00000000000E+00  0.00000000000E+00  0.45593999997E+02  0.45594000000E+02  0.51100000000E-03 0. -1.
         11   -1    0    0    0    0 -0.00000000000E+00 -0.00000000000E+00 -0.45593999997E+02  0.45594000000E+02  0.51100000000E-03 0.  1.
    9900012    2    1    2    0    0  0.26927823992E+02 -0.57966234516E+01 -0.29907461546E+02  0.50528870588E+02  0.30000032640E+02 0.  0.
         12    1    1    2    0    0 -0.26927823992E+02  0.57966234516E+01  0.29907461546E+02  0.40659129412E+02  0.00000000000E+00 0. -1.
         11    1    3    3    0    0 -0.52678630045E+01 -0.19176732786E+01 -0.40910013182E+01  0.69400391558E+01  0.51100000000E-03 0. -1.
        -11    1    3    3    0    0  0.20958804418E+02 -0.81910468290E+01 -0.20465414347E+02  0.30417066187E+02  0.51100000000E-03 0.  1.
         12    1    3    3    0    0  0.11236882579E+02  0.43120966560E+01 -0.53510458816E+01  0.13171765246E+02  0.00000000000E+00 0. -1.
</event>
<event>
 7    1  0.9953837E-014  0.5052886E+02  0.7816164E-02  0.1300439E+00
        -11   -1    0    0    0    0  0.00000000000E+00  0.00000000000E+00  0.45593999997E+02  0.45594000000E+02  0.51100000000E-03 0. -1.
         11   -1    0    0    0    0 -0.00000000000E+00 -0.00000000000E+00 -0.45593999997E+02  0.45594000000E+02  0.51100000000E-03 0.  1.
    9900012    2    1    2    0    0  0.25503797121E+02 -0.11688339787E+02 -0.29429655794E+02  0.50528860870E+02  0.30000003101E+02 0.  0.
         12    1    1    2    0    0 -0.25503797121E+02  0.11688339787E+02  0.29429655794E+02  0.40659139130E+02  0.00000000000E+00 0. -1.
         11    1    3    3    0    0  0.27532808165E+01 -0.91301688674E+01  0.86994863977E+00  0.95758733125E+01  0.51100000000E-03 0. -1.
        -11    1    3    3    0    0  0.19838046251E+02 -0.48102226027E+01 -0.31085308501E+02  0.37188475707E+02  0.51100000000E-03 0.  1.
         12    1    3    3    0    0  0.29124700541E+01  0.22520516827E+01  0.78570406632E+00  0.37645118512E+01  0.00000000000E+00 0. -1.
</event>
<event>
 7    1  0.9953837E-014  0.5052886E+02  0.7816164E-02  0.1300439E+00
        -11   -1    0    0    0    0  0.00000000000E+00  0.00000000000E+00  0.45593999997E+02  0.45594000000E+02  0.51100000000E-03 0. -1.
         11   -1    0    0    0    0 -0.00000000000E+00 -0.00000000000E+00 -0.45593999997E+02  0.45594000000E+02  0.51100000000E-03 0.  1.
    9900012    2    1    2    0    0 -0.31225475514E+01 -0.23193092304E+02 -0.33248994301E+02  0.50528862578E+02  0.30000008293E+02 0.  0.
         12    1    1    2    0    0  0.31225475514E+01  0.23193092304E+02  0.33248994301E+02  0.40659137422E+02  0.00000000000E+00 0. -1.
         11    1    3    3    0    0  0.12323407267E+01  0.20777061025E+01 -0.94216626138E+01  0.97264203582E+01  0.51100000000E-03 0. -1.
        -11    1    3    3    0    0 -0.15838637022E+01 -0.25878158088E+02 -0.11872566699E+02  0.28515706734E+02  0.51100000000E-03 0.  1.
        -12    1    3    3    0    0 -0.27710245758E+01  0.60735968145E+00 -0.11954764988E+02  0.12286735486E+02  0.00000000000E+00 0.  1.
</event>
<event>
 7    1  0.9953837E-014  0.5052886E+02  0.7816164E-02  0.1300439E+00
        -11   -1    0    0    0    0  0.00000000000E+00  0.00000000000E+00  0.45593999997E+02  0.45594000000E+02  0.51100000000E-03 0. -1.
         11   -1    0    0    0    0 -0.00000000000E+00 -0.00000000000E+00 -0.45593999997E+02  0.45594000000E+02  0.51100000000E-03 0.  1.
    9900012    2    1    2    0    0  0.23115788794E+01  0.10626364538E+02  0.39177838691E+02  0.50528855092E+02  0.29999985537E+02 0.  0.
        -12    1    1    2    0    0 -0.23115788794E+01 -0.10626364538E+02 -0.39177838691E+02  0.40659144908E+02  0.00000000000E+00 0.  1.
         11    1    3    3    0    0  0.82337013530E+01 -0.61583736942E+01  0.19739437591E+02  0.22256792248E+02  0.51100000000E-03 0. -1.
        -11    1    3    3    0    0 -0.54571985280E+01  0.14165994433E+02  0.20413300812E+02  0.25439325155E+02  0.51100000000E-03 0.  1.
         12    1    3    3    0    0 -0.46492394565E+00  0.26187437993E+01 -0.97489971218E+00  0.28327376882E+01  0.00000000000E+00 0. -1.
</event>
<event>
 7    1  0.9953837E-014  0.5052886E+02  0.7816164E-02  0.1300439E+00
        -11   -1    0    0    0    0  0.00000000000E+00  0.00000000000E+00  0.45593999997E+02  0.45594000000E+02  0.51100000000E-03 0. -1.
         11   -1    0    0    0    0 -0.00000000000E+00 -0.00000000000E+00 -0.45593999997E+02  0.45594000000E+02  0.51100000000E-03 0.  1.
    9900012    2    1    2    0    0  0.11916280455E+02 -0.16071049793E+02  0.35396178819E+02  0.50528857654E+02  0.29999993325E+02 0.  0.
        -12    1    1    2    0    0 -0.11916280455E+02  0.16071049793E+02 -0.35396178819E+02  0.40659142346E+02  0.00000000000E+00 0.  1.
         11    1    3    3    0    0  0.23999408115E+00 -0.88648748742E+00  0.82811646231E+01  0.83319352494E+01  0.51100000000E-03 0. -1.
        -11    1    3    3    0    0 -0.23476473706E+01 -0.14172282122E+02  0.36174445425E+01  0.14813876401E+02  0.51100000000E-03 0.  1.
        -12    1    3    3    0    0  0.14023933745E+02 -0.10122801833E+01  0.23497569653E+02  0.27383046004E+02  0.00000000000E+00 0.  1.
</event>
<event>
 7    1  0.9953837E-014  0.5052886E+02  0.7816164E-02  0.1300439E+00
        -11   -1    0    0    0    0  0.00000000000E+00  0.00000000000E+00  0.45593999997E+02  0.45594000000E+02  0.51100000000E-03 0. -1.
         11   -1    0    0    0    0 -0.00000000000E+00 -0.00000000000E+00 -0.45593999997E+02  0.45594000000E+02  0.51100000000E-03 0.  1.
    9900012    2    1    2    0    0  0.28243470117E+00 -0.24804754629E+01  0.40582424110E+02  0.50528859889E+02  0.30000000119E+02 0.  0.
        -12    1    1    2    0    0 -0.28243470117E+00  0.24804754629E+01 -0.40582424110E+02  0.40659140111E+02  0.00000000000E+00 0.  1.
         11    1    3    3    0    0 -0.10773256297E+02  0.36703639282E+01  0.15238523615E+02  0.19019653647E+02  0.51100000000E-03 0. -1.
        -11    1    3    3    0    0  0.83021935612E+01 -0.23323300332E+00  0.23195886285E+02  0.24637977928E+02  0.51100000000E-03 0.  1.
        -12    1    3    3    0    0  0.27534974374E+01 -0.59176063879E+01  0.21480142100E+01  0.68712283142E+01  0.00000000000E+00 0.  1.
</event>
<event>
 7    1  0.9953837E-014  0.5052885E+02  0.7816164E-02  0.1300439E+00
        -11   -1    0    0    0    0  0.00000000000E+00  0.00000000000E+00  0.45593999997E+02  0.45594000000E+02  0.51100000000E-03 0. -1.
         11   -1    0    0    0    0 -0.00000000000E+00 -0.00000000000E+00 -0.45593999997E+02  0.45594000000E+02  0.51100000000E-03 0.  1.
    9900012    2    1    2    0    0  0.28619256173E+02  0.23923968893E+02  0.16178638150E+02  0.50528850428E+02  0.29999971362E+02 0.  0.
        -12    1    1    2    0    0 -0.28619256173E+02 -0.23923968893E+02 -0.16178638150E+02  0.40659149572E+02  0.00000000000E+00 0.  1.
         11    1    3    3    0    0  0.14768466883E+02  0.20196239784E+02  0.27953029489E+00  0.25021467841E+02  0.51100000000E-03 0. -1.
        -11    1    3    3    0    0  0.11100205796E+02 -0.21855810904E+01  0.15200240907E+02  0.18948315422E+02  0.51100000000E-03 0.  1.
        -12    1    3    3    0    0  0.27505834944E+01  0.59133101990E+01  0.69886694780E+00  0.65590671653E+01  0.00000000000E+00 0.  1.
</event>
<event>
 7    1  0.9953837E-014  0.5052885E+02  0.7816164E-02  0.1300439E+00
        -11   -1    0    0    0    0  0.00000000000E+00  0.00000000000E+00  0.45593999997E+02  0.45594000000E+02  0.51100000000E-03 0. -1.
         11   -1    0    0    0    0 -0.00000000000E+00 -0.00000000000E+00 -0.45593999997E+02  0.45594000000E+02  0.51100000000E-03 0.  1.
    9900012    2    1    2    0    0 -0.21899737567E+02  0.10520680409E+02 -0.32601884304E+02  0.50528854879E+02  0.29999984892E+02 0.  0.
         12    1    1    2    0    0  0.21899737567E+02 -0.10520680409E+02  0.32601884304E+02  0.40659145121E+02  0.00000000000E+00 0. -1.
         11    1    3    3    0    0  0.14231253055E+01 -0.17041012966E+01  0.64723574581E+00  0.23126091836E+01  0.51100000000E-03 0. -1.
        -11    1    3    3    0    0 -0.24202227441E+02  0.17004054871E+02 -0.31046420205E+02  0.42880833749E+02  0.51100000000E-03 0.  1.
        -12    1    3    3    0    0  0.87936456941E+00 -0.47792731655E+01 -0.22026998447E+01  0.53354119468E+01  0.00000000000E+00 0.  1.
</event>
<event>
 7    1  0.9953837E-014  0.5052886E+02  0.7816164E-02  0.1300439E+00
        -11   -1    0    0    0    0  0.00000000000E+00  0.00000000000E+00  0.45593999997E+02  0.45594000000E+02  0.51100000000E-03 0. -1.
         11   -1    0    0    0    0 -0.00000000000E+00 -0.00000000000E+00 -0.45593999997E+02  0.45594000000E+02  0.51100000000E-03 0.  1.
    9900012    2    1    2    0    0 -0.25482153010E+01  0.31541687176E+02 -0.25530260215E+02  0.50528860587E+02  0.30000002240E+02 0.  0.
         12    1    1    2    0    0  0.25482153010E+01 -0.31541687176E+02  0.25530260215E+02  0.40659139413E+02  0.00000000000E+00 0. -1.
         11    1    3    3    0    0  0.82459474339E+01  0.19591665074E+02 -0.14718020349E+02  0.25854382853E+02  0.51100000000E-03 0.  1.
        -11    1    3    3    0    0 -0.96048691388E+00 -0.14316897462E+01  0.27418862578E+01  0.32388595451E+01  0.51100000000E-03 0. -1.
         12    1    3    3    0    0 -0.98336758210E+01  0.13381711849E+02 -0.13554126124E+02  0.21435618189E+02  0.00000000000E+00 0. -1.
</event>
<event>
 7    1  0.9953837E-014  0.5052886E+02  0.7816164E-02  0.1300439E+00
        -11   -1    0    0    0    0  0.00000000000E+00  0.00000000000E+00  0.45593999997E+02  0.45594000000E+02  0.51100000000E-03 0. -1.
         11   -1    0    0    0    0 -0.00000000000E+00 -0.00000000000E+00 -0.45593999997E+02  0.45594000000E+02  0.51100000000E-03 0.  1.
    9900012    2    1    2    0    0  0.19687916288E+02 -0.21542973177E+02 -0.28309927824E+02  0.50528858907E+02  0.29999997134E+02 0.  0.
         12    1    1    2    0    0 -0.19687916288E+02  0.21542973177E+02  0.28309927824E+02  0.40659141093E+02  0.00000000000E+00 0. -1.
         11    1    3    3    0    0  0.18164527775E+01 -0.10411089572E+02 -0.25733988831E+02  0.27819569878E+02  0.51100000000E-03 0. -1.
        -11    1    3    3    0    0  0.10951066609E+02 -0.68022552430E+01 -0.55304136004E+01  0.14027901166E+02  0.51100000000E-03 0.  1.
         12    1    3    3    0    0  0.69203969012E+01 -0.43296283618E+01  0.29544746080E+01  0.86813878631E+01  0.00000000000E+00 0. -1.
</event>
<event>
 7    1  0.9953837E-014  0.5052886E+02  0.7816164E-02  0.1300439E+00
        -11   -1    0    0    0    0  0.00000000000E+00  0.00000000000E+00  0.45593999997E+02  0.45594000000E+02  0.51100000000E-03 0. -1.
         11   -1    0    0    0    0 -0.00000000000E+00 -0.00000000000E+00 -0.45593999997E+02  0.45594000000E+02  0.51100000000E-03 0.  1.
    9900012    2    1    2    0    0 -0.25871259220E+02 -0.25502254748E+02 -0.18261397918E+02  0.50528859518E+02  0.29999998991E+02 0.  0.
         12    1    1    2    0    0  0.25871259220E+02  0.25502254748E+02  0.18261397918E+02  0.40659140482E+02  0.00000000000E+00 0. -1.
         11    1    3    3    0    0 -0.85104996203E+01 -0.38927920862E+01  0.43439222375E+01  0.10317562439E+02  0.51100000000E-03 0. -1.
        -11    1    3    3    0    0 -0.47439230522E+01 -0.94613148049E+01 -0.19830524052E+02  0.22478233209E+02  0.51100000000E-03 0.  1.
        -12    1    3    3    0    0 -0.12616836547E+02 -0.12148147857E+02 -0.27747961029E+01  0.17733063870E+02  0.00000000000E+00 0.  1.
</event>
<event>
 7    1  0.9953837E-014  0.5052886E+02  0.7816164E-02  0.1300439E+00
        -11   -1    0    0    0    0  0.00000000000E+00  0.00000000000E+00  0.45593999997E+02  0.45594000000E+02  0.51100000000E-03 0. -1.
         11   -1    0    0    0    0 -0.00000000000E+00 -0.00000000000E+00 -0.45593999997E+02  0.45594000000E+02  0.51100000000E-03 0.  1.
    9900012    2    1    2    0    0 -0.13982290631E+02  0.13530051322E+01 -0.38155344438E+02  0.50528863470E+02  0.30000011002E+02 0.  0.
         12    1    1    2    0    0  0.13982290631E+02 -0.13530051322E+01  0.38155344438E+02  0.40659136530E+02  0.00000000000E+00 0. -1.
         11    1    3    3    0    0 -0.20848221374E+01  0.17531762982E+01 -0.16345938525E+00  0.27288879986E+01  0.51100000000E-03 0. -1.
        -11    1    3    3    0    0 -0.11087853885E+02 -0.88559495907E+01 -0.36518512072E+02  0.39178694097E+02  0.51100000000E-03 0.  1.
        -12    1    3    3    0    0 -0.80961460884E+00  0.84557784248E+01 -0.14733729807E+01  0.86212813737E+01  0.00000000000E+00 0.  1.
</event>
<event>
 7    1  0.9953837E-014  0.5052885E+02  0.7816164E-02  0.1300439E+00
        -11   -1    0    0    0    0  0.00000000000E+00  0.00000000000E+00  0.45593999997E+02  0.45594000000E+02  0.51100000000E-03 0. -1.
         11   -1    0    0    0    0 -0.00000000000E+00 -0.00000000000E+00 -0.45593999997E+02  0.45594000000E+02  0.51100000000E-03 0.  1.
    9900012    2    1    2    0    0 -0.13491574591E+02 -0.35543336948E+02  0.14415797097E+02  0.50528848603E+02  0.29999965814E+02 0.  0.
        -12    1    1    2    0    0  0.13491574591E+02  0.35543336948E+02 -0.14415797097E+02  0.40659151397E+02  0.00000000000E+00 0.  1.
         11    1    3    3    0    0  0.45420216598E+00 -0.11176722108E+02  0.94453172034E+01  0.14640335857E+02  0.51100000000E-03 0. -1.
        -11    1    3    3    0    0 -0.13765146260E+02 -0.39153397632E+01 -0.16158206772E+01  0.14402083659E+02  0.51100000000E-03 0.  1.
        -12    1    3    3    0    0 -0.18063049732E+00 -0.20451275078E+02  0.65863005709E+01  0.21486429087E+02  0.00000000000E+00 0.  1.
</event>
<event>
 7    1  0.9953837E-014  0.5052885E+02  0.7816164E-02  0.1300439E+00
        -11   -1    0    0    0    0  0.00000000000E+00  0.00000000000E+00  0.45593999997E+02  0.45594000000E+02  0.51100000000E-03 0.  1.
         11   -1    0    0    0    0 -0.00000000000E+00 -0.00000000000E+00 -0.45593999997E+02  0.45594000000E+02  0.51100000000E-03 0. -1.
    9900012    2    1    2    0    0  0.12628781431E+02  0.38583354628E+02  0.22371691894E+01  0.50528852189E+02  0.29999976713E+02 0.  0.
         12    1    1    2    0    0 -0.12628781431E+02 -0.38583354628E+02 -0.22371691894E+01  0.40659147811E+02  0.00000000000E+00 0. -1.
         11    1    3    3    0    0  0.23547961839E+01  0.99348004647E+01 -0.79315953192E+01  0.12928864216E+02  0.51100000000E-03 0. -1.
        -11    1    3    3    0    0  0.69472326511E+01  0.31226512274E+02  0.89521595707E+01  0.33218974571E+02  0.51100000000E-03 0.  1.
        -12    1    3    3    0    0  0.33267525959E+01 -0.25779581107E+01  0.12166049379E+01  0.43810134022E+01  0.00000000000E+00 0.  1.
</event>
<event>
 7    1  0.9953837E-014  0.5052886E+02  0.7816164E-02  0.1300439E+00
        -11   -1    0    0    0    0  0.00000000000E+00  0.00000000000E+00  0.45593999997E+02  0.45594000000E+02  0.51100000000E-03 0. -1.
         11   -1    0    0    0    0 -0.00000000000E+00 -0.00000000000E+00 -0.45593999997E+02  0.45594000000E+02  0.51100000000E-03 0.  1.
    9900012    2    1    2    0    0 -0.32268107805E+02 -0.22653459943E+02 -0.99375959046E+01  0.50528857841E+02  0.29999993894E+02 0.  0.
         12    1    1    2    0    0  0.32268107805E+02  0.22653459943E+02  0.99375959046E+01  0.40659142159E+02  0.00000000000E+00 0. -1.
         11    1    3    3    0    0 -0.17073251915E+02  0.35837222328E+01 -0.46241062275E+01  0.18047752066E+02  0.51100000000E-03 0. -1.
        -11    1    3    3    0    0 -0.12454030210E+02 -0.11406908948E+02 -0.17074051591E+01  0.16974559577E+02  0.51100000000E-03 0.  1.
         12    1    3    3    0    0 -0.27408256812E+01 -0.14830273228E+02 -0.36060845179E+01  0.15506546197E+02  0.00000000000E+00 0. -1.
</event>
<event>
 7    1  0.9953837E-014  0.5052886E+02  0.7816164E-02  0.1300439E+00
        -11   -1    0    0    0    0  0.00000000000E+00  0.00000000000E+00  0.45593999997E+02  0.45594000000E+02  0.51100000000E-03 0. -1.
         11   -1    0    0    0    0 -0.00000000000E+00 -0.00000000000E+00 -0.45593999997E+02  0.45594000000E+02  0.51100000000E-03 0.  1.
    9900012    2    1    2    0    0 -0.57407923527E+01  0.17763210077E+02 -0.36120314167E+02  0.50528862963E+02  0.30000009463E+02 0.  0.
         12    1    1    2    0    0  0.57407923527E+01 -0.17763210077E+02  0.36120314167E+02  0.40659137037E+02  0.00000000000E+00 0. -1.
         11    1    3    3    0    0  0.74508490332E+00 -0.20304725219E+01 -0.22270678829E+02  0.22375457670E+02  0.51100000000E-03 0. -1.
        -11    1    3    3    0    0 -0.10008561506E+01  0.18910669320E+02 -0.11160337798E+02  0.21981088853E+02  0.51100000000E-03 0.  1.
         12    1    3    3    0    0 -0.54850211055E+01  0.88301327889E+00 -0.26892975401E+01  0.61723164401E+01  0.00000000000E+00 0. -1.
</event>
<event>
 7    1  0.9953837E-014  0.5052885E+02  0.7816164E-02  0.1300439E+00
        -11   -1    0    0    0    0  0.00000000000E+00  0.00000000000E+00  0.45593999997E+02  0.45594000000E+02  0.51100000000E-03 0. -1.
         11   -1    0    0    0    0 -0.00000000000E+00 -0.00000000000E+00 -0.45593999997E+02  0.45594000000E+02  0.51100000000E-03 0.  1.
    9900012    2    1    2    0    0  0.45961478062E+01  0.24727491902E+01  0.40322786171E+02  0.50528854069E+02  0.29999982429E+02 0.  0.
        -12    1    1    2    0    0 -0.45961478062E+01 -0.24727491902E+01 -0.40322786171E+02  0.40659145931E+02  0.00000000000E+00 0.  1.
         11    1    3    3    0    0  0.49654369078E+01  0.36957554554E+01  0.30218311348E+02  0.30845753566E+02  0.51100000000E-03 0. -1.
        -11    1    3    3    0    0  0.73081639075E+01  0.73338829915E+00  0.68807310706E+00  0.73770294129E+01  0.51100000000E-03 0.  1.
        -12    1    3    3    0    0 -0.76774530091E+01 -0.19563945644E+01  0.94164017159E+01  0.12306071090E+02  0.00000000000E+00 0.  1.
</event>
<event>
 7    1  0.9953837E-014  0.5052879E+02  0.7816164E-02  0.1300439E+00
        -11   -1    0    0    0    0  0.00000000000E+00  0.00000000000E+00  0.45593999997E+02  0.45594000000E+02  0.51100000000E-03 0. -1.
         11   -1    0    0    0    0 -0.00000000000E+00 -0.00000000000E+00 -0.45593999997E+02  0.45594000000E+02  0.51100000000E-03 0.  1.
    9900012    2    1    2    0    0  0.31314363218E+02 -0.72364438382E+01  0.24904125951E+02  0.50528794984E+02  0.29999802832E+02 0.  0.
        -12    1    1    2    0    0 -0.31314363218E+02  0.72364438382E+01 -0.24904125951E+02  0.40659205016E+02  0.00000000000E+00 0.  1.
         11    1    3    3    0    0  0.19764656560E+02  0.19109768325E+01  0.14199194653E+02  0.24411280393E+02  0.51100000000E-03 0. -1.
        -11    1    3    3    0    0  0.27501463807E+01 -0.62221257106E+01 -0.46073843918E+01  0.82162123067E+01  0.51100000000E-03 0.  1.
        -12    1    3    3    0    0  0.87995602772E+01 -0.29252949601E+01  0.15312315690E+02  0.17901302284E+02  0.00000000000E+00 0.  1.
</event>
<event>
 7    1  0.9953837E-014  0.5052886E+02  0.7816164E-02  0.1300439E+00
        -11   -1    0    0    0    0  0.00000000000E+00  0.00000000000E+00  0.45593999997E+02  0.45594000000E+02  0.51100000000E-03 0. -1.
         11   -1    0    0    0    0 -0.00000000000E+00 -0.00000000000E+00 -0.45593999997E+02  0.45594000000E+02  0.51100000000E-03 0.  1.
    9900012    2    1    2    0    0 -0.17492065605E+02  0.27971937211E+01 -0.36597395764E+02  0.50528855536E+02  0.29999986889E+02 0.  0.
         12    1    1    2    0    0  0.17492065605E+02 -0.27971937211E+01  0.36597395764E+02  0.40659144464E+02  0.00000000000E+00 0. -1.
         11    1    3    3    0    0 -0.59508617875E+01  0.21663804357E+01  0.32359820586E+01  0.71117888291E+01  0.51100000000E-03 0. -1.
        -11    1    3    3    0    0 -0.77531006509E+01 -0.56576039351E+01 -0.18259512650E+02  0.20628350745E+02  0.51100000000E-03 0.  1.
         12    1    3    3    0    0 -0.37881031662E+01  0.62884172205E+01 -0.21573865172E+02  0.22788715962E+02  0.00000000000E+00 0. -1.
</event>
<event>
 7    1  0.9953837E-014  0.5052885E+02  0.7816164E-02  0.1300439E+00
        -11   -1    0    0    0    0  0.00000000000E+00  0.00000000000E+00  0.45593999997E+02  0.45594000000E+02  0.51100000000E-03 0. -1.
         11   -1    0    0    0    0 -0.00000000000E+00 -0.00000000000E+00 -0.45593999997E+02  0.45594000000E+02  0.51100000000E-03 0.  1.
    9900012    2    1    2    0    0 -0.26152054930E+02  0.30823806302E+02 -0.43737050795E+01  0.50528852098E+02  0.29999976436E+02 0.  0.
         12    1    1    2    0    0  0.26152054930E+02 -0.30823806302E+02  0.43737050795E+01  0.40659147902E+02  0.00000000000E+00 0. -1.
         11    1    3    3    0    0  0.25005676903E+01  0.10660460952E+02 -0.33138452872E+01  0.11440272607E+02  0.51100000000E-03 0. -1.
        -11    1    3    3    0    0 -0.28144669579E+02  0.22469460376E+02 -0.28483511835E+01  0.36126336377E+02  0.51100000000E-03 0.  1.
        -12    1    3    3    0    0 -0.50795304161E+00 -0.23061150261E+01  0.17884913911E+01  0.29622431133E+01  0.00000000000E+00 0.  1.
</event>
<event>
 7    1  0.9953837E-014  0.5052886E+02  0.7816164E-02  0.1300439E+00
        -11   -1    0    0    0    0  0.00000000000E+00  0.00000000000E+00  0.45593999997E+02  0.45594000000E+02  0.51100000000E-03 0. -1.
         11   -1    0    0    0    0 -0.00000000000E+00 -0.00000000000E+00 -0.45593999997E+02  0.45594000000E+02  0.51100000000E-03 0.  1.
    9900012    2    1    2    0    0  0.18209990165E+02 -0.12198527788E+02 -0.34245554660E+02  0.50528857904E+02  0.29999994086E+02 0.  0.
         12    1    1    2    0    0 -0.18209990165E+02  0.12198527788E+02  0.34245554660E+02  0.40659142096E+02  0.00000000000E+00 0. -1.
         11    1    3    3    0    0  0.60404703395E+01  0.63784550175E+01 -0.18322475740E+02  0.20319574007E+02  0.51100000000E-03 0. -1.
        -11    1    3    3    0    0  0.11173629783E+02 -0.67727163969E+01 -0.11972378519E+02  0.17721668589E+02  0.51100000000E-03 0.  1.
         12    1    3    3    0    0  0.99589004221E+00 -0.11804266409E+02 -0.39507004010E+01  0.12487615308E+02  0.00000000000E+00 0. -1.
</event>
<event>
 7    1  0.9953837E-014  0.5052886E+02  0.7816164E-02  0.1300439E+00
        -11   -1    0    0    0    0  0.00000000000E+00  0.00000000000E+00  0.45593999997E+02  0.45594000000E+02  0.51100000000E-03 0. -1.
         11   -1    0    0    0    0 -0.00000000000E+00 -0.00000000000E+00 -0.45593999997E+02  0.45594000000E+02  0.51100000000E-03 0.  1.
    9900012    2    1    2    0    0 -0.70984894324E+01  0.18518486886E+01 -0.39991847397E+02  0.50528858912E+02  0.29999997150E+02 0.  0.
         12    1    1    2    0    0  0.70984894324E+01 -0.18518486886E+01  0.39991847397E+02  0.40659141088E+02  0.00000000000E+00 0. -1.
         11    1    3    3    0    0 -0.44943160077E+01 -0.72095230520E+01 -0.90062309079E+01  0.12380965004E+02  0.51100000000E-03 0. -1.
        -11    1    3    3    0    0  0.65961639366E+01  0.70508134628E+01 -0.58099669906E+01  0.11268498829E+02  0.51100000000E-03 0.  1.
        -12    1    3    3    0    0 -0.92003373613E+01  0.20105582778E+01 -0.25175649498E+02  0.26879395079E+02  0.00000000000E+00 0.  1.
</event>
<event>
 7    1  0.9953837E-014  0.5052885E+02  0.7816164E-02  0.1300439E+00
        -11   -1    0    0    0    0  0.00000000000E+00  0.00000000000E+00  0.45593999997E+02  0.45594000000E+02  0.51100000000E-03 0. -1.
         11   -1    0    0    0    0 -0.00000000000E+00 -0.00000000000E+00 -0.45593999997E+02  0.45594000000E+02  0.51100000000E-03 0.  1.
    9900012    2    1    2    0    0  0.80741884950E+01  0.29053556787E+02 -0.27273886655E+02  0.50528848814E+02  0.29999966456E+02 0.  0.
         12    1    1    2    0    0 -0.80741884950E+01 -0.29053556787E+02  0.27273886655E+02  0.40659151186E+02  0.00000000000E+00 0. -1.
         11    1    3    3    0    0 -0.10016841378E+01 -0.47547474788E+01 -0.34303583324E+01  0.59479705152E+01  0.51100000000E-03 0. -1.
        -11    1    3    3    0    0 -0.23854038230E-01  0.24275878928E+02 -0.13144167710E+02  0.27605941603E+02  0.51100000000E-03 0.  1.
        -12    1    3    3    0    0  0.90997266710E+01  0.95324253383E+01 -0.10699360612E+02  0.16974936696E+02  0.00000000000E+00 0.  1.
</event>
<event>
 7    1  0.9953837E-014  0.5052887E+02  0.7816164E-02  0.1300439E+00
        -11   -1    0    0    0    0  0.00000000000E+00  0.00000000000E+00  0.45593999997E+02  0.45594000000E+02  0.51100000000E-03 0. -1.
         11   -1    0    0    0    0 -0.00000000000E+00 -0.00000000000E+00 -0.45593999997E+02  0.45594000000E+02  0.51100000000E-03 0.  1.
    9900012    2    1    2    0    0  0.41882774429E+01 -0.27232665129E+02 -0.29899923266E+02  0.50528866595E+02  0.30000020501E+02 0.  0.
         12    1    1    2    0    0 -0.41882774429E+01  0.27232665129E+02  0.29899923266E+02  0.40659133405E+02  0.00000000000E+00 0. -1.
         11    1    3    3    0    0 -0.19843101338E+01 -0.92126007110E+00  0.17515241242E+01  0.28025067073E+01  0.51100000000E-03 0. -1.
        -11    1    3    3    0    0  0.10595869040E+02 -0.27379189153E+02 -0.20858665088E+02  0.36013557849E+02  0.51100000000E-03 0.  1.
        -12    1    3    3    0    0 -0.44232814629E+01  0.10677840956E+01 -0.10792782302E+02  0.11712802039E+02  0.00000000000E+00 0.  1.
</event>
<event>
 7    1  0.9953837E-014  0.5052883E+02  0.7816164E-02  0.1300439E+00
        -11   -1    0    0    0    0  0.00000000000E+00  0.00000000000E+00  0.45593999997E+02  0.45594000000E+02  0.51100000000E-03 0. -1.
         11   -1    0    0    0    0 -0.00000000000E+00 -0.00000000000E+00 -0.45593999997E+02  0.45594000000E+02  0.51100000000E-03 0.  1.
    9900012    2    1    2    0    0  0.65894590486E+01 -0.61053705492E+01  0.39654401783E+02  0.50528830052E+02  0.29999909425E+02 0.  0.
        -12    1    1    2    0    0 -0.65894590486E+01  0.61053705492E+01 -0.39654401783E+02  0.40659169948E+02  0.00000000000E+00 0.  1.
         11    1    3    3    0    0 -0.22536352985E+01 -0.20919603639E+01  0.20999018084E+02  0.21222957640E+02  0.51100000000E-03 0. -1.
        -11    1    3    3    0    0  0.10782608942E+02 -0.56068232663E+00  0.59191526578E+00  0.10813389118E+02  0.51100000000E-03 0.  1.
        -12    1    3    3    0    0 -0.19395145951E+01 -0.34527278587E+01  0.18063468433E+02  0.18492483294E+02  0.00000000000E+00 0.  1.
</event>
<event>
 7    1  0.9953837E-014  0.5052885E+02  0.7816164E-02  0.1300439E+00
        -11   -1    0    0    0    0  0.00000000000E+00  0.00000000000E+00  0.45593999997E+02  0.45594000000E+02  0.51100000000E-03 0.  1.
         11   -1    0    0    0    0 -0.00000000000E+00 -0.00000000000E+00 -0.45593999997E+02  0.45594000000E+02  0.51100000000E-03 0. -1.
    9900012    2    1    2    0    0  0.15210322486E+02 -0.37676988217E+02  0.15022595544E+01  0.50528854227E+02  0.29999982909E+02 0.  0.
        -12    1    1    2    0    0 -0.15210322486E+02  0.37676988217E+02 -0.15022595544E+01  0.40659145773E+02  0.00000000000E+00 0.  1.
         11    1    3    3    0    0  0.72953430825E+01 -0.14298557020E+02 -0.76247191400E+01  0.17770962432E+02  0.51100000000E-03 0. -1.
        -11    1    3    3    0    0  0.21193594527E+01 -0.79373254171E+01  0.13402265198E+02  0.15719845164E+02  0.51100000000E-03 0.  1.
        -12    1    3    3    0    0  0.57956199512E+01 -0.15441105780E+02 -0.42752865038E+01  0.17038046631E+02  0.00000000000E+00 0.  1.
</event>
<event>
 7    1  0.9953837E-014  0.5052886E+02  0.7816164E-02  0.1300439E+00
        -11   -1    0    0    0    0  0.00000000000E+00  0.00000000000E+00  0.45593999997E+02  0.45594000000E+02  0.51100000000E-03 0. -1.
         11   -1    0    0    0    0 -0.00000000000E+00 -0.00000000000E+00 -0.45593999997E+02  0.45594000000E+02  0.51100000000E-03 0.  1.
    9900012    2    1    2    0    0  0.14120209229E+02  0.23763217884E+02 -0.29817694671E+02  0.50528858981E+02  0.29999997359E+02 0.  0.
         12    1    1    2    0    0 -0.14120209229E+02 -0.23763217884E+02  0.29817694671E+02  0.40659141019E+02  0.00000000000E+00 0. -1.
         11    1    3    3    0    0  0.66389181775E-01 -0.11027590153E+01 -0.19621647127E+02  0.19652722997E+02  0.51100000000E-03 0. -1.
        -11    1    3    3    0    0  0.47992573671E+01  0.45436558841E+01 -0.82883396527E+00  0.66606790999E+01  0.51100000000E-03 0.  1.
         12    1    3    3    0    0  0.92545626797E+01  0.20322321016E+02 -0.93672135792E+01  0.24215456884E+02  0.00000000000E+00 0. -1.
</event>
<event>
 7    1  0.9953837E-014  0.5052891E+02  0.7816164E-02  0.1300439E+00
        -11   -1    0    0    0    0  0.00000000000E+00  0.00000000000E+00  0.45593999997E+02  0.45594000000E+02  0.51100000000E-03 0. -1.
         11   -1    0    0    0    0 -0.00000000000E+00 -0.00000000000E+00 -0.45593999997E+02  0.45594000000E+02  0.51100000000E-03 0.  1.
    9900012    2    1    2    0    0 -0.12956978685E+02  0.39354603861E+01  0.38337849255E+02  0.50528907160E+02  0.30000143802E+02 0.  0.
        -12    1    1    2    0    0  0.12956978685E+02 -0.39354603861E+01 -0.38337849255E+02  0.40659092840E+02  0.00000000000E+00 0.  1.
         11    1    3    3    0    0  0.71078524446E+00 -0.92405267632E+00  0.62705176697E+01  0.63779684163E+01  0.51100000000E-03 0. -1.
        -11    1    3    3    0    0 -0.40842572411E+01  0.10840398720E+02  0.16469554127E+01  0.11700763394E+02  0.51100000000E-03 0.  1.
        -12    1    3    3    0    0 -0.95835066881E+01 -0.59808856573E+01  0.30420376173E+02  0.32450175349E+02  0.00000000000E+00 0.  1.
</event>
<event>
 7    1  0.1091550E-013  0.5052887E+02  0.7816164E-02  0.1300439E+00
        -11   -1    0    0    0    0  0.00000000000E+00  0.00000000000E+00  0.45593999997E+02  0.45594000000E+02  0.51100000000E-03 0. -1.
         11   -1    0    0    0    0 -0.00000000000E+00 -0.00000000000E+00 -0.45593999997E+02  0.45594000000E+02  0.51100000000E-03 0.  1.
    9900012    2    1    2    0    0  0.22600571025E+01  0.99179779207E+01  0.39366112790E+02  0.50528868426E+02  0.30000026069E+02 0.  0.
        -12    1    1    2    0    0 -0.22600571025E+01 -0.99179779207E+01 -0.39366112790E+02  0.40659131574E+02  0.00000000000E+00 0.  1.
         11    1    3    3    0    0 -0.47644012092E+01  0.14482161026E+02  0.27902227767E+02  0.31795704450E+02  0.51100000000E-03 0. -1.
        -11    1    3    3    0    0 -0.28793870502E+01 -0.39523211194E+01  0.39686070460E+01  0.62977419892E+01  0.51100000000E-03 0.  1.
         12    1    3    3    0    0  0.99038453619E+01 -0.61186198601E+00  0.74952779772E+01  0.12435421987E+02  0.00000000000E+00 0. -1.
</event>
<event>
 7    1  0.9953837E-014  0.5052886E+02  0.7816164E-02  0.1300439E+00
        -11   -1    0    0    0    0  0.00000000000E+00  0.00000000000E+00  0.45593999997E+02  0.45594000000E+02  0.51100000000E-03 0. -1.
         11   -1    0    0    0    0 -0.00000000000E+00 -0.00000000000E+00 -0.45593999997E+02  0.45594000000E+02  0.51100000000E-03 0.  1.
    9900012    2    1    2    0    0  0.17486948416E+02  0.31186857971E+02 -0.19358515617E+02  0.50528860783E+02  0.30000002837E+02 0.  0.
         12    1    1    2    0    0 -0.17486948416E+02 -0.31186857971E+02  0.19358515617E+02  0.40659139217E+02  0.00000000000E+00 0. -1.
         11    1    3    3    0    0  0.13364579553E+01  0.15772390478E+02  0.39386548357E+01  0.16311573298E+02  0.51100000000E-03 0. -1.
        -11    1    3    3    0    0  0.13696058932E+02  0.12003172765E+02 -0.23818037185E+02  0.29982613000E+02  0.51100000000E-03 0.  1.
        -12    1    3    3    0    0  0.24544315290E+01  0.34112947272E+01  0.52086673294E+00  0.42346744857E+01  0.00000000000E+00 0.  1.
</event>
<event>
 7    1  0.9953837E-014  0.5052886E+02  0.7816164E-02  0.1300439E+00
        -11   -1    0    0    0    0  0.00000000000E+00  0.00000000000E+00  0.45593999997E+02  0.45594000000E+02  0.51100000000E-03 0. -1.
         11   -1    0    0    0    0 -0.00000000000E+00 -0.00000000000E+00 -0.45593999997E+02  0.45594000000E+02  0.51100000000E-03 0.  1.
    9900012    2    1    2    0    0  0.89995862293E+01  0.11373767465E+02  0.37984346344E+02  0.50528859505E+02  0.29999998951E+02 0.  0.
        -12    1    1    2    0    0 -0.89995862293E+01 -0.11373767465E+02 -0.37984346344E+02  0.40659140495E+02  0.00000000000E+00 0.  1.
         11    1    3    3    0    0  0.96114909047E+01  0.11642233128E+02  0.20902388875E+02  0.25784340414E+02  0.51100000000E-03 0. -1.
        -11    1    3    3    0    0 -0.75666302522E+01 -0.39280932370E+01  0.38494564158E+01  0.93542570421E+01  0.51100000000E-03 0.  1.
        -12    1    3    3    0    0  0.69547255768E+01  0.36596275741E+01  0.13232501052E+02  0.15390262049E+02  0.00000000000E+00 0.  1.
</event>
<event>
 7    1  0.9953837E-014  0.5052886E+02  0.7816164E-02  0.1300439E+00
        -11   -1    0    0    0    0  0.00000000000E+00  0.00000000000E+00  0.45593999997E+02  0.45594000000E+02  0.51100000000E-03 0. -1.
         11   -1    0    0    0    0 -0.00000000000E+00 -0.00000000000E+00 -0.45593999997E+02  0.45594000000E+02  0.51100000000E-03 0.  1.
    9900012    2    1    2    0    0  0.40601607074E+02 -0.19402239834E+01  0.95432427226E+00  0.50528859565E+02  0.29999999134E+02 0.  0.
        -12    1    1    2    0    0 -0.40601607074E+02  0.19402239834E+01 -0.95432427226E+00  0.40659140435E+02  0.00000000000E+00 0.  1.
         11    1    3    3    0    0  0.33639062159E+01  0.89350442721E+01  0.22006972566E+01  0.97976502208E+01  0.51100000000E-03 0. -1.
        -11    1    3    3    0    0  0.25450342196E+02 -0.13099956115E+02 -0.21312698585E+01  0.28703154523E+02  0.51100000000E-03 0.  1.
         12    1    3    3    0    0  0.11787358662E+02  0.22246878598E+01  0.88489687419E+00  0.12028054821E+02  0.00000000000E+00 0. -1.
</event>
<event>
 7    1  0.9953837E-014  0.5052886E+02  0.7816164E-02  0.1300439E+00
        -11   -1    0    0    0    0  0.00000000000E+00  0.00000000000E+00  0.45593999997E+02  0.45594000000E+02  0.51100000000E-03 0. -1.
         11   -1    0    0    0    0 -0.00000000000E+00 -0.00000000000E+00 -0.45593999997E+02  0.45594000000E+02  0.51100000000E-03 0.  1.
    9900012    2    1    2    0    0 -0.17564507016E+02  0.12903808551E+02 -0.34324119551E+02  0.50528863698E+02  0.30000011696E+02 0.  0.
         12    1    1    2    0    0  0.17564507016E+02 -0.12903808551E+02  0.34324119551E+02  0.40659136302E+02  0.00000000000E+00 0. -1.
         11    1    3    3    0    0  0.25364815079E+01  0.10969196059E+02 -0.10688781841E+02  0.15524402021E+02  0.51100000000E-03 0. -1.
        -11    1    3    3    0    0 -0.14949530810E+02  0.44151462798E+01 -0.64089014997E+01  0.16853961161E+02  0.51100000000E-03 0.  1.
        -12    1    3    3    0    0 -0.51514577139E+01 -0.24805337874E+01 -0.17226436211E+02  0.18150500516E+02  0.00000000000E+00 0.  1.
</event>
<event>
 7    1  0.9953837E-014  0.5052880E+02  0.7816164E-02  0.1300439E+00
        -11   -1    0    0    0    0  0.00000000000E+00  0.00000000000E+00  0.45593999997E+02  0.45594000000E+02  0.51100000000E-03 0. -1.
         11   -1    0    0    0    0 -0.00000000000E+00 -0.00000000000E+00 -0.45593999997E+02  0.45594000000E+02  0.51100000000E-03 0.  1.
    9900012    2    1    2    0    0 -0.18748372674E+02  0.19527722286E+02 -0.30337062546E+02  0.50528797111E+02  0.29999809299E+02 0.  0.
         12    1    1    2    0    0  0.18748372674E+02 -0.19527722286E+02  0.30337062546E+02  0.40659202889E+02  0.00000000000E+00 0. -1.
         11    1    3    3    0    0  0.50928029495E+01  0.41818625222E+01 -0.12646104988E+02  0.14260034631E+02  0.51100000000E-03 0. -1.
        -11    1    3    3    0    0 -0.54127998900E+01  0.87543433055E+01 -0.64187465612E+00  0.10312561888E+02  0.51100000000E-03 0.  1.
         12    1    3    3    0    0 -0.18428375733E+02  0.65915164587E+01 -0.17049082902E+02  0.25956200592E+02  0.00000000000E+00 0. -1.
</event>
<event>
 7    1  0.9953837E-014  0.5052886E+02  0.7816164E-02  0.1300439E+00
        -11   -1    0    0    0    0  0.00000000000E+00  0.00000000000E+00  0.45593999997E+02  0.45594000000E+02  0.51100000000E-03 0. -1.
         11   -1    0    0    0    0 -0.00000000000E+00 -0.00000000000E+00 -0.45593999997E+02  0.45594000000E+02  0.51100000000E-03 0.  1.
    9900012    2    1    2    0    0 -0.36767820230E+01 -0.12789966112E+02 -0.38419575443E+02  0.50528859128E+02  0.29999997807E+02 0.  0.
         12    1    1    2    0    0  0.36767820230E+01  0.12789966112E+02  0.38419575443E+02  0.40659140872E+02  0.00000000000E+00 0. -1.
         11    1    3    3    0    0  0.39485545167E+01 -0.93487770338E+01 -0.11694209838E+02  0.15483709465E+02  0.51100000000E-03 0. -1.
        -11    1    3    3    0    0  0.28232467300E+00  0.74119957179E+01 -0.16744245503E+02  0.18313578172E+02  0.51100000000E-03 0.  1.
        -12    1    3    3    0    0 -0.79076612127E+01 -0.10853184796E+02 -0.99811201017E+01  0.16731571491E+02  0.00000000000E+00 0.  1.
</event>
<event>
 7    1  0.1042721E-013  0.5052882E+02  0.7816164E-02  0.1300439E+00
        -11   -1    0    0    0    0  0.00000000000E+00  0.00000000000E+00  0.45593999997E+02  0.45594000000E+02  0.51100000000E-03 0. -1.
         11   -1    0    0    0    0 -0.00000000000E+00 -0.00000000000E+00 -0.45593999997E+02  0.45594000000E+02  0.51100000000E-03 0.  1.
    9900012    2    1    2    0    0 -0.17808338759E+02 -0.19691302597E+02  0.30794228977E+02  0.50528820648E+02  0.29999880841E+02 0.  0.
        -12    1    1    2    0    0  0.17808338759E+02  0.19691302597E+02 -0.30794228977E+02  0.40659179352E+02  0.00000000000E+00 0.  1.
         11    1    3    3    0    0 -0.22129779219E+02 -0.14731402718E+02  0.24333492336E+02  0.36039703160E+02  0.51100000000E-03 0. -1.
        -11    1    3    3    0    0  0.52766433599E+01 -0.81079075855E+01  0.50029843225E+01  0.10890866951E+02  0.51100000000E-03 0.  1.
         12    1    3    3    0    0 -0.95520289903E+00  0.31480077066E+01  0.14577523190E+01  0.35982505364E+01  0.00000000000E+00 0. -1.
</event>
<event>
 7    1  0.9953837E-014  0.5052885E+02  0.7816164E-02  0.1300439E+00
        -11   -1    0    0    0    0  0.00000000000E+00  0.00000000000E+00  0.45593999997E+02  0.45594000000E+02  0.51100000000E-03 0. -1.
         11   -1    0    0    0    0 -0.00000000000E+00 -0.00000000000E+00 -0.45593999997E+02  0.45594000000E+02  0.51100000000E-03 0.  1.
    9900012    2    1    2    0    0  0.10291691460E+01 -0.28766882224E+02 -0.28715387137E+02  0.50528853914E+02  0.29999981957E+02 0.  0.
         12    1    1    2    0    0 -0.10291691460E+01  0.28766882224E+02  0.28715387137E+02  0.40659146086E+02  0.00000000000E+00 0. -1.
         11    1    3    3    0    0 -0.15191381149E+00 -0.59477501212E+01  0.56025287851E+01  0.81723398339E+01  0.51100000000E-03 0. -1.
        -11    1    3    3    0    0  0.54120588312E+01 -0.10887863172E+02 -0.17366454625E+02  0.21199756880E+02  0.51100000000E-03 0.  1.
         12    1    3    3    0    0 -0.42309758737E+01 -0.11931268931E+02 -0.16951461297E+02  0.21156757201E+02  0.00000000000E+00 0. -1.
</event>
<event>
 7    1  0.9953837E-014  0.5052886E+02  0.7816164E-02  0.1300439E+00
        -11   -1    0    0    0    0  0.00000000000E+00  0.00000000000E+00  0.45593999997E+02  0.45594000000E+02  0.51100000000E-03 0. -1.
         11   -1    0    0    0    0 -0.00000000000E+00 -0.00000000000E+00 -0.45593999997E+02  0.45594000000E+02  0.51100000000E-03 0.  1.
    9900012    2    1    2    0    0 -0.36137112070E+02  0.57109400071E+01  0.17738659884E+02  0.50528858850E+02  0.29999996962E+02 0.  0.
        -12    1    1    2    0    0  0.36137112070E+02 -0.57109400071E+01 -0.17738659884E+02  0.40659141150E+02  0.00000000000E+00 0.  1.
         11    1    3    3    0    0 -0.12382679083E+02  0.10542505050E+02 -0.10394706409E+01  0.16295878420E+02  0.51100000000E-03 0. -1.
        -11    1    3    3    0    0 -0.14933294044E+02 -0.68626857277E+01  0.40187874705E+01  0.16918935528E+02  0.51100000000E-03 0.  1.
         12    1    3    3    0    0 -0.88211389425E+01  0.20311206847E+01  0.14759343054E+02  0.17314044902E+02  0.00000000000E+00 0. -1.
</event>
<event>
 7    1  0.9953837E-014  0.5052884E+02  0.7816164E-02  0.1300439E+00
        -11   -1    0    0    0    0  0.00000000000E+00  0.00000000000E+00  0.45593999997E+02  0.45594000000E+02  0.51100000000E-03 0. -1.
         11   -1    0    0    0    0 -0.00000000000E+00 -0.00000000000E+00 -0.45593999997E+02  0.45594000000E+02  0.51100000000E-03 0.  1.
    9900012    2    1    2    0    0  0.70413681660E+01 -0.12359662922E+02 -0.38089693889E+02  0.50528844650E+02  0.29999953797E+02 0.  0.
         12    1    1    2    0    0 -0.70413681660E+01  0.12359662922E+02  0.38089693889E+02  0.40659155350E+02  0.00000000000E+00 0. -1.
         11    1    3    3    0    0 -0.92770856906E+01 -0.10265486051E+02 -0.24188785745E+02  0.27866501015E+02  0.51100000000E-03 0. -1.
        -11    1    3    3    0    0  0.13821344767E+02  0.88959099838E+00 -0.12030036943E+02  0.18345101047E+02  0.51100000000E-03 0.  1.
         12    1    3    3    0    0  0.24971090895E+01 -0.29837678699E+01 -0.18708712020E+01  0.43172425876E+01  0.00000000000E+00 0. -1.
</event>
<event>
 7    1  0.9953837E-014  0.5052887E+02  0.7816164E-02  0.1300439E+00
        -11   -1    0    0    0    0  0.00000000000E+00  0.00000000000E+00  0.45593999997E+02  0.45594000000E+02  0.51100000000E-03 0. -1.
         11   -1    0    0    0    0 -0.00000000000E+00 -0.00000000000E+00 -0.45593999997E+02  0.45594000000E+02  0.51100000000E-03 0.  1.
    9900012    2    1    2    0    0 -0.48386062888E+01  0.12778085469E+02 -0.38294564439E+02  0.50528865175E+02  0.30000016187E+02 0.  0.
         12    1    1    2    0    0  0.48386062888E+01 -0.12778085469E+02  0.38294564439E+02  0.40659134825E+02  0.00000000000E+00 0. -1.
         11    1    3    3    0    0  0.22402267384E+01 -0.69689895019E+01 -0.54640966177E+01  0.91346473728E+01  0.51100000000E-03 0. -1.
        -11    1    3    3    0    0 -0.77010952757E+01  0.89382802806E+01 -0.78574299542E+01  0.14175292892E+02  0.51100000000E-03 0.  1.
         12    1    3    3    0    0  0.62226224851E+00  0.10808794691E+02 -0.24973037868E+02  0.27218924911E+02  0.00000000000E+00 0. -1.
</event>
<event>
 7    1  0.9953837E-014  0.5052886E+02  0.7816164E-02  0.1300439E+00
        -11   -1    0    0    0    0  0.00000000000E+00  0.00000000000E+00  0.45593999997E+02  0.45594000000E+02  0.51100000000E-03 0. -1.
         11   -1    0    0    0    0 -0.00000000000E+00 -0.00000000000E+00 -0.45593999997E+02  0.45594000000E+02  0.51100000000E-03 0.  1.
    9900012    2    1    2    0    0 -0.32360206957E+02  0.24524067383E+02 -0.21337130354E+01  0.50528860724E+02  0.30000002657E+02 0.  0.
         12    1    1    2    0    0  0.32360206957E+02 -0.24524067383E+02  0.21337130354E+01  0.40659139276E+02  0.00000000000E+00 0. -1.
         11    1    3    3    0    0 -0.19741380331E+02 -0.25425633272E+00  0.42777458123E+01  0.20201134947E+02  0.51100000000E-03 0. -1.
        -11    1    3    3    0    0 -0.85134006568E+01  0.23713572442E+02 -0.67170691774E+01  0.26075477508E+02  0.51100000000E-03 0.  1.
        -12    1    3    3    0    0 -0.41054259690E+01  0.10647512744E+01  0.30561032978E+00  0.42522482685E+01  0.00000000000E+00 0.  1.
</event>
<event>
 7    1  0.9953837E-014  0.5052886E+02  0.7816164E-02  0.1300439E+00
        -11   -1    0    0    0    0  0.00000000000E+00  0.00000000000E+00  0.45593999997E+02  0.45594000000E+02  0.51100000000E-03 0. -1.
         11   -1    0    0    0    0 -0.00000000000E+00 -0.00000000000E+00 -0.45593999997E+02  0.45594000000E+02  0.51100000000E-03 0.  1.
    9900012    2    1    2    0    0  0.14084789534E+02 -0.35676426933E+02 -0.13489869812E+02  0.50528864219E+02  0.30000013281E+02 0.  0.
         12    1    1    2    0    0 -0.14084789534E+02  0.35676426933E+02  0.13489869812E+02  0.40659135781E+02  0.00000000000E+00 0. -1.
         11    1    3    3    0    0  0.14103023957E+02 -0.84236355905E+01  0.24941199821E+01  0.16615461355E+02  0.51100000000E-03 0.  1.
        -11    1    3    3    0    0 -0.51634845248E+01 -0.84712704814E+01 -0.84552677790E+01  0.13035165879E+02  0.51100000000E-03 0. -1.
         12    1    3    3    0    0  0.51452501021E+01 -0.18781520861E+02 -0.75287220151E+01  0.20878236986E+02  0.00000000000E+00 0. -1.
</event>
<event>
 7    1  0.1251066E-013  0.5052887E+02  0.7816164E-02  0.1300439E+00
        -11   -1    0    0    0    0  0.00000000000E+00  0.00000000000E+00  0.45593999997E+02  0.45594000000E+02  0.51100000000E-03 0. -1.
         11   -1    0    0    0    0 -0.00000000000E+00 -0.00000000000E+00 -0.45593999997E+02  0.45594000000E+02  0.51100000000E-03 0.  1.
    9900012    2    1    2    0    0 -0.18739526464E+02 -0.15915036319E+02  0.32383746145E+02  0.50528865141E+02  0.30000016082E+02 0.  0.
        -12    1    1    2    0    0  0.18739526464E+02  0.15915036319E+02 -0.32383746145E+02  0.40659134859E+02  0.00000000000E+00 0.  1.
         11    1    3    3    0    0 -0.17760961590E+01 -0.13532525212E+02  0.23089604343E+02  0.26821886309E+02  0.51100000000E-03 0. -1.
        -11    1    3    3    0    0 -0.11730914921E+02 -0.73742610987E+01  0.31314529937E+01  0.14205635844E+02  0.51100000000E-03 0.  1.
         12    1    3    3    0    0 -0.52325153847E+01  0.49917499916E+01  0.61626888078E+01  0.95013429878E+01  0.00000000000E+00 0. -1.
</event>
<event>
 7    1  0.9953837E-014  0.5052885E+02  0.7816164E-02  0.1300439E+00
        -11   -1    0    0    0    0  0.00000000000E+00  0.00000000000E+00  0.45593999997E+02  0.45594000000E+02  0.51100000000E-03 0.  1.
         11   -1    0    0    0    0 -0.00000000000E+00 -0.00000000000E+00 -0.45593999997E+02  0.45594000000E+02  0.51100000000E-03 0. -1.
    9900012    2    1    2    0    0  0.22787554387E+02 -0.33578880470E+02 -0.25203691326E+01  0.50528854545E+02  0.29999983875E+02 0.  0.
         12    1    1    2    0    0 -0.22787554387E+02  0.33578880470E+02  0.25203691326E+01  0.40659145455E+02  0.00000000000E+00 0. -1.
         11    1    3    3    0    0  0.22586699260E+01 -0.53339367750E+01 -0.57829545942E+01  0.81850495083E+01  0.51100000000E-03 0. -1.
        -11    1    3    3    0    0  0.21667560700E+02 -0.10024784260E+02  0.32019026694E+01  0.24087998404E+02  0.51100000000E-03 0.  1.
        -12    1    3    3    0    0 -0.11386762392E+01 -0.18220159435E+02  0.60682792229E-01  0.18255806633E+02  0.00000000000E+00 0.  1.
</event>
<event>
 7    1  0.9953837E-014  0.5052888E+02  0.7816164E-02  0.1300439E+00
        -11   -1    0    0    0    0  0.00000000000E+00  0.00000000000E+00  0.45593999997E+02  0.45594000000E+02  0.51100000000E-03 0. -1.
         11   -1    0    0    0    0 -0.00000000000E+00 -0.00000000000E+00 -0.45593999997E+02  0.45594000000E+02  0.51100000000E-03 0.  1.
    9900012    2    1    2    0    0 -0.37389740210E+02 -0.14230478735E+01 -0.15910563438E+02  0.50528883345E+02  0.30000071416E+02 0.  0.
         12    1    1    2    0    0  0.37389740210E+02  0.14230478735E+01  0.15910563438E+02  0.40659116655E+02  0.00000000000E+00 0. -1.
         11    1    3    3    0    0 -0.19250932268E+02 -0.75054480037E+00 -0.60700658050E+01  0.20199193296E+02  0.51100000000E-03 0. -1.
        -11    1    3    3    0    0 -0.59723979990E+01 -0.79544469199E+01  0.38061006727E+01  0.10650312965E+02  0.51100000000E-03 0.  1.
        -12    1    3    3    0    0 -0.12166409943E+02  0.72819438468E+01 -0.13646598306E+02  0.19679377084E+02  0.00000000000E+00 0.  1.
</event>
<event>
 7    1  0.9953837E-014  0.5052886E+02  0.7816164E-02  0.1300439E+00
        -11   -1    0    0    0    0  0.00000000000E+00  0.00000000000E+00  0.45593999997E+02  0.45594000000E+02  0.51100000000E-03 0. -1.
         11   -1    0    0    0    0 -0.00000000000E+00 -0.00000000000E+00 -0.45593999997E+02  0.45594000000E+02  0.51100000000E-03 0.  1.
    9900012    2    1    2    0    0 -0.23892381451E+01  0.32846180321E+02  0.23845029142E+02  0.50528862831E+02  0.30000009061E+02 0.  0.
        -12    1    1    2    0    0  0.23892381451E+01 -0.32846180321E+02 -0.23845029142E+02  0.40659137169E+02  0.00000000000E+00 0.  1.
         11    1    3    3    0    0 -0.52437958100E+01  0.21381437166E+02  0.14070388023E+02  0.26127362461E+02  0.51100000000E-03 0. -1.
        -11    1    3    3    0    0  0.29025458682E+01 -0.35488160659E+01 -0.23051789102E+01  0.51315414892E+01  0.51100000000E-03 0.  1.
         12    1    3    3    0    0 -0.47988203395E-01  0.15013559221E+02  0.12079820029E+02  0.19269958881E+02  0.00000000000E+00 0. -1.
</event>
<event>
 7    1  0.9953837E-014  0.5052887E+02  0.7816164E-02  0.1300439E+00
        -11   -1    0    0    0    0  0.00000000000E+00  0.00000000000E+00  0.45593999997E+02  0.45594000000E+02  0.51100000000E-03 0. -1.
         11   -1    0    0    0    0 -0.00000000000E+00 -0.00000000000E+00 -0.45593999997E+02  0.45594000000E+02  0.51100000000E-03 0.  1.
    9900012    2    1    2    0    0 -0.25967169776E+02 -0.82237841673E+01 -0.30186759865E+02  0.50528868143E+02  0.30000025208E+02 0.  0.
         12    1    1    2    0    0  0.25967169776E+02  0.82237841673E+01  0.30186759865E+02  0.40659131857E+02  0.00000000000E+00 0. -1.
         11    1    3    3    0    0  0.49136340349E+01 -0.64940749302E+01 -0.66059112471E+01  0.10485936882E+02  0.51100000000E-03 0. -1.
        -11    1    3    3    0    0 -0.95691745261E+01  0.34914685688E+01 -0.97832842110E+01  0.14123459353E+02  0.51100000000E-03 0.  1.
         12    1    3    3    0    0 -0.21311629284E+02 -0.52211778058E+01 -0.13797564407E+02  0.25919471908E+02  0.00000000000E+00 0. -1.
</event>
<event>
 7    1  0.9953837E-014  0.5052886E+02  0.7816164E-02  0.1300439E+00
        -11   -1    0    0    0    0  0.00000000000E+00  0.00000000000E+00  0.45593999997E+02  0.45594000000E+02  0.51100000000E-03 0. -1.
         11   -1    0    0    0    0 -0.00000000000E+00 -0.00000000000E+00 -0.45593999997E+02  0.45594000000E+02  0.51100000000E-03 0.  1.
    9900012    2    1    2    0    0 -0.16555323438E+02  0.22509603038E+01  0.37067779343E+02  0.50528858078E+02  0.29999994614E+02 0.  0.
        -12    1    1    2    0    0  0.16555323438E+02 -0.22509603038E+01 -0.37067779343E+02  0.40659141922E+02  0.00000000000E+00 0.  1.
         11    1    3    3    0    0 -0.52698859770E+01 -0.45292116582E+01  0.25610199649E+02  0.26536159911E+02  0.51100000000E-03 0. -1.
        -11    1    3    3    0    0 -0.97509658889E+01  0.18861177128E+01 -0.15116724759E+01  0.10046090271E+02  0.51100000000E-03 0.  1.
        -12    1    3    3    0    0 -0.15344715719E+01  0.48940542492E+01  0.12969252169E+02  0.13946607897E+02  0.00000000000E+00 0.  1.
</event>
<event>
 7    1  0.9953837E-014  0.5052886E+02  0.7816164E-02  0.1300439E+00
        -11   -1    0    0    0    0  0.00000000000E+00  0.00000000000E+00  0.45593999997E+02  0.45594000000E+02  0.51100000000E-03 0. -1.
         11   -1    0    0    0    0 -0.00000000000E+00 -0.00000000000E+00 -0.45593999997E+02  0.45594000000E+02  0.51100000000E-03 0.  1.
    9900012    2    1    2    0    0  0.28979031792E+02 -0.17285833360E+01 -0.28467408189E+02  0.50528860647E+02  0.30000002422E+02 0.  0.
         12    1    1    2    0    0 -0.28979031792E+02  0.17285833360E+01  0.28467408189E+02  0.40659139353E+02  0.00000000000E+00 0. -1.
         11    1    3    3    0    0 -0.31671712785E+01 -0.26565308084E+01 -0.25333843646E+01  0.48483158358E+01  0.51100000000E-03 0. -1.
        -11    1    3    3    0    0  0.30240499175E+02 -0.70968237000E+00 -0.13727344401E+02  0.33217938287E+02  0.51100000000E-03 0.  1.
         12    1    3    3    0    0  0.19057038948E+01  0.16376298425E+01 -0.12206679423E+02  0.12462606524E+02  0.00000000000E+00 0. -1.
</event>
<event>
 7    1  0.9953837E-014  0.5052886E+02  0.7816164E-02  0.1300439E+00
        -11   -1    0    0    0    0  0.00000000000E+00  0.00000000000E+00  0.45593999997E+02  0.45594000000E+02  0.51100000000E-03 0. -1.
         11   -1    0    0    0    0 -0.00000000000E+00 -0.00000000000E+00 -0.45593999997E+02  0.45594000000E+02  0.51100000000E-03 0.  1.
    9900012    2    1    2    0    0 -0.74275315222E+01 -0.34159246670E+02 -0.20763996620E+02  0.50528856954E+02  0.29999991198E+02 0.  0.
         12    1    1    2    0    0  0.74275315222E+01  0.34159246670E+02  0.20763996620E+02  0.40659143046E+02  0.00000000000E+00 0. -1.
         11    1    3    3    0    0 -0.82518038042E+01 -0.41181736459E+01 -0.93206741225E+01  0.13112077889E+02  0.51100000000E-03 0. -1.
        -11    1    3    3    0    0  0.33662973522E+01 -0.30266660309E+02 -0.14250810861E+02  0.33622734787E+02  0.51100000000E-03 0.  1.
        -12    1    3    3    0    0 -0.25420250702E+01  0.22558728491E+00  0.28074883628E+01  0.37940442786E+01  0.00000000000E+00 0.  1.
</event>
<event>
 7    1  0.9953837E-014  0.5052885E+02  0.7816164E-02  0.1300439E+00
        -11   -1    0    0    0    0  0.00000000000E+00  0.00000000000E+00  0.45593999997E+02  0.45594000000E+02  0.51100000000E-03 0. -1.
         11   -1    0    0    0    0 -0.00000000000E+00 -0.00000000000E+00 -0.45593999997E+02  0.45594000000E+02  0.51100000000E-03 0.  1.
    9900012    2    1    2    0    0  0.25845446715E+01  0.33187490378E+02 -0.23346877438E+02  0.50528854966E+02  0.29999985155E+02 0.  0.
         12    1    1    2    0    0 -0.25845446715E+01 -0.33187490378E+02  0.23346877438E+02  0.40659145034E+02  0.00000000000E+00 0. -1.
         11    1    3    3    0    0  0.32397027324E+01  0.28986906244E+02 -0.31674653757E+01  0.29338869176E+02  0.51100000000E-03 0. -1.
        -11    1    3    3    0    0  0.78628418014E+00  0.47539970077E+01 -0.13492162766E+02  0.14326799598E+02  0.51100000000E-03 0.  1.
         12    1    3    3    0    0 -0.14414422410E+01 -0.55341287345E+00 -0.66872492971E+01  0.68631861918E+01  0.00000000000E+00 0. -1.
</event>
<event>
 7    1  0.1088211E-013  0.5052884E+02  0.7816164E-02  0.1300439E+00
        -11   -1    0    0    0    0  0.00000000000E+00  0.00000000000E+00  0.45593999997E+02  0.45594000000E+02  0.51100000000E-03 0. -1.
         11   -1    0    0    0    0 -0.00000000000E+00 -0.00000000000E+00 -0.45593999997E+02  0.45594000000E+02  0.51100000000E-03 0.  1.
    9900012    2    1    2    0    0 -0.75699793739E+01 -0.75775341313E+00  0.39941066591E+02  0.50528836477E+02  0.29999928955E+02 0.  0.
        -12    1    1    2    0    0  0.75699793739E+01  0.75775341313E+00 -0.39941066591E+02  0.40659163523E+02  0.00000000000E+00 0.  1.
         11    1    3    3    0    0  0.16385019671E+01  0.12158563063E+02  0.25399856078E+02  0.28207588225E+02  0.51100000000E-03 0. -1.
        -11    1    3    3    0    0 -0.65934811252E+00 -0.48537064499E+01  0.25124528944E+01  0.55050545904E+01  0.51100000000E-03 0.  1.
         12    1    3    3    0    0 -0.85491332284E+01 -0.80626100264E+01  0.12028757619E+02  0.16816193661E+02  0.00000000000E+00 0. -1.
</event>
<event>
 7    1  0.9953837E-014  0.5052889E+02  0.7816164E-02  0.1300439E+00
        -11   -1    0    0    0    0  0.00000000000E+00  0.00000000000E+00  0.45593999997E+02  0.45594000000E+02  0.51100000000E-03 0.  1.
         11   -1    0    0    0    0 -0.00000000000E+00 -0.00000000000E+00 -0.45593999997E+02  0.45594000000E+02  0.51100000000E-03 0. -1.
    9900012    2    1    2    0    0  0.40516340624E+02 -0.33855408475E+01 -0.35737478948E+00  0.50528887108E+02  0.30000082854E+02 0.  0.
        -12    1    1    2    0    0 -0.40516340624E+02  0.33855408475E+01  0.35737478948E+00  0.40659112892E+02  0.00000000000E+00 0.  1.
         11    1    3    3    0    0 -0.19457606224E+00 -0.12925049061E+01  0.81661310615E+01  0.82700740958E+01  0.51100000000E-03 0. -1.
        -11    1    3    3    0    0  0.13194013239E+02  0.23163837792E+01 -0.12294352830E+01  0.13452105060E+02  0.51100000000E-03 0.  1.
         12    1    3    3    0    0  0.27516903448E+02 -0.44094197206E+01 -0.72940705679E+01  0.28806707953E+02  0.00000000000E+00 0. -1.
</event>
<event>
 7    1  0.9953837E-014  0.5052886E+02  0.7816164E-02  0.1300439E+00
        -11   -1    0    0    0    0  0.00000000000E+00  0.00000000000E+00  0.45593999997E+02  0.45594000000E+02  0.51100000000E-03 0. -1.
         11   -1    0    0    0    0 -0.00000000000E+00 -0.00000000000E+00 -0.45593999997E+02  0.45594000000E+02  0.51100000000E-03 0.  1.
    9900012    2    1    2    0    0 -0.32628764359E+02 -0.22970017797E+02 -0.78043544247E+01  0.50528856758E+02  0.29999990603E+02 0.  0.
         12    1    1    2    0    0  0.32628764359E+02  0.22970017797E+02  0.78043544247E+01  0.40659143242E+02  0.00000000000E+00 0. -1.
         11    1    3    3    0    0  0.47959322851E+01 -0.21600893497E+01  0.25487365304E+01  0.58449132281E+01  0.51100000000E-03 0. -1.
        -11    1    3    3    0    0 -0.86081800855E+01 -0.50892762653E+01 -0.57546592245E+01  0.11537660089E+02  0.51100000000E-03 0.  1.
         12    1    3    3    0    0 -0.28816516558E+02 -0.15720652182E+02 -0.45984317306E+01  0.33146283441E+02  0.00000000000E+00 0. -1.
</event>
<event>
 7    1  0.9953837E-014  0.5052887E+02  0.7816164E-02  0.1300439E+00
        -11   -1    0    0    0    0  0.00000000000E+00  0.00000000000E+00  0.45593999997E+02  0.45594000000E+02  0.51100000000E-03 0. -1.
         11   -1    0    0    0    0 -0.00000000000E+00 -0.00000000000E+00 -0.45593999997E+02  0.45594000000E+02  0.51100000000E-03 0.  1.
    9900012    2    1    2    0    0 -0.36701425025E+02 -0.49576347008E+00 -0.17490707957E+02  0.50528865170E+02  0.30000016170E+02 0.  0.
         12    1    1    2    0    0  0.36701425025E+02  0.49576347008E+00  0.17490707957E+02  0.40659134830E+02  0.00000000000E+00 0. -1.
         11    1    3    3    0    0 -0.95488481072E+01 -0.11118057389E+02  0.62120772708E+00  0.14668933144E+02  0.51100000000E-03 0. -1.
        -11    1    3    3    0    0 -0.23335697187E+02  0.11043087024E+02 -0.18828865562E+02  0.31953571207E+02  0.51100000000E-03 0.  1.
        -12    1    3    3    0    0 -0.38168797313E+01 -0.42079310536E+00  0.71694987841E+00  0.39063608191E+01  0.00000000000E+00 0.  1.
</event>
<event>
 7    1  0.9953837E-014  0.5052886E+02  0.7816164E-02  0.1300439E+00
        -11   -1    0    0    0    0  0.00000000000E+00  0.00000000000E+00  0.45593999997E+02  0.45594000000E+02  0.51100000000E-03 0. -1.
         11   -1    0    0    0    0 -0.00000000000E+00 -0.00000000000E+00 -0.45593999997E+02  0.45594000000E+02  0.51100000000E-03 0.  1.
    9900012    2    1    2    0    0 -0.12246092969E+02  0.63191030375E+01 -0.38252682577E+02  0.50528861045E+02  0.30000003634E+02 0.  0.
         12    1    1    2    0    0  0.12246092969E+02 -0.63191030375E+01  0.38252682577E+02  0.40659138955E+02  0.00000000000E+00 0. -1.
         11    1    3    3    0    0  0.18373849544E+01 -0.92191857921E+01 -0.14326413748E+02  0.17135212321E+02  0.51100000000E-03 0. -1.
        -11    1    3    3    0    0 -0.97589996997E+01  0.11119035067E+02 -0.22691752141E+02  0.27088496293E+02  0.51100000000E-03 0.  1.
         12    1    3    3    0    0 -0.43244782234E+01  0.44192537631E+01 -0.12345166878E+01  0.63051524311E+01  0.00000000000E+00 0. -1.
</event>
<event>
 7    1  0.9953837E-014  0.5052886E+02  0.7816164E-02  0.1300439E+00
        -11   -1    0    0    0    0  0.00000000000E+00  0.00000000000E+00  0.45593999997E+02  0.45594000000E+02  0.51100000000E-03 0. -1.
         11   -1    0    0    0    0 -0.00000000000E+00 -0.00000000000E+00 -0.45593999997E+02  0.45594000000E+02  0.51100000000E-03 0.  1.
    9900012    2    1    2    0    0 -0.20534087976E+02  0.31547532912E+02  0.15371069260E+02  0.50528863609E+02  0.30000011426E+02 0.  0.
        -12    1    1    2    0    0  0.20534087976E+02 -0.31547532912E+02 -0.15371069260E+02  0.40659136391E+02  0.00000000000E+00 0.  1.
         11    1    3    3    0    0  0.29634414412E+01  0.32969477504E+00  0.46533126891E+01  0.55266629229E+01  0.51100000000E-03 0. -1.
        -11    1    3    3    0    0 -0.25035503404E+02  0.20655233275E+02  0.48351344916E+01  0.32814533642E+02  0.51100000000E-03 0.  1.
         12    1    3    3    0    0  0.15379739863E+01  0.10562604862E+02  0.58826220789E+01  0.12187667044E+02  0.00000000000E+00 0. -1.
</event>
<event>
 7    1  0.9953837E-014  0.5052886E+02  0.7816164E-02  0.1300439E+00
        -11   -1    0    0    0    0  0.00000000000E+00  0.00000000000E+00  0.45593999997E+02  0.45594000000E+02  0.51100000000E-03 0.  1.
         11   -1    0    0    0    0 -0.00000000000E+00 -0.00000000000E+00 -0.45593999997E+02  0.45594000000E+02  0.51100000000E-03 0. -1.
    9900012    2    1    2    0    0 -0.20268632458E+02  0.32921312598E+02 -0.12591079237E+02  0.50528861282E+02  0.30000004353E+02 0.  0.
         12    1    1    2    0    0  0.20268632458E+02 -0.32921312598E+02  0.12591079237E+02  0.40659138718E+02  0.00000000000E+00 0. -1.
         11    1    3    3    0    0 -0.87223859863E+01  0.20711040067E+00 -0.47438275673E+01  0.99311032752E+01  0.51100000000E-03 0. -1.
        -11    1    3    3    0    0 -0.13609858380E+02  0.22258511198E+02  0.18952011845E+01  0.26158389738E+02  0.51100000000E-03 0.  1.
         12    1    3    3    0    0  0.20636119084E+01  0.10455691000E+02 -0.97424528546E+01  0.14439368269E+02  0.00000000000E+00 0. -1.
</event>
<event>
 7    1  0.1023289E-013  0.5052885E+02  0.7816164E-02  0.1300439E+00
        -11   -1    0    0    0    0  0.00000000000E+00  0.00000000000E+00  0.45593999997E+02  0.45594000000E+02  0.51100000000E-03 0. -1.
         11   -1    0    0    0    0 -0.00000000000E+00 -0.00000000000E+00 -0.45593999997E+02  0.45594000000E+02  0.51100000000E-03 0.  1.
    9900012    2    1    2    0    0 -0.27090346866E+02  0.21640584777E+02  0.21235927811E+02  0.50528850565E+02  0.29999971776E+02 0.  0.
        -12    1    1    2    0    0  0.27090346866E+02 -0.21640584777E+02 -0.21235927811E+02  0.40659149435E+02  0.00000000000E+00 0.  1.
         11    1    3    3    0    0 -0.13813368426E+02  0.18592689597E+02  0.90582584672E+01  0.24870651388E+02  0.51100000000E-03 0. -1.
        -11    1    3    3    0    0 -0.11336558943E+02 -0.53148138191E+01  0.25843511711E+01  0.12784509605E+02  0.51100000000E-03 0.  1.
         12    1    3    3    0    0 -0.19404194967E+01  0.83627089986E+01  0.95933181731E+01  0.12873689572E+02  0.00000000000E+00 0. -1.
</event>
<event>
 7    1  0.9953837E-014  0.5052884E+02  0.7816164E-02  0.1300439E+00
        -11   -1    0    0    0    0  0.00000000000E+00  0.00000000000E+00  0.45593999997E+02  0.45594000000E+02  0.51100000000E-03 0. -1.
         11   -1    0    0    0    0 -0.00000000000E+00 -0.00000000000E+00 -0.45593999997E+02  0.45594000000E+02  0.51100000000E-03 0.  1.
    9900012    2    1    2    0    0  0.13309546808E+01 -0.37172599581E+02 -0.16419306854E+02  0.50528840668E+02  0.29999941695E+02 0.  0.
         12    1    1    2    0    0 -0.13309546808E+01  0.37172599581E+02  0.16419306854E+02  0.40659159332E+02  0.00000000000E+00 0. -1.
         11    1    3    3    0    0 -0.41628560796E+01  0.11279201764E+01 -0.51007420779E+01  0.66797563332E+01  0.51100000000E-03 0. -1.
        -11    1    3    3    0    0  0.76493271868E+01 -0.37191199643E+02 -0.13781337716E+02  0.40393351022E+02  0.51100000000E-03 0.  1.
        -12    1    3    3    0    0 -0.21555164263E+01 -0.11093201147E+01  0.24627729392E+01  0.34557333131E+01  0.00000000000E+00 0.  1.
</event>
<event>
 7    1  0.9953837E-014  0.5052885E+02  0.7816164E-02  0.1300439E+00
        -11   -1    0    0    0    0  0.00000000000E+00  0.00000000000E+00  0.45593999997E+02  0.45594000000E+02  0.51100000000E-03 0. -1.
         11   -1    0    0    0    0 -0.00000000000E+00 -0.00000000000E+00 -0.45593999997E+02  0.45594000000E+02  0.51100000000E-03 0.  1.
    9900012    2    1    2    0    0  0.10496087959E+02  0.20051823673E+02 -0.33777553299E+02  0.50528848485E+02  0.29999965456E+02 0.  0.
         12    1    1    2    0    0 -0.10496087959E+02 -0.20051823673E+02  0.33777553299E+02  0.40659151515E+02  0.00000000000E+00 0. -1.
         11    1    3    3    0    0  0.57674319074E+01  0.21065481966E+02 -0.11797506079E+02  0.24823354954E+02  0.51100000000E-03 0. -1.
        -11    1    3    3    0    0 -0.16757173452E+01  0.27902624065E+01 -0.15482646677E+02  0.15821060057E+02  0.51100000000E-03 0.  1.
         12    1    3    3    0    0  0.64043733970E+01 -0.38039206995E+01 -0.64974005426E+01  0.98844334742E+01  0.00000000000E+00 0. -1.
</event>
<event>
 7    1  0.1439993E-013  0.5052886E+02  0.7816164E-02  0.1300439E+00
        -11   -1    0    0    0    0  0.00000000000E+00  0.00000000000E+00  0.45593999997E+02  0.45594000000E+02  0.51100000000E-03 0. -1.
         11   -1    0    0    0    0 -0.00000000000E+00 -0.00000000000E+00 -0.45593999997E+02  0.45594000000E+02  0.51100000000E-03 0.  1.
    9900012    2    1    2    0    0 -0.15839510785E+02 -0.15039970692E+02  0.34293953553E+02  0.50528855019E+02  0.29999985315E+02 0.  0.
        -12    1    1    2    0    0  0.15839510785E+02  0.15039970692E+02 -0.34293953553E+02  0.40659144981E+02  0.00000000000E+00 0.  1.
         11    1    3    3    0    0 -0.12656728236E+02 -0.12464022632E+02  0.62957540973E+01  0.18846250283E+02  0.51100000000E-03 0. -1.
        -11    1    3    3    0    0  0.72771074001E+00  0.56037678252E+01  0.89127751301E+01  0.10553167181E+02  0.51100000000E-03 0.  1.
         12    1    3    3    0    0 -0.39104932891E+01 -0.81797158850E+01  0.19085424325E+02  0.21129437555E+02  0.00000000000E+00 0. -1.
</event>
<event>
 7    1  0.9953837E-014  0.5052887E+02  0.7816164E-02  0.1300439E+00
        -11   -1    0    0    0    0  0.00000000000E+00  0.00000000000E+00  0.45593999997E+02  0.45594000000E+02  0.51100000000E-03 0. -1.
         11   -1    0    0    0    0 -0.00000000000E+00 -0.00000000000E+00 -0.45593999997E+02  0.45594000000E+02  0.51100000000E-03 0.  1.
    9900012    2    1    2    0    0  0.14472994568E+02  0.14458574454E+02  0.35137542209E+02  0.50528870404E+02  0.30000032081E+02 0.  0.
        -12    1    1    2    0    0 -0.14472994568E+02 -0.14458574454E+02 -0.35137542209E+02  0.40659129596E+02  0.00000000000E+00 0.  1.
         11    1    3    3    0    0 -0.21266342748E+01  0.44703259674E+01 -0.21331541335E+01  0.53904298912E+01  0.51100000000E-03 0. -1.
        -11    1    3    3    0    0  0.15132169974E+02  0.43187008831E+01  0.35791487648E+02  0.39098137216E+02  0.51100000000E-03 0.  1.
         12    1    3    3    0    0  0.14674588687E+01  0.56695476039E+01  0.14792086945E+01  0.60403032976E+01  0.00000000000E+00 0. -1.
</event>
<event>
 7    1  0.9953837E-014  0.5052883E+02  0.7816164E-02  0.1300439E+00
        -11   -1    0    0    0    0  0.00000000000E+00  0.00000000000E+00  0.45593999997E+02  0.45594000000E+02  0.51100000000E-03 0. -1.
         11   -1    0    0    0    0 -0.00000000000E+00 -0.00000000000E+00 -0.45593999997E+02  0.45594000000E+02  0.51100000000E-03 0.  1.
    9900012    2    1    2    0    0 -0.39814455369E+01 -0.10006853825E+02  0.39206871982E+02  0.50528833228E+02  0.29999919078E+02 0.  0.
        -12    1    1    2    0    0  0.39814455369E+01  0.10006853825E+02 -0.39206871982E+02  0.40659166772E+02  0.00000000000E+00 0.  1.
         11    1    3    3    0    0  0.13034407445E+01 -0.99713215537E+01  0.24867180482E+02  0.26823550784E+02  0.51100000000E-03 0. -1.
        -11    1    3    3    0    0 -0.99197434612E+01 -0.28097375555E+01  0.23782789764E+01  0.10580744143E+02  0.51100000000E-03 0.  1.
        -12    1    3    3    0    0  0.46348571798E+01  0.27742052844E+01  0.11961412524E+02  0.13124538300E+02  0.00000000000E+00 0.  1.
</event>
<event>
 7    1  0.9953837E-014  0.5052886E+02  0.7816164E-02  0.1300439E+00
        -11   -1    0    0    0    0  0.00000000000E+00  0.00000000000E+00  0.45593999997E+02  0.45594000000E+02  0.51100000000E-03 0. -1.
         11   -1    0    0    0    0 -0.00000000000E+00 -0.00000000000E+00 -0.45593999997E+02  0.45594000000E+02  0.51100000000E-03 0.  1.
    9900012    2    1    2    0    0 -0.11606528896E+02  0.38598405013E+02  0.53495374879E+01  0.50528856699E+02  0.29999990424E+02 0.  0.
         12    1    1    2    0    0  0.11606528896E+02 -0.38598405013E+02 -0.53495374879E+01  0.40659143301E+02  0.00000000000E+00 0. -1.
         11    1    3    3    0    0  0.89356620573E+01  0.14029148266E+02 -0.39545712945E+01  0.17096832802E+02  0.51100000000E-03 0. -1.
        -11    1    3    3    0    0 -0.56504209438E+01  0.78813971903E+01  0.19851229747E+01  0.98987065821E+01  0.51100000000E-03 0.  1.
         12    1    3    3    0    0 -0.14891770010E+02  0.16687859558E+02  0.73189858077E+01  0.23533317316E+02  0.00000000000E+00 0. -1.
</event>
<event>
 7    1  0.9953837E-014  0.5052886E+02  0.7816164E-02  0.1300439E+00
        -11   -1    0    0    0    0  0.00000000000E+00  0.00000000000E+00  0.45593999997E+02  0.45594000000E+02  0.51100000000E-03 0. -1.
         11   -1    0    0    0    0 -0.00000000000E+00 -0.00000000000E+00 -0.45593999997E+02  0.45594000000E+02  0.51100000000E-03 0.  1.
    9900012    2    1    2    0    0  0.19445402386E+02  0.14444047780E+02  0.32655957121E+02  0.50528859260E+02  0.29999998206E+02 0.  0.
        -12    1    1    2    0    0 -0.19445402386E+02 -0.14444047780E+02 -0.32655957121E+02  0.40659140740E+02  0.00000000000E+00 0.  1.
         11    1    3    3    0    0 -0.53493100398E+01  0.11311905819E+01  0.11008304160E+02  0.12291357564E+02  0.51100000000E-03 0.  1.
        -11    1    3    3    0    0  0.23499818635E+02  0.68873870123E+01  0.14165193639E+02  0.28290109346E+02  0.51100000000E-03 0. -1.
         12    1    3    3    0    0  0.12948937910E+01  0.64254701857E+01  0.74824593220E+01  0.99473923489E+01  0.00000000000E+00 0. -1.
</event>
<event>
 7    1  0.9953837E-014  0.5052891E+02  0.7816164E-02  0.1300439E+00
        -11   -1    0    0    0    0  0.00000000000E+00  0.00000000000E+00  0.45593999997E+02  0.45594000000E+02  0.51100000000E-03 0. -1.
         11   -1    0    0    0    0 -0.00000000000E+00 -0.00000000000E+00 -0.45593999997E+02  0.45594000000E+02  0.51100000000E-03 0.  1.
    9900012    2    1    2    0    0  0.14808083483E+02  0.33178048202E+01 -0.37721011957E+02  0.50528906204E+02  0.30000140896E+02 0.  0.
         12    1    1    2    0    0 -0.14808083483E+02 -0.33178048202E+01  0.37721011957E+02  0.40659093796E+02  0.00000000000E+00 0. -1.
         11    1    3    3    0    0  0.80992045704E+01  0.37555418817E+01  0.86535432039E+00  0.89693950665E+01  0.51100000000E-03 0. -1.
        -11    1    3    3    0    0  0.10732552161E+02 -0.23356963393E+01 -0.27036535800E+02  0.29182484843E+02  0.51100000000E-03 0.  1.
        -12    1    3    3    0    0 -0.40236732483E+01  0.18979592778E+01 -0.11549830477E+02  0.12377026294E+02  0.00000000000E+00 0.  1.
</event>
<event>
 7    1  0.9953837E-014  0.5052886E+02  0.7816164E-02  0.1300439E+00
        -11   -1    0    0    0    0  0.00000000000E+00  0.00000000000E+00  0.45593999997E+02  0.45594000000E+02  0.51100000000E-03 0.  1.
         11   -1    0    0    0    0 -0.00000000000E+00 -0.00000000000E+00 -0.45593999997E+02  0.45594000000E+02  0.51100000000E-03 0. -1.
    9900012    2    1    2    0    0 -0.93434937281E+01  0.38413716299E+02 -0.95000581170E+01  0.50528861062E+02  0.30000003684E+02 0.  0.
        -12    1    1    2    0    0  0.93434937281E+01 -0.38413716299E+02  0.95000581170E+01  0.40659138938E+02  0.00000000000E+00 0.  1.
         11    1    3    3    0    0 -0.64101429621E+00  0.12200701686E+02 -0.11997690351E+02  0.17123451608E+02  0.51100000000E-03 0. -1.
        -11    1    3    3    0    0 -0.34344598694E+01  0.13516384249E+02  0.10538747073E+02  0.17480084321E+02  0.51100000000E-03 0.  1.
        -12    1    3    3    0    0 -0.52680195625E+01  0.12696630364E+02 -0.80411148386E+01  0.15925325132E+02  0.00000000000E+00 0.  1.
</event>
<event>
 7    1  0.9953837E-014  0.5052885E+02  0.7816164E-02  0.1300439E+00
        -11   -1    0    0    0    0  0.00000000000E+00  0.00000000000E+00  0.45593999997E+02  0.45594000000E+02  0.51100000000E-03 0. -1.
         11   -1    0    0    0    0 -0.00000000000E+00 -0.00000000000E+00 -0.45593999997E+02  0.45594000000E+02  0.51100000000E-03 0.  1.
    9900012    2    1    2    0    0  0.20243965878E+02 -0.15821321890E+02 -0.31512446994E+02  0.50528847324E+02  0.29999961925E+02 0.  0.
         12    1    1    2    0    0 -0.20243965878E+02  0.15821321890E+02  0.31512446994E+02  0.40659152676E+02  0.00000000000E+00 0. -1.
         11    1    3    3    0    0  0.10788737133E+02  0.33137103705E+01 -0.32268525949E+01  0.11738402927E+02  0.51100000000E-03 0. -1.
        -11    1    3    3    0    0  0.97197546942E+01 -0.13001696745E+02 -0.28329951875E+02  0.32651246883E+02  0.51100000000E-03 0.  1.
        -12    1    3    3    0    0 -0.26452594847E+00 -0.61333355156E+01  0.44357475812E-01  0.61391975135E+01  0.00000000000E+00 0.  1.
</event>
<event>
 7    1  0.9953837E-014  0.5052887E+02  0.7816164E-02  0.1300439E+00
        -11   -1    0    0    0    0  0.00000000000E+00  0.00000000000E+00  0.45593999997E+02  0.45594000000E+02  0.51100000000E-03 0.  1.
         11   -1    0    0    0    0 -0.00000000000E+00 -0.00000000000E+00 -0.45593999997E+02  0.45594000000E+02  0.51100000000E-03 0. -1.
    9900012    2    1    2    0    0  0.33246183658E+01 -0.25094014398E+02 -0.31818274721E+02  0.50528865084E+02  0.30000015911E+02 0.  0.
         12    1    1    2    0    0 -0.33246183658E+01  0.25094014398E+02  0.31818274721E+02  0.40659134916E+02  0.00000000000E+00 0. -1.
         11    1    3    3    0    0 -0.25254126439E+01  0.11712252729E+01 -0.14374385885E+02  0.14641463298E+02  0.51100000000E-03 0. -1.
        -11    1    3    3    0    0  0.23865079893E+01 -0.27555865503E+02 -0.15637034227E+02  0.31773227468E+02  0.51100000000E-03 0.  1.
         12    1    3    3    0    0  0.34635230204E+01  0.12906258327E+01 -0.18068546084E+01  0.41141743192E+01  0.00000000000E+00 0. -1.
</event>
<event>
 7    1  0.9953837E-014  0.5052887E+02  0.7816164E-02  0.1300439E+00
        -11   -1    0    0    0    0  0.00000000000E+00  0.00000000000E+00  0.45593999997E+02  0.45594000000E+02  0.51100000000E-03 0. -1.
         11   -1    0    0    0    0 -0.00000000000E+00 -0.00000000000E+00 -0.45593999997E+02  0.45594000000E+02  0.51100000000E-03 0.  1.
    9900012    2    1    2    0    0  0.28289242730E+02 -0.22101399850E+02  0.19089576448E+02  0.50528867464E+02  0.30000023144E+02 0.  0.
        -12    1    1    2    0    0 -0.28289242730E+02  0.22101399850E+02 -0.19089576448E+02  0.40659132536E+02  0.00000000000E+00 0.  1.
         11    1    3    3    0    0  0.15961508117E+02 -0.16127725435E+01  0.13068844314E+01  0.16095922584E+02  0.51100000000E-03 0. -1.
        -11    1    3    3    0    0  0.10100555949E+02 -0.23172606057E+02  0.17848764958E+02  0.30944616862E+02  0.51100000000E-03 0.  1.
        -12    1    3    3    0    0  0.22271786645E+01  0.26839787500E+01 -0.66072940908E-01  0.34883280189E+01  0.00000000000E+00 0.  1.
</event>
<event>
 7    1  0.9953837E-014  0.5052887E+02  0.7816164E-02  0.1300439E+00
        -11   -1    0    0    0    0  0.00000000000E+00  0.00000000000E+00  0.45593999997E+02  0.45594000000E+02  0.51100000000E-03 0. -1.
         11   -1    0    0    0    0 -0.00000000000E+00 -0.00000000000E+00 -0.45593999997E+02  0.45594000000E+02  0.51100000000E-03 0.  1.
    9900012    2    1    2    0    0  0.23670785920E+02 -0.11908781498E+02  0.30838931891E+02  0.50528869378E+02  0.30000028960E+02 0.  0.
        -12    1    1    2    0    0 -0.23670785920E+02  0.11908781498E+02 -0.30838931891E+02  0.40659130622E+02  0.00000000000E+00 0.  1.
         11    1    3    3    0    0  0.16319641091E+02 -0.15487344979E+02  0.29259651149E+02  0.36909561437E+02  0.51100000000E-03 0. -1.
        -11    1    3    3    0    0  0.92883238594E+01  0.51431459210E+01 -0.96853586296E-01  0.10617640555E+02  0.51100000000E-03 0.  1.
        -12    1    3    3    0    0 -0.19371790308E+01 -0.15645824399E+01  0.16761343280E+01  0.30016673857E+01  0.00000000000E+00 0.  1.
</event>
<event>
 7    1  0.9953837E-014  0.5052888E+02  0.7816164E-02  0.1300439E+00
        -11   -1    0    0    0    0  0.00000000000E+00  0.00000000000E+00  0.45593999997E+02  0.45594000000E+02  0.51100000000E-03 0. -1.
         11   -1    0    0    0    0 -0.00000000000E+00 -0.00000000000E+00 -0.45593999997E+02  0.45594000000E+02  0.51100000000E-03 0.  1.
    9900012    2    1    2    0    0 -0.83164864940E+01  0.27685342303E+02  0.28592343728E+02  0.50528877458E+02  0.30000053520E+02 0.  0.
        -12    1    1    2    0    0  0.83164864940E+01 -0.27685342303E+02 -0.28592343728E+02  0.40659122542E+02  0.00000000000E+00 0.  1.
         11    1    3    3    0    0  0.16652011853E+01 -0.39542748745E+00 -0.41476615350E+01  0.44869092208E+01  0.51100000000E-03 0. -1.
        -11    1    3    3    0    0 -0.40460233647E+01  0.40645630850E+01  0.13611638109E+02  0.14770500005E+02  0.51100000000E-03 0.  1.
         12    1    3    3    0    0 -0.59356643146E+01  0.24016206706E+02  0.19128367154E+02  0.31271468232E+02  0.00000000000E+00 0. -1.
</event>
<event>
 7    1  0.9953837E-014  0.5052886E+02  0.7816164E-02  0.1300439E+00
        -11   -1    0    0    0    0  0.00000000000E+00  0.00000000000E+00  0.45593999997E+02  0.45594000000E+02  0.51100000000E-03 0. -1.
         11   -1    0    0    0    0 -0.00000000000E+00 -0.00000000000E+00 -0.45593999997E+02  0.45594000000E+02  0.51100000000E-03 0.  1.
    9900012    2    1    2    0    0  0.32228329758E+02  0.18378421882E+01  0.24720901087E+02  0.50528857689E+02  0.29999993433E+02 0.  0.
        -12    1    1    2    0    0 -0.32228329758E+02 -0.18378421882E+01 -0.24720901087E+02  0.40659142311E+02  0.00000000000E+00 0.  1.
         11    1    3    3    0    0  0.15557945534E+02 -0.12628817034E+02  0.14262247223E+02  0.24595698506E+02  0.51100000000E-03 0. -1.
        -11    1    3    3    0    0  0.15806368097E+02  0.15512499210E+02  0.89034762349E+01  0.23869453146E+02  0.51100000000E-03 0.  1.
        -12    1    3    3    0    0  0.86401612671E+00 -0.10458399875E+01  0.15551776295E+01  0.20637060367E+01  0.00000000000E+00 0.  1.
</event>
<event>
 7    1  0.9953837E-014  0.5052899E+02  0.7816164E-02  0.1300438E+00
        -11   -1    0    0    0    0  0.00000000000E+00  0.00000000000E+00  0.45593999997E+02  0.45594000000E+02  0.51100000000E-03 0. -1.
         11   -1    0    0    0    0 -0.00000000000E+00 -0.00000000000E+00 -0.45593999997E+02  0.45594000000E+02  0.51100000000E-03 0.  1.
    9900012    2    1    2    0    0  0.31177508927E+02 -0.14269135518E+01  0.26059196113E+02  0.50528993037E+02  0.30000404831E+02 0.  0.
        -12    1    1    2    0    0 -0.31177508927E+02  0.14269135518E+01 -0.26059196113E+02  0.40659006963E+02  0.00000000000E+00 0.  1.
         11    1    3    3    0    0  0.17791477203E+02  0.24344629903E+01  0.24953370236E+02  0.30743031039E+02  0.51100000000E-03 0. -1.
        -11    1    3    3    0    0  0.31495572728E+01 -0.22503796047E+00 -0.60174583316E+01  0.67955984381E+01  0.51100000000E-03 0.  1.
        -12    1    3    3    0    0  0.10236474451E+02 -0.36363385816E+01  0.71232842091E+01  0.12990363559E+02  0.00000000000E+00 0.  1.
</event>
<event>
 7    1  0.9953837E-014  0.5052886E+02  0.7816164E-02  0.1300439E+00
        -11   -1    0    0    0    0  0.00000000000E+00  0.00000000000E+00  0.45593999997E+02  0.45594000000E+02  0.51100000000E-03 0. -1.
         11   -1    0    0    0    0 -0.00000000000E+00 -0.00000000000E+00 -0.45593999997E+02  0.45594000000E+02  0.51100000000E-03 0.  1.
    9900012    2    1    2    0    0  0.27818821967E+02  0.42206672303E+01 -0.29350721845E+02  0.50528858834E+02  0.29999996912E+02 0.  0.
         12    1    1    2    0    0 -0.27818821967E+02 -0.42206672303E+01  0.29350721845E+02  0.40659141166E+02  0.00000000000E+00 0. -1.
         11    1    3    3    0    0  0.61222106915E+01  0.10195885337E+02 -0.19888179207E+02  0.23172768802E+02  0.51100000000E-03 0.  1.
        -11    1    3    3    0    0  0.21228299711E+02 -0.16401305054E+01 -0.82079403119E+01  0.22818874230E+02  0.51100000000E-03 0. -1.
        -12    1    3    3    0    0  0.46831156508E+00 -0.43350876016E+01 -0.12546023268E+01  0.45372158020E+01  0.00000000000E+00 0.  1.
</event>
<event>
 7    1  0.9953837E-014  0.5052885E+02  0.7816164E-02  0.1300439E+00
        -11   -1    0    0    0    0  0.00000000000E+00  0.00000000000E+00  0.45593999997E+02  0.45594000000E+02  0.51100000000E-03 0. -1.
         11   -1    0    0    0    0 -0.00000000000E+00 -0.00000000000E+00 -0.45593999997E+02  0.45594000000E+02  0.51100000000E-03 0.  1.
    9900012    2    1    2    0    0  0.29954214617E+02 -0.25121465826E+02  0.11172424308E+02  0.50528854861E+02  0.29999984834E+02 0.  0.
        -12    1    1    2    0    0 -0.29954214617E+02  0.25121465826E+02 -0.11172424308E+02  0.40659145139E+02  0.00000000000E+00 0.  1.
         11    1    3    3    0    0 -0.25342181696E+01  0.36278476666E+01 -0.58183933541E+00  0.44634154743E+01  0.51100000000E-03 0. -1.
        -11    1    3    3    0    0  0.10935783617E+02 -0.41076734544E+01  0.46047524517E+01  0.12556595475E+02  0.51100000000E-03 0.  1.
         12    1    3    3    0    0  0.21552649169E+02 -0.24641640038E+02  0.71495111919E+01  0.33508843911E+02  0.00000000000E+00 0. -1.
</event>
<event>
 7    1  0.9953837E-014  0.5052881E+02  0.7816164E-02  0.1300439E+00
        -11   -1    0    0    0    0  0.00000000000E+00  0.00000000000E+00  0.45593999997E+02  0.45594000000E+02  0.51100000000E-03 0. -1.
         11   -1    0    0    0    0 -0.00000000000E+00 -0.00000000000E+00 -0.45593999997E+02  0.45594000000E+02  0.51100000000E-03 0.  1.
    9900012    2    1    2    0    0 -0.28793327074E+02 -0.24043646931E+02 -0.15684927275E+02  0.50528811797E+02  0.29999853937E+02 0.  0.
         12    1    1    2    0    0  0.28793327074E+02  0.24043646931E+02  0.15684927275E+02  0.40659188203E+02  0.00000000000E+00 0. -1.
         11    1    3    3    0    0 -0.82154928803E+01 -0.17338822629E+02  0.21101441209E+01  0.19302378141E+02  0.51100000000E-03 0. -1.
        -11    1    3    3    0    0 -0.17425514667E+02 -0.71252239286E+01 -0.71857948045E+01  0.20150757421E+02  0.51100000000E-03 0.  1.
         12    1    3    3    0    0 -0.31523195274E+01  0.42039962724E+00 -0.10609276591E+02  0.11075676234E+02  0.00000000000E+00 0. -1.
</event>
<event>
 7    1  0.9953837E-014  0.5052885E+02  0.7816164E-02  0.1300439E+00
        -11   -1    0    0    0    0  0.00000000000E+00  0.00000000000E+00  0.45593999997E+02  0.45594000000E+02  0.51100000000E-03 0.  1.
         11   -1    0    0    0    0 -0.00000000000E+00 -0.00000000000E+00 -0.45593999997E+02  0.45594000000E+02  0.51100000000E-03 0. -1.
    9900012    2    1    2    0    0  0.26700959667E+02 -0.30253999904E+02 -0.49920316225E+01  0.50528854202E+02  0.29999982831E+02 0.  0.
        -12    1    1    2    0    0 -0.26700959667E+02  0.30253999904E+02  0.49920316225E+01  0.40659145798E+02  0.00000000000E+00 0.  1.
         11    1    3    3    0    0  0.18801859051E+02 -0.23508528387E+02 -0.13205093535E+02  0.32871496866E+02  0.51100000000E-03 0. -1.
        -11    1    3    3    0    0  0.86890822475E+01 -0.93491729962E+01  0.57958270971E+01  0.14017802895E+02  0.51100000000E-03 0.  1.
         12    1    3    3    0    0 -0.78998163113E+00  0.26037014791E+01  0.24172348154E+01  0.36395544402E+01  0.00000000000E+00 0. -1.
</event>
<event>
 7    1  0.9953837E-014  0.5052885E+02  0.7816164E-02  0.1300439E+00
        -11   -1    0    0    0    0  0.00000000000E+00  0.00000000000E+00  0.45593999997E+02  0.45594000000E+02  0.51100000000E-03 0. -1.
         11   -1    0    0    0    0 -0.00000000000E+00 -0.00000000000E+00 -0.45593999997E+02  0.45594000000E+02  0.51100000000E-03 0.  1.
    9900012    2    1    2    0    0 -0.11950083218E+02  0.84729497560E+01 -0.37928498698E+02  0.50528851215E+02  0.29999973752E+02 0.  0.
         12    1    1    2    0    0  0.11950083218E+02 -0.84729497560E+01  0.37928498698E+02  0.40659148785E+02  0.00000000000E+00 0. -1.
         11    1    3    3    0    0 -0.12734947250E+02  0.27950664804E+01 -0.23282983132E+02  0.26684987950E+02  0.51100000000E-03 0. -1.
        -11    1    3    3    0    0  0.10475329593E+01 -0.53111117176E+01  0.14574968913E+00  0.54153925260E+01  0.51100000000E-03 0.  1.
        -12    1    3    3    0    0 -0.26266892655E+00  0.10988994993E+02 -0.14791265255E+02  0.18428470739E+02  0.00000000000E+00 0.  1.
</event>
<event>
 7    1  0.9953837E-014  0.5052881E+02  0.7816164E-02  0.1300439E+00
        -11   -1    0    0    0    0  0.00000000000E+00  0.00000000000E+00  0.45593999997E+02  0.45594000000E+02  0.51100000000E-03 0.  1.
         11   -1    0    0    0    0 -0.00000000000E+00 -0.00000000000E+00 -0.45593999997E+02  0.45594000000E+02  0.51100000000E-03 0. -1.
    9900012    2    1    2    0    0 -0.28521776825E+02  0.28969655380E+02  0.66132184518E+00  0.50528806296E+02  0.29999837216E+02 0.  0.
        -12    1    1    2    0    0  0.28521776825E+02 -0.28969655380E+02 -0.66132184518E+00  0.40659193704E+02  0.00000000000E+00 0.  1.
         11    1    3    3    0    0 -0.17757809001E+02  0.31615591887E+02  0.59826913924E+01  0.36751571769E+02  0.51100000000E-03 0. -1.
        -11    1    3    3    0    0 -0.31859725434E+01  0.10740061595E+01  0.66633126183E+00  0.34275221209E+01  0.51100000000E-03 0.  1.
         12    1    3    3    0    0 -0.75779952805E+01 -0.37199426665E+01 -0.59877008090E+01  0.10349712406E+02  0.00000000000E+00 0. -1.
</event>
<event>
 7    1  0.9953837E-014  0.5052887E+02  0.7816164E-02  0.1300439E+00
        -11   -1    0    0    0    0  0.00000000000E+00  0.00000000000E+00  0.45593999997E+02  0.45594000000E+02  0.51100000000E-03 0. -1.
         11   -1    0    0    0    0 -0.00000000000E+00 -0.00000000000E+00 -0.45593999997E+02  0.45594000000E+02  0.51100000000E-03 0.  1.
    9900012    2    1    2    0    0  0.37439427512E+02  0.12372372630E+01  0.15808967966E+02  0.50528868718E+02  0.30000026955E+02 0.  0.
        -12    1    1    2    0    0 -0.37439427512E+02 -0.12372372630E+01 -0.15808967966E+02  0.40659131282E+02  0.00000000000E+00 0.  1.
         11    1    3    3    0    0  0.39999200774E+02  0.39339606422E+01  0.11018405558E+02  0.41675140914E+02  0.51100000000E-03 0. -1.
        -11    1    3    3    0    0 -0.59787813609E+00 -0.27796320505E+01 -0.77912549115E+00  0.29480246596E+01  0.51100000000E-03 0.  1.
         12    1    3    3    0    0 -0.19618951257E+01  0.82908671253E-01  0.55696878996E+01  0.59057031445E+01  0.00000000000E+00 0. -1.
</event>
<event>
 7    1  0.9953837E-014  0.5052886E+02  0.7816164E-02  0.1300439E+00
        -11   -1    0    0    0    0  0.00000000000E+00  0.00000000000E+00  0.45593999997E+02  0.45594000000E+02  0.51100000000E-03 0. -1.
         11   -1    0    0    0    0 -0.00000000000E+00 -0.00000000000E+00 -0.45593999997E+02  0.45594000000E+02  0.51100000000E-03 0.  1.
    9900012    2    1    2    0    0  0.27918421706E+02 -0.13613993510E+02  0.26237123393E+02  0.50528859161E+02  0.29999997905E+02 0.  0.
        -12    1    1    2    0    0 -0.27918421706E+02  0.13613993510E+02 -0.26237123393E+02  0.40659140839E+02  0.00000000000E+00 0.  1.
         11    1    3    3    0    0  0.13180925326E+01 -0.27876112215E+01  0.20117397824E+02  0.20352342365E+02  0.51100000000E-03 0. -1.
        -11    1    3    3    0    0  0.44120652649E+01 -0.37954522959E+01 -0.84563019118E+00  0.58810601691E+01  0.51100000000E-03 0.  1.
         12    1    3    3    0    0  0.22188263909E+02 -0.70309299928E+01  0.69653557597E+01  0.24295456627E+02  0.00000000000E+00 0. -1.
</event>
<event>
 7    1  0.9953837E-014  0.5052886E+02  0.7816164E-02  0.1300439E+00
        -11   -1    0    0    0    0  0.00000000000E+00  0.00000000000E+00  0.45593999997E+02  0.45594000000E+02  0.51100000000E-03 0. -1.
         11   -1    0    0    0    0 -0.00000000000E+00 -0.00000000000E+00 -0.45593999997E+02  0.45594000000E+02  0.51100000000E-03 0.  1.
    9900012    2    1    2    0    0 -0.33880393114E+02  0.17805364686E+02  0.13720551428E+02  0.50528861044E+02  0.30000003629E+02 0.  0.
        -12    1    1    2    0    0  0.33880393114E+02 -0.17805364686E+02 -0.13720551428E+02  0.40659138956E+02  0.00000000000E+00 0.  1.
         11    1    3    3    0    0 -0.20369426072E+02 -0.46863207164E+01  0.63307375544E+01  0.21839261861E+02  0.51100000000E-03 0. -1.
        -11    1    3    3    0    0 -0.69790619810E+01  0.76176719448E+01 -0.10472083528E+01  0.10384261052E+02  0.51100000000E-03 0.  1.
         12    1    3    3    0    0 -0.65319050606E+01  0.14874013458E+02  0.84370222265E+01  0.18305338132E+02  0.00000000000E+00 0. -1.
</event>
<event>
 7    1  0.9953837E-014  0.5052886E+02  0.7816164E-02  0.1300439E+00
        -11   -1    0    0    0    0  0.00000000000E+00  0.00000000000E+00  0.45593999997E+02  0.45594000000E+02  0.51100000000E-03 0. -1.
         11   -1    0    0    0    0 -0.00000000000E+00 -0.00000000000E+00 -0.45593999997E+02  0.45594000000E+02  0.51100000000E-03 0.  1.
    9900012    2    1    2    0    0  0.42948508473E-01  0.21989402927E+02  0.34199851995E+02  0.50528861271E+02  0.30000004320E+02 0.  0.
        -12    1    1    2    0    0 -0.42948508473E-01 -0.21989402927E+02 -0.34199851995E+02  0.40659138729E+02  0.00000000000E+00 0.  1.
         11    1    3    3    0    0  0.76874333986E+01  0.14646900704E+01  0.25222774709E+02  0.26408905951E+02  0.51100000000E-03 0. -1.
        -11    1    3    3    0    0 -0.69697964845E+01  0.13542311202E+02  0.48656098249E+01  0.15988946649E+02  0.51100000000E-03 0.  1.
         12    1    3    3    0    0 -0.67468840568E+00  0.69824016552E+01  0.41114674612E+01  0.81310086708E+01  0.00000000000E+00 0. -1.
</event>
<event>
 7    1  0.9953837E-014  0.5052887E+02  0.7816164E-02  0.1300439E+00
        -11   -1    0    0    0    0  0.00000000000E+00  0.00000000000E+00  0.45593999997E+02  0.45594000000E+02  0.51100000000E-03 0. -1.
         11   -1    0    0    0    0 -0.00000000000E+00 -0.00000000000E+00 -0.45593999997E+02  0.45594000000E+02  0.51100000000E-03 0.  1.
    9900012    2    1    2    0    0  0.21443472896E+02  0.31756905179E+01  0.34398502041E+02  0.50528874545E+02  0.30000044666E+02 0.  0.
        -12    1    1    2    0    0 -0.21443472896E+02 -0.31756905179E+01 -0.34398502041E+02  0.40659125455E+02  0.00000000000E+00 0.  1.
         11    1    3    3    0    0  0.14424476524E+02  0.44431309756E+01  0.15356268562E+02  0.21531881485E+02  0.51100000000E-03 0. -1.
        -11    1    3    3    0    0  0.80844658375E+01 -0.78066050532E+01  0.29871983421E+01  0.11628629521E+02  0.51100000000E-03 0.  1.
        -12    1    3    3    0    0 -0.10654694651E+01  0.65391645955E+01  0.16055035137E+02  0.17368363539E+02  0.00000000000E+00 0.  1.
</event>
<event>
 7    1  0.9953837E-014  0.5052886E+02  0.7816164E-02  0.1300439E+00
        -11   -1    0    0    0    0  0.00000000000E+00  0.00000000000E+00  0.45593999997E+02  0.45594000000E+02  0.51100000000E-03 0. -1.
         11   -1    0    0    0    0 -0.00000000000E+00 -0.00000000000E+00 -0.45593999997E+02  0.45594000000E+02  0.51100000000E-03 0.  1.
    9900012    2    1    2    0    0  0.20024478501E+02 -0.82781862658E+01 -0.34404319931E+02  0.50528864040E+02  0.30000012736E+02 0.  0.
         12    1    1    2    0    0 -0.20024478501E+02  0.82781862658E+01  0.34404319931E+02  0.40659135960E+02  0.00000000000E+00 0. -1.
         11    1    3    3    0    0  0.16178650234E+02 -0.98785085051E+01 -0.13451491186E+02  0.23243843681E+02  0.51100000000E-03 0. -1.
        -11    1    3    3    0    0 -0.37605483644E+01  0.63462074623E+01 -0.47698626063E+01  0.87845126614E+01  0.51100000000E-03 0.  1.
        -12    1    3    3    0    0  0.76063766311E+01 -0.47458852230E+01 -0.16182966139E+02  0.18500507697E+02  0.00000000000E+00 0.  1.
</event>
<event>
 7    1  0.9953837E-014  0.5052886E+02  0.7816164E-02  0.1300439E+00
        -11   -1    0    0    0    0  0.00000000000E+00  0.00000000000E+00  0.45593999997E+02  0.45594000000E+02  0.51100000000E-03 0. -1.
         11   -1    0    0    0    0 -0.00000000000E+00 -0.00000000000E+00 -0.45593999997E+02  0.45594000000E+02  0.51100000000E-03 0.  1.
    9900012    2    1    2    0    0 -0.26180338256E+02 -0.28051903310E+01 -0.30982033087E+02  0.50528861074E+02  0.30000003720E+02 0.  0.
         12    1    1    2    0    0  0.26180338256E+02  0.28051903310E+01  0.30982033087E+02  0.40659138926E+02  0.00000000000E+00 0. -1.
         11    1    3    3    0    0 -0.66002515158E+01 -0.10992398841E+02 -0.14573839228E+01  0.12904267531E+02  0.51100000000E-03 0. -1.
        -11    1    3    3    0    0 -0.13311257538E+02  0.84131694297E+01 -0.26087432806E+02  0.30471710614E+02  0.51100000000E-03 0.  1.
         12    1    3    3    0    0 -0.62688292021E+01 -0.22596092007E+00 -0.34372163586E+01  0.71528829291E+01  0.00000000000E+00 0. -1.
</event>
<event>
 7    1  0.9953837E-014  0.5052883E+02  0.7816164E-02  0.1300439E+00
        -11   -1    0    0    0    0  0.00000000000E+00  0.00000000000E+00  0.45593999997E+02  0.45594000000E+02  0.51100000000E-03 0. -1.
         11   -1    0    0    0    0 -0.00000000000E+00 -0.00000000000E+00 -0.45593999997E+02  0.45594000000E+02  0.51100000000E-03 0.  1.
    9900012    2    1    2    0    0 -0.59302171525E+01 -0.27524911973E+02 -0.29332237414E+02  0.50528826296E+02  0.29999898008E+02 0.  0.
         12    1    1    2    0    0  0.59302171525E+01  0.27524911973E+02  0.29332237414E+02  0.40659173704E+02  0.00000000000E+00 0. -1.
         11    1    3    3    0    0  0.59587443490E+00 -0.18428057440E+01 -0.58889628773E+00  0.20243019664E+01  0.51100000000E-03 0.  1.
        -11    1    3    3    0    0  0.17290253832E+01 -0.12561928850E+02  0.31306302526E+01  0.13061103753E+02  0.51100000000E-03 0. -1.
        -12    1    3    3    0    0 -0.82551169706E+01 -0.13120177379E+02 -0.31873971379E+02  0.35443420576E+02  0.00000000000E+00 0.  1.
</event>
<event>
 7    1  0.9953837E-014  0.5052886E+02  0.7816164E-02  0.1300439E+00
        -11   -1    0    0    0    0  0.00000000000E+00  0.00000000000E+00  0.45593999997E+02  0.45594000000E+02  0.51100000000E-03 0. -1.
         11   -1    0    0    0    0 -0.00000000000E+00 -0.00000000000E+00 -0.45593999997E+02  0.45594000000E+02  0.51100000000E-03 0.  1.
    9900012    2    1    2    0    0  0.14476476510E+02 -0.35015536361E+02  0.14748204140E+02  0.50528859771E+02  0.29999999759E+02 0.  0.
        -12    1    1    2    0    0 -0.14476476510E+02  0.35015536361E+02 -0.14748204140E+02  0.40659140229E+02  0.00000000000E+00 0.  1.
         11    1    3    3    0    0  0.16850032231E+02 -0.24883833946E+02  0.65963706168E+00  0.30059339636E+02  0.51100000000E-03 0. -1.
        -11    1    3    3    0    0 -0.33548859524E+01 -0.11442608394E+02  0.14507614892E+02  0.18779228864E+02  0.51100000000E-03 0.  1.
        -12    1    3    3    0    0  0.98133023123E+00  0.13109059788E+01 -0.41904781332E+00  0.16902912701E+01  0.00000000000E+00 0.  1.
</event>
<event>
 7    1  0.9953837E-014  0.5052887E+02  0.7816164E-02  0.1300439E+00
        -11   -1    0    0    0    0  0.00000000000E+00  0.00000000000E+00  0.45593999997E+02  0.45594000000E+02  0.51100000000E-03 0. -1.
         11   -1    0    0    0    0 -0.00000000000E+00 -0.00000000000E+00 -0.45593999997E+02  0.45594000000E+02  0.51100000000E-03 0.  1.
    9900012    2    1    2    0    0  0.82076082228E+01 -0.39323910164E+02 -0.62793411840E+01  0.50528869795E+02  0.30000030229E+02 0.  0.
         12    1    1    2    0    0 -0.82076082228E+01  0.39323910164E+02  0.62793411840E+01  0.40659130205E+02  0.00000000000E+00 0. -1.
         11    1    3    3    0    0 -0.30089144928E+01 -0.38802555883E+00 -0.72006343077E+01  0.78136588711E+01  0.51100000000E-03 0. -1.
        -11    1    3    3    0    0  0.81395264216E+01 -0.33373673288E+02  0.56225608573E+01  0.34809009609E+02  0.51100000000E-03 0.  1.
         12    1    3    3    0    0  0.30769962939E+01 -0.55622113176E+01 -0.47012677336E+01  0.79062013152E+01  0.00000000000E+00 0. -1.
</event>
<event>
 7    1  0.9953837E-014  0.5052886E+02  0.7816164E-02  0.1300439E+00
        -11   -1    0    0    0    0  0.00000000000E+00  0.00000000000E+00  0.45593999997E+02  0.45594000000E+02  0.51100000000E-03 0. -1.
         11   -1    0    0    0    0 -0.00000000000E+00 -0.00000000000E+00 -0.45593999997E+02  0.45594000000E+02  0.51100000000E-03 0.  1.
    9900012    2    1    2    0    0 -0.55000788058E+01 -0.15577813212E+02  0.37151673864E+02  0.50528855860E+02  0.29999987871E+02 0.  0.
        -12    1    1    2    0    0  0.55000788058E+01  0.15577813212E+02 -0.37151673864E+02  0.40659144140E+02  0.00000000000E+00 0.  1.
         11    1    3    3    0    0 -0.73075039288E+01 -0.49496064010E+01  0.24252641291E+02  0.25808696733E+02  0.51100000000E-03 0. -1.
        -11    1    3    3    0    0 -0.19197411881E+01  0.92330910413E+00 -0.36325379899E+01  0.42110851856E+01  0.51100000000E-03 0.  1.
        -12    1    3    3    0    0  0.37271663110E+01 -0.11551515915E+02  0.16531570563E+02  0.20509073941E+02  0.00000000000E+00 0.  1.
</event>
<event>
 7    1  0.1252322E-013  0.5052883E+02  0.7816164E-02  0.1300439E+00
        -11   -1    0    0    0    0  0.00000000000E+00  0.00000000000E+00  0.45593999997E+02  0.45594000000E+02  0.51100000000E-03 0. -1.
         11   -1    0    0    0    0 -0.00000000000E+00 -0.00000000000E+00 -0.45593999997E+02  0.45594000000E+02  0.51100000000E-03 0.  1.
    9900012    2    1    2    0    0  0.19450831352E+02 -0.28478115884E+02  0.21536709622E+02  0.50528833925E+02  0.29999921199E+02 0.  0.
        -12    1    1    2    0    0 -0.19450831352E+02  0.28478115884E+02 -0.21536709622E+02  0.40659166075E+02  0.00000000000E+00 0.  1.
         11    1    3    3    0    0  0.16741278766E+02 -0.88856461637E+01  0.18600491037E+02  0.26555665865E+02  0.51100000000E-03 0. -1.
        -11    1    3    3    0    0  0.12752960503E+01 -0.84520626461E+01 -0.52885650021E+01  0.10051500536E+02  0.51100000000E-03 0.  1.
         12    1    3    3    0    0  0.14342565354E+01 -0.11140407074E+02  0.82247835870E+01  0.13921667523E+02  0.00000000000E+00 0. -1.
</event>
<event>
 7    1  0.9953837E-014  0.5052886E+02  0.7816164E-02  0.1300439E+00
        -11   -1    0    0    0    0  0.00000000000E+00  0.00000000000E+00  0.45593999997E+02  0.45594000000E+02  0.51100000000E-03 0. -1.
         11   -1    0    0    0    0 -0.00000000000E+00 -0.00000000000E+00 -0.45593999997E+02  0.45594000000E+02  0.51100000000E-03 0.  1.
    9900012    2    1    2    0    0 -0.15406561477E+02 -0.35169471679E+02 -0.13375785460E+02  0.50528861895E+02  0.30000006217E+02 0.  0.
         12    1    1    2    0    0  0.15406561477E+02  0.35169471679E+02  0.13375785460E+02  0.40659138105E+02  0.00000000000E+00 0. -1.
         11    1    3    3    0    0 -0.13461173553E+01  0.20986006571E+01 -0.71612871322E+01  0.75828879923E+01  0.51100000000E-03 0. -1.
        -11    1    3    3    0    0 -0.26868653429E+01 -0.26305725113E+02 -0.61541797856E+01  0.27149297379E+02  0.51100000000E-03 0.  1.
         12    1    3    3    0    0 -0.11373578778E+02 -0.10962347224E+02 -0.60318542399E-01  0.15796676524E+02  0.00000000000E+00 0. -1.
</event>
<event>
 7    1  0.9953837E-014  0.5052878E+02  0.7816164E-02  0.1300439E+00
        -11   -1    0    0    0    0  0.00000000000E+00  0.00000000000E+00  0.45593999997E+02  0.45594000000E+02  0.51100000000E-03 0. -1.
         11   -1    0    0    0    0 -0.00000000000E+00 -0.00000000000E+00 -0.45593999997E+02  0.45594000000E+02  0.51100000000E-03 0.  1.
    9900012    2    1    2    0    0 -0.26059375550E+02 -0.42366471190E+01  0.30921380994E+02  0.50528781666E+02  0.29999762352E+02 0.  0.
        -12    1    1    2    0    0  0.26059375550E+02  0.42366471190E+01 -0.30921380994E+02  0.40659218334E+02  0.00000000000E+00 0.  1.
         11    1    3    3    0    0 -0.91937834413E+01 -0.13663294583E+02  0.13486357435E+02  0.21285983885E+02  0.51100000000E-03 0. -1.
        -11    1    3    3    0    0 -0.95659813784E+01  0.20501051545E+01  0.10386307671E+01  0.98381748820E+01  0.51100000000E-03 0.  1.
         12    1    3    3    0    0 -0.72996107307E+01  0.73765423096E+01  0.16396392792E+02  0.19404622899E+02  0.00000000000E+00 0. -1.
</event>
<event>
 7    1  0.9953837E-014  0.5052886E+02  0.7816164E-02  0.1300439E+00
        -11   -1    0    0    0    0  0.00000000000E+00  0.00000000000E+00  0.45593999997E+02  0.45594000000E+02  0.51100000000E-03 0. -1.
         11   -1    0    0    0    0 -0.00000000000E+00 -0.00000000000E+00 -0.45593999997E+02  0.45594000000E+02  0.51100000000E-03 0.  1.
    9900012    2    1    2    0    0 -0.18503869178E+02 -0.13281433893E+02 -0.33680502442E+02  0.50528857049E+02  0.29999991485E+02 0.  0.
         12    1    1    2    0    0  0.18503869178E+02  0.13281433893E+02  0.33680502442E+02  0.40659142951E+02  0.00000000000E+00 0. -1.
         11    1    3    3    0    0 -0.16281826238E+02 -0.97868822555E+01 -0.30864508439E+01  0.19245963447E+02  0.51100000000E-03 0. -1.
        -11    1    3    3    0    0 -0.95908435867E+00 -0.67122006241E+00 -0.23675954699E+02  0.23704877353E+02  0.51100000000E-03 0.  1.
         12    1    3    3    0    0 -0.12629585814E+01 -0.28233315751E+01 -0.69180968993E+01  0.75780162490E+01  0.00000000000E+00 0. -1.
</event>
<event>
 7    1  0.9953837E-014  0.5052886E+02  0.7816164E-02  0.1300439E+00
        -11   -1    0    0    0    0  0.00000000000E+00  0.00000000000E+00  0.45593999997E+02  0.45594000000E+02  0.51100000000E-03 0. -1.
         11   -1    0    0    0    0 -0.00000000000E+00 -0.00000000000E+00 -0.45593999997E+02  0.45594000000E+02  0.51100000000E-03 0.  1.
    9900012    2    1    2    0    0 -0.31976561753E+02 -0.16579973411E+02  0.18861865767E+02  0.50528855887E+02  0.29999987954E+02 0.  0.
        -12    1    1    2    0    0  0.31976561753E+02  0.16579973411E+02 -0.18861865767E+02  0.40659144113E+02  0.00000000000E+00 0.  1.
         11    1    3    3    0    0 -0.85149261468E+01 -0.17023344460E+02  0.83806188604E+01  0.20797427645E+02  0.51100000000E-03 0. -1.
        -11    1    3    3    0    0 -0.22787408899E+02  0.47722427884E+01  0.99479815412E+01  0.25318029990E+02  0.51100000000E-03 0.  1.
         12    1    3    3    0    0 -0.67422670672E+00 -0.43288717386E+01  0.53326536531E+00  0.44133982521E+01  0.00000000000E+00 0. -1.
</event>
<event>
 7    1  0.9953837E-014  0.5052886E+02  0.7816164E-02  0.1300439E+00
        -11   -1    0    0    0    0  0.00000000000E+00  0.00000000000E+00  0.45593999997E+02  0.45594000000E+02  0.51100000000E-03 0. -1.
         11   -1    0    0    0    0 -0.00000000000E+00 -0.00000000000E+00 -0.45593999997E+02  0.45594000000E+02  0.51100000000E-03 0.  1.
    9900012    2    1    2    0    0  0.93335308208E+01  0.51680119483E+01 -0.39234454518E+02  0.50528861219E+02  0.30000004160E+02 0.  0.
         12    1    1    2    0    0 -0.93335308208E+01 -0.51680119483E+01  0.39234454518E+02  0.40659138781E+02  0.00000000000E+00 0. -1.
         11    1    3    3    0    0 -0.48510087711E+01  0.17537789862E+01 -0.26394211545E+02  0.26893538819E+02  0.51100000000E-03 0. -1.
        -11    1    3    3    0    0  0.24171087805E+01  0.50468461664E+00  0.28739786195E+01  0.37890466855E+01  0.51100000000E-03 0.  1.
        -12    1    3    3    0    0  0.11767430811E+02  0.29095483454E+01 -0.15714221592E+02  0.19846275714E+02  0.00000000000E+00 0.  1.
</event>
<event>
 7    1  0.9953837E-014  0.5052885E+02  0.7816164E-02  0.1300439E+00
        -11   -1    0    0    0    0  0.00000000000E+00  0.00000000000E+00  0.45593999997E+02  0.45594000000E+02  0.51100000000E-03 0. -1.
         11   -1    0    0    0    0 -0.00000000000E+00 -0.00000000000E+00 -0.45593999997E+02  0.45594000000E+02  0.51100000000E-03 0.  1.
    9900012    2    1    2    0    0 -0.21387491377E+02 -0.89506351632E+01  0.33401015473E+02  0.50528849839E+02  0.29999969569E+02 0.  0.
        -12    1    1    2    0    0  0.21387491377E+02  0.89506351632E+01 -0.33401015473E+02  0.40659150161E+02  0.00000000000E+00 0.  1.
         11    1    3    3    0    0 -0.14001695756E+02 -0.16723644096E+01  0.16126909804E+02  0.21422453334E+02  0.51100000000E-03 0. -1.
        -11    1    3    3    0    0  0.24396823798E+01  0.36316259853E+01 -0.20547974375E+01  0.48335235783E+01  0.51100000000E-03 0.  1.
        -12    1    3    3    0    0 -0.98254780011E+01 -0.10909896739E+02  0.19328903106E+02  0.24272872926E+02  0.00000000000E+00 0.  1.
</event>
<event>
 7    1  0.9953837E-014  0.5052886E+02  0.7816164E-02  0.1300439E+00
        -11   -1    0    0    0    0  0.00000000000E+00  0.00000000000E+00  0.45593999997E+02  0.45594000000E+02  0.51100000000E-03 0. -1.
         11   -1    0    0    0    0 -0.00000000000E+00 -0.00000000000E+00 -0.45593999997E+02  0.45594000000E+02  0.51100000000E-03 0.  1.
    9900012    2    1    2    0    0 -0.42350603278E+01 -0.17115971207E+02  0.36637050448E+02  0.50528859922E+02  0.30000000219E+02 0.  0.
        -12    1    1    2    0    0  0.42350603278E+01  0.17115971207E+02 -0.36637050448E+02  0.40659140078E+02  0.00000000000E+00 0.  1.
         11    1    3    3    0    0  0.25226419518E+01  0.49016551336E+01  0.54175799995E+01  0.77291732273E+01  0.51100000000E-03 0. -1.
        -11    1    3    3    0    0  0.17310494406E+01 -0.20274302839E+02  0.19156688890E+02  0.27946781877E+02  0.51100000000E-03 0.  1.
        -12    1    3    3    0    0 -0.84887517202E+01 -0.17433235018E+01  0.12062781559E+02  0.14852904818E+02  0.00000000000E+00 0.  1.
</event>
<event>
 7    1  0.9953837E-014  0.5052885E+02  0.7816164E-02  0.1300439E+00
        -11   -1    0    0    0    0  0.00000000000E+00  0.00000000000E+00  0.45593999997E+02  0.45594000000E+02  0.51100000000E-03 0. -1.
         11   -1    0    0    0    0 -0.00000000000E+00 -0.00000000000E+00 -0.45593999997E+02  0.45594000000E+02  0.51100000000E-03 0.  1.
    9900012    2    1    2    0    0 -0.31045665376E+01 -0.24335184558E+02  0.32424174263E+02  0.50528848293E+02  0.29999964872E+02 0.  0.
        -12    1    1    2    0    0  0.31045665376E+01  0.24335184558E+02 -0.32424174263E+02  0.40659151707E+02  0.00000000000E+00 0.  1.
         11    1    3    3    0    0 -0.77461716419E+01 -0.12809652586E+02  0.31470754087E+02  0.34849659073E+02  0.51100000000E-03 0. -1.
        -11    1    3    3    0    0 -0.20162706587E+01 -0.13221411541E-01  0.12584285275E+01  0.23767971716E+01  0.51100000000E-03 0.  1.
         12    1    3    3    0    0  0.66578757630E+01 -0.11512310560E+02 -0.30500835090E+00  0.13302392048E+02  0.00000000000E+00 0. -1.
</event>
<event>
 7    1  0.9953837E-014  0.5052887E+02  0.7816164E-02  0.1300439E+00
        -11   -1    0    0    0    0  0.00000000000E+00  0.00000000000E+00  0.45593999997E+02  0.45594000000E+02  0.51100000000E-03 0. -1.
         11   -1    0    0    0    0 -0.00000000000E+00 -0.00000000000E+00 -0.45593999997E+02  0.45594000000E+02  0.51100000000E-03 0.  1.
    9900012    2    1    2    0    0 -0.26127927957E+02 -0.19121709942E+02  0.24593833004E+02  0.50528867788E+02  0.30000024127E+02 0.  0.
        -12    1    1    2    0    0  0.26127927957E+02  0.19121709942E+02 -0.24593833004E+02  0.40659132212E+02  0.00000000000E+00 0.  1.
         11    1    3    3    0    0 -0.82449924194E+01 -0.13464875489E+02 -0.17932210331E+01  0.15890198673E+02  0.51100000000E-03 0. -1.
        -11    1    3    3    0    0 -0.51367122491E+01 -0.18717830125E+01  0.18247183407E+02  0.19048598031E+02  0.51100000000E-03 0.  1.
        -12    1    3    3    0    0 -0.12746223289E+02 -0.37850514404E+01  0.81398706292E+01  0.15590071084E+02  0.00000000000E+00 0.  1.
</event>
<event>
 7    1  0.9953837E-014  0.5052886E+02  0.7816164E-02  0.1300439E+00
        -11   -1    0    0    0    0  0.00000000000E+00  0.00000000000E+00  0.45593999997E+02  0.45594000000E+02  0.51100000000E-03 0. -1.
         11   -1    0    0    0    0 -0.00000000000E+00 -0.00000000000E+00 -0.45593999997E+02  0.45594000000E+02  0.51100000000E-03 0.  1.
    9900012    2    1    2    0    0 -0.14257566878E+02  0.25082078675E+02  0.28649203746E+02  0.50528858848E+02  0.29999996955E+02 0.  0.
        -12    1    1    2    0    0  0.14257566878E+02 -0.25082078675E+02 -0.28649203746E+02  0.40659141152E+02  0.00000000000E+00 0.  1.
         11    1    3    3    0    0 -0.48042540655E+01  0.18507165286E+02  0.73397146994E+01  0.20480904183E+02  0.51100000000E-03 0. -1.
        -11    1    3    3    0    0 -0.47399517142E+01 -0.56569528129E+01  0.11544770883E+02  0.13702189328E+02  0.51100000000E-03 0.  1.
        -12    1    3    3    0    0 -0.47133610982E+01  0.12231866202E+02  0.97647181639E+01  0.16345765337E+02  0.00000000000E+00 0.  1.
</event>
<event>
 7    1  0.9953837E-014  0.5052886E+02  0.7816164E-02  0.1300439E+00
        -11   -1    0    0    0    0  0.00000000000E+00  0.00000000000E+00  0.45593999997E+02  0.45594000000E+02  0.51100000000E-03 0. -1.
         11   -1    0    0    0    0 -0.00000000000E+00 -0.00000000000E+00 -0.45593999997E+02  0.45594000000E+02  0.51100000000E-03 0.  1.
    9900012    2    1    2    0    0  0.35789636197E+02 -0.76000650560E+00  0.19279271382E+02  0.50528856206E+02  0.29999988925E+02 0.  0.
        -12    1    1    2    0    0 -0.35789636197E+02  0.76000650560E+00 -0.19279271382E+02  0.40659143794E+02  0.00000000000E+00 0.  1.
         11    1    3    3    0    0  0.23413737201E+02  0.93582876383E+01  0.10956365406E+02  0.27492227636E+02  0.51100000000E-03 0. -1.
        -11    1    3    3    0    0  0.12474430681E+02 -0.60572871519E+01  0.10293013448E+00  0.13867687021E+02  0.51100000000E-03 0.  1.
         12    1    3    3    0    0 -0.98531684759E-01 -0.40610069920E+01  0.82199758422E+01  0.91689415490E+01  0.00000000000E+00 0. -1.
</event>
<event>
 7    1  0.9953837E-014  0.5052886E+02  0.7816164E-02  0.1300439E+00
        -11   -1    0    0    0    0  0.00000000000E+00  0.00000000000E+00  0.45593999997E+02  0.45594000000E+02  0.51100000000E-03 0. -1.
         11   -1    0    0    0    0 -0.00000000000E+00 -0.00000000000E+00 -0.45593999997E+02  0.45594000000E+02  0.51100000000E-03 0.  1.
    9900012    2    1    2    0    0  0.98878377669E+01 -0.79915266710E+01 -0.38620357848E+02  0.50528857430E+02  0.29999992643E+02 0.  0.
         12    1    1    2    0    0 -0.98878377669E+01  0.79915266710E+01  0.38620357848E+02  0.40659142570E+02  0.00000000000E+00 0. -1.
         11    1    3    3    0    0  0.72431957933E+01  0.40938646184E+00  0.20901012659E+01  0.75498348418E+01  0.51100000000E-03 0. -1.
        -11    1    3    3    0    0  0.46890951124E+00 -0.10099573332E+02 -0.36987254188E+02  0.38344207258E+02  0.51100000000E-03 0.  1.
        -12    1    3    3    0    0  0.21757324623E+01  0.16986601988E+01 -0.37232049257E+01  0.46348153293E+01  0.00000000000E+00 0.  1.
</event>
<event>
 7    1  0.1169093E-013  0.5052886E+02  0.7816164E-02  0.1300439E+00
        -11   -1    0    0    0    0  0.00000000000E+00  0.00000000000E+00  0.45593999997E+02  0.45594000000E+02  0.51100000000E-03 0. -1.
         11   -1    0    0    0    0 -0.00000000000E+00 -0.00000000000E+00 -0.45593999997E+02  0.45594000000E+02  0.51100000000E-03 0.  1.
    9900012    2    1    2    0    0 -0.25418125779E+02 -0.72427923237E+01  0.30897036532E+02  0.50528855577E+02  0.29999987012E+02 0.  0.
        -12    1    1    2    0    0  0.25418125779E+02  0.72427923237E+01 -0.30897036532E+02  0.40659144423E+02  0.00000000000E+00 0.  1.
         11    1    3    3    0    0 -0.89166491076E+01 -0.26108029952E+01  0.28142412911E+02  0.29636435823E+02  0.51100000000E-03 0. -1.
        -11    1    3    3    0    0 -0.53565565733E+01 -0.65874205125E+01 -0.18272220905E+01  0.86847883198E+01  0.51100000000E-03 0.  1.
         12    1    3    3    0    0 -0.11144920098E+02  0.19554311839E+01  0.45818457115E+01  0.12207631434E+02  0.00000000000E+00 0. -1.
</event>
<event>
 7    1  0.9953837E-014  0.5052885E+02  0.7816164E-02  0.1300439E+00
        -11   -1    0    0    0    0  0.00000000000E+00  0.00000000000E+00  0.45593999997E+02  0.45594000000E+02  0.51100000000E-03 0. -1.
         11   -1    0    0    0    0 -0.00000000000E+00 -0.00000000000E+00 -0.45593999997E+02  0.45594000000E+02  0.51100000000E-03 0.  1.
    9900012    2    1    2    0    0  0.13398385195E+02  0.25794439054E+02  0.28430565612E+02  0.50528845152E+02  0.29999955323E+02 0.  0.
        -12    1    1    2    0    0 -0.13398385195E+02 -0.25794439054E+02 -0.28430565612E+02  0.40659154848E+02  0.00000000000E+00 0.  1.
         11    1    3    3    0    0  0.12594233045E+02 -0.12795885636E+01  0.12926104643E+02  0.18092435833E+02  0.51100000000E-03 0.  1.
        -11    1    3    3    0    0 -0.22642703497E+01  0.18752788370E+02  0.13830080933E+02  0.23410790904E+02  0.51100000000E-03 0. -1.
         12    1    3    3    0    0  0.30684225001E+01  0.83212392476E+01  0.16743800357E+01  0.90256184142E+01  0.00000000000E+00 0. -1.
</event>
<event>
 7    1  0.9953837E-014  0.5052885E+02  0.7816164E-02  0.1300439E+00
        -11   -1    0    0    0    0  0.00000000000E+00  0.00000000000E+00  0.45593999997E+02  0.45594000000E+02  0.51100000000E-03 0. -1.
         11   -1    0    0    0    0 -0.00000000000E+00 -0.00000000000E+00 -0.45593999997E+02  0.45594000000E+02  0.51100000000E-03 0.  1.
    9900012    2    1    2    0    0  0.37237187218E+01 -0.20200088217E+02  0.35089265579E+02  0.50528853379E+02  0.29999980330E+02 0.  0.
        -12    1    1    2    0    0 -0.37237187218E+01  0.20200088217E+02 -0.35089265579E+02  0.40659146621E+02  0.00000000000E+00 0.  1.
         11    1    3    3    0    0 -0.98907829986E+01 -0.46642560400E+01  0.71503076971E+01  0.13065595017E+02  0.51100000000E-03 0. -1.
        -11    1    3    3    0    0  0.41067553372E+01 -0.55597594782E+01  0.20849794219E+02  0.21965661476E+02  0.51100000000E-03 0.  1.
         12    1    3    3    0    0  0.95077463831E+01 -0.99760726989E+01  0.70891636633E+01  0.15497596885E+02  0.00000000000E+00 0. -1.
</event>
<event>
 7    1  0.9953837E-014  0.5052885E+02  0.7816164E-02  0.1300439E+00
        -11   -1    0    0    0    0  0.00000000000E+00  0.00000000000E+00  0.45593999997E+02  0.45594000000E+02  0.51100000000E-03 0. -1.
         11   -1    0    0    0    0 -0.00000000000E+00 -0.00000000000E+00 -0.45593999997E+02  0.45594000000E+02  0.51100000000E-03 0.  1.
    9900012    2    1    2    0    0  0.15496870566E+02 -0.20016504434E+02 -0.31817490595E+02  0.50528853982E+02  0.29999982165E+02 0.  0.
         12    1    1    2    0    0 -0.15496870566E+02  0.20016504434E+02  0.31817490595E+02  0.40659146018E+02  0.00000000000E+00 0. -1.
         11    1    3    3    0    0  0.37273013260E+01 -0.11234066913E+02 -0.61406402176E+01  0.13334335271E+02  0.51100000000E-03 0. -1.
        -11    1    3    3    0    0  0.83278693615E+01  0.68183616516E+01 -0.83153624380E+01  0.13601055711E+02  0.51100000000E-03 0.  1.
        -12    1    3    3    0    0  0.34416998786E+01 -0.15600799173E+02 -0.17361487940E+02  0.23593463001E+02  0.00000000000E+00 0.  1.
</event>
<event>
 7    1  0.9953837E-014  0.5052886E+02  0.7816164E-02  0.1300439E+00
        -11   -1    0    0    0    0  0.00000000000E+00  0.00000000000E+00  0.45593999997E+02  0.45594000000E+02  0.51100000000E-03 0. -1.
         11   -1    0    0    0    0 -0.00000000000E+00 -0.00000000000E+00 -0.45593999997E+02  0.45594000000E+02  0.51100000000E-03 0.  1.
    9900012    2    1    2    0    0 -0.34069892315E+02  0.21089905662E+02 -0.69010251577E+01  0.50528857960E+02  0.29999994255E+02 0.  0.
         12    1    1    2    0    0  0.34069892315E+02 -0.21089905662E+02  0.69010251577E+01  0.40659142040E+02  0.00000000000E+00 0. -1.
         11    1    3    3    0    0 -0.13230433624E+02  0.59068465879E+01  0.22510599251E+01  0.14662962918E+02  0.51100000000E-03 0. -1.
        -11    1    3    3    0    0 -0.20883812097E+01 -0.59674464388E+01 -0.68504507465E+00  0.63593270157E+01  0.51100000000E-03 0.  1.
        -12    1    3    3    0    0 -0.18751077481E+02  0.21150505513E+02 -0.84670400081E+01  0.29506568026E+02  0.00000000000E+00 0.  1.
</event>
<event>
 7    1  0.9953837E-014  0.5052886E+02  0.7816164E-02  0.1300439E+00
        -11   -1    0    0    0    0  0.00000000000E+00  0.00000000000E+00  0.45593999997E+02  0.45594000000E+02  0.51100000000E-03 0. -1.
         11   -1    0    0    0    0 -0.00000000000E+00 -0.00000000000E+00 -0.45593999997E+02  0.45594000000E+02  0.51100000000E-03 0.  1.
    9900012    2    1    2    0    0  0.20490379313E+02  0.36903589202E+00 -0.35116578764E+02  0.50528856674E+02  0.29999990347E+02 0.  0.
         12    1    1    2    0    0 -0.20490379313E+02 -0.36903589202E+00  0.35116578764E+02  0.40659143326E+02  0.00000000000E+00 0. -1.
         11    1    3    3    0    0  0.49315941789E+01  0.33644218213E+01  0.47485719931E+01  0.76281643645E+01  0.51100000000E-03 0. -1.
        -11    1    3    3    0    0  0.88118435976E+01 -0.15496145281E+01 -0.22068330559E+02  0.23813044885E+02  0.51100000000E-03 0.  1.
         12    1    3    3    0    0  0.67469415366E+01 -0.14457714012E+01 -0.17796820198E+02  0.19087647424E+02  0.00000000000E+00 0. -1.
</event>
<event>
 7    1  0.9953837E-014  0.5052886E+02  0.7816164E-02  0.1300439E+00
        -11   -1    0    0    0    0  0.00000000000E+00  0.00000000000E+00  0.45593999997E+02  0.45594000000E+02  0.51100000000E-03 0. -1.
         11   -1    0    0    0    0 -0.00000000000E+00 -0.00000000000E+00 -0.45593999997E+02  0.45594000000E+02  0.51100000000E-03 0.  1.
    9900012    2    1    2    0    0  0.28967102723E+02 -0.27984451570E+02  0.55626849687E+01  0.50528855470E+02  0.29999986688E+02 0.  0.
        -12    1    1    2    0    0 -0.28967102723E+02  0.27984451570E+02 -0.55626849687E+01  0.40659144530E+02  0.00000000000E+00 0.  1.
         11    1    3    3    0    0 -0.40145865891E+01 -0.42672654347E+01  0.14291515316E+01  0.60306661434E+01  0.51100000000E-03 0. -1.
        -11    1    3    3    0    0  0.19175576643E+02 -0.17701285424E+02 -0.54336203422E+01  0.26656377764E+02  0.51100000000E-03 0.  1.
         12    1    3    3    0    0  0.13806112669E+02 -0.60159007119E+01  0.95671537793E+01  0.17841811562E+02  0.00000000000E+00 0. -1.
</event>
<event>
 7    1  0.9953837E-014  0.5052887E+02  0.7816164E-02  0.1300439E+00
        -11   -1    0    0    0    0  0.00000000000E+00  0.00000000000E+00  0.45593999997E+02  0.45594000000E+02  0.51100000000E-03 0.  1.
         11   -1    0    0    0    0 -0.00000000000E+00 -0.00000000000E+00 -0.45593999997E+02  0.45594000000E+02  0.51100000000E-03 0. -1.
    9900012    2    1    2    0    0  0.25122349095E+02  0.31621891563E+02 -0.46998630159E+01  0.50528866187E+02  0.30000019261E+02 0.  0.
         12    1    1    2    0    0 -0.25122349095E+02 -0.31621891563E+02  0.46998630159E+01  0.40659133813E+02  0.00000000000E+00 0. -1.
         11    1    3    3    0    0  0.65109711557E+01 -0.53076209682E+00 -0.79933083343E+01  0.10323150303E+02  0.51100000000E-03 0. -1.
        -11    1    3    3    0    0  0.84326684450E+01  0.18258742008E+02 -0.55235076280E+01  0.20856670242E+02  0.51100000000E-03 0.  1.
         12    1    3    3    0    0  0.10178709494E+02  0.13893911652E+02  0.88169529464E+01  0.19349045641E+02  0.00000000000E+00 0. -1.
</event>
<event>
 7    1  0.9953837E-014  0.5052886E+02  0.7816164E-02  0.1300439E+00
        -11   -1    0    0    0    0  0.00000000000E+00  0.00000000000E+00  0.45593999997E+02  0.45594000000E+02  0.51100000000E-03 0. -1.
         11   -1    0    0    0    0 -0.00000000000E+00 -0.00000000000E+00 -0.45593999997E+02  0.45594000000E+02  0.51100000000E-03 0.  1.
    9900012    2    1    2    0    0  0.28644951086E+02  0.51796885572E+00 -0.28850726279E+02  0.50528856855E+02  0.29999990896E+02 0.  0.
         12    1    1    2    0    0 -0.28644951086E+02 -0.51796885572E+00  0.28850726279E+02  0.40659143145E+02  0.00000000000E+00 0. -1.
         11    1    3    3    0    0  0.19868164036E+02 -0.57683928302E+01 -0.56548739753E+01  0.21447514960E+02  0.51100000000E-03 0. -1.
        -11    1    3    3    0    0  0.94678214360E+01 -0.88969199785E+00 -0.17408548136E+02  0.19836550684E+02  0.51100000000E-03 0.  1.
         12    1    3    3    0    0 -0.69103438613E+00  0.71760536837E+01 -0.57873041682E+01  0.92447912108E+01  0.00000000000E+00 0. -1.
</event>
<event>
 7    1  0.9953837E-014  0.5052886E+02  0.7816164E-02  0.1300439E+00
        -11   -1    0    0    0    0  0.00000000000E+00  0.00000000000E+00  0.45593999997E+02  0.45594000000E+02  0.51100000000E-03 0. -1.
         11   -1    0    0    0    0 -0.00000000000E+00 -0.00000000000E+00 -0.45593999997E+02  0.45594000000E+02  0.51100000000E-03 0.  1.
    9900012    2    1    2    0    0  0.44028743233E+01 -0.18727188555E+02  0.35820002286E+02  0.50528862561E+02  0.30000008242E+02 0.  0.
        -12    1    1    2    0    0 -0.44028743233E+01  0.18727188555E+02 -0.35820002286E+02  0.40659137439E+02  0.00000000000E+00 0.  1.
         11    1    3    3    0    0  0.63782447543E+01 -0.55529915460E+01  0.10449231028E+02  0.13442624394E+02  0.51100000000E-03 0. -1.
        -11    1    3    3    0    0 -0.31566485184E+01  0.59166000919E+01  0.22372823692E+01  0.70693719082E+01  0.51100000000E-03 0.  1.
        -12    1    3    3    0    0  0.11812780874E+01 -0.19090797101E+02  0.23133488889E+02  0.30016866260E+02  0.00000000000E+00 0.  1.
</event>
<event>
 7    1  0.9953837E-014  0.5052886E+02  0.7816164E-02  0.1300439E+00
        -11   -1    0    0    0    0  0.00000000000E+00  0.00000000000E+00  0.45593999997E+02  0.45594000000E+02  0.51100000000E-03 0. -1.
         11   -1    0    0    0    0 -0.00000000000E+00 -0.00000000000E+00 -0.45593999997E+02  0.45594000000E+02  0.51100000000E-03 0.  1.
    9900012    2    1    2    0    0 -0.22082100442E+02  0.33179778068E+02  0.80404247077E+01  0.50528864962E+02  0.30000015539E+02 0.  0.
         12    1    1    2    0    0  0.22082100442E+02 -0.33179778068E+02 -0.80404247077E+01  0.40659135038E+02  0.00000000000E+00 0. -1.
         11    1    3    3    0    0  0.32383054664E+01  0.87468063080E+01  0.74214437884E+01  0.11919356990E+02  0.51100000000E-03 0. -1.
        -11    1    3    3    0    0 -0.11770412924E+02  0.18206262143E+02 -0.56956363693E+01  0.22415416024E+02  0.51100000000E-03 0.  1.
        -12    1    3    3    0    0 -0.13549992984E+02  0.62267096169E+01  0.63146172886E+01  0.16194091948E+02  0.00000000000E+00 0.  1.
</event>
<event>
 7    1  0.9953837E-014  0.5052885E+02  0.7816164E-02  0.1300439E+00
        -11   -1    0    0    0    0  0.00000000000E+00  0.00000000000E+00  0.45593999997E+02  0.45594000000E+02  0.51100000000E-03 0. -1.
         11   -1    0    0    0    0 -0.00000000000E+00 -0.00000000000E+00 -0.45593999997E+02  0.45594000000E+02  0.51100000000E-03 0.  1.
    9900012    2    1    2    0    0 -0.14890519159E+02  0.11944809080E+02 -0.35899305903E+02  0.50528853562E+02  0.29999980886E+02 0.  0.
         12    1    1    2    0    0  0.14890519159E+02 -0.11944809080E+02  0.35899305903E+02  0.40659146438E+02  0.00000000000E+00 0. -1.
         11    1    3    3    0    0 -0.64537879790E+01 -0.72075659378E+01 -0.78857246223E+01  0.12481387708E+02  0.51100000000E-03 0. -1.
        -11    1    3    3    0    0 -0.90730734166E+01  0.13623551454E+02 -0.99712921750E+01  0.19166337244E+02  0.51100000000E-03 0.  1.
        -12    1    3    3    0    0  0.63634223617E+00  0.55288235638E+01 -0.18042289105E+02  0.18881128610E+02  0.00000000000E+00 0.  1.
</event>
<event>
 7    1  0.9953837E-014  0.5052887E+02  0.7816164E-02  0.1300439E+00
        -11   -1    0    0    0    0  0.00000000000E+00  0.00000000000E+00  0.45593999997E+02  0.45594000000E+02  0.51100000000E-03 0. -1.
         11   -1    0    0    0    0 -0.00000000000E+00 -0.00000000000E+00 -0.45593999997E+02  0.45594000000E+02  0.51100000000E-03 0.  1.
    9900012    2    1    2    0    0  0.13747369705E+02  0.26758945954E+02 -0.27352033312E+02  0.50528867094E+02  0.30000022020E+02 0.  0.
         12    1    1    2    0    0 -0.13747369705E+02 -0.26758945954E+02  0.27352033312E+02  0.40659132906E+02  0.00000000000E+00 0. -1.
         11    1    3    3    0    0  0.10346305791E+02  0.49226047526E+01 -0.27498317096E+01  0.11783024050E+02  0.51100000000E-03 0. -1.
        -11    1    3    3    0    0 -0.11160523465E+01  0.23198204252E+02 -0.24859944261E+02  0.34020862456E+02  0.51100000000E-03 0.  1.
        -12    1    3    3    0    0  0.45171162602E+01 -0.13618630508E+01  0.25774265867E+00  0.47249805878E+01  0.00000000000E+00 0.  1.
</event>
<event>
 7    1  0.9953837E-014  0.5052892E+02  0.7816164E-02  0.1300439E+00
        -11   -1    0    0    0    0  0.00000000000E+00  0.00000000000E+00  0.45593999997E+02  0.45594000000E+02  0.51100000000E-03 0. -1.
         11   -1    0    0    0    0 -0.00000000000E+00 -0.00000000000E+00 -0.45593999997E+02  0.45594000000E+02  0.51100000000E-03 0.  1.
    9900012    2    1    2    0    0  0.13258073019E+01 -0.18966405173E+02 -0.35939929295E+02  0.50528919736E+02  0.30000182028E+02 0.  0.
         12    1    1    2    0    0 -0.13258073019E+01  0.18966405173E+02  0.35939929295E+02  0.40659080264E+02  0.00000000000E+00 0. -1.
         11    1    3    3    0    0  0.18199203381E+01 -0.47803360707E+01  0.84985496689E+00  0.51851689183E+01  0.51100000000E-03 0. -1.
        -11    1    3    3    0    0 -0.83549660973E+01 -0.16338175385E+02 -0.25052129045E+02  0.31053994966E+02  0.51100000000E-03 0.  1.
        -12    1    3    3    0    0  0.78608530612E+01  0.21521062827E+01 -0.11737655217E+02  0.14289755852E+02  0.00000000000E+00 0.  1.
</event>
<event>
 7    1  0.9953837E-014  0.5052887E+02  0.7816164E-02  0.1300439E+00
        -11   -1    0    0    0    0  0.00000000000E+00  0.00000000000E+00  0.45593999997E+02  0.45594000000E+02  0.51100000000E-03 0. -1.
         11   -1    0    0    0    0 -0.00000000000E+00 -0.00000000000E+00 -0.45593999997E+02  0.45594000000E+02  0.51100000000E-03 0.  1.
    9900012    2    1    2    0    0 -0.10815452645E+02  0.42328405603E+01 -0.38965039237E+02  0.50528865260E+02  0.30000016443E+02 0.  0.
         12    1    1    2    0    0  0.10815452645E+02 -0.42328405603E+01  0.38965039237E+02  0.40659134740E+02  0.00000000000E+00 0. -1.
         11    1    3    3    0    0 -0.14188519198E+01 -0.12123052109E+02 -0.11917878229E+02  0.17059230784E+02  0.51100000000E-03 0. -1.
        -11    1    3    3    0    0 -0.99245398388E+01  0.13207405558E+02 -0.22820391081E+02  0.28172722657E+02  0.51100000000E-03 0.  1.
         12    1    3    3    0    0  0.52793911378E+00  0.31484871112E+01 -0.42267699271E+01  0.52969118186E+01  0.00000000000E+00 0. -1.
</event>
<event>
 7    1  0.9953837E-014  0.5052888E+02  0.7816164E-02  0.1300439E+00
        -11   -1    0    0    0    0  0.00000000000E+00  0.00000000000E+00  0.45593999997E+02  0.45594000000E+02  0.51100000000E-03 0. -1.
         11   -1    0    0    0    0 -0.00000000000E+00 -0.00000000000E+00 -0.45593999997E+02  0.45594000000E+02  0.51100000000E-03 0.  1.
    9900012    2    1    2    0    0  0.16311197798E+02 -0.19509301300E+02 -0.31725323516E+02  0.50528878477E+02  0.30000056618E+02 0.  0.
         12    1    1    2    0    0 -0.16311197798E+02  0.19509301300E+02  0.31725323516E+02  0.40659121523E+02  0.00000000000E+00 0. -1.
         11    1    3    3    0    0  0.17805612371E+02 -0.12346062717E+02 -0.91628995153E+01  0.23524961727E+02  0.51100000000E-03 0. -1.
        -11    1    3    3    0    0 -0.40207173836E+01  0.24083343777E+00 -0.11226939094E+01  0.41814603787E+01  0.51100000000E-03 0.  1.
         12    1    3    3    0    0  0.25263028109E+01 -0.74040720212E+01 -0.21439730092E+02  0.22822456371E+02  0.00000000000E+00 0. -1.
</event>
<event>
 7    1  0.9953837E-014  0.5052886E+02  0.7816164E-02  0.1300439E+00
        -11   -1    0    0    0    0  0.00000000000E+00  0.00000000000E+00  0.45593999997E+02  0.45594000000E+02  0.51100000000E-03 0. -1.
         11   -1    0    0    0    0 -0.00000000000E+00 -0.00000000000E+00 -0.45593999997E+02  0.45594000000E+02  0.51100000000E-03 0.  1.
    9900012    2    1    2    0    0 -0.36565485273E+01  0.11439899432E+02 -0.38844870611E+02  0.50528860574E+02  0.30000002199E+02 0.  0.
         12    1    1    2    0    0  0.36565485273E+01 -0.11439899432E+02  0.38844870611E+02  0.40659139426E+02  0.00000000000E+00 0. -1.
         11    1    3    3    0    0 -0.38122262234E+01  0.72220754269E+01 -0.86815881602E+01  0.11918951946E+02  0.51100000000E-03 0. -1.
        -11    1    3    3    0    0  0.11576779219E+02  0.47779270327E+00 -0.10916303998E+02  0.15919038796E+02  0.51100000000E-03 0.  1.
        -12    1    3    3    0    0 -0.11421101523E+02  0.37400313019E+01 -0.19246978453E+02  0.22690869831E+02  0.00000000000E+00 0.  1.
</event>
<event>
 7    1  0.9953837E-014  0.5052886E+02  0.7816164E-02  0.1300439E+00
        -11   -1    0    0    0    0  0.00000000000E+00  0.00000000000E+00  0.45593999997E+02  0.45594000000E+02  0.51100000000E-03 0. -1.
         11   -1    0    0    0    0 -0.00000000000E+00 -0.00000000000E+00 -0.45593999997E+02  0.45594000000E+02  0.51100000000E-03 0.  1.
    9900012    2    1    2    0    0  0.11182065785E+02 -0.67972512369E+01 -0.38495769231E+02  0.50528862426E+02  0.30000007829E+02 0.  0.
         12    1    1    2    0    0 -0.11182065785E+02  0.67972512369E+01  0.38495769231E+02  0.40659137574E+02  0.00000000000E+00 0. -1.
         11    1    3    3    0    0  0.14140823154E+02  0.44775923673E+01 -0.90749415980E+01  0.17388682473E+02  0.51100000000E-03 0. -1.
        -11    1    3    3    0    0 -0.39537877955E+00 -0.10833087142E+02 -0.28304938900E+02  0.30309761923E+02  0.51100000000E-03 0.  1.
        -12    1    3    3    0    0 -0.25633785887E+01 -0.44175646193E+00 -0.11158887328E+01  0.28304180300E+01  0.00000000000E+00 0.  1.
</event>
<event>
 7    1  0.9953837E-014  0.5052887E+02  0.7816164E-02  0.1300439E+00
        -11   -1    0    0    0    0  0.00000000000E+00  0.00000000000E+00  0.45593999997E+02  0.45594000000E+02  0.51100000000E-03 0. -1.
         11   -1    0    0    0    0 -0.00000000000E+00 -0.00000000000E+00 -0.45593999997E+02  0.45594000000E+02  0.51100000000E-03 0.  1.
    9900012    2    1    2    0    0  0.25213694565E+02  0.17216154585E+01  0.31850753909E+02  0.50528869684E+02  0.30000029893E+02 0.  0.
        -12    1    1    2    0    0 -0.25213694565E+02 -0.17216154585E+01 -0.31850753909E+02  0.40659130316E+02  0.00000000000E+00 0.  1.
         11    1    3    3    0    0  0.24474545018E+02  0.99703741601E+01  0.18005322289E+02  0.31978169831E+02  0.51100000000E-03 0. -1.
        -11    1    3    3    0    0 -0.41749627618E+01 -0.44468506726E+01  0.75435307875E+01  0.97010129352E+01  0.51100000000E-03 0.  1.
         12    1    3    3    0    0  0.49141123091E+01 -0.38019080290E+01  0.63019008332E+01  0.88496869187E+01  0.00000000000E+00 0. -1.
</event>
<event>
 7    1  0.9953837E-014  0.5052885E+02  0.7816164E-02  0.1300439E+00
        -11   -1    0    0    0    0  0.00000000000E+00  0.00000000000E+00  0.45593999997E+02  0.45594000000E+02  0.51100000000E-03 0. -1.
         11   -1    0    0    0    0 -0.00000000000E+00 -0.00000000000E+00 -0.45593999997E+02  0.45594000000E+02  0.51100000000E-03 0.  1.
    9900012    2    1    2    0    0  0.22144746797E+02  0.11531329967E+02 -0.32090570723E+02  0.50528854524E+02  0.29999983810E+02 0.  0.
         12    1    1    2    0    0 -0.22144746797E+02 -0.11531329967E+02  0.32090570723E+02  0.40659145476E+02  0.00000000000E+00 0. -1.
         11    1    3    3    0    0  0.56074569783E+01  0.13007945551E+02 -0.64865017312E+01  0.15579631773E+02  0.51100000000E-03 0. -1.
        -11    1    3    3    0    0  0.62235511599E+01 -0.83849410164E+01 -0.16610423511E+02  0.19620040631E+02  0.51100000000E-03 0.  1.
         12    1    3    3    0    0  0.10313738659E+02  0.69083254331E+01 -0.89936454806E+01  0.15329182119E+02  0.00000000000E+00 0. -1.
</event>
<event>
 7    1  0.9953837E-014  0.5052887E+02  0.7816164E-02  0.1300439E+00
        -11   -1    0    0    0    0  0.00000000000E+00  0.00000000000E+00  0.45593999997E+02  0.45594000000E+02  0.51100000000E-03 0. -1.
         11   -1    0    0    0    0 -0.00000000000E+00 -0.00000000000E+00 -0.45593999997E+02  0.45594000000E+02  0.51100000000E-03 0.  1.
    9900012    2    1    2    0    0  0.24284523301E+02  0.49989018974E+00  0.32606399301E+02  0.50528865264E+02  0.30000016455E+02 0.  0.
        -12    1    1    2    0    0 -0.24284523301E+02 -0.49989018974E+00 -0.32606399301E+02  0.40659134736E+02  0.00000000000E+00 0.  1.
         11    1    3    3    0    0  0.28723355146E+02 -0.50624149999E+01  0.24683664074E+02  0.38209193250E+02  0.51100000000E-03 0. -1.
        -11    1    3    3    0    0 -0.27130865892E+01  0.11088551258E+01  0.68124483235E+01  0.74161884383E+01  0.51100000000E-03 0.  1.
         12    1    3    3    0    0 -0.17257452560E+01  0.44534500639E+01  0.11102869035E+01  0.49034835748E+01  0.00000000000E+00 0. -1.
</event>
<event>
 7    1  0.9953837E-014  0.5052886E+02  0.7816164E-02  0.1300439E+00
        -11   -1    0    0    0    0  0.00000000000E+00  0.00000000000E+00  0.45593999997E+02  0.45594000000E+02  0.51100000000E-03 0. -1.
         11   -1    0    0    0    0 -0.00000000000E+00 -0.00000000000E+00 -0.45593999997E+02  0.45594000000E+02  0.51100000000E-03 0.  1.
    9900012    2    1    2    0    0 -0.35702488528E+02 -0.97984065138E+01  0.16807419508E+02  0.50528858250E+02  0.29999995138E+02 0.  0.
        -12    1    1    2    0    0  0.35702488528E+02  0.97984065138E+01 -0.16807419508E+02  0.40659141750E+02  0.00000000000E+00 0.  1.
         11    1    3    3    0    0 -0.17479262140E+02 -0.11092167892E+02  0.19473252002E+02  0.28421265582E+02  0.51100000000E-03 0.  1.
        -11    1    3    3    0    0 -0.13277892370E+02  0.44214984981E+01  0.26016747680E+01  0.14234492847E+02  0.51100000000E-03 0. -1.
        -12    1    3    3    0    0 -0.49453340181E+01 -0.31277371194E+01 -0.52675072618E+01  0.78730998211E+01  0.00000000000E+00 0.  1.
</event>
<event>
 7    1  0.9953837E-014  0.5052885E+02  0.7816164E-02  0.1300439E+00
        -11   -1    0    0    0    0  0.00000000000E+00  0.00000000000E+00  0.45593999997E+02  0.45594000000E+02  0.51100000000E-03 0. -1.
         11   -1    0    0    0    0 -0.00000000000E+00 -0.00000000000E+00 -0.45593999997E+02  0.45594000000E+02  0.51100000000E-03 0.  1.
    9900012    2    1    2    0    0 -0.15537397167E+02  0.34911456862E+01 -0.37410792582E+02  0.50528853298E+02  0.29999980086E+02 0.  0.
         12    1    1    2    0    0  0.15537397167E+02 -0.34911456862E+01  0.37410792582E+02  0.40659146702E+02  0.00000000000E+00 0. -1.
         11    1    3    3    0    0 -0.32818821748E+01  0.70759436222E+01 -0.21320112068E+02  0.22702134428E+02  0.51100000000E-03 0. -1.
        -11    1    3    3    0    0 -0.11987599977E+02 -0.10207697052E+02 -0.13392625492E+02  0.20670318095E+02  0.51100000000E-03 0.  1.
        -12    1    3    3    0    0 -0.26791501464E+00  0.66228991159E+01 -0.26980550216E+01  0.71564007751E+01  0.00000000000E+00 0.  1.
</event>
<event>
 7    1  0.9953837E-014  0.5052886E+02  0.7816164E-02  0.1300439E+00
        -11   -1    0    0    0    0  0.00000000000E+00  0.00000000000E+00  0.45593999997E+02  0.45594000000E+02  0.51100000000E-03 0. -1.
         11   -1    0    0    0    0 -0.00000000000E+00 -0.00000000000E+00 -0.45593999997E+02  0.45594000000E+02  0.51100000000E-03 0.  1.
    9900012    2    1    2    0    0  0.21562815694E+02 -0.30792354999E+02 -0.15493277327E+02  0.50528858477E+02  0.29999995827E+02 0.  0.
         12    1    1    2    0    0 -0.21562815694E+02  0.30792354999E+02  0.15493277327E+02  0.40659141523E+02  0.00000000000E+00 0. -1.
         11    1    3    3    0    0  0.19414582788E+02 -0.23613694950E+02 -0.10760659860E+02  0.32408708936E+02  0.51100000000E-03 0. -1.
        -11    1    3    3    0    0 -0.17115551909E+01  0.22588416400E+01 -0.71068469797E+01  0.76510823404E+01  0.51100000000E-03 0.  1.
        -12    1    3    3    0    0  0.38597880967E+01 -0.94375016885E+01  0.23742295119E+01  0.10469067200E+02  0.00000000000E+00 0.  1.
</event>
<event>
 7    1  0.9953837E-014  0.5052886E+02  0.7816164E-02  0.1300439E+00
        -11   -1    0    0    0    0  0.00000000000E+00  0.00000000000E+00  0.45593999997E+02  0.45594000000E+02  0.51100000000E-03 0. -1.
         11   -1    0    0    0    0 -0.00000000000E+00 -0.00000000000E+00 -0.45593999997E+02  0.45594000000E+02  0.51100000000E-03 0.  1.
    9900012    2    1    2    0    0  0.33927462501E+02 -0.97938125548E+01 -0.20153761567E+02  0.50528861034E+02  0.30000003600E+02 0.  0.
         12    1    1    2    0    0 -0.33927462501E+02  0.97938125548E+01  0.20153761567E+02  0.40659138966E+02  0.00000000000E+00 0. -1.
         11    1    3    3    0    0  0.25651427757E+02 -0.12302978388E+02 -0.16040873845E+02  0.32659893710E+02  0.51100000000E-03 0. -1.
        -11    1    3    3    0    0  0.92198067356E+00  0.27113454987E+01  0.52387311392E+01  0.59704059314E+01  0.51100000000E-03 0.  1.
        -12    1    3    3    0    0  0.73540540708E+01 -0.20217966513E+00 -0.93516188612E+01  0.11898561393E+02  0.00000000000E+00 0.  1.
</event>
<event>
 7    1  0.9953837E-014  0.5052886E+02  0.7816164E-02  0.1300439E+00
        -11   -1    0    0    0    0  0.00000000000E+00  0.00000000000E+00  0.45593999997E+02  0.45594000000E+02  0.51100000000E-03 0. -1.
         11   -1    0    0    0    0 -0.00000000000E+00 -0.00000000000E+00 -0.45593999997E+02  0.45594000000E+02  0.51100000000E-03 0.  1.
    9900012    2    1    2    0    0 -0.24373651960E+01 -0.14583311444E+02  0.37875483360E+02  0.50528856360E+02  0.29999989391E+02 0.  0.
        -12    1    1    2    0    0  0.24373651960E+01  0.14583311444E+02 -0.37875483360E+02  0.40659143640E+02  0.00000000000E+00 0.  1.
         11    1    3    3    0    0 -0.92013341364E+00 -0.16666986040E+02  0.28850163284E+02  0.33331171461E+02  0.51100000000E-03 0. -1.
        -11    1    3    3    0    0 -0.48491797586E+01  0.63765068281E+01  0.85905459641E+01  0.11746142511E+02  0.51100000000E-03 0.  1.
        -12    1    3    3    0    0  0.33319479763E+01 -0.42928322316E+01  0.43477411248E+00  0.54515423886E+01  0.00000000000E+00 0.  1.
</event>
<event>
 7    1  0.1152307E-013  0.5052884E+02  0.7816164E-02  0.1300439E+00
        -11   -1    0    0    0    0  0.00000000000E+00  0.00000000000E+00  0.45593999997E+02  0.45594000000E+02  0.51100000000E-03 0. -1.
         11   -1    0    0    0    0 -0.00000000000E+00 -0.00000000000E+00 -0.45593999997E+02  0.45594000000E+02  0.51100000000E-03 0.  1.
    9900012    2    1    2    0    0  0.86114280673E+01 -0.30078650130E+02  0.25967007768E+02  0.50528838923E+02  0.29999936392E+02 0.  0.
        -12    1    1    2    0    0 -0.86114280673E+01  0.30078650130E+02 -0.25967007768E+02  0.40659161077E+02  0.00000000000E+00 0.  1.
         11    1    3    3    0    0  0.13857622401E+02 -0.12683034451E+02  0.16420979581E+02  0.24950784199E+02  0.51100000000E-03 0. -1.
        -11    1    3    3    0    0 -0.12879187825E+01 -0.17662534063E+02  0.30555164230E+01  0.17971088592E+02  0.51100000000E-03 0.  1.
         12    1    3    3    0    0 -0.39582755514E+01  0.26691838410E+00  0.64905117649E+01  0.76069661321E+01  0.00000000000E+00 0. -1.
</event>
<event>
 7    1  0.9953837E-014  0.5052887E+02  0.7816164E-02  0.1300439E+00
        -11   -1    0    0    0    0  0.00000000000E+00  0.00000000000E+00  0.45593999997E+02  0.45594000000E+02  0.51100000000E-03 0. -1.
         11   -1    0    0    0    0 -0.00000000000E+00 -0.00000000000E+00 -0.45593999997E+02  0.45594000000E+02  0.51100000000E-03 0.  1.
    9900012    2    1    2    0    0 -0.17872624980E+02  0.79458860449E+01 -0.35645435120E+02  0.50528869739E+02  0.30000030058E+02 0.  0.
         12    1    1    2    0    0  0.17872624980E+02 -0.79458860449E+01  0.35645435120E+02  0.40659130261E+02  0.00000000000E+00 0. -1.
         11    1    3    3    0    0  0.17574479221E+00  0.11066039473E+02 -0.22792855399E+02  0.25337765753E+02  0.51100000000E-03 0. -1.
        -11    1    3    3    0    0 -0.97130204500E+01 -0.24000269015E+01 -0.13495834285E+02  0.16800013057E+02  0.51100000000E-03 0.  1.
         12    1    3    3    0    0 -0.83353493227E+01 -0.72012652636E+00  0.64325456452E+00  0.83910909291E+01  0.00000000000E+00 0. -1.
</event>
<event>
 7    1  0.9953837E-014  0.5052887E+02  0.7816164E-02  0.1300439E+00
        -11   -1    0    0    0    0  0.00000000000E+00  0.00000000000E+00  0.45593999997E+02  0.45594000000E+02  0.51100000000E-03 0. -1.
         11   -1    0    0    0    0 -0.00000000000E+00 -0.00000000000E+00 -0.45593999997E+02  0.45594000000E+02  0.51100000000E-03 0.  1.
    9900012    2    1    2    0    0 -0.14205637237E+02  0.34763737617E+02 -0.15583558688E+02  0.50528869613E+02  0.30000029676E+02 0.  0.
         12    1    1    2    0    0  0.14205637237E+02 -0.34763737617E+02  0.15583558688E+02  0.40659130387E+02  0.00000000000E+00 0. -1.
         11    1    3    3    0    0  0.68990857634E+01  0.84983443894E+01  0.22957185964E+01  0.11184344678E+02  0.51100000000E-03 0. -1.
        -11    1    3    3    0    0 -0.18236238187E+02  0.22149421422E+02 -0.18719821316E+02  0.34257684727E+02  0.51100000000E-03 0.  1.
         12    1    3    3    0    0 -0.28684848133E+01  0.41159718063E+01  0.84054403182E+00  0.50868402082E+01  0.00000000000E+00 0. -1.
</event>
<event>
 7    1  0.9953837E-014  0.5052886E+02  0.7816164E-02  0.1300439E+00
        -11   -1    0    0    0    0  0.00000000000E+00  0.00000000000E+00  0.45593999997E+02  0.45594000000E+02  0.51100000000E-03 0. -1.
         11   -1    0    0    0    0 -0.00000000000E+00 -0.00000000000E+00 -0.45593999997E+02  0.45594000000E+02  0.51100000000E-03 0.  1.
    9900012    2    1    2    0    0 -0.20139436646E+02 -0.34928560889E+02 -0.52501794404E+01  0.50528860088E+02  0.30000000724E+02 0.  0.
        -12    1    1    2    0    0  0.20139436646E+02  0.34928560889E+02  0.52501794404E+01  0.40659139912E+02  0.00000000000E+00 0.  1.
         11    1    3    3    0    0 -0.10916971409E+02 -0.11590637355E+02  0.39779772446E+01  0.16411808013E+02  0.51100000000E-03 0. -1.
        -11    1    3    3    0    0 -0.27676050069E+01 -0.15062367811E+02 -0.15582307590E+02  0.21848177765E+02  0.51100000000E-03 0.  1.
        -12    1    3    3    0    0 -0.64548602308E+01 -0.82755557231E+01  0.63541509050E+01  0.12268874311E+02  0.00000000000E+00 0.  1.
</event>
<event>
 7    1  0.9953837E-014  0.5052886E+02  0.7816164E-02  0.1300439E+00
        -11   -1    0    0    0    0  0.00000000000E+00  0.00000000000E+00  0.45593999997E+02  0.45594000000E+02  0.51100000000E-03 0. -1.
         11   -1    0    0    0    0 -0.00000000000E+00 -0.00000000000E+00 -0.45593999997E+02  0.45594000000E+02  0.51100000000E-03 0.  1.
    9900012    2    1    2    0    0 -0.66191498469E+01  0.31501238284E+02  0.24839979686E+02  0.50528858975E+02  0.29999997340E+02 0.  0.
        -12    1    1    2    0    0  0.66191498469E+01 -0.31501238284E+02 -0.24839979686E+02  0.40659141025E+02  0.00000000000E+00 0.  1.
         11    1    3    3    0    0 -0.16057551426E+02  0.13436450842E+02  0.48478180243E+01  0.21491498525E+02  0.51100000000E-03 0. -1.
        -11    1    3    3    0    0  0.31587691191E+01  0.29983921731E+01  0.66806768656E+01  0.79749370916E+01  0.51100000000E-03 0.  1.
         12    1    3    3    0    0  0.62796324597E+01  0.15066395269E+02  0.13311484796E+02  0.21062423358E+02  0.00000000000E+00 0. -1.
</event>
<event>
 7    1  0.9953837E-014  0.5052886E+02  0.7816164E-02  0.1300439E+00
        -11   -1    0    0    0    0  0.00000000000E+00  0.00000000000E+00  0.45593999997E+02  0.45594000000E+02  0.51100000000E-03 0. -1.
         11   -1    0    0    0    0 -0.00000000000E+00 -0.00000000000E+00 -0.45593999997E+02  0.45594000000E+02  0.51100000000E-03 0.  1.
    9900012    2    1    2    0    0 -0.11711450748E+02  0.83288528476E+01  0.38034687640E+02  0.50528864099E+02  0.30000012915E+02 0.  0.
        -12    1    1    2    0    0  0.11711450748E+02 -0.83288528476E+01 -0.38034687640E+02  0.40659135901E+02  0.00000000000E+00 0.  1.
         11    1    3    3    0    0 -0.75053515088E+01  0.14331419597E+01  0.14350291702E+02  0.16257769507E+02  0.51100000000E-03 0. -1.
        -11    1    3    3    0    0  0.24576826475E+01  0.76618417560E+01 -0.15206325343E+01  0.81887939683E+01  0.51100000000E-03 0.  1.
        -12    1    3    3    0    0 -0.66637818864E+01 -0.76613086806E+00  0.25205028472E+02  0.26082300624E+02  0.00000000000E+00 0.  1.
</event>
<event>
 7    1  0.9953837E-014  0.5052885E+02  0.7816164E-02  0.1300439E+00
        -11   -1    0    0    0    0  0.00000000000E+00  0.00000000000E+00  0.45593999997E+02  0.45594000000E+02  0.51100000000E-03 0.  1.
         11   -1    0    0    0    0 -0.00000000000E+00 -0.00000000000E+00 -0.45593999997E+02  0.45594000000E+02  0.51100000000E-03 0. -1.
    9900012    2    1    2    0    0  0.33332062571E+02 -0.14583282731E+02  0.18151255506E+02  0.50528848424E+02  0.29999965270E+02 0.  0.
        -12    1    1    2    0    0 -0.33332062571E+02  0.14583282731E+02 -0.18151255506E+02  0.40659151576E+02  0.00000000000E+00 0.  1.
         11    1    3    3    0    0  0.14514134814E+02 -0.74819322592E+01  0.15518748569E+02  0.22527116485E+02  0.51100000000E-03 0. -1.
        -11    1    3    3    0    0  0.54900322338E+01  0.10635149377E+01 -0.75144315452E+01  0.93668671209E+01  0.51100000000E-03 0.  1.
        -12    1    3    3    0    0  0.13327895523E+02 -0.81648654097E+01  0.10146938482E+02  0.18634864818E+02  0.00000000000E+00 0.  1.
</event>
<event>
 7    1  0.9953837E-014  0.5052887E+02  0.7816164E-02  0.1300439E+00
        -11   -1    0    0    0    0  0.00000000000E+00  0.00000000000E+00  0.45593999997E+02  0.45594000000E+02  0.51100000000E-03 0. -1.
         11   -1    0    0    0    0 -0.00000000000E+00 -0.00000000000E+00 -0.45593999997E+02  0.45594000000E+02  0.51100000000E-03 0.  1.
    9900012    2    1    2    0    0  0.19474701880E+02 -0.59840659317E+01  0.35186530575E+02  0.50528868279E+02  0.30000025622E+02 0.  0.
        -12    1    1    2    0    0 -0.19474701880E+02  0.59840659317E+01 -0.35186530575E+02  0.40659131721E+02  0.00000000000E+00 0.  1.
         11    1    3    3    0    0  0.91732895795E+01  0.50145547353E+01  0.11795235826E+02  0.15761427263E+02  0.51100000000E-03 0. -1.
        -11    1    3    3    0    0  0.12947586167E+02 -0.14999808459E+02  0.22330672491E+02  0.29854533584E+02  0.51100000000E-03 0.  1.
        -12    1    3    3    0    0 -0.26461738657E+01  0.40011877917E+01  0.10606222577E+01  0.49129074330E+01  0.00000000000E+00 0.  1.
</event>
<event>
 7    1  0.9953837E-014  0.5052887E+02  0.7816164E-02  0.1300439E+00
        -11   -1    0    0    0    0  0.00000000000E+00  0.00000000000E+00  0.45593999997E+02  0.45594000000E+02  0.51100000000E-03 0. -1.
         11   -1    0    0    0    0 -0.00000000000E+00 -0.00000000000E+00 -0.45593999997E+02  0.45594000000E+02  0.51100000000E-03 0.  1.
    9900012    2    1    2    0    0  0.86889749107E+01 -0.39332564306E+02  0.55332015305E+01  0.50528865490E+02  0.30000017143E+02 0.  0.
        -12    1    1    2    0    0 -0.86889749107E+01  0.39332564306E+02 -0.55332015305E+01  0.40659134510E+02  0.00000000000E+00 0.  1.
         11    1    3    3    0    0 -0.91584289470E+01 -0.13335616667E+02  0.36633395227E+01  0.16587210416E+02  0.51100000000E-03 0. -1.
        -11    1    3    3    0    0  0.10013722292E+02 -0.20610925206E+02  0.58275331519E+01  0.23644132779E+02  0.51100000000E-03 0.  1.
         12    1    3    3    0    0  0.78336815653E+01 -0.53860224332E+01 -0.39576711440E+01  0.10297522294E+02  0.00000000000E+00 0. -1.
</event>
<event>
 7    1  0.9953837E-014  0.5052886E+02  0.7816164E-02  0.1300439E+00
        -11   -1    0    0    0    0  0.00000000000E+00  0.00000000000E+00  0.45593999997E+02  0.45594000000E+02  0.51100000000E-03 0. -1.
         11   -1    0    0    0    0 -0.00000000000E+00 -0.00000000000E+00 -0.45593999997E+02  0.45594000000E+02  0.51100000000E-03 0.  1.
    9900012    2    1    2    0    0  0.12382210856E+02 -0.30297779230E+02 -0.24122420024E+02  0.50528859333E+02  0.29999998428E+02 0.  0.
         12    1    1    2    0    0 -0.12382210856E+02  0.30297779230E+02  0.24122420024E+02  0.40659140667E+02  0.00000000000E+00 0. -1.
         11    1    3    3    0    0 -0.69296021498E+01 -0.60753814445E+00 -0.85967469405E+01  0.11058596058E+02  0.51100000000E-03 0. -1.
        -11    1    3    3    0    0  0.14537532556E+02 -0.15558853435E+02 -0.10403750921E+02  0.23699278607E+02  0.51100000000E-03 0.  1.
         12    1    3    3    0    0  0.47742804503E+01 -0.14131387651E+02 -0.51219221631E+01  0.15770984668E+02  0.00000000000E+00 0. -1.
</event>
<event>
 7    1  0.9953837E-014  0.5052886E+02  0.7816164E-02  0.1300439E+00
        -11   -1    0    0    0    0  0.00000000000E+00  0.00000000000E+00  0.45593999997E+02  0.45594000000E+02  0.51100000000E-03 0. -1.
         11   -1    0    0    0    0 -0.00000000000E+00 -0.00000000000E+00 -0.45593999997E+02  0.45594000000E+02  0.51100000000E-03 0.  1.
    9900012    2    1    2    0    0  0.33243177873E+02  0.12450900625E+02  0.19825025211E+02  0.50528862944E+02  0.30000009405E+02 0.  0.
        -12    1    1    2    0    0 -0.33243177873E+02 -0.12450900625E+02 -0.19825025211E+02  0.40659137056E+02  0.00000000000E+00 0.  1.
         11    1    3    3    0    0 -0.20316770645E+01 -0.29117513587E+01  0.74907010190E+01  0.82895482197E+01  0.51100000000E-03 0. -1.
        -11    1    3    3    0    0  0.50824250797E+01  0.53836281701E+01 -0.15123232978E+01  0.75565613200E+01  0.51100000000E-03 0.  1.
         12    1    3    3    0    0  0.30192429858E+02  0.99790238132E+01  0.13846647490E+02  0.34682753405E+02  0.00000000000E+00 0. -1.
</event>
<event>
 7    1  0.9953837E-014  0.5052886E+02  0.7816164E-02  0.1300439E+00
        -11   -1    0    0    0    0  0.00000000000E+00  0.00000000000E+00  0.45593999997E+02  0.45594000000E+02  0.51100000000E-03 0. -1.
         11   -1    0    0    0    0 -0.00000000000E+00 -0.00000000000E+00 -0.45593999997E+02  0.45594000000E+02  0.51100000000E-03 0.  1.
    9900012    2    1    2    0    0  0.70666361197E+01  0.78461985013E+01  0.39264047841E+02  0.50528860440E+02  0.30000001792E+02 0.  0.
        -12    1    1    2    0    0 -0.70666361197E+01 -0.78461985013E+01 -0.39264047841E+02  0.40659139560E+02  0.00000000000E+00 0.  1.
         11    1    3    3    0    0 -0.72707838700E+01 -0.41075202205E+01  0.33196610184E+01  0.89864436784E+01  0.51100000000E-03 0. -1.
        -11    1    3    3    0    0  0.14662326828E+02  0.87046856899E+01  0.26151291391E+02  0.31219311694E+02  0.51100000000E-03 0.  1.
         12    1    3    3    0    0 -0.32490683869E+00  0.32490330319E+01  0.97930954316E+01  0.10323105067E+02  0.00000000000E+00 0. -1.
</event>
<event>
 7    1  0.9953837E-014  0.5052884E+02  0.7816164E-02  0.1300439E+00
        -11   -1    0    0    0    0  0.00000000000E+00  0.00000000000E+00  0.45593999997E+02  0.45594000000E+02  0.51100000000E-03 0.  1.
         11   -1    0    0    0    0 -0.00000000000E+00 -0.00000000000E+00 -0.45593999997E+02  0.45594000000E+02  0.51100000000E-03 0. -1.
    9900012    2    1    2    0    0  0.27380464472E+02 -0.28932836132E+02  0.81467046364E+01  0.50528835747E+02  0.29999926737E+02 0.  0.
        -12    1    1    2    0    0 -0.27380464472E+02  0.28932836132E+02 -0.81467046364E+01  0.40659164253E+02  0.00000000000E+00 0.  1.
         11    1    3    3    0    0  0.17052320316E+02 -0.26639708670E+02  0.11370941352E+02  0.33611813603E+02  0.51100000000E-03 0.  1.
        -11    1    3    3    0    0  0.87692895748E-01 -0.72197766758E+00 -0.61173054198E+01  0.61603869730E+01  0.51100000000E-03 0. -1.
         12    1    3    3    0    0  0.10240451260E+02 -0.15711497941E+01  0.28930687043E+01  0.10756635171E+02  0.00000000000E+00 0. -1.
</event>
<event>
 7    1  0.9953837E-014  0.5052887E+02  0.7816164E-02  0.1300439E+00
        -11   -1    0    0    0    0  0.00000000000E+00  0.00000000000E+00  0.45593999997E+02  0.45594000000E+02  0.51100000000E-03 0.  1.
         11   -1    0    0    0    0 -0.00000000000E+00 -0.00000000000E+00 -0.45593999997E+02  0.45594000000E+02  0.51100000000E-03 0. -1.
    9900012    2    1    2    0    0  0.38539015658E+02  0.12880874326E+02  0.14115003893E+01  0.50528868374E+02  0.30000025908E+02 0.  0.
        -12    1    1    2    0    0 -0.38539015658E+02 -0.12880874326E+02 -0.14115003893E+01  0.40659131626E+02  0.00000000000E+00 0.  1.
         11    1    3    3    0    0  0.94599969430E+01  0.15327249016E+02 -0.27468770343E+01  0.18219808953E+02  0.51100000000E-03 0. -1.
        -11    1    3    3    0    0  0.23872769909E+02 -0.64336357203E+01  0.61078081007E+01  0.25467746892E+02  0.51100000000E-03 0.  1.
         12    1    3    3    0    0  0.52062488053E+01  0.39872610304E+01 -0.19494306772E+01  0.68413125285E+01  0.00000000000E+00 0. -1.
</event>
<event>
 7    1  0.9953837E-014  0.5052886E+02  0.7816164E-02  0.1300439E+00
        -11   -1    0    0    0    0  0.00000000000E+00  0.00000000000E+00  0.45593999997E+02  0.45594000000E+02  0.51100000000E-03 0. -1.
         11   -1    0    0    0    0 -0.00000000000E+00 -0.00000000000E+00 -0.45593999997E+02  0.45594000000E+02  0.51100000000E-03 0.  1.
    9900012    2    1    2    0    0 -0.11024383849E+02 -0.11241637734E+01  0.39119878198E+02  0.50528860146E+02  0.30000000901E+02 0.  0.
        -12    1    1    2    0    0  0.11024383849E+02  0.11241637734E+01 -0.39119878198E+02  0.40659139854E+02  0.00000000000E+00 0.  1.
         11    1    3    3    0    0 -0.17149311041E+01  0.10263864850E+02  0.11391573322E+02  0.15429058732E+02  0.51100000000E-03 0. -1.
        -11    1    3    3    0    0 -0.80136278031E+01 -0.13258323616E+02  0.13078441536E+02  0.20274294290E+02  0.51100000000E-03 0.  1.
        -12    1    3    3    0    0 -0.12958249415E+01  0.18702949922E+01  0.14649863339E+02  0.14825507124E+02  0.00000000000E+00 0.  1.
</event>
<event>
 7    1  0.9953837E-014  0.5052885E+02  0.7816164E-02  0.1300439E+00
        -11   -1    0    0    0    0  0.00000000000E+00  0.00000000000E+00  0.45593999997E+02  0.45594000000E+02  0.51100000000E-03 0. -1.
         11   -1    0    0    0    0 -0.00000000000E+00 -0.00000000000E+00 -0.45593999997E+02  0.45594000000E+02  0.51100000000E-03 0.  1.
    9900012    2    1    2    0    0 -0.14801343743E+02  0.87563874223E+01  0.36843077044E+02  0.50528850681E+02  0.29999972129E+02 0.  0.
        -12    1    1    2    0    0  0.14801343743E+02 -0.87563874223E+01 -0.36843077044E+02  0.40659149319E+02  0.00000000000E+00 0.  1.
         11    1    3    3    0    0  0.23853320333E+01  0.67428947262E+01  0.17572705457E+02  0.18972517375E+02  0.51100000000E-03 0. -1.
        -11    1    3    3    0    0 -0.70484138514E+01  0.76060980432E+01  0.16914242587E+01  0.10506844510E+02  0.51100000000E-03 0.  1.
        -12    1    3    3    0    0 -0.10138261924E+02 -0.55926053471E+01  0.17578947328E+02  0.21049488796E+02  0.00000000000E+00 0.  1.
</event>
<event>
 7    1  0.9953837E-014  0.5052887E+02  0.7816164E-02  0.1300439E+00
        -11   -1    0    0    0    0  0.00000000000E+00  0.00000000000E+00  0.45593999997E+02  0.45594000000E+02  0.51100000000E-03 0. -1.
         11   -1    0    0    0    0 -0.00000000000E+00 -0.00000000000E+00 -0.45593999997E+02  0.45594000000E+02  0.51100000000E-03 0.  1.
    9900012    2    1    2    0    0  0.11370923446E+02 -0.23027487678E+02 -0.31521452104E+02  0.50528867797E+02  0.30000024155E+02 0.  0.
         12    1    1    2    0    0 -0.11370923446E+02  0.23027487678E+02  0.31521452104E+02  0.40659132203E+02  0.00000000000E+00 0. -1.
         11    1    3    3    0    0 -0.50219112264E+00  0.55484310708E+01 -0.96445114845E+01  0.11137947985E+02  0.51100000000E-03 0. -1.
        -11    1    3    3    0    0 -0.17544239292E+01 -0.59120307752E+01 -0.27429430354E+01  0.67493590782E+01  0.51100000000E-03 0.  1.
         12    1    3    3    0    0  0.13627538498E+02 -0.22663887973E+02 -0.19133997584E+02  0.32641560734E+02  0.00000000000E+00 0. -1.
</event>
<event>
 7    1  0.9953837E-014  0.5052885E+02  0.7816164E-02  0.1300439E+00
        -11   -1    0    0    0    0  0.00000000000E+00  0.00000000000E+00  0.45593999997E+02  0.45594000000E+02  0.51100000000E-03 0. -1.
         11   -1    0    0    0    0 -0.00000000000E+00 -0.00000000000E+00 -0.45593999997E+02  0.45594000000E+02  0.51100000000E-03 0.  1.
    9900012    2    1    2    0    0  0.21295998352E+02 -0.17624717398E-01 -0.34635913108E+02  0.50528851789E+02  0.29999975497E+02 0.  0.
         12    1    1    2    0    0 -0.21295998352E+02  0.17624717398E-01  0.34635913108E+02  0.40659148211E+02  0.00000000000E+00 0. -1.
         11    1    3    3    0    0  0.35972871164E+01  0.49945135608E+01  0.25469786510E+01  0.66612867238E+01  0.51100000000E-03 0. -1.
        -11    1    3    3    0    0  0.12912280543E+02 -0.98417472083E+01 -0.23168881047E+02  0.28291059121E+02  0.51100000000E-03 0.  1.
        -12    1    3    3    0    0  0.47864306922E+01  0.48296089300E+01 -0.14014010712E+02  0.15576505944E+02  0.00000000000E+00 0.  1.
</event>
<event>
 7    1  0.9953837E-014  0.5052887E+02  0.7816164E-02  0.1300439E+00
        -11   -1    0    0    0    0  0.00000000000E+00  0.00000000000E+00  0.45593999997E+02  0.45594000000E+02  0.51100000000E-03 0. -1.
         11   -1    0    0    0    0 -0.00000000000E+00 -0.00000000000E+00 -0.45593999997E+02  0.45594000000E+02  0.51100000000E-03 0.  1.
    9900012    2    1    2    0    0 -0.17229190245E+02 -0.27614415449E+02 -0.24367267418E+02  0.50528872384E+02  0.30000038098E+02 0.  0.
         12    1    1    2    0    0  0.17229190245E+02  0.27614415449E+02  0.24367267418E+02  0.40659127616E+02  0.00000000000E+00 0. -1.
         11    1    3    3    0    0  0.44446339329E+01 -0.11371051919E+01  0.67591228137E+00  0.46373092077E+01  0.51100000000E-03 0. -1.
        -11    1    3    3    0    0 -0.79487142067E+01 -0.12411757993E+01 -0.11744348134E+02  0.14235599329E+02  0.51100000000E-03 0.  1.
         12    1    3    3    0    0 -0.13725109971E+02 -0.25236134458E+02 -0.13298831565E+02  0.31655963847E+02  0.00000000000E+00 0. -1.
</event>
<event>
 7    1  0.9953837E-014  0.5052887E+02  0.7816164E-02  0.1300439E+00
        -11   -1    0    0    0    0  0.00000000000E+00  0.00000000000E+00  0.45593999997E+02  0.45594000000E+02  0.51100000000E-03 0. -1.
         11   -1    0    0    0    0 -0.00000000000E+00 -0.00000000000E+00 -0.45593999997E+02  0.45594000000E+02  0.51100000000E-03 0.  1.
    9900012    2    1    2    0    0 -0.23349244866E+02 -0.10989156198E+02 -0.31419991592E+02  0.50528872349E+02  0.30000037991E+02 0.  0.
         12    1    1    2    0    0  0.23349244866E+02  0.10989156198E+02  0.31419991592E+02  0.40659127651E+02  0.00000000000E+00 0. -1.
         11    1    3    3    0    0 -0.90901600495E+01 -0.10268194170E+00  0.29923201027E+01  0.95705555306E+01  0.51100000000E-03 0. -1.
        -11    1    3    3    0    0 -0.12640551132E+02 -0.20960006237E+01 -0.24231209886E+02  0.27410368191E+02  0.51100000000E-03 0.  1.
         12    1    3    3    0    0 -0.16185336837E+01 -0.87904736331E+01 -0.10181101808E+02  0.13547948627E+02  0.00000000000E+00 0. -1.
</event>
<event>
 7    1  0.9953837E-014  0.5052886E+02  0.7816164E-02  0.1300439E+00
        -11   -1    0    0    0    0  0.00000000000E+00  0.00000000000E+00  0.45593999997E+02  0.45594000000E+02  0.51100000000E-03 0. -1.
         11   -1    0    0    0    0 -0.00000000000E+00 -0.00000000000E+00 -0.45593999997E+02  0.45594000000E+02  0.51100000000E-03 0.  1.
    9900012    2    1    2    0    0  0.80667569952E+01  0.23597342589E+02  0.32113215741E+02  0.50528858705E+02  0.29999996518E+02 0.  0.
        -12    1    1    2    0    0 -0.80667569952E+01 -0.23597342589E+02 -0.32113215741E+02  0.40659141295E+02  0.00000000000E+00 0.  1.
         11    1    3    3    0    0  0.11248538203E+02  0.25218695992E+02  0.12804833923E+02  0.30438068456E+02  0.51100000000E-03 0. -1.
        -11    1    3    3    0    0 -0.31918696636E+01 -0.22720927312E+01  0.97140074182E+01  0.10474367652E+02  0.51100000000E-03 0.  1.
         12    1    3    3    0    0  0.10088455515E-01  0.65073932834E+00  0.95943743990E+01  0.96164225967E+01  0.00000000000E+00 0. -1.
</event>
<event>
 7    1  0.9953837E-014  0.5052887E+02  0.7816164E-02  0.1300439E+00
        -11   -1    0    0    0    0  0.00000000000E+00  0.00000000000E+00  0.45593999997E+02  0.45594000000E+02  0.51100000000E-03 0. -1.
         11   -1    0    0    0    0 -0.00000000000E+00 -0.00000000000E+00 -0.45593999997E+02  0.45594000000E+02  0.51100000000E-03 0.  1.
    9900012    2    1    2    0    0  0.10734881632E+02  0.22348229338E+02 -0.32225514678E+02  0.50528870220E+02  0.30000031521E+02 0.  0.
         12    1    1    2    0    0 -0.10734881632E+02 -0.22348229338E+02  0.32225514678E+02  0.40659129780E+02  0.00000000000E+00 0. -1.
         11    1    3    3    0    0  0.25503572737E+01  0.97600319445E+00  0.46632770965E+01  0.54039853811E+01  0.51100000000E-03 0. -1.
        -11    1    3    3    0    0  0.10564261615E+02  0.18469991682E+02 -0.25938232888E+02  0.33549011040E+02  0.51100000000E-03 0.  1.
         12    1    3    3    0    0 -0.23797372565E+01  0.29022344624E+01 -0.10950558886E+02  0.11575873799E+02  0.00000000000E+00 0. -1.
</event>
<event>
 7    1  0.9953837E-014  0.5052886E+02  0.7816164E-02  0.1300439E+00
        -11   -1    0    0    0    0  0.00000000000E+00  0.00000000000E+00  0.45593999997E+02  0.45594000000E+02  0.51100000000E-03 0. -1.
         11   -1    0    0    0    0 -0.00000000000E+00 -0.00000000000E+00 -0.45593999997E+02  0.45594000000E+02  0.51100000000E-03 0.  1.
    9900012    2    1    2    0    0  0.25003139787E+02  0.19118132898E+02 -0.25739185627E+02  0.50528859804E+02  0.29999999861E+02 0.  0.
         12    1    1    2    0    0 -0.25003139787E+02 -0.19118132898E+02  0.25739185627E+02  0.40659140196E+02  0.00000000000E+00 0. -1.
         11    1    3    3    0    0 -0.22692068722E+01  0.12640219214E+01 -0.13235700259E+02  0.13488173073E+02  0.51100000000E-03 0. -1.
        -11    1    3    3    0    0  0.19258422552E+02  0.95530376353E+01 -0.22681944453E+01  0.21616939505E+02  0.51100000000E-03 0.  1.
         12    1    3    3    0    0  0.80139241074E+01  0.83010733417E+01 -0.10235290922E+02  0.15423747226E+02  0.00000000000E+00 0. -1.
</event>
<event>
 7    1  0.9953837E-014  0.5052887E+02  0.7816164E-02  0.1300439E+00
        -11   -1    0    0    0    0  0.00000000000E+00  0.00000000000E+00  0.45593999997E+02  0.45594000000E+02  0.51100000000E-03 0. -1.
         11   -1    0    0    0    0 -0.00000000000E+00 -0.00000000000E+00 -0.45593999997E+02  0.45594000000E+02  0.51100000000E-03 0.  1.
    9900012    2    1    2    0    0  0.19827757696E+02 -0.31564360693E+02 -0.16239338071E+02  0.50528868895E+02  0.30000027494E+02 0.  0.
         12    1    1    2    0    0 -0.19827757696E+02  0.31564360693E+02  0.16239338071E+02  0.40659131105E+02  0.00000000000E+00 0. -1.
         11    1    3    3    0    0 -0.34551392798E+01 -0.83845325656E+01 -0.12659748782E+02  0.15572655948E+02  0.51100000000E-03 0. -1.
        -11    1    3    3    0    0  0.13787842557E+02 -0.17957758853E+02 -0.68208789093E+01  0.23645508977E+02  0.51100000000E-03 0.  1.
         12    1    3    3    0    0  0.94950544188E+01 -0.52220692736E+01  0.32412896196E+01  0.11310703971E+02  0.00000000000E+00 0. -1.
</event>
<event>
 7    1  0.9953837E-014  0.5052886E+02  0.7816164E-02  0.1300439E+00
        -11   -1    0    0    0    0  0.00000000000E+00  0.00000000000E+00  0.45593999997E+02  0.45594000000E+02  0.51100000000E-03 0. -1.
         11   -1    0    0    0    0 -0.00000000000E+00 -0.00000000000E+00 -0.45593999997E+02  0.45594000000E+02  0.51100000000E-03 0.  1.
    9900012    2    1    2    0    0 -0.87957475320E+01  0.18838853972E+02  0.34941347572E+02  0.50528863711E+02  0.30000011736E+02 0.  0.
        -12    1    1    2    0    0  0.87957475320E+01 -0.18838853972E+02 -0.34941347572E+02  0.40659136289E+02  0.00000000000E+00 0.  1.
         11    1    3    3    0    0 -0.76497996214E+01  0.20459881825E+02  0.17850140619E+02  0.28209107021E+02  0.51100000000E-03 0. -1.
        -11    1    3    3    0    0 -0.43481787796E+01 -0.56132257566E+01  0.15352077971E+02  0.16914528087E+02  0.51100000000E-03 0.  1.
        -12    1    3    3    0    0  0.32022308690E+01  0.39921979036E+01  0.17391289814E+01  0.54052286033E+01  0.00000000000E+00 0.  1.
</event>
<event>
 7    1  0.9953837E-014  0.5052884E+02  0.7816164E-02  0.1300439E+00
        -11   -1    0    0    0    0  0.00000000000E+00  0.00000000000E+00  0.45593999997E+02  0.45594000000E+02  0.51100000000E-03 0. -1.
         11   -1    0    0    0    0 -0.00000000000E+00 -0.00000000000E+00 -0.45593999997E+02  0.45594000000E+02  0.51100000000E-03 0.  1.
    9900012    2    1    2    0    0 -0.16712249222E+02  0.31193761751E+02 -0.20020414019E+02  0.50528843298E+02  0.29999949688E+02 0.  0.
         12    1    1    2    0    0  0.16712249222E+02 -0.31193761751E+02  0.20020414019E+02  0.40659156702E+02  0.00000000000E+00 0. -1.
         11    1    3    3    0    0 -0.57045556437E+01  0.12561266268E+01  0.33376133972E+01  0.67275160828E+01  0.51100000000E-03 0. -1.
        -11    1    3    3    0    0 -0.53758408225E+01  0.28482289072E+02 -0.24404735180E+02  0.37891048479E+02  0.51100000000E-03 0.  1.
        -12    1    3    3    0    0 -0.56318527562E+01  0.14553460516E+01  0.10467077641E+01  0.59102787363E+01  0.00000000000E+00 0.  1.
</event>
<event>
 7    1  0.9953837E-014  0.5052884E+02  0.7816164E-02  0.1300439E+00
        -11   -1    0    0    0    0  0.00000000000E+00  0.00000000000E+00  0.45593999997E+02  0.45594000000E+02  0.51100000000E-03 0. -1.
         11   -1    0    0    0    0 -0.00000000000E+00 -0.00000000000E+00 -0.45593999997E+02  0.45594000000E+02  0.51100000000E-03 0.  1.
    9900012    2    1    2    0    0 -0.11739238885E+02 -0.20886837915E+01 -0.38871520099E+02  0.50528838617E+02  0.29999935460E+02 0.  0.
         12    1    1    2    0    0  0.11739238885E+02  0.20886837915E+01  0.38871520099E+02  0.40659161383E+02  0.00000000000E+00 0. -1.
         11    1    3    3    0    0 -0.13187719770E+02 -0.38486571565E+01 -0.27251291903E+02  0.30518208094E+02  0.51100000000E-03 0.  1.
        -11    1    3    3    0    0  0.36658778090E+01  0.68540515309E+01 -0.75756170318E+00  0.78096467586E+01  0.51100000000E-03 0. -1.
         12    1    3    3    0    0 -0.22173969241E+01 -0.50940781659E+01 -0.10862666493E+02  0.12200983764E+02  0.00000000000E+00 0. -1.
</event>
<event>
 7    1  0.9953837E-014  0.5052886E+02  0.7816164E-02  0.1300439E+00
        -11   -1    0    0    0    0  0.00000000000E+00  0.00000000000E+00  0.45593999997E+02  0.45594000000E+02  0.51100000000E-03 0. -1.
         11   -1    0    0    0    0 -0.00000000000E+00 -0.00000000000E+00 -0.45593999997E+02  0.45594000000E+02  0.51100000000E-03 0.  1.
    9900012    2    1    2    0    0  0.58154174778E+01  0.12225268964E+02  0.38339139471E+02  0.50528857153E+02  0.29999991801E+02 0.  0.
        -12    1    1    2    0    0 -0.58154174778E+01 -0.12225268964E+02 -0.38339139471E+02  0.40659142847E+02  0.00000000000E+00 0.  1.
         11    1    3    3    0    0  0.45182949545E+01 -0.22255882709E+01 -0.19003377091E+01  0.53832625904E+01  0.51100000000E-03 0. -1.
        -11    1    3    3    0    0  0.27928818365E+01  0.16619835464E+02  0.28464091674E+02  0.33079051299E+02  0.51100000000E-03 0.  1.
         12    1    3    3    0    0 -0.14957593133E+01 -0.21689782291E+01  0.11775385507E+02  0.12066543263E+02  0.00000000000E+00 0. -1.
</event>
<event>
 7    1  0.9953837E-014  0.5052886E+02  0.7816164E-02  0.1300439E+00
        -11   -1    0    0    0    0  0.00000000000E+00  0.00000000000E+00  0.45593999997E+02  0.45594000000E+02  0.51100000000E-03 0. -1.
         11   -1    0    0    0    0 -0.00000000000E+00 -0.00000000000E+00 -0.45593999997E+02  0.45594000000E+02  0.51100000000E-03 0.  1.
    9900012    2    1    2    0    0 -0.18184907770E+02  0.42962066809E+01 -0.36111185675E+02  0.50528855970E+02  0.29999988205E+02 0.  0.
         12    1    1    2    0    0  0.18184907770E+02 -0.42962066809E+01  0.36111185675E+02  0.40659144030E+02  0.00000000000E+00 0. -1.
         11    1    3    3    0    0 -0.16484390739E+02 -0.16020790618E+00 -0.13418860073E+02  0.21256213457E+02  0.51100000000E-03 0. -1.
        -11    1    3    3    0    0  0.27243717766E+01  0.14379190883E+01 -0.23634157053E+02  0.23834076293E+02  0.51100000000E-03 0.  1.
         12    1    3    3    0    0 -0.44248888081E+01  0.30184954988E+01  0.94183145168E+00  0.54385662195E+01  0.00000000000E+00 0. -1.
</event>
<event>
 7    1  0.9953837E-014  0.5052886E+02  0.7816164E-02  0.1300439E+00
        -11   -1    0    0    0    0  0.00000000000E+00  0.00000000000E+00  0.45593999997E+02  0.45594000000E+02  0.51100000000E-03 0. -1.
         11   -1    0    0    0    0 -0.00000000000E+00 -0.00000000000E+00 -0.45593999997E+02  0.45594000000E+02  0.51100000000E-03 0.  1.
    9900012    2    1    2    0    0  0.22489394708E+02 -0.26510356407E+02  0.21085398287E+02  0.50528857215E+02  0.29999991990E+02 0.  0.
        -12    1    1    2    0    0 -0.22489394708E+02  0.26510356407E+02 -0.21085398287E+02  0.40659142785E+02  0.00000000000E+00 0.  1.
         11    1    3    3    0    0  0.25062547169E+02 -0.20583742996E+02  0.10353608406E+02  0.34044367429E+02  0.51100000000E-03 0. -1.
        -11    1    3    3    0    0 -0.53951110864E+01 -0.52284987026E+01  0.27678795117E+01  0.80065960039E+01  0.51100000000E-03 0.  1.
        -12    1    3    3    0    0  0.28219586247E+01 -0.69811470788E+00  0.79639103684E+01  0.84778937821E+01  0.00000000000E+00 0.  1.
</event>
<event>
 7    1  0.9953837E-014  0.5052885E+02  0.7816164E-02  0.1300439E+00
        -11   -1    0    0    0    0  0.00000000000E+00  0.00000000000E+00  0.45593999997E+02  0.45594000000E+02  0.51100000000E-03 0. -1.
         11   -1    0    0    0    0 -0.00000000000E+00 -0.00000000000E+00 -0.45593999997E+02  0.45594000000E+02  0.51100000000E-03 0.  1.
    9900012    2    1    2    0    0 -0.16679223226E+02  0.26559782170E+02 -0.25875622404E+02  0.50528851568E+02  0.29999974827E+02 0.  0.
         12    1    1    2    0    0  0.16679223226E+02 -0.26559782170E+02  0.25875622404E+02  0.40659148432E+02  0.00000000000E+00 0. -1.
         11    1    3    3    0    0 -0.40691042503E+01 -0.55844058468E+01 -0.78711298163E+01  0.10473675711E+02  0.51100000000E-03 0. -1.
        -11    1    3    3    0    0 -0.80961248377E+00  0.11260563922E+02 -0.89842628659E+01  0.14428192947E+02  0.51100000000E-03 0.  1.
         12    1    3    3    0    0 -0.11800506492E+02  0.20883624095E+02 -0.90202297218E+01  0.25626982910E+02  0.00000000000E+00 0. -1.
</event>
<event>
 7    1  0.9953837E-014  0.5052886E+02  0.7816164E-02  0.1300439E+00
        -11   -1    0    0    0    0  0.00000000000E+00  0.00000000000E+00  0.45593999997E+02  0.45594000000E+02  0.51100000000E-03 0. -1.
         11   -1    0    0    0    0 -0.00000000000E+00 -0.00000000000E+00 -0.45593999997E+02  0.45594000000E+02  0.51100000000E-03 0.  1.
    9900012    2    1    2    0    0 -0.23681286805E+02  0.17978435540E+02  0.27733344771E+02  0.50528857099E+02  0.29999991639E+02 0.  0.
        -12    1    1    2    0    0  0.23681286805E+02 -0.17978435540E+02 -0.27733344771E+02  0.40659142901E+02  0.00000000000E+00 0.  1.
         11    1    3    3    0    0 -0.39640266343E+01  0.48357592262E+01  0.49991160567E+01  0.80055753110E+01  0.51100000000E-03 0. -1.
        -11    1    3    3    0    0  0.61971864912E+01  0.57635907534E+01  0.87218124111E+01  0.12152946588E+02  0.51100000000E-03 0.  1.
        -12    1    3    3    0    0 -0.25914446662E+02  0.73790855608E+01  0.14012416303E+02  0.30370335200E+02  0.00000000000E+00 0.  1.
</event>
<event>
 7    1  0.9953837E-014  0.5052887E+02  0.7816164E-02  0.1300439E+00
        -11   -1    0    0    0    0  0.00000000000E+00  0.00000000000E+00  0.45593999997E+02  0.45594000000E+02  0.51100000000E-03 0. -1.
         11   -1    0    0    0    0 -0.00000000000E+00 -0.00000000000E+00 -0.45593999997E+02  0.45594000000E+02  0.51100000000E-03 0.  1.
    9900012    2    1    2    0    0 -0.23042036219E+02 -0.20449071199E+02  0.26534221889E+02  0.50528869693E+02  0.30000029919E+02 0.  0.
        -12    1    1    2    0    0  0.23042036219E+02  0.20449071199E+02 -0.26534221889E+02  0.40659130307E+02  0.00000000000E+00 0.  1.
         11    1    3    3    0    0 -0.43128623580E+01 -0.12694817386E+02  0.24029543481E+02  0.27516869923E+02  0.51100000000E-03 0. -1.
        -11    1    3    3    0    0 -0.18489164990E+02 -0.37525789912E+01  0.21093648532E+01  0.18983690144E+02  0.51100000000E-03 0.  1.
         12    1    3    3    0    0 -0.24000887094E+00 -0.40016748217E+01  0.39531355465E+00  0.40283096261E+01  0.00000000000E+00 0. -1.
</event>
<event>
 7    1  0.9953837E-014  0.5052884E+02  0.7816164E-02  0.1300439E+00
        -11   -1    0    0    0    0  0.00000000000E+00  0.00000000000E+00  0.45593999997E+02  0.45594000000E+02  0.51100000000E-03 0. -1.
         11   -1    0    0    0    0 -0.00000000000E+00 -0.00000000000E+00 -0.45593999997E+02  0.45594000000E+02  0.51100000000E-03 0.  1.
    9900012    2    1    2    0    0  0.32285663323E+02  0.13811875796E+02  0.20494767907E+02  0.50528837678E+02  0.29999932605E+02 0.  0.
        -12    1    1    2    0    0 -0.32285663323E+02 -0.13811875796E+02 -0.20494767907E+02  0.40659162322E+02  0.00000000000E+00 0.  1.
         11    1    3    3    0    0 -0.17253544709E+01  0.90939720791E+01  0.22134388900E+01  0.95171680770E+01  0.51100000000E-03 0.  1.
        -11    1    3    3    0    0  0.16634806221E+02 -0.37615647613E+01  0.11283225783E+02  0.20449384631E+02  0.51100000000E-03 0. -1.
         12    1    3    3    0    0  0.17376211573E+02  0.84794684780E+01  0.69981032345E+01  0.20562284970E+02  0.00000000000E+00 0. -1.
</event>
<event>
 7    1  0.9953837E-014  0.5052886E+02  0.7816164E-02  0.1300439E+00
        -11   -1    0    0    0    0  0.00000000000E+00  0.00000000000E+00  0.45593999997E+02  0.45594000000E+02  0.51100000000E-03 0. -1.
         11   -1    0    0    0    0 -0.00000000000E+00 -0.00000000000E+00 -0.45593999997E+02  0.45594000000E+02  0.51100000000E-03 0.  1.
    9900012    2    1    2    0    0 -0.16525149895E+02  0.17573465156E+02  0.32730084482E+02  0.50528859738E+02  0.29999999661E+02 0.  0.
        -12    1    1    2    0    0  0.16525149895E+02 -0.17573465156E+02 -0.32730084482E+02  0.40659140262E+02  0.00000000000E+00 0.  1.
         11    1    3    3    0    0 -0.15285240650E+02  0.13642002255E+02  0.44907941513E+01  0.20974032507E+02  0.51100000000E-03 0. -1.
        -11    1    3    3    0    0 -0.10661079041E+01 -0.64173989517E+00  0.20685067972E+02  0.20722462533E+02  0.51100000000E-03 0.  1.
         12    1    3    3    0    0 -0.17380134046E+00  0.45732027965E+01  0.75542223582E+01  0.88323646982E+01  0.00000000000E+00 0. -1.
</event>
<event>
 7    1  0.9953837E-014  0.5052885E+02  0.7816164E-02  0.1300439E+00
        -11   -1    0    0    0    0  0.00000000000E+00  0.00000000000E+00  0.45593999997E+02  0.45594000000E+02  0.51100000000E-03 0. -1.
         11   -1    0    0    0    0 -0.00000000000E+00 -0.00000000000E+00 -0.45593999997E+02  0.45594000000E+02  0.51100000000E-03 0.  1.
    9900012    2    1    2    0    0 -0.42252562884E+01 -0.38096278529E+01 -0.40259163858E+02  0.50528851833E+02  0.29999975633E+02 0.  0.
         12    1    1    2    0    0  0.42252562884E+01  0.38096278529E+01  0.40259163858E+02  0.40659148167E+02  0.00000000000E+00 0. -1.
         11    1    3    3    0    0  0.20802299157E+01  0.36711247383E+01  0.34454614947E+01  0.54475424293E+01  0.51100000000E-03 0. -1.
        -11    1    3    3    0    0 -0.37462029804E+01 -0.29459258644E+01 -0.30786517686E+02  0.31153205091E+02  0.51100000000E-03 0.  1.
         12    1    3    3    0    0 -0.25592832237E+01 -0.45348267268E+01 -0.12918107667E+02  0.13928104313E+02  0.00000000000E+00 0. -1.
</event>
<event>
 7    1  0.9953837E-014  0.5052886E+02  0.7816164E-02  0.1300439E+00
        -11   -1    0    0    0    0  0.00000000000E+00  0.00000000000E+00  0.45593999997E+02  0.45594000000E+02  0.51100000000E-03 0. -1.
         11   -1    0    0    0    0 -0.00000000000E+00 -0.00000000000E+00 -0.45593999997E+02  0.45594000000E+02  0.51100000000E-03 0.  1.
    9900012    2    1    2    0    0 -0.17362094127E+01  0.26957344771E+02  0.30388370502E+02  0.50528856846E+02  0.29999990868E+02 0.  0.
        -12    1    1    2    0    0  0.17362094127E+01 -0.26957344771E+02 -0.30388370502E+02  0.40659143154E+02  0.00000000000E+00 0.  1.
         11    1    3    3    0    0  0.16622177958E+01 -0.56313329864E+01  0.39511522899E+01  0.70771805038E+01  0.51100000000E-03 0.  1.
        -11    1    3    3    0    0 -0.24040849095E+01  0.22843907966E+02  0.24275896944E+02  0.33420696105E+02  0.51100000000E-03 0. -1.
        -12    1    3    3    0    0 -0.99434229903E+00  0.97447697913E+01  0.21613212689E+01  0.10030980237E+02  0.00000000000E+00 0.  1.
</event>
<event>
 7    1  0.9953837E-014  0.5052886E+02  0.7816164E-02  0.1300439E+00
        -11   -1    0    0    0    0  0.00000000000E+00  0.00000000000E+00  0.45593999997E+02  0.45594000000E+02  0.51100000000E-03 0.  1.
         11   -1    0    0    0    0 -0.00000000000E+00 -0.00000000000E+00 -0.45593999997E+02  0.45594000000E+02  0.51100000000E-03 0. -1.
    9900012    2    1    2    0    0 -0.24133055341E+02 -0.31818468990E+02 -0.76384764213E+01  0.50528860179E+02  0.30000001000E+02 0.  0.
         12    1    1    2    0    0  0.24133055341E+02  0.31818468990E+02  0.76384764213E+01  0.40659139821E+02  0.00000000000E+00 0. -1.
         11    1    3    3    0    0 -0.27086621957E+02 -0.25985833309E+02 -0.12446510074E+02  0.39545723348E+02  0.51100000000E-03 0. -1.
        -11    1    3    3    0    0 -0.15027688016E+01 -0.29128650181E+01  0.46040363440E+01  0.56515703661E+01  0.51100000000E-03 0.  1.
         12    1    3    3    0    0  0.44563354172E+01 -0.29197706620E+01  0.20399730922E+00  0.53315664651E+01  0.00000000000E+00 0. -1.
</event>
<event>
 7    1  0.9953837E-014  0.5052886E+02  0.7816164E-02  0.1300439E+00
        -11   -1    0    0    0    0  0.00000000000E+00  0.00000000000E+00  0.45593999997E+02  0.45594000000E+02  0.51100000000E-03 0. -1.
         11   -1    0    0    0    0 -0.00000000000E+00 -0.00000000000E+00 -0.45593999997E+02  0.45594000000E+02  0.51100000000E-03 0.  1.
    9900012    2    1    2    0    0 -0.19425329770E+02  0.29695590348E+02  0.19849280207E+02  0.50528862681E+02  0.30000008604E+02 0.  0.
        -12    1    1    2    0    0  0.19425329770E+02 -0.29695590348E+02 -0.19849280207E+02  0.40659137319E+02  0.00000000000E+00 0.  1.
         11    1    3    3    0    0  0.55429477535E+00  0.13738885654E+02 -0.23323837466E+01  0.13946477545E+02  0.51100000000E-03 0. -1.
        -11    1    3    3    0    0 -0.43683571209E+01 -0.23468752996E+01  0.28411023041E+01  0.57150879408E+01  0.51100000000E-03 0.  1.
         12    1    3    3    0    0 -0.15611267424E+02  0.18303579994E+02  0.19340561650E+02  0.30867297195E+02  0.00000000000E+00 0. -1.
</event>
<event>
 7    1  0.9953837E-014  0.5052886E+02  0.7816164E-02  0.1300439E+00
        -11   -1    0    0    0    0  0.00000000000E+00  0.00000000000E+00  0.45593999997E+02  0.45594000000E+02  0.51100000000E-03 0. -1.
         11   -1    0    0    0    0 -0.00000000000E+00 -0.00000000000E+00 -0.45593999997E+02  0.45594000000E+02  0.51100000000E-03 0.  1.
    9900012    2    1    2    0    0  0.13047587885E+02 -0.41160227624E+01 -0.38288174769E+02  0.50528861788E+02  0.30000005890E+02 0.  0.
         12    1    1    2    0    0 -0.13047587885E+02  0.41160227624E+01  0.38288174769E+02  0.40659138212E+02  0.00000000000E+00 0. -1.
         11    1    3    3    0    0 -0.44020519606E+01  0.27015810966E+01  0.47063603176E+00  0.51863378622E+01  0.51100000000E-03 0. -1.
        -11    1    3    3    0    0  0.82006584290E+01 -0.94232578437E+01 -0.29333308931E+02  0.31882465403E+02  0.51100000000E-03 0.  1.
        -12    1    3    3    0    0  0.92489814167E+01  0.26056539847E+01 -0.94255018699E+01  0.13460058523E+02  0.00000000000E+00 0.  1.
</event>
<event>
 7    1  0.9953837E-014  0.5052886E+02  0.7816164E-02  0.1300439E+00
        -11   -1    0    0    0    0  0.00000000000E+00  0.00000000000E+00  0.45593999997E+02  0.45594000000E+02  0.51100000000E-03 0.  1.
         11   -1    0    0    0    0 -0.00000000000E+00 -0.00000000000E+00 -0.45593999997E+02  0.45594000000E+02  0.51100000000E-03 0. -1.
    9900012    2    1    2    0    0  0.34643771431E+02 -0.14632370716E+02  0.15455359516E+02  0.50528864378E+02  0.30000013763E+02 0.  0.
        -12    1    1    2    0    0 -0.34643771431E+02  0.14632370716E+02 -0.15455359516E+02  0.40659135622E+02  0.00000000000E+00 0.  1.
         11    1    3    3    0    0  0.11772913679E+02 -0.10071470987E+02  0.14156255365E+01  0.15557635433E+02  0.51100000000E-03 0. -1.
        -11    1    3    3    0    0  0.20233239207E+02  0.48067304747E+01  0.14295669553E+02  0.25235982146E+02  0.51100000000E-03 0.  1.
        -12    1    3    3    0    0  0.26376185455E+01 -0.93676302034E+01 -0.25593557339E+00  0.97352467990E+01  0.00000000000E+00 0.  1.
</event>
<event>
 7    1  0.9953837E-014  0.5052886E+02  0.7816164E-02  0.1300439E+00
        -11   -1    0    0    0    0  0.00000000000E+00  0.00000000000E+00  0.45593999997E+02  0.45594000000E+02  0.51100000000E-03 0. -1.
         11   -1    0    0    0    0 -0.00000000000E+00 -0.00000000000E+00 -0.45593999997E+02  0.45594000000E+02  0.51100000000E-03 0.  1.
    9900012    2    1    2    0    0 -0.20885592228E+01 -0.21092076091E+02 -0.34697668647E+02  0.50528856342E+02  0.29999989337E+02 0.  0.
         12    1    1    2    0    0  0.20885592228E+01  0.21092076091E+02  0.34697668647E+02  0.40659143658E+02  0.00000000000E+00 0. -1.
         11    1    3    3    0    0 -0.13651317637E+02 -0.43358122506E+01 -0.17756035860E+02  0.22813034669E+02  0.51100000000E-03 0. -1.
        -11    1    3    3    0    0  0.75717514527E+01 -0.86143145448E+01 -0.14178969197E+02  0.18236803527E+02  0.51100000000E-03 0.  1.
         12    1    3    3    0    0  0.39910069614E+01 -0.81419492956E+01 -0.27626635906E+01  0.94790181461E+01  0.00000000000E+00 0. -1.
</event>
<event>
 7    1  0.9953837E-014  0.5052886E+02  0.7816164E-02  0.1300439E+00
        -11   -1    0    0    0    0  0.00000000000E+00  0.00000000000E+00  0.45593999997E+02  0.45594000000E+02  0.51100000000E-03 0. -1.
         11   -1    0    0    0    0 -0.00000000000E+00 -0.00000000000E+00 -0.45593999997E+02  0.45594000000E+02  0.51100000000E-03 0.  1.
    9900012    2    1    2    0    0 -0.16626271538E+02 -0.13226381219E+02 -0.34666919899E+02  0.50528863257E+02  0.30000010356E+02 0.  0.
         12    1    1    2    0    0  0.16626271538E+02  0.13226381219E+02  0.34666919899E+02  0.40659136743E+02  0.00000000000E+00 0. -1.
         11    1    3    3    0    0 -0.22204687188E+02 -0.87419747882E+01 -0.21165106351E+02  0.31897209649E+02  0.51100000000E-03 0. -1.
        -11    1    3    3    0    0  0.15045373581E+01 -0.64605434829E+01 -0.12255239196E+02  0.13935319974E+02  0.51100000000E-03 0.  1.
         12    1    3    3    0    0  0.40738782919E+01  0.19761370521E+01 -0.12465743522E+01  0.46963336340E+01  0.00000000000E+00 0. -1.
</event>
<event>
 7    1  0.9953837E-014  0.5052886E+02  0.7816164E-02  0.1300439E+00
        -11   -1    0    0    0    0  0.00000000000E+00  0.00000000000E+00  0.45593999997E+02  0.45594000000E+02  0.51100000000E-03 0. -1.
         11   -1    0    0    0    0 -0.00000000000E+00 -0.00000000000E+00 -0.45593999997E+02  0.45594000000E+02  0.51100000000E-03 0.  1.
    9900012    2    1    2    0    0 -0.21978234180E+02 -0.26871303766E+02 -0.21167331895E+02  0.50528859781E+02  0.29999999791E+02 0.  0.
         12    1    1    2    0    0  0.21978234180E+02  0.26871303766E+02  0.21167331895E+02  0.40659140219E+02  0.00000000000E+00 0. -1.
         11    1    3    3    0    0 -0.46104956774E+01 -0.19529665201E+01 -0.76326650702E+01  0.91284349675E+01  0.51100000000E-03 0. -1.
        -11    1    3    3    0    0  0.31565537630E+00 -0.20575897371E+02 -0.44617519462E+01  0.21056457956E+02  0.51100000000E-03 0.  1.
        -12    1    3    3    0    0 -0.17683393879E+02 -0.43424398752E+01 -0.90729148786E+01  0.20343966858E+02  0.00000000000E+00 0.  1.
</event>
<event>
 7    1  0.9953837E-014  0.5052886E+02  0.7816164E-02  0.1300439E+00
        -11   -1    0    0    0    0  0.00000000000E+00  0.00000000000E+00  0.45593999997E+02  0.45594000000E+02  0.51100000000E-03 0. -1.
         11   -1    0    0    0    0 -0.00000000000E+00 -0.00000000000E+00 -0.45593999997E+02  0.45594000000E+02  0.51100000000E-03 0.  1.
    9900012    2    1    2    0    0  0.19247082457E+02  0.29270628100E+02  0.20638453361E+02  0.50528860687E+02  0.30000002546E+02 0.  0.
        -12    1    1    2    0    0 -0.19247082457E+02 -0.29270628100E+02 -0.20638453361E+02  0.40659139313E+02  0.00000000000E+00 0.  1.
         11    1    3    3    0    0  0.22789585087E+02  0.14030695828E+02  0.18562400882E+02  0.32569745786E+02  0.51100000000E-03 0. -1.
        -11    1    3    3    0    0 -0.39243636553E+01  0.54969806602E+01  0.42357134192E+01  0.79723707207E+01  0.51100000000E-03 0.  1.
         12    1    3    3    0    0  0.38186102584E+00  0.97429516116E+01 -0.21596609394E+01  0.99867441803E+01  0.00000000000E+00 0. -1.
</event>
<event>
 7    1  0.9953837E-014  0.5052884E+02  0.7816164E-02  0.1300439E+00
        -11   -1    0    0    0    0  0.00000000000E+00  0.00000000000E+00  0.45593999997E+02  0.45594000000E+02  0.51100000000E-03 0. -1.
         11   -1    0    0    0    0 -0.00000000000E+00 -0.00000000000E+00 -0.45593999997E+02  0.45594000000E+02  0.51100000000E-03 0.  1.
    9900012    2    1    2    0    0  0.61128640703E+01  0.38164786197E+02 -0.12619403000E+02  0.50528839351E+02  0.29999937692E+02 0.  0.
         12    1    1    2    0    0 -0.61128640703E+01 -0.38164786197E+02  0.12619403000E+02  0.40659160649E+02  0.00000000000E+00 0. -1.
         11    1    3    3    0    0  0.12938185938E+02  0.55422711696E+01 -0.21500953294E+01  0.14238551025E+02  0.51100000000E-03 0. -1.
        -11    1    3    3    0    0 -0.45130353517E+01  0.12052276540E+02 -0.86592109131E+01  0.15511505142E+02  0.51100000000E-03 0.  1.
         12    1    3    3    0    0 -0.23122865164E+01  0.20570238487E+02 -0.18100967574E+01  0.20778783184E+02  0.00000000000E+00 0. -1.
</event>
<event>
 7    1  0.9953837E-014  0.5052886E+02  0.7816164E-02  0.1300439E+00
        -11   -1    0    0    0    0  0.00000000000E+00  0.00000000000E+00  0.45593999997E+02  0.45594000000E+02  0.51100000000E-03 0. -1.
         11   -1    0    0    0    0 -0.00000000000E+00 -0.00000000000E+00 -0.45593999997E+02  0.45594000000E+02  0.51100000000E-03 0.  1.
    9900012    2    1    2    0    0 -0.24573352755E+02 -0.13156953572E+02 -0.29600860469E+02  0.50528855476E+02  0.29999986705E+02 0.  0.
         12    1    1    2    0    0  0.24573352755E+02  0.13156953572E+02  0.29600860469E+02  0.40659144524E+02  0.00000000000E+00 0. -1.
         11    1    3    3    0    0 -0.18815957057E+02 -0.14938325631E+02 -0.13888904198E+02  0.27750594096E+02  0.51100000000E-03 0. -1.
        -11    1    3    3    0    0  0.36468106225E+01  0.52212371062E+01 -0.48526669594E+01  0.80068047007E+01  0.51100000000E-03 0.  1.
         12    1    3    3    0    0 -0.94042063207E+01 -0.34398650478E+01 -0.10859289311E+02  0.14771456679E+02  0.00000000000E+00 0. -1.
</event>
<event>
 7    1  0.9953837E-014  0.5052883E+02  0.7816164E-02  0.1300439E+00
        -11   -1    0    0    0    0  0.00000000000E+00  0.00000000000E+00  0.45593999997E+02  0.45594000000E+02  0.51100000000E-03 0. -1.
         11   -1    0    0    0    0 -0.00000000000E+00 -0.00000000000E+00 -0.45593999997E+02  0.45594000000E+02  0.51100000000E-03 0.  1.
    9900012    2    1    2    0    0 -0.13374367898E+02  0.33873923344E+02  0.18079041732E+02  0.50528829456E+02  0.29999907613E+02 0.  0.
        -12    1    1    2    0    0  0.13374367898E+02 -0.33873923344E+02 -0.18079041732E+02  0.40659170544E+02  0.00000000000E+00 0.  1.
         11    1    3    3    0    0  0.13617188341E+01  0.12369229900E+02  0.18792491329E+02  0.22539074007E+02  0.51100000000E-03 0. -1.
        -11    1    3    3    0    0 -0.16093859630E+02  0.20852273829E+02 -0.42442922881E-01  0.26340680388E+02  0.51100000000E-03 0.  1.
         12    1    3    3    0    0  0.13577728979E+01  0.65241961541E+00 -0.67100667460E+00  0.16490750602E+01  0.00000000000E+00 0. -1.
</event>
<event>
 7    1  0.9953837E-014  0.5052887E+02  0.7816164E-02  0.1300439E+00
        -11   -1    0    0    0    0  0.00000000000E+00  0.00000000000E+00  0.45593999997E+02  0.45594000000E+02  0.51100000000E-03 0.  1.
         11   -1    0    0    0    0 -0.00000000000E+00 -0.00000000000E+00 -0.45593999997E+02  0.45594000000E+02  0.51100000000E-03 0. -1.
    9900012    2    1    2    0    0 -0.32853373488E+02 -0.22673513860E+02  0.77286629860E+01  0.50528872958E+02  0.30000039842E+02 0.  0.
         12    1    1    2    0    0  0.32853373488E+02  0.22673513860E+02 -0.77286629860E+01  0.40659127042E+02  0.00000000000E+00 0. -1.
         11    1    3    3    0    0 -0.15638893416E+02 -0.17930340917E+02 -0.12905437174E+01  0.23827245247E+02  0.51100000000E-03 0.  1.
        -11    1    3    3    0    0 -0.88720362818E+01  0.63101430949E+01  0.63335470002E+01  0.12595425818E+02  0.51100000000E-03 0. -1.
         12    1    3    3    0    0 -0.83424437901E+01 -0.11053316037E+02  0.26856597031E+01  0.14106201893E+02  0.00000000000E+00 0. -1.
</event>
<event>
 7    1  0.9953837E-014  0.5052885E+02  0.7816164E-02  0.1300439E+00
        -11   -1    0    0    0    0  0.00000000000E+00  0.00000000000E+00  0.45593999997E+02  0.45594000000E+02  0.51100000000E-03 0. -1.
         11   -1    0    0    0    0 -0.00000000000E+00 -0.00000000000E+00 -0.45593999997E+02  0.45594000000E+02  0.51100000000E-03 0.  1.
    9900012    2    1    2    0    0 -0.15626777093E+02  0.32842858612E+02  0.18174621911E+02  0.50528850898E+02  0.29999972790E+02 0.  0.
        -12    1    1    2    0    0  0.15626777093E+02 -0.32842858612E+02 -0.18174621911E+02  0.40659149102E+02  0.00000000000E+00 0.  1.
         11    1    3    3    0    0  0.14348909332E+01  0.10303870814E+02  0.18620261203E+02  0.21329388019E+02  0.51100000000E-03 0. -1.
        -11    1    3    3    0    0 -0.74726737673E+01  0.15164887267E+02 -0.19143383126E+01  0.17014092702E+02  0.51100000000E-03 0.  1.
         12    1    3    3    0    0 -0.95889942587E+01  0.73741005312E+01  0.14686990204E+01  0.12185370177E+02  0.00000000000E+00 0. -1.
</event>
<event>
 7    1  0.9953837E-014  0.5052886E+02  0.7816164E-02  0.1300439E+00
        -11   -1    0    0    0    0  0.00000000000E+00  0.00000000000E+00  0.45593999997E+02  0.45594000000E+02  0.51100000000E-03 0. -1.
         11   -1    0    0    0    0 -0.00000000000E+00 -0.00000000000E+00 -0.45593999997E+02  0.45594000000E+02  0.51100000000E-03 0.  1.
    9900012    2    1    2    0    0  0.48455846449E+01  0.23086252408E+02  0.33116628498E+02  0.50528858053E+02  0.29999994538E+02 0.  0.
        -12    1    1    2    0    0 -0.48455846449E+01 -0.23086252408E+02 -0.33116628498E+02  0.40659141947E+02  0.00000000000E+00 0.  1.
         11    1    3    3    0    0  0.61883300149E+01  0.46611455759E+01  0.30286615861E+02  0.31261810680E+02  0.51100000000E-03 0. -1.
        -11    1    3    3    0    0  0.98167937119E+00  0.92634746222E+01  0.30815182783E+01  0.98117996119E+01  0.51100000000E-03 0.  1.
         12    1    3    3    0    0 -0.23244247412E+01  0.91616322101E+01 -0.25150564129E+00  0.94552477608E+01  0.00000000000E+00 0. -1.
</event>
<event>
 7    1  0.9953837E-014  0.5052884E+02  0.7816164E-02  0.1300439E+00
        -11   -1    0    0    0    0  0.00000000000E+00  0.00000000000E+00  0.45593999997E+02  0.45594000000E+02  0.51100000000E-03 0. -1.
         11   -1    0    0    0    0 -0.00000000000E+00 -0.00000000000E+00 -0.45593999997E+02  0.45594000000E+02  0.51100000000E-03 0.  1.
    9900012    2    1    2    0    0  0.25521741312E+02 -0.89115940643E+01 -0.30370896849E+02  0.50528841576E+02  0.29999944454E+02 0.  0.
         12    1    1    2    0    0 -0.25521741312E+02  0.89115940643E+01  0.30370896849E+02  0.40659158424E+02  0.00000000000E+00 0. -1.
         11    1    3    3    0    0  0.28504331518E+00 -0.48784834926E+01 -0.22962545716E-01  0.48868577244E+01  0.51100000000E-03 0. -1.
        -11    1    3    3    0    0  0.25482438753E+02  0.29560685458E+01 -0.17627703711E+02  0.31126017485E+02  0.51100000000E-03 0.  1.
         12    1    3    3    0    0 -0.24574075607E+00 -0.69891791175E+01 -0.12720230592E+02  0.14515966367E+02  0.00000000000E+00 0. -1.
</event>
<event>
 7    1  0.9953837E-014  0.5052886E+02  0.7816164E-02  0.1300439E+00
        -11   -1    0    0    0    0  0.00000000000E+00  0.00000000000E+00  0.45593999997E+02  0.45594000000E+02  0.51100000000E-03 0. -1.
         11   -1    0    0    0    0 -0.00000000000E+00 -0.00000000000E+00 -0.45593999997E+02  0.45594000000E+02  0.51100000000E-03 0.  1.
    9900012    2    1    2    0    0 -0.27397186704E+02  0.29993769625E+01 -0.29892536602E+02  0.50528857781E+02  0.29999993711E+02 0.  0.
         12    1    1    2    0    0  0.27397186704E+02 -0.29993769625E+01  0.29892536602E+02  0.40659142219E+02  0.00000000000E+00 0. -1.
         11    1    3    3    0    0 -0.18966139276E+01 -0.67762390790E+01  0.78143853892E+00  0.70799157409E+01  0.51100000000E-03 0. -1.
        -11    1    3    3    0    0 -0.18431387383E+02  0.12744943527E+02 -0.26550387966E+02  0.34742952203E+02  0.51100000000E-03 0.  1.
        -12    1    3    3    0    0 -0.70691853938E+01 -0.29693274857E+01 -0.41235871749E+01  0.87059898368E+01  0.00000000000E+00 0.  1.
</event>
<event>
 7    1  0.9953837E-014  0.5052886E+02  0.7816164E-02  0.1300439E+00
        -11   -1    0    0    0    0  0.00000000000E+00  0.00000000000E+00  0.45593999997E+02  0.45594000000E+02  0.51100000000E-03 0. -1.
         11   -1    0    0    0    0 -0.00000000000E+00 -0.00000000000E+00 -0.45593999997E+02  0.45594000000E+02  0.51100000000E-03 0.  1.
    9900012    2    1    2    0    0  0.38029929987E+02  0.13881242787E+02  0.37684315449E+01  0.50528861391E+02  0.30000004684E+02 0.  0.
         12    1    1    2    0    0 -0.38029929987E+02 -0.13881242787E+02 -0.37684315449E+01  0.40659138609E+02  0.00000000000E+00 0. -1.
         11    1    3    3    0    0  0.66361312326E+01 -0.15948619878E+01  0.51507641310E+01  0.85505668754E+01  0.51100000000E-03 0. -1.
        -11    1    3    3    0    0  0.59107914572E+01  0.30106655012E+01 -0.10291230740E+02  0.12243814472E+02  0.51100000000E-03 0.  1.
        -12    1    3    3    0    0  0.25483007297E+02  0.12465439273E+02  0.89088981539E+01  0.29734480044E+02  0.00000000000E+00 0.  1.
</event>
<event>
 7    1  0.9953837E-014  0.5052886E+02  0.7816164E-02  0.1300439E+00
        -11   -1    0    0    0    0  0.00000000000E+00  0.00000000000E+00  0.45593999997E+02  0.45594000000E+02  0.51100000000E-03 0. -1.
         11   -1    0    0    0    0 -0.00000000000E+00 -0.00000000000E+00 -0.45593999997E+02  0.45594000000E+02  0.51100000000E-03 0.  1.
    9900012    2    1    2    0    0  0.97174289488E+01 -0.26069425638E+02 -0.29649990495E+02  0.50528864313E+02  0.30000013566E+02 0.  0.
         12    1    1    2    0    0 -0.97174289488E+01  0.26069425638E+02  0.29649990495E+02  0.40659135687E+02  0.00000000000E+00 0. -1.
         11    1    3    3    0    0  0.63339262282E+01 -0.22520689484E+01 -0.99902610051E+01  0.12041418157E+02  0.51100000000E-03 0. -1.
        -11    1    3    3    0    0  0.42369473397E+01 -0.24799641904E+02 -0.23503450001E+02  0.34429436875E+02  0.51100000000E-03 0.  1.
        -12    1    3    3    0    0 -0.85344461908E+00  0.98228521392E+00  0.38437205113E+01  0.40580092814E+01  0.00000000000E+00 0.  1.
</event>
<event>
 7    1  0.9953837E-014  0.5052886E+02  0.7816164E-02  0.1300439E+00
        -11   -1    0    0    0    0  0.00000000000E+00  0.00000000000E+00  0.45593999997E+02  0.45594000000E+02  0.51100000000E-03 0. -1.
         11   -1    0    0    0    0 -0.00000000000E+00 -0.00000000000E+00 -0.45593999997E+02  0.45594000000E+02  0.51100000000E-03 0.  1.
    9900012    2    1    2    0    0  0.34275789838E+02  0.21851611012E+02  0.91822209433E+00  0.50528858289E+02  0.29999995255E+02 0.  0.
         12    1    1    2    0    0 -0.34275789838E+02 -0.21851611012E+02 -0.91822209433E+00  0.40659141711E+02  0.00000000000E+00 0. -1.
         11    1    3    3    0    0 -0.37413896495E+01  0.18317183734E+01 -0.55467922138E+00  0.42024823626E+01  0.51100000000E-03 0. -1.
        -11    1    3    3    0    0  0.28795839455E+02  0.58318407863E+01  0.10885672445E+01  0.29400607405E+02  0.51100000000E-03 0.  1.
        -12    1    3    3    0    0  0.92213400326E+01  0.14188051852E+02  0.38433407118E+00  0.16925768521E+02  0.00000000000E+00 0.  1.
</event>
<event>
 7    1  0.9953837E-014  0.5052885E+02  0.7816164E-02  0.1300439E+00
        -11   -1    0    0    0    0  0.00000000000E+00  0.00000000000E+00  0.45593999997E+02  0.45594000000E+02  0.51100000000E-03 0. -1.
         11   -1    0    0    0    0 -0.00000000000E+00 -0.00000000000E+00 -0.45593999997E+02  0.45594000000E+02  0.51100000000E-03 0.  1.
    9900012    2    1    2    0    0 -0.19624681910E+02 -0.96483833321E+01 -0.34277501649E+02  0.50528848997E+02  0.29999967010E+02 0.  0.
         12    1    1    2    0    0  0.19624681910E+02  0.96483833321E+01  0.34277501649E+02  0.40659151003E+02  0.00000000000E+00 0. -1.
         11    1    3    3    0    0  0.54855017128E+01 -0.26497257145E+01 -0.17034074987E+02  0.18090646377E+02  0.51100000000E-03 0. -1.
        -11    1    3    3    0    0 -0.24286162643E+02 -0.56062092284E+01 -0.17905855259E+02  0.30689850613E+02  0.51100000000E-03 0.  1.
         12    1    3    3    0    0 -0.82402097983E+00 -0.13924483892E+01  0.66242859728E+00  0.17483520064E+01  0.00000000000E+00 0. -1.
</event>
<event>
 7    1  0.9953837E-014  0.5052886E+02  0.7816164E-02  0.1300439E+00
        -11   -1    0    0    0    0  0.00000000000E+00  0.00000000000E+00  0.45593999997E+02  0.45594000000E+02  0.51100000000E-03 0. -1.
         11   -1    0    0    0    0 -0.00000000000E+00 -0.00000000000E+00 -0.45593999997E+02  0.45594000000E+02  0.51100000000E-03 0.  1.
    9900012    2    1    2    0    0  0.19616030785E+02 -0.26641051629E+02 -0.23635377053E+02  0.50528863953E+02  0.30000012472E+02 0.  0.
         12    1    1    2    0    0 -0.19616030785E+02  0.26641051629E+02  0.23635377053E+02  0.40659136047E+02  0.00000000000E+00 0. -1.
         11    1    3    3    0    0 -0.35957635827E+01 -0.20202035280E+00 -0.52378755637E+01  0.63565453391E+01  0.51100000000E-03 0. -1.
        -11    1    3    3    0    0  0.16750524259E+02 -0.25560145236E+02 -0.74899939854E+01  0.31464282887E+02  0.51100000000E-03 0.  1.
        -12    1    3    3    0    0  0.64612701090E+01 -0.87888604005E+00 -0.10907507503E+02  0.12708035727E+02  0.00000000000E+00 0.  1.
</event>
<event>
 7    1  0.9953837E-014  0.5052886E+02  0.7816164E-02  0.1300439E+00
        -11   -1    0    0    0    0  0.00000000000E+00  0.00000000000E+00  0.45593999997E+02  0.45594000000E+02  0.51100000000E-03 0. -1.
         11   -1    0    0    0    0 -0.00000000000E+00 -0.00000000000E+00 -0.45593999997E+02  0.45594000000E+02  0.51100000000E-03 0.  1.
    9900012    2    1    2    0    0  0.12439552593E+02  0.48056012941E+00 -0.38706492567E+02  0.50528856212E+02  0.29999988941E+02 0.  0.
         12    1    1    2    0    0 -0.12439552593E+02 -0.48056012941E+00  0.38706492567E+02  0.40659143788E+02  0.00000000000E+00 0. -1.
         11    1    3    3    0    0  0.81800240882E+01 -0.75873332222E+01 -0.75677885320E+01  0.13481537117E+02  0.51100000000E-03 0. -1.
        -11    1    3    3    0    0  0.15156247576E+01  0.20473299483E+00 -0.28161497166E+02  0.28202995530E+02  0.51100000000E-03 0.  1.
         12    1    3    3    0    0  0.27439037477E+01  0.78631603568E+01 -0.29772068690E+01  0.88443235645E+01  0.00000000000E+00 0. -1.
</event>
<event>
 7    1  0.9953837E-014  0.5052885E+02  0.7816164E-02  0.1300439E+00
        -11   -1    0    0    0    0  0.00000000000E+00  0.00000000000E+00  0.45593999997E+02  0.45594000000E+02  0.51100000000E-03 0. -1.
         11   -1    0    0    0    0 -0.00000000000E+00 -0.00000000000E+00 -0.45593999997E+02  0.45594000000E+02  0.51100000000E-03 0.  1.
    9900012    2    1    2    0    0  0.18019762279E+02 -0.10487541880E+00 -0.36447820977E+02  0.50528849918E+02  0.29999969810E+02 0.  0.
         12    1    1    2    0    0 -0.18019762279E+02  0.10487541880E+00  0.36447820977E+02  0.40659150082E+02  0.00000000000E+00 0. -1.
         11    1    3    3    0    0  0.22798582786E+01 -0.37502409566E+00  0.44397780205E+01  0.50050000974E+01  0.51100000000E-03 0. -1.
        -11    1    3    3    0    0  0.10195814517E+02 -0.34850845740E+01 -0.34953702090E+02  0.36576792344E+02  0.51100000000E-03 0.  1.
         12    1    3    3    0    0  0.55440894837E+01  0.37552332509E+01 -0.59338969076E+01  0.89470574762E+01  0.00000000000E+00 0. -1.
</event>
<event>
 7    1  0.9953837E-014  0.5052886E+02  0.7816164E-02  0.1300439E+00
        -11   -1    0    0    0    0  0.00000000000E+00  0.00000000000E+00  0.45593999997E+02  0.45594000000E+02  0.51100000000E-03 0.  1.
         11   -1    0    0    0    0 -0.00000000000E+00 -0.00000000000E+00 -0.45593999997E+02  0.45594000000E+02  0.51100000000E-03 0. -1.
    9900012    2    1    2    0    0  0.40122515446E+02 -0.33060335890E+01  0.56938081764E+01  0.50528861355E+02  0.30000004575E+02 0.  0.
        -12    1    1    2    0    0 -0.40122515446E+02  0.33060335890E+01 -0.56938081764E+01  0.40659138645E+02  0.00000000000E+00 0.  1.
         11    1    3    3    0    0  0.14935800919E+02 -0.15457116744E+01 -0.57237794724E+01  0.16069506071E+02  0.51100000000E-03 0. -1.
        -11    1    3    3    0    0  0.11567034574E+02 -0.10627957384E+02  0.87773009156E+01  0.17994187357E+02  0.51100000000E-03 0.  1.
        -12    1    3    3    0    0  0.13619679953E+02  0.88676354697E+01  0.26402867332E+01  0.16465167927E+02  0.00000000000E+00 0.  1.
</event>
<event>
 7    1  0.9953837E-014  0.5052888E+02  0.7816164E-02  0.1300439E+00
        -11   -1    0    0    0    0  0.00000000000E+00  0.00000000000E+00  0.45593999997E+02  0.45594000000E+02  0.51100000000E-03 0. -1.
         11   -1    0    0    0    0 -0.00000000000E+00 -0.00000000000E+00 -0.45593999997E+02  0.45594000000E+02  0.51100000000E-03 0.  1.
    9900012    2    1    2    0    0 -0.10661523870E+01  0.14257813170E+02  0.38062345385E+02  0.50528879823E+02  0.30000060711E+02 0.  0.
        -12    1    1    2    0    0  0.10661523870E+01 -0.14257813170E+02 -0.38062345385E+02  0.40659120177E+02  0.00000000000E+00 0.  1.
         11    1    3    3    0    0  0.46070665333E+00 -0.47211188116E+01 -0.44087996767E+00  0.47639887553E+01  0.51100000000E-03 0.  1.
        -11    1    3    3    0    0 -0.82893085002E+01  0.14248610680E+02  0.25711760890E+02  0.30542268908E+02  0.51100000000E-03 0. -1.
        -12    1    3    3    0    0  0.67624494599E+01  0.47303213018E+01  0.12791464463E+02  0.15222622160E+02  0.00000000000E+00 0.  1.
</event>
<event>
 7    1  0.9953837E-014  0.5052887E+02  0.7816164E-02  0.1300439E+00
        -11   -1    0    0    0    0  0.00000000000E+00  0.00000000000E+00  0.45593999997E+02  0.45594000000E+02  0.51100000000E-03 0. -1.
         11   -1    0    0    0    0 -0.00000000000E+00 -0.00000000000E+00 -0.45593999997E+02  0.45594000000E+02  0.51100000000E-03 0.  1.
    9900012    2    1    2    0    0 -0.21686590149E+02  0.15530054196E+02  0.30686709269E+02  0.50528869397E+02  0.30000029019E+02 0.  0.
        -12    1    1    2    0    0  0.21686590149E+02 -0.15530054196E+02 -0.30686709269E+02  0.40659130603E+02  0.00000000000E+00 0.  1.
         11    1    3    3    0    0 -0.74958800825E+01  0.72299021722E+01  0.98611150518E+01  0.14342290401E+02  0.51100000000E-03 0. -1.
        -11    1    3    3    0    0 -0.13360603484E+02 -0.59860860944E+01  0.67764608731E+01  0.16132556351E+02  0.51100000000E-03 0.  1.
        -12    1    3    3    0    0 -0.83010658226E+00  0.14286238118E+02  0.14049133344E+02  0.20054022645E+02  0.00000000000E+00 0.  1.
</event>
<event>
 7    1  0.9953837E-014  0.5052885E+02  0.7816164E-02  0.1300439E+00
        -11   -1    0    0    0    0  0.00000000000E+00  0.00000000000E+00  0.45593999997E+02  0.45594000000E+02  0.51100000000E-03 0. -1.
         11   -1    0    0    0    0 -0.00000000000E+00 -0.00000000000E+00 -0.45593999997E+02  0.45594000000E+02  0.51100000000E-03 0.  1.
    9900012    2    1    2    0    0 -0.28778422739E+02 -0.13220765704E+02  0.25498627606E+02  0.50528852555E+02  0.29999977827E+02 0.  0.
        -12    1    1    2    0    0  0.28778422739E+02  0.13220765704E+02 -0.25498627606E+02  0.40659147445E+02  0.00000000000E+00 0.  1.
         11    1    3    3    0    0 -0.68697801461E+01 -0.16534925703E+02  0.17554194038E+02  0.25074835509E+02  0.51100000000E-03 0. -1.
        -11    1    3    3    0    0 -0.55163397182E+01  0.24973391157E+01  0.66448031224E+01  0.89900008532E+01  0.51100000000E-03 0.  1.
         12    1    3    3    0    0 -0.16392302875E+02  0.81682088263E+00  0.12996304456E+01  0.16464016193E+02  0.00000000000E+00 0. -1.
</event>
<event>
 7    1  0.9953837E-014  0.5052896E+02  0.7816164E-02  0.1300438E+00
        -11   -1    0    0    0    0  0.00000000000E+00  0.00000000000E+00  0.45593999997E+02  0.45594000000E+02  0.51100000000E-03 0.  1.
         11   -1    0    0    0    0 -0.00000000000E+00 -0.00000000000E+00 -0.45593999997E+02  0.45594000000E+02  0.51100000000E-03 0. -1.
    9900012    2    1    2    0    0 -0.36318824561E+02  0.17650695049E+02  0.47490626336E+01  0.50528958582E+02  0.30000300103E+02 0.  0.
        -12    1    1    2    0    0  0.36318824561E+02 -0.17650695049E+02 -0.47490626336E+01  0.40659041418E+02  0.00000000000E+00 0.  1.
         11    1    3    3    0    0 -0.12042906261E+02 -0.44394235913E+01  0.10517560663E+02  0.16593949367E+02  0.51100000000E-03 0. -1.
        -11    1    3    3    0    0 -0.32294450734E+01  0.64339250984E+01 -0.88391015574E+00  0.72529997297E+01  0.51100000000E-03 0.  1.
         12    1    3    3    0    0 -0.21046473226E+02  0.15656193541E+02 -0.48845878734E+01  0.26682009485E+02  0.00000000000E+00 0. -1.
</event>
<event>
 7    1  0.9953837E-014  0.5052886E+02  0.7816164E-02  0.1300439E+00
        -11   -1    0    0    0    0  0.00000000000E+00  0.00000000000E+00  0.45593999997E+02  0.45594000000E+02  0.51100000000E-03 0.  1.
         11   -1    0    0    0    0 -0.00000000000E+00 -0.00000000000E+00 -0.45593999997E+02  0.45594000000E+02  0.51100000000E-03 0. -1.
    9900012    2    1    2    0    0 -0.22328177464E+02  0.13745358243E+02  0.31075441644E+02  0.50528862583E+02  0.30000008307E+02 0.  0.
        -12    1    1    2    0    0  0.22328177464E+02 -0.13745358243E+02 -0.31075441644E+02  0.40659137417E+02  0.00000000000E+00 0.  1.
         11    1    3    3    0    0 -0.11676920784E+02 -0.11741880004E+01 -0.21009224678E+01  0.11922376941E+02  0.51100000000E-03 0. -1.
        -11    1    3    3    0    0 -0.32254668621E+01  0.85513242387E+01  0.10563898337E+02  0.13968705418E+02  0.51100000000E-03 0.  1.
         12    1    3    3    0    0 -0.74257898186E+01  0.63682220048E+01  0.22612465775E+02  0.24637780224E+02  0.00000000000E+00 0. -1.
</event>
<event>
 7    1  0.9953837E-014  0.5052885E+02  0.7816164E-02  0.1300439E+00
        -11   -1    0    0    0    0  0.00000000000E+00  0.00000000000E+00  0.45593999997E+02  0.45594000000E+02  0.51100000000E-03 0. -1.
         11   -1    0    0    0    0 -0.00000000000E+00 -0.00000000000E+00 -0.45593999997E+02  0.45594000000E+02  0.51100000000E-03 0.  1.
    9900012    2    1    2    0    0  0.21397530147E+02  0.16670349791E+02 -0.30288803877E+02  0.50528849753E+02  0.29999969309E+02 0.  0.
         12    1    1    2    0    0 -0.21397530147E+02 -0.16670349791E+02  0.30288803877E+02  0.40659150247E+02  0.00000000000E+00 0. -1.
         11    1    3    3    0    0  0.17924298941E+01 -0.15402100237E+01  0.30133414962E+01  0.38295272653E+01  0.51100000000E-03 0. -1.
        -11    1    3    3    0    0  0.32211570289E+01  0.14738166897E+02 -0.21272356632E+02  0.26078776295E+02  0.51100000000E-03 0.  1.
        -12    1    3    3    0    0  0.16383943224E+02  0.34723929178E+01 -0.12029788741E+02  0.20620546193E+02  0.00000000000E+00 0.  1.
</event>
<event>
 7    1  0.9953837E-014  0.5052886E+02  0.7816164E-02  0.1300439E+00
        -11   -1    0    0    0    0  0.00000000000E+00  0.00000000000E+00  0.45593999997E+02  0.45594000000E+02  0.51100000000E-03 0. -1.
         11   -1    0    0    0    0 -0.00000000000E+00 -0.00000000000E+00 -0.45593999997E+02  0.45594000000E+02  0.51100000000E-03 0.  1.
    9900012    2    1    2    0    0  0.20586220417E+01  0.38555726620E+02 -0.12742984082E+02  0.50528860520E+02  0.30000002038E+02 0.  0.
         12    1    1    2    0    0 -0.20586220417E+01 -0.38555726620E+02  0.12742984082E+02  0.40659139480E+02  0.00000000000E+00 0. -1.
         11    1    3    3    0    0  0.82746439030E+01  0.24448796513E+02 -0.17374708748E+02  0.31114207156E+02  0.51100000000E-03 0. -1.
        -11    1    3    3    0    0  0.27223103162E+01  0.18815400141E+01 -0.65599213335E+00  0.33736467246E+01  0.51100000000E-03 0.  1.
         12    1    3    3    0    0 -0.89383321776E+01  0.12225390093E+02  0.52877167995E+01  0.16041006639E+02  0.00000000000E+00 0. -1.
</event>
<event>
 7    1  0.9953837E-014  0.5052886E+02  0.7816164E-02  0.1300439E+00
        -11   -1    0    0    0    0  0.00000000000E+00  0.00000000000E+00  0.45593999997E+02  0.45594000000E+02  0.51100000000E-03 0. -1.
         11   -1    0    0    0    0 -0.00000000000E+00 -0.00000000000E+00 -0.45593999997E+02  0.45594000000E+02  0.51100000000E-03 0.  1.
    9900012    2    1    2    0    0 -0.12294808815E+02  0.67664502910E+01 -0.38160426710E+02  0.50528864003E+02  0.30000012624E+02 0.  0.
         12    1    1    2    0    0  0.12294808815E+02 -0.67664502910E+01  0.38160426710E+02  0.40659135997E+02  0.00000000000E+00 0. -1.
         11    1    3    3    0    0  0.17893982713E+01 -0.45074988499E+01  0.10301992158E+00  0.48507840006E+01  0.51100000000E-03 0. -1.
        -11    1    3    3    0    0 -0.10816357110E+02  0.90247397659E+01 -0.10340437272E+02  0.17474671734E+02  0.51100000000E-03 0.  1.
        -12    1    3    3    0    0 -0.32678499765E+01  0.22492093749E+01 -0.27923009359E+02  0.28203408268E+02  0.00000000000E+00 0.  1.
</event>
<event>
 7    1  0.9953837E-014  0.5052886E+02  0.7816164E-02  0.1300439E+00
        -11   -1    0    0    0    0  0.00000000000E+00  0.00000000000E+00  0.45593999997E+02  0.45594000000E+02  0.51100000000E-03 0. -1.
         11   -1    0    0    0    0 -0.00000000000E+00 -0.00000000000E+00 -0.45593999997E+02  0.45594000000E+02  0.51100000000E-03 0.  1.
    9900012    2    1    2    0    0  0.28208392228E+02  0.15571640126E+02  0.24798711940E+02  0.50528862255E+02  0.30000007310E+02 0.  0.
        -12    1    1    2    0    0 -0.28208392228E+02 -0.15571640126E+02 -0.24798711940E+02  0.40659137745E+02  0.00000000000E+00 0.  1.
         11    1    3    3    0    0  0.17714155227E+02  0.12218823038E+02  0.11732313997E+02  0.24509959686E+02  0.51100000000E-03 0. -1.
        -11    1    3    3    0    0 -0.43733619087E+01 -0.29508122234E+01  0.70063683895E+01  0.87705635755E+01  0.51100000000E-03 0.  1.
        -12    1    3    3    0    0  0.14867598910E+02  0.63036293111E+01  0.60600295535E+01  0.17248338993E+02  0.00000000000E+00 0.  1.
</event>
<event>
 7    1  0.9953837E-014  0.5052885E+02  0.7816164E-02  0.1300439E+00
        -11   -1    0    0    0    0  0.00000000000E+00  0.00000000000E+00  0.45593999997E+02  0.45594000000E+02  0.51100000000E-03 0. -1.
         11   -1    0    0    0    0 -0.00000000000E+00 -0.00000000000E+00 -0.45593999997E+02  0.45594000000E+02  0.51100000000E-03 0.  1.
    9900012    2    1    2    0    0 -0.34517703407E+01 -0.48715262084E+01 -0.40218405770E+02  0.50528847909E+02  0.29999963703E+02 0.  0.
         12    1    1    2    0    0  0.34517703407E+01  0.48715262084E+01  0.40218405770E+02  0.40659152091E+02  0.00000000000E+00 0. -1.
         11    1    3    3    0    0  0.10417246328E+02 -0.29730474787E+01 -0.17557335066E+02  0.20630512530E+02  0.51100000000E-03 0. -1.
        -11    1    3    3    0    0 -0.63440016135E+01  0.46149319937E+01 -0.16292102633E+02  0.18082493253E+02  0.51100000000E-03 0.  1.
         12    1    3    3    0    0 -0.75250150556E+01 -0.65134107235E+01 -0.63689680716E+01  0.11815842126E+02  0.00000000000E+00 0. -1.
</event>
<event>
 7    1  0.9953837E-014  0.5052886E+02  0.7816164E-02  0.1300439E+00
        -11   -1    0    0    0    0  0.00000000000E+00  0.00000000000E+00  0.45593999997E+02  0.45594000000E+02  0.51100000000E-03 0. -1.
         11   -1    0    0    0    0 -0.00000000000E+00 -0.00000000000E+00 -0.45593999997E+02  0.45594000000E+02  0.51100000000E-03 0.  1.
    9900012    2    1    2    0    0 -0.30578813664E+02  0.11831818319E+02  0.24043911751E+02  0.50528862501E+02  0.30000008058E+02 0.  0.
        -12    1    1    2    0    0  0.30578813664E+02 -0.11831818319E+02 -0.24043911751E+02  0.40659137499E+02  0.00000000000E+00 0.  1.
         11    1    3    3    0    0 -0.80358726042E+01  0.77792905795E+01 -0.48031353116E+01  0.12172210954E+02  0.51100000000E-03 0. -1.
        -11    1    3    3    0    0 -0.91908068014E+01  0.55943433944E+01  0.18472617364E+02  0.21377679954E+02  0.51100000000E-03 0.  1.
         12    1    3    3    0    0 -0.13352134259E+02 -0.15418156546E+01  0.10374429699E+02  0.16978971593E+02  0.00000000000E+00 0. -1.
</event>
<event>
 7    1  0.9953837E-014  0.5052887E+02  0.7816164E-02  0.1300439E+00
        -11   -1    0    0    0    0  0.00000000000E+00  0.00000000000E+00  0.45593999997E+02  0.45594000000E+02  0.51100000000E-03 0. -1.
         11   -1    0    0    0    0 -0.00000000000E+00 -0.00000000000E+00 -0.45593999997E+02  0.45594000000E+02  0.51100000000E-03 0.  1.
    9900012    2    1    2    0    0  0.45462025378E+01  0.26996160257E+01 -0.40313884489E+02  0.50528866133E+02  0.30000019099E+02 0.  0.
         12    1    1    2    0    0 -0.45462025378E+01 -0.26996160257E+01  0.40313884489E+02  0.40659133867E+02  0.00000000000E+00 0. -1.
         11    1    3    3    0    0 -0.43583812099E+01 -0.22018823389E+01 -0.36677437019E+00  0.48967638604E+01  0.51100000000E-03 0. -1.
        -11    1    3    3    0    0  0.26286982404E+01 -0.22784324073E+01 -0.34449609922E+02  0.34624802277E+02  0.51100000000E-03 0.  1.
         12    1    3    3    0    0  0.62758855072E+01  0.71799307719E+01 -0.54975001964E+01  0.11007299996E+02  0.00000000000E+00 0. -1.
</event>
<event>
 7    1  0.9953837E-014  0.5052884E+02  0.7816164E-02  0.1300439E+00
        -11   -1    0    0    0    0  0.00000000000E+00  0.00000000000E+00  0.45593999997E+02  0.45594000000E+02  0.51100000000E-03 0. -1.
         11   -1    0    0    0    0 -0.00000000000E+00 -0.00000000000E+00 -0.45593999997E+02  0.45594000000E+02  0.51100000000E-03 0.  1.
    9900012    2    1    2    0    0  0.35896295120E+02 -0.10926441644E+02 -0.15660014597E+02  0.50528841284E+02  0.29999943567E+02 0.  0.
         12    1    1    2    0    0 -0.35896295120E+02  0.10926441644E+02  0.15660014597E+02  0.40659158716E+02  0.00000000000E+00 0. -1.
         11    1    3    3    0    0 -0.11824968941E+01  0.11732390677E+01 -0.50771589437E+01  0.53434382204E+01  0.51100000000E-03 0. -1.
        -11    1    3    3    0    0  0.24483696423E+02 -0.17165801466E+02 -0.10235782323E+02  0.31605179489E+02  0.51100000000E-03 0.  1.
        -12    1    3    3    0    0  0.12595095591E+02  0.50661207543E+01 -0.34707332992E+00  0.13580223574E+02  0.00000000000E+00 0.  1.
</event>
<event>
 7    1  0.9953837E-014  0.5052886E+02  0.7816164E-02  0.1300439E+00
        -11   -1    0    0    0    0  0.00000000000E+00  0.00000000000E+00  0.45593999997E+02  0.45594000000E+02  0.51100000000E-03 0.  1.
         11   -1    0    0    0    0 -0.00000000000E+00 -0.00000000000E+00 -0.45593999997E+02  0.45594000000E+02  0.51100000000E-03 0. -1.
    9900012    2    1    2    0    0 -0.24145309271E+01  0.16752262768E+02 -0.36968871103E+02  0.50528859600E+02  0.29999999239E+02 0.  0.
         12    1    1    2    0    0  0.24145309271E+01 -0.16752262768E+02  0.36968871103E+02  0.40659140400E+02  0.00000000000E+00 0. -1.
         11    1    3    3    0    0  0.10558445929E+02  0.12886513524E+02 -0.27589110790E+02  0.32228900783E+02  0.51100000000E-03 0. -1.
        -11    1    3    3    0    0 -0.34774934006E+01  0.24559266058E+01 -0.73411865587E+01  0.84863158199E+01  0.51100000000E-03 0.  1.
         12    1    3    3    0    0 -0.94954834550E+01  0.14098226384E+01 -0.20385737544E+01  0.98136429967E+01  0.00000000000E+00 0. -1.
</event>
<event>
 7    1  0.9953837E-014  0.5052885E+02  0.7816164E-02  0.1300439E+00
        -11   -1    0    0    0    0  0.00000000000E+00  0.00000000000E+00  0.45593999997E+02  0.45594000000E+02  0.51100000000E-03 0.  1.
         11   -1    0    0    0    0 -0.00000000000E+00 -0.00000000000E+00 -0.45593999997E+02  0.45594000000E+02  0.51100000000E-03 0. -1.
    9900012    2    1    2    0    0 -0.24761945092E+02 -0.11099094791E+01 -0.32230119325E+02  0.50528850777E+02  0.29999972423E+02 0.  0.
         12    1    1    2    0    0  0.24761945092E+02  0.11099094791E+01  0.32230119325E+02  0.40659149223E+02  0.00000000000E+00 0. -1.
         11    1    3    3    0    0 -0.72425802194E+01 -0.31000115680E+01  0.23977132660E+01  0.82349298190E+01  0.51100000000E-03 0.  1.
        -11    1    3    3    0    0 -0.98077533225E+00 -0.13880036810E+01 -0.19660531474E+02  0.19733853465E+02  0.51100000000E-03 0. -1.
        -12    1    3    3    0    0 -0.16538589541E+02  0.33781057700E+01 -0.14967301117E+02  0.22560067493E+02  0.00000000000E+00 0.  1.
</event>
<event>
 7    1  0.9953837E-014  0.5052885E+02  0.7816164E-02  0.1300439E+00
        -11   -1    0    0    0    0  0.00000000000E+00  0.00000000000E+00  0.45593999997E+02  0.45594000000E+02  0.51100000000E-03 0. -1.
         11   -1    0    0    0    0 -0.00000000000E+00 -0.00000000000E+00 -0.45593999997E+02  0.45594000000E+02  0.51100000000E-03 0.  1.
    9900012    2    1    2    0    0 -0.13070396934E+02  0.78994599290E+01  0.37681950048E+02  0.50528854626E+02  0.29999984120E+02 0.  0.
        -12    1    1    2    0    0  0.13070396934E+02 -0.78994599290E+01 -0.37681950048E+02  0.40659145374E+02  0.00000000000E+00 0.  1.
         11    1    3    3    0    0  0.30789665634E+00  0.58171988831E+01  0.33330128161E+01  0.67114512507E+01  0.51100000000E-03 0. -1.
        -11    1    3    3    0    0 -0.12740168643E+02 -0.53212122775E+01  0.33627477111E+02  0.36351539366E+02  0.51100000000E-03 0.  1.
        -12    1    3    3    0    0 -0.63812494683E+00  0.74034733234E+01  0.72146012061E+00  0.74658640092E+01  0.00000000000E+00 0.  1.
</event>
<event>
 7    1  0.9953837E-014  0.5052896E+02  0.7816164E-02  0.1300438E+00
        -11   -1    0    0    0    0  0.00000000000E+00  0.00000000000E+00  0.45593999997E+02  0.45594000000E+02  0.51100000000E-03 0. -1.
         11   -1    0    0    0    0 -0.00000000000E+00 -0.00000000000E+00 -0.45593999997E+02  0.45594000000E+02  0.51100000000E-03 0.  1.
    9900012    2    1    2    0    0  0.37892813173E+02 -0.11091300305E+02 -0.97095523668E+01  0.50528958696E+02  0.30000300450E+02 0.  0.
         12    1    1    2    0    0 -0.37892813173E+02  0.11091300305E+02  0.97095523668E+01  0.40659041304E+02  0.00000000000E+00 0. -1.
         11    1    3    3    0    0 -0.27226198109E+00 -0.83553545201E+01  0.66076144796E+00  0.83858620126E+01  0.51100000000E-03 0. -1.
        -11    1    3    3    0    0  0.35348367184E+02  0.10013634199E+01 -0.62556862821E+01  0.35911605400E+02  0.51100000000E-03 0.  1.
         12    1    3    3    0    0  0.28167079702E+01 -0.37373092052E+01 -0.41146275327E+01  0.62314912836E+01  0.00000000000E+00 0. -1.
</event>
<event>
 7    1  0.9953837E-014  0.5052886E+02  0.7816164E-02  0.1300439E+00
        -11   -1    0    0    0    0  0.00000000000E+00  0.00000000000E+00  0.45593999997E+02  0.45594000000E+02  0.51100000000E-03 0. -1.
         11   -1    0    0    0    0 -0.00000000000E+00 -0.00000000000E+00 -0.45593999997E+02  0.45594000000E+02  0.51100000000E-03 0.  1.
    9900012    2    1    2    0    0 -0.94304050365E+01  0.14180384661E+02  0.36920854098E+02  0.50528864303E+02  0.30000013536E+02 0.  0.
        -12    1    1    2    0    0  0.94304050365E+01 -0.14180384661E+02 -0.36920854098E+02  0.40659135697E+02  0.00000000000E+00 0.  1.
         11    1    3    3    0    0 -0.70939934103E+01 -0.48643876806E+01  0.34583892424E+01  0.92707856423E+01  0.51100000000E-03 0.  1.
        -11    1    3    3    0    0  0.59073526134E+01  0.10300940576E+02  0.19553446399E+02  0.22876701204E+02  0.51100000000E-03 0. -1.
        -12    1    3    3    0    0 -0.82437642396E+01  0.87438317649E+01  0.13909018457E+02  0.18381377457E+02  0.00000000000E+00 0.  1.
</event>
<event>
 7    1  0.9953837E-014  0.5052888E+02  0.7816164E-02  0.1300439E+00
        -11   -1    0    0    0    0  0.00000000000E+00  0.00000000000E+00  0.45593999997E+02  0.45594000000E+02  0.51100000000E-03 0. -1.
         11   -1    0    0    0    0 -0.00000000000E+00 -0.00000000000E+00 -0.45593999997E+02  0.45594000000E+02  0.51100000000E-03 0.  1.
    9900012    2    1    2    0    0  0.32978251914E+02  0.89453197386E+01 -0.22035880904E+02  0.50528881813E+02  0.30000066760E+02 0.  0.
         12    1    1    2    0    0 -0.32978251914E+02 -0.89453197386E+01  0.22035880904E+02  0.40659118187E+02  0.00000000000E+00 0. -1.
         11    1    3    3    0    0  0.28979835644E+02  0.10601357420E+02 -0.61191477447E+01  0.31458919601E+02  0.51100000000E-03 0. -1.
        -11    1    3    3    0    0 -0.77215358795E+00  0.25083241114E+01 -0.10221848231E+02  0.10553392466E+02  0.51100000000E-03 0.  1.
         12    1    3    3    0    0  0.47705698574E+01 -0.41643617925E+01 -0.56948849278E+01  0.85165697464E+01  0.00000000000E+00 0. -1.
</event>
<event>
 7    1  0.9953837E-014  0.5052884E+02  0.7816164E-02  0.1300439E+00
        -11   -1    0    0    0    0  0.00000000000E+00  0.00000000000E+00  0.45593999997E+02  0.45594000000E+02  0.51100000000E-03 0. -1.
         11   -1    0    0    0    0 -0.00000000000E+00 -0.00000000000E+00 -0.45593999997E+02  0.45594000000E+02  0.51100000000E-03 0.  1.
    9900012    2    1    2    0    0  0.17907808476E+02  0.94722283311E+01  0.35252726161E+02  0.50528838477E+02  0.29999935035E+02 0.  0.
        -12    1    1    2    0    0 -0.17907808476E+02 -0.94722283311E+01 -0.35252726161E+02  0.40659161523E+02  0.00000000000E+00 0.  1.
         11    1    3    3    0    0  0.50242513316E+01  0.57269742139E+01  0.26245784477E+02  0.27329151801E+02  0.51100000000E-03 0. -1.
        -11    1    3    3    0    0  0.16517587974E+02  0.83263259597E+00  0.57216244760E+01  0.17500313610E+02  0.51100000000E-03 0.  1.
        -12    1    3    3    0    0 -0.36340308296E+01  0.29126215213E+01  0.32853172080E+01  0.56993730667E+01  0.00000000000E+00 0.  1.
</event>
<event>
 7    1  0.9953837E-014  0.5052888E+02  0.7816164E-02  0.1300439E+00
        -11   -1    0    0    0    0  0.00000000000E+00  0.00000000000E+00  0.45593999997E+02  0.45594000000E+02  0.51100000000E-03 0. -1.
         11   -1    0    0    0    0 -0.00000000000E+00 -0.00000000000E+00 -0.45593999997E+02  0.45594000000E+02  0.51100000000E-03 0.  1.
    9900012    2    1    2    0    0 -0.74329781868E+01 -0.79424019283E+01 -0.39176942830E+02  0.50528883401E+02  0.30000071586E+02 0.  0.
         12    1    1    2    0    0  0.74329781868E+01  0.79424019283E+01  0.39176942830E+02  0.40659116599E+02  0.00000000000E+00 0. -1.
         11    1    3    3    0    0 -0.53603829490E+00  0.32762589201E+01  0.31907201409E+01  0.46045526215E+01  0.51100000000E-03 0. -1.
        -11    1    3    3    0    0  0.49066242049E-02 -0.10104793128E+02 -0.18825087777E+02  0.21365645282E+02  0.51100000000E-03 0.  1.
        -12    1    3    3    0    0 -0.69018465162E+01 -0.11138677203E+01 -0.23542575194E+02  0.24558685498E+02  0.00000000000E+00 0.  1.
</event>
<event>
 7    1  0.9953837E-014  0.5052886E+02  0.7816164E-02  0.1300439E+00
        -11   -1    0    0    0    0  0.00000000000E+00  0.00000000000E+00  0.45593999997E+02  0.45594000000E+02  0.51100000000E-03 0. -1.
         11   -1    0    0    0    0 -0.00000000000E+00 -0.00000000000E+00 -0.45593999997E+02  0.45594000000E+02  0.51100000000E-03 0.  1.
    9900012    2    1    2    0    0  0.29472111109E+02 -0.99625457095E+01 -0.26178388512E+02  0.50528859880E+02  0.30000000090E+02 0.  0.
         12    1    1    2    0    0 -0.29472111109E+02  0.99625457095E+01  0.26178388512E+02  0.40659140120E+02  0.00000000000E+00 0. -1.
         11    1    3    3    0    0  0.54662014245E+00 -0.21922127556E+01  0.20042168334E+01  0.30201780945E+01  0.51100000000E-03 0. -1.
        -11    1    3    3    0    0  0.31291882238E+02 -0.14420084342E+01 -0.21412876170E+02  0.37944334866E+02  0.51100000000E-03 0.  1.
        -12    1    3    3    0    0 -0.23663912713E+01 -0.63283245197E+01 -0.67697291756E+01  0.95643469190E+01  0.00000000000E+00 0.  1.
</event>
<event>
 7    1  0.9953837E-014  0.5052886E+02  0.7816164E-02  0.1300439E+00
        -11   -1    0    0    0    0  0.00000000000E+00  0.00000000000E+00  0.45593999997E+02  0.45594000000E+02  0.51100000000E-03 0. -1.
         11   -1    0    0    0    0 -0.00000000000E+00 -0.00000000000E+00 -0.45593999997E+02  0.45594000000E+02  0.51100000000E-03 0.  1.
    9900012    2    1    2    0    0 -0.18633644168E+02 -0.17233668003E+02  0.31764025719E+02  0.50528864032E+02  0.30000012710E+02 0.  0.
        -12    1    1    2    0    0  0.18633644168E+02  0.17233668003E+02 -0.31764025719E+02  0.40659135968E+02  0.00000000000E+00 0.  1.
         11    1    3    3    0    0  0.25284454663E+01 -0.42317183986E+01  0.61028518941E-01  0.49299291904E+01  0.51100000000E-03 0. -1.
        -11    1    3    3    0    0 -0.19078928771E+02 -0.89657290272E+01  0.34378765212E+02  0.40327277589E+02  0.51100000000E-03 0.  1.
        -12    1    3    3    0    0 -0.20831608633E+01 -0.40362205775E+01 -0.26757680113E+01  0.52716572520E+01  0.00000000000E+00 0.  1.
</event>
<event>
 7    1  0.9953837E-014  0.5052884E+02  0.7816164E-02  0.1300439E+00
        -11   -1    0    0    0    0  0.00000000000E+00  0.00000000000E+00  0.45593999997E+02  0.45594000000E+02  0.51100000000E-03 0. -1.
         11   -1    0    0    0    0 -0.00000000000E+00 -0.00000000000E+00 -0.45593999997E+02  0.45594000000E+02  0.51100000000E-03 0.  1.
    9900012    2    1    2    0    0 -0.61253686035E+01  0.90760859937E+01 -0.39157009857E+02  0.50528844839E+02  0.29999954371E+02 0.  0.
         12    1    1    2    0    0  0.61253686035E+01 -0.90760859937E+01  0.39157009857E+02  0.40659155161E+02  0.00000000000E+00 0. -1.
         11    1    3    3    0    0 -0.64752624748E+01 -0.77217105552E+01 -0.49073297912E+01  0.11208734271E+02  0.51100000000E-03 0. -1.
        -11    1    3    3    0    0 -0.30378120402E+01  0.83125910767E+01 -0.24049918936E+02  0.25626667233E+02  0.51100000000E-03 0.  1.
         12    1    3    3    0    0  0.33877059114E+01  0.84852054721E+01 -0.10199761130E+02  0.13693443335E+02  0.00000000000E+00 0. -1.
</event>
<event>
 7    1  0.9953837E-014  0.5052885E+02  0.7816164E-02  0.1300439E+00
        -11   -1    0    0    0    0  0.00000000000E+00  0.00000000000E+00  0.45593999997E+02  0.45594000000E+02  0.51100000000E-03 0. -1.
         11   -1    0    0    0    0 -0.00000000000E+00 -0.00000000000E+00 -0.45593999997E+02  0.45594000000E+02  0.51100000000E-03 0.  1.
    9900012    2    1    2    0    0  0.48798850123E+01  0.10299839525E+02 -0.39029047712E+02  0.50528849280E+02  0.29999967870E+02 0.  0.
         12    1    1    2    0    0 -0.48798850123E+01 -0.10299839525E+02  0.39029047712E+02  0.40659150720E+02  0.00000000000E+00 0. -1.
         11    1    3    3    0    0  0.21559880207E+01 -0.70577533663E+01 -0.58119165424E+01  0.93935371975E+01  0.51100000000E-03 0. -1.
        -11    1    3    3    0    0 -0.50081379226E+01  0.52488682234E+01 -0.21194210666E+02  0.22401487207E+02  0.51100000000E-03 0.  1.
        -12    1    3    3    0    0  0.77320349142E+01  0.12108724668E+02 -0.12022920504E+02  0.18733824875E+02  0.00000000000E+00 0.  1.
</event>
<event>
 7    1  0.9953837E-014  0.5052886E+02  0.7816164E-02  0.1300439E+00
        -11   -1    0    0    0    0  0.00000000000E+00  0.00000000000E+00  0.45593999997E+02  0.45594000000E+02  0.51100000000E-03 0. -1.
         11   -1    0    0    0    0 -0.00000000000E+00 -0.00000000000E+00 -0.45593999997E+02  0.45594000000E+02  0.51100000000E-03 0.  1.
    9900012    2    1    2    0    0 -0.25371369760E+02 -0.46909772509E+01 -0.31423776985E+02  0.50528862883E+02  0.30000009219E+02 0.  0.
         12    1    1    2    0    0  0.25371369760E+02  0.46909772509E+01  0.31423776985E+02  0.40659137117E+02  0.00000000000E+00 0. -1.
         11    1    3    3    0    0 -0.19773703245E+02 -0.31708124331E+01 -0.19083180157E+01  0.20117034310E+02  0.51100000000E-03 0. -1.
        -11    1    3    3    0    0 -0.41149394381E+00  0.36097969227E+00 -0.12755612236E+02  0.12767352012E+02  0.51100000000E-03 0.  1.
         12    1    3    3    0    0 -0.51861725716E+01 -0.18811445100E+01 -0.16759846733E+02  0.17644476562E+02  0.00000000000E+00 0. -1.
</event>
<event>
 7    1  0.9953837E-014  0.5052887E+02  0.7816164E-02  0.1300439E+00
        -11   -1    0    0    0    0  0.00000000000E+00  0.00000000000E+00  0.45593999997E+02  0.45594000000E+02  0.51100000000E-03 0. -1.
         11   -1    0    0    0    0 -0.00000000000E+00 -0.00000000000E+00 -0.45593999997E+02  0.45594000000E+02  0.51100000000E-03 0.  1.
    9900012    2    1    2    0    0  0.28117410393E+01  0.76300545576E+01 -0.39837682754E+02  0.50528873257E+02  0.30000040753E+02 0.  0.
         12    1    1    2    0    0 -0.28117410393E+01 -0.76300545576E+01  0.39837682754E+02  0.40659126743E+02  0.00000000000E+00 0. -1.
         11    1    3    3    0    0  0.52270030684E+01  0.14947017268E+02 -0.97285569031E+01  0.18584394151E+02  0.51100000000E-03 0. -1.
        -11    1    3    3    0    0  0.34241892819E+00  0.13351514018E+01 -0.22095075999E+01  0.26041897172E+01  0.51100000000E-03 0.  1.
         12    1    3    3    0    0 -0.27576809572E+01 -0.86521141121E+01 -0.27899618251E+02  0.29340289389E+02  0.00000000000E+00 0. -1.
</event>
<event>
 7    1  0.9953837E-014  0.5052887E+02  0.7816164E-02  0.1300439E+00
        -11   -1    0    0    0    0  0.00000000000E+00  0.00000000000E+00  0.45593999997E+02  0.45594000000E+02  0.51100000000E-03 0. -1.
         11   -1    0    0    0    0 -0.00000000000E+00 -0.00000000000E+00 -0.45593999997E+02  0.45594000000E+02  0.51100000000E-03 0.  1.
    9900012    2    1    2    0    0  0.20137825173E+02 -0.19324416596E+02 -0.29566873282E+02  0.50528867260E+02  0.30000022524E+02 0.  0.
         12    1    1    2    0    0 -0.20137825173E+02  0.19324416596E+02  0.29566873282E+02  0.40659132740E+02  0.00000000000E+00 0. -1.
         11    1    3    3    0    0  0.32825264316E-01 -0.34923208309E+01 -0.34575322839E+01  0.49144594859E+01  0.51100000000E-03 0.  1.
        -11    1    3    3    0    0  0.14652029358E+02 -0.15600546907E+02 -0.26937759012E+01  0.21571171896E+02  0.51100000000E-03 0. -1.
        -12    1    3    3    0    0  0.54529705506E+01 -0.23154885870E+00 -0.23415565097E+02  0.24043235878E+02  0.00000000000E+00 0.  1.
</event>
<event>
 7    1  0.9953837E-014  0.5052886E+02  0.7816164E-02  0.1300439E+00
        -11   -1    0    0    0    0  0.00000000000E+00  0.00000000000E+00  0.45593999997E+02  0.45594000000E+02  0.51100000000E-03 0. -1.
         11   -1    0    0    0    0 -0.00000000000E+00 -0.00000000000E+00 -0.45593999997E+02  0.45594000000E+02  0.51100000000E-03 0.  1.
    9900012    2    1    2    0    0  0.66503078272E+01 -0.33076630971E+02  0.22690863185E+02  0.50528863479E+02  0.30000011031E+02 0.  0.
        -12    1    1    2    0    0 -0.66503078272E+01  0.33076630971E+02 -0.22690863185E+02  0.40659136521E+02  0.00000000000E+00 0.  1.
         11    1    3    3    0    0  0.21072918277E+01 -0.14147598783E+02 -0.26502578061E+01  0.14547133630E+02  0.51100000000E-03 0. -1.
        -11    1    3    3    0    0  0.93584856806E+01 -0.15392731464E+02  0.23731347043E+02  0.29794198578E+02  0.51100000000E-03 0.  1.
        -12    1    3    3    0    0 -0.48154696811E+01 -0.35363007235E+01  0.16097739478E+01  0.61875312702E+01  0.00000000000E+00 0.  1.
</event>
<event>
 7    1  0.9953837E-014  0.5052886E+02  0.7816164E-02  0.1300439E+00
        -11   -1    0    0    0    0  0.00000000000E+00  0.00000000000E+00  0.45593999997E+02  0.45594000000E+02  0.51100000000E-03 0.  1.
         11   -1    0    0    0    0 -0.00000000000E+00 -0.00000000000E+00 -0.45593999997E+02  0.45594000000E+02  0.51100000000E-03 0. -1.
    9900012    2    1    2    0    0  0.33240706394E+02 -0.18991527087E+02  0.13694636728E+02  0.50528859111E+02  0.29999997754E+02 0.  0.
        -12    1    1    2    0    0 -0.33240706394E+02  0.18991527087E+02 -0.13694636728E+02  0.40659140889E+02  0.00000000000E+00 0.  1.
         11    1    3    3    0    0  0.21379162995E+02 -0.99382355230E+01  0.16663050470E+02  0.28870302854E+02  0.51100000000E-03 0. -1.
        -11    1    3    3    0    0  0.82431518161E+01 -0.89051187821E+01 -0.86632308265E+01  0.14909804191E+02  0.51100000000E-03 0.  1.
        -12    1    3    3    0    0  0.36183915834E+01 -0.14817278223E+00  0.56948170848E+01  0.67487520664E+01  0.00000000000E+00 0.  1.
</event>
<event>
 7    1  0.9953837E-014  0.5052890E+02  0.7816164E-02  0.1300439E+00
        -11   -1    0    0    0    0  0.00000000000E+00  0.00000000000E+00  0.45593999997E+02  0.45594000000E+02  0.51100000000E-03 0. -1.
         11   -1    0    0    0    0 -0.00000000000E+00 -0.00000000000E+00 -0.45593999997E+02  0.45594000000E+02  0.51100000000E-03 0.  1.
    9900012    2    1    2    0    0 -0.20354780984E+01  0.21317979562E+02  0.34562445100E+02  0.50528904646E+02  0.30000136162E+02 0.  0.
        -12    1    1    2    0    0  0.20354780984E+01 -0.21317979562E+02 -0.34562445100E+02  0.40659095354E+02  0.00000000000E+00 0.  1.
         11    1    3    3    0    0 -0.33377322621E+01  0.31691362680E+01  0.37106514985E+01  0.59120906744E+01  0.51100000000E-03 0. -1.
        -11    1    3    3    0    0  0.10052793062E+02  0.11171970353E+02  0.40392500396E+01  0.15562362001E+02  0.51100000000E-03 0.  1.
        -12    1    3    3    0    0 -0.87505388978E+01  0.69768729414E+01  0.26812543562E+02  0.29054451971E+02  0.00000000000E+00 0.  1.
</event>
<event>
 7    1  0.9953837E-014  0.5052887E+02  0.7816164E-02  0.1300439E+00
        -11   -1    0    0    0    0  0.00000000000E+00  0.00000000000E+00  0.45593999997E+02  0.45594000000E+02  0.51100000000E-03 0. -1.
         11   -1    0    0    0    0 -0.00000000000E+00 -0.00000000000E+00 -0.45593999997E+02  0.45594000000E+02  0.51100000000E-03 0.  1.
    9900012    2    1    2    0    0  0.14386605221E+01 -0.38641629383E+02 -0.12566609624E+02  0.50528868887E+02  0.30000027468E+02 0.  0.
        -12    1    1    2    0    0 -0.14386605221E+01  0.38641629383E+02  0.12566609624E+02  0.40659131113E+02  0.00000000000E+00 0.  1.
         11    1    3    3    0    0 -0.17428493924E+01 -0.25170953763E+02  0.46021784574E+01  0.25647504443E+02  0.51100000000E-03 0. -1.
        -11    1    3    3    0    0  0.74148419208E+01 -0.82533155337E+01 -0.88764600119E+01  0.14208752254E+02  0.51100000000E-03 0.  1.
        -12    1    3    3    0    0 -0.42333320063E+01 -0.52173600865E+01 -0.82923280694E+01  0.10672612190E+02  0.00000000000E+00 0.  1.
</event>
<event>
 7    1  0.9953837E-014  0.5052886E+02  0.7816164E-02  0.1300439E+00
        -11   -1    0    0    0    0  0.00000000000E+00  0.00000000000E+00  0.45593999997E+02  0.45594000000E+02  0.51100000000E-03 0. -1.
         11   -1    0    0    0    0 -0.00000000000E+00 -0.00000000000E+00 -0.45593999997E+02  0.45594000000E+02  0.51100000000E-03 0.  1.
    9900012    2    1    2    0    0 -0.95884598512E+01 -0.12697424198E+02 -0.37416603201E+02  0.50528864020E+02  0.30000012674E+02 0.  0.
         12    1    1    2    0    0  0.95884598512E+01  0.12697424198E+02  0.37416603201E+02  0.40659135980E+02  0.00000000000E+00 0. -1.
         11    1    3    3    0    0 -0.11307526471E+02  0.57198325150E+01 -0.14327269497E+02  0.19127134924E+02  0.51100000000E-03 0. -1.
        -11    1    3    3    0    0  0.72852132687E+00 -0.15674675947E+02 -0.11508675167E+02  0.19459594388E+02  0.51100000000E-03 0.  1.
         12    1    3    3    0    0  0.99054529292E+00 -0.27425807659E+01 -0.11580658537E+02  0.11942134708E+02  0.00000000000E+00 0. -1.
</event>
<event>
 7    1  0.9953837E-014  0.5052885E+02  0.7816164E-02  0.1300439E+00
        -11   -1    0    0    0    0  0.00000000000E+00  0.00000000000E+00  0.45593999997E+02  0.45594000000E+02  0.51100000000E-03 0. -1.
         11   -1    0    0    0    0 -0.00000000000E+00 -0.00000000000E+00 -0.45593999997E+02  0.45594000000E+02  0.51100000000E-03 0.  1.
    9900012    2    1    2    0    0  0.13336404409E+02  0.11614501999E+02 -0.36611610536E+02  0.50528851395E+02  0.29999974300E+02 0.  0.
         12    1    1    2    0    0 -0.13336404409E+02 -0.11614501999E+02  0.36611610536E+02  0.40659148605E+02  0.00000000000E+00 0. -1.
         11    1    3    3    0    0 -0.53230335180E+01  0.12355128392E+02 -0.10770873300E+02  0.17233560147E+02  0.51100000000E-03 0. -1.
        -11    1    3    3    0    0  0.14194834482E+02 -0.45188382641E+01 -0.16108018538E+02  0.21940407624E+02  0.51100000000E-03 0.  1.
         12    1    3    3    0    0  0.44646034450E+01  0.37782118708E+01 -0.97327186986E+01  0.11354883625E+02  0.00000000000E+00 0. -1.
</event>
<event>
 7    1  0.9953837E-014  0.5052886E+02  0.7816164E-02  0.1300439E+00
        -11   -1    0    0    0    0  0.00000000000E+00  0.00000000000E+00  0.45593999997E+02  0.45594000000E+02  0.51100000000E-03 0.  1.
         11   -1    0    0    0    0 -0.00000000000E+00 -0.00000000000E+00 -0.45593999997E+02  0.45594000000E+02  0.51100000000E-03 0. -1.
    9900012    2    1    2    0    0  0.26152890402E+02  0.17203996101E+02  0.25946383055E+02  0.50528856479E+02  0.29999989752E+02 0.  0.
        -12    1    1    2    0    0 -0.26152890402E+02 -0.17203996101E+02 -0.25946383055E+02  0.40659143521E+02  0.00000000000E+00 0.  1.
         11    1    3    3    0    0  0.37118406298E+01 -0.64260061193E+01 -0.26448494160E+00  0.74257166692E+01  0.51100000000E-03 0. -1.
        -11    1    3    3    0    0  0.10882092627E+02  0.10276255382E+02  0.18592643011E+02  0.23868551255E+02  0.51100000000E-03 0.  1.
         12    1    3    3    0    0  0.11558957145E+02  0.13353746839E+02  0.76182249858E+01  0.19234588554E+02  0.00000000000E+00 0. -1.
</event>
<event>
 7    1  0.9953837E-014  0.5052886E+02  0.7816164E-02  0.1300439E+00
        -11   -1    0    0    0    0  0.00000000000E+00  0.00000000000E+00  0.45593999997E+02  0.45594000000E+02  0.51100000000E-03 0. -1.
         11   -1    0    0    0    0 -0.00000000000E+00 -0.00000000000E+00 -0.45593999997E+02  0.45594000000E+02  0.51100000000E-03 0.  1.
    9900012    2    1    2    0    0 -0.38322343105E+02 -0.26841476537E+01 -0.13317617328E+02  0.50528861286E+02  0.30000004363E+02 0.  0.
         12    1    1    2    0    0  0.38322343105E+02  0.26841476537E+01  0.13317617328E+02  0.40659138714E+02  0.00000000000E+00 0. -1.
         11    1    3    3    0    0 -0.28342065723E+02 -0.69447176457E+01 -0.29809905767E+01  0.29332372862E+02  0.51100000000E-03 0. -1.
        -11    1    3    3    0    0 -0.10010144395E+02  0.74727254476E+01 -0.25170961070E+01  0.12742856411E+02  0.51100000000E-03 0.  1.
         12    1    3    3    0    0  0.29867013350E-01 -0.32121554556E+01 -0.78195306441E+01  0.84536320126E+01  0.00000000000E+00 0. -1.
</event>
<event>
 7    1  0.9953837E-014  0.5052884E+02  0.7816164E-02  0.1300439E+00
        -11   -1    0    0    0    0  0.00000000000E+00  0.00000000000E+00  0.45593999997E+02  0.45594000000E+02  0.51100000000E-03 0. -1.
         11   -1    0    0    0    0 -0.00000000000E+00 -0.00000000000E+00 -0.45593999997E+02  0.45594000000E+02  0.51100000000E-03 0.  1.
    9900012    2    1    2    0    0  0.20625182062E+02  0.29334055936E+02 -0.19164602045E+02  0.50528844275E+02  0.29999952658E+02 0.  0.
         12    1    1    2    0    0 -0.20625182062E+02 -0.29334055936E+02  0.19164602045E+02  0.40659155725E+02  0.00000000000E+00 0. -1.
         11    1    3    3    0    0  0.95066047922E+01 -0.48754683538E+01 -0.56830436279E+01  0.12101351639E+02  0.51100000000E-03 0. -1.
        -11    1    3    3    0    0  0.83720721915E+01  0.26704740962E+02 -0.10802810580E+02  0.29998924969E+02  0.51100000000E-03 0.  1.
         12    1    3    3    0    0  0.27465050778E+01  0.75047833280E+01 -0.26787478375E+01  0.84285676671E+01  0.00000000000E+00 0. -1.
</event>
<event>
 7    1  0.9953837E-014  0.5052887E+02  0.7816164E-02  0.1300439E+00
        -11   -1    0    0    0    0  0.00000000000E+00  0.00000000000E+00  0.45593999997E+02  0.45594000000E+02  0.51100000000E-03 0. -1.
         11   -1    0    0    0    0 -0.00000000000E+00 -0.00000000000E+00 -0.45593999997E+02  0.45594000000E+02  0.51100000000E-03 0.  1.
    9900012    2    1    2    0    0 -0.19488529580E+00 -0.68314289656E+01  0.40080651008E+02  0.50528868342E+02  0.30000025812E+02 0.  0.
        -12    1    1    2    0    0  0.19488529580E+00  0.68314289656E+01 -0.40080651008E+02  0.40659131658E+02  0.00000000000E+00 0.  1.
         11    1    3    3    0    0 -0.10053147108E+01  0.43880457775E+01  0.21399880838E+02  0.21868253327E+02  0.51100000000E-03 0. -1.
        -11    1    3    3    0    0 -0.70404671716E+01 -0.11511145921E+02  0.14317464179E+02  0.19673953318E+02  0.51100000000E-03 0.  1.
        -12    1    3    3    0    0  0.78508965866E+01  0.29167117777E+00  0.43633059911E+01  0.89866616973E+01  0.00000000000E+00 0.  1.
</event>
<event>
 7    1  0.9953837E-014  0.5052886E+02  0.7816164E-02  0.1300439E+00
        -11   -1    0    0    0    0  0.00000000000E+00  0.00000000000E+00  0.45593999997E+02  0.45594000000E+02  0.51100000000E-03 0. -1.
         11   -1    0    0    0    0 -0.00000000000E+00 -0.00000000000E+00 -0.45593999997E+02  0.45594000000E+02  0.51100000000E-03 0.  1.
    9900012    2    1    2    0    0 -0.33673912327E+00  0.31457333896E+02 -0.25758272942E+02  0.50528857436E+02  0.29999992662E+02 0.  0.
         12    1    1    2    0    0  0.33673912327E+00 -0.31457333896E+02  0.25758272942E+02  0.40659142564E+02  0.00000000000E+00 0. -1.
         11    1    3    3    0    0  0.10652526292E+02  0.10174382493E+02 -0.10371802470E+02  0.18015789248E+02  0.51100000000E-03 0.  1.
        -11    1    3    3    0    0 -0.42244503371E+01  0.20723016360E+02 -0.14556600516E+02  0.25674578995E+02  0.51100000000E-03 0. -1.
         12    1    3    3    0    0 -0.67648150781E+01  0.55993504277E+00 -0.82986995675E+00  0.68384891926E+01  0.00000000000E+00 0. -1.
</event>
<event>
 7    1  0.9953837E-014  0.5052886E+02  0.7816164E-02  0.1300439E+00
        -11   -1    0    0    0    0  0.00000000000E+00  0.00000000000E+00  0.45593999997E+02  0.45594000000E+02  0.51100000000E-03 0. -1.
         11   -1    0    0    0    0 -0.00000000000E+00 -0.00000000000E+00 -0.45593999997E+02  0.45594000000E+02  0.51100000000E-03 0.  1.
    9900012    2    1    2    0    0 -0.19142898678E+02 -0.29050490139E+02 -0.21042433187E+02  0.50528861525E+02  0.30000005090E+02 0.  0.
         12    1    1    2    0    0  0.19142898678E+02  0.29050490139E+02  0.21042433187E+02  0.40659138475E+02  0.00000000000E+00 0. -1.
         11    1    3    3    0    0 -0.12559682157E+01 -0.11443489103E+02  0.64186894435E+01  0.13180685621E+02  0.51100000000E-03 0. -1.
        -11    1    3    3    0    0 -0.65560129567E+01 -0.51793059524E+01 -0.11018733140E+02  0.13828195700E+02  0.51100000000E-03 0.  1.
         12    1    3    3    0    0 -0.11330917506E+02 -0.12427695084E+02 -0.16442389491E+02  0.23519980204E+02  0.00000000000E+00 0. -1.
</event>
<event>
 7    1  0.9953837E-014  0.5052886E+02  0.7816164E-02  0.1300439E+00
        -11   -1    0    0    0    0  0.00000000000E+00  0.00000000000E+00  0.45593999997E+02  0.45594000000E+02  0.51100000000E-03 0. -1.
         11   -1    0    0    0    0 -0.00000000000E+00 -0.00000000000E+00 -0.45593999997E+02  0.45594000000E+02  0.51100000000E-03 0.  1.
    9900012    2    1    2    0    0 -0.90546101260E+01  0.27821267882E+00  0.39637129305E+02  0.50528863433E+02  0.30000010892E+02 0.  0.
        -12    1    1    2    0    0  0.90546101260E+01 -0.27821267882E+00 -0.39637129305E+02  0.40659136567E+02  0.00000000000E+00 0.  1.
         11    1    3    3    0    0 -0.50395099867E+01 -0.79878328521E+01  0.81897373592E+01  0.12500957278E+02  0.51100000000E-03 0. -1.
        -11    1    3    3    0    0  0.15124595681E+01  0.10993098585E+02  0.77323697629E+01  0.13524987721E+02  0.51100000000E-03 0.  1.
        -12    1    3    3    0    0 -0.55275597073E+01 -0.27270530543E+01  0.23715022183E+02  0.24502918434E+02  0.00000000000E+00 0.  1.
</event>
<event>
 7    1  0.9953837E-014  0.5052887E+02  0.7816164E-02  0.1300439E+00
        -11   -1    0    0    0    0  0.00000000000E+00  0.00000000000E+00  0.45593999997E+02  0.45594000000E+02  0.51100000000E-03 0. -1.
         11   -1    0    0    0    0 -0.00000000000E+00 -0.00000000000E+00 -0.45593999997E+02  0.45594000000E+02  0.51100000000E-03 0.  1.
    9900012    2    1    2    0    0 -0.21660641304E+02  0.26536459665E+02  0.21904279945E+02  0.50528873679E+02  0.30000042035E+02 0.  0.
        -12    1    1    2    0    0  0.21660641304E+02 -0.26536459665E+02 -0.21904279945E+02  0.40659126321E+02  0.00000000000E+00 0.  1.
         11    1    3    3    0    0 -0.19773601817E+02  0.24930855217E+02  0.13120689544E+02  0.34419403903E+02  0.51100000000E-03 0. -1.
        -11    1    3    3    0    0  0.25303583815E+01 -0.16858053134E+01  0.10013600188E+02  0.10465029483E+02  0.51100000000E-03 0.  1.
        -12    1    3    3    0    0 -0.44173978683E+01  0.32914097619E+01 -0.12300097870E+01  0.56444402932E+01  0.00000000000E+00 0.  1.
</event>
<event>
 7    1  0.9953837E-014  0.5052886E+02  0.7816164E-02  0.1300439E+00
        -11   -1    0    0    0    0  0.00000000000E+00  0.00000000000E+00  0.45593999997E+02  0.45594000000E+02  0.51100000000E-03 0. -1.
         11   -1    0    0    0    0 -0.00000000000E+00 -0.00000000000E+00 -0.45593999997E+02  0.45594000000E+02  0.51100000000E-03 0.  1.
    9900012    2    1    2    0    0  0.85314596099E+01  0.11517297766E+02  0.38049067037E+02  0.50528862610E+02  0.30000008390E+02 0.  0.
        -12    1    1    2    0    0 -0.85314596099E+01 -0.11517297766E+02 -0.38049067037E+02  0.40659137390E+02  0.00000000000E+00 0.  1.
         11    1    3    3    0    0 -0.44110080038E+01  0.76817585933E+01  0.13020593075E+02  0.15748087216E+02  0.51100000000E-03 0. -1.
        -11    1    3    3    0    0  0.11787860058E+02  0.12127868697E+01  0.25512405510E+01  0.12121605725E+02  0.51100000000E-03 0.  1.
        -12    1    3    3    0    0  0.11546075554E+01  0.26227523029E+01  0.22477233411E+02  0.22659169669E+02  0.00000000000E+00 0.  1.
</event>
<event>
 7    1  0.9953837E-014  0.5052886E+02  0.7816164E-02  0.1300439E+00
        -11   -1    0    0    0    0  0.00000000000E+00  0.00000000000E+00  0.45593999997E+02  0.45594000000E+02  0.51100000000E-03 0. -1.
         11   -1    0    0    0    0 -0.00000000000E+00 -0.00000000000E+00 -0.45593999997E+02  0.45594000000E+02  0.51100000000E-03 0.  1.
    9900012    2    1    2    0    0 -0.12191174317E+02  0.81670038601E+01 -0.37918869116E+02  0.50528864270E+02  0.30000013434E+02 0.  0.
         12    1    1    2    0    0  0.12191174317E+02 -0.81670038601E+01  0.37918869116E+02  0.40659135730E+02  0.00000000000E+00 0. -1.
         11    1    3    3    0    0 -0.62671675845E+01  0.14431113220E+02 -0.81576132897E+01  0.17722332610E+02  0.51100000000E-03 0. -1.
        -11    1    3    3    0    0 -0.69682760861E+01  0.16437924924E+00 -0.11849959419E+02  0.13747924594E+02  0.51100000000E-03 0.  1.
         12    1    3    3    0    0  0.10442693539E+01 -0.64284886091E+01 -0.17911296408E+02  0.19058607066E+02  0.00000000000E+00 0. -1.
</event>
<event>
 7    1  0.9953837E-014  0.5052883E+02  0.7816164E-02  0.1300439E+00
        -11   -1    0    0    0    0  0.00000000000E+00  0.00000000000E+00  0.45593999997E+02  0.45594000000E+02  0.51100000000E-03 0. -1.
         11   -1    0    0    0    0 -0.00000000000E+00 -0.00000000000E+00 -0.45593999997E+02  0.45594000000E+02  0.51100000000E-03 0.  1.
    9900012    2    1    2    0    0 -0.30815912838E+01 -0.12525700642E+02 -0.38558765451E+02  0.50528834065E+02  0.29999921625E+02 0.  0.
         12    1    1    2    0    0  0.30815912838E+01  0.12525700642E+02  0.38558765451E+02  0.40659165935E+02  0.00000000000E+00 0. -1.
         11    1    3    3    0    0 -0.22047909483E+01  0.37116217290E+01 -0.44687461927E+01  0.62134476566E+01  0.51100000000E-03 0. -1.
        -11    1    3    3    0    0  0.22477468842E+01 -0.18199433184E+02 -0.11990282149E+02  0.21909783216E+02  0.51100000000E-03 0.  1.
        -12    1    3    3    0    0 -0.31245472198E+01  0.19621108134E+01 -0.22099737109E+02  0.22405603193E+02  0.00000000000E+00 0.  1.
</event>
<event>
 7    1  0.9953837E-014  0.5052888E+02  0.7816164E-02  0.1300439E+00
        -11   -1    0    0    0    0  0.00000000000E+00  0.00000000000E+00  0.45593999997E+02  0.45594000000E+02  0.51100000000E-03 0.  1.
         11   -1    0    0    0    0 -0.00000000000E+00 -0.00000000000E+00 -0.45593999997E+02  0.45594000000E+02  0.51100000000E-03 0. -1.
    9900012    2    1    2    0    0  0.20379462984E+02  0.35169141768E+02 -0.98654944527E+00  0.50528876497E+02  0.30000050599E+02 0.  0.
         12    1    1    2    0    0 -0.20379462984E+02 -0.35169141768E+02  0.98654944527E+00  0.40659123503E+02  0.00000000000E+00 0. -1.
         11    1    3    3    0    0  0.33657761071E+01 -0.36128349686E+01  0.20536476314E+01  0.53477559938E+01  0.51100000000E-03 0. -1.
        -11    1    3    3    0    0  0.14986922494E+02  0.39226290495E+02 -0.62418238896E+00  0.41996420274E+02  0.51100000000E-03 0.  1.
        -12    1    3    3    0    0  0.20267643830E+01 -0.44431375838E+00 -0.24160146878E+01  0.31847002295E+01  0.00000000000E+00 0.  1.
</event>
<event>
 7    1  0.9953837E-014  0.5052886E+02  0.7816164E-02  0.1300439E+00
        -11   -1    0    0    0    0  0.00000000000E+00  0.00000000000E+00  0.45593999997E+02  0.45594000000E+02  0.51100000000E-03 0.  1.
         11   -1    0    0    0    0 -0.00000000000E+00 -0.00000000000E+00 -0.45593999997E+02  0.45594000000E+02  0.51100000000E-03 0. -1.
    9900012    2    1    2    0    0  0.34668385955E+02  0.19334200465E+02  0.88009986965E+01  0.50528857481E+02  0.29999992799E+02 0.  0.
         12    1    1    2    0    0 -0.34668385955E+02 -0.19334200465E+02 -0.88009986965E+01  0.40659142519E+02  0.00000000000E+00 0. -1.
         11    1    3    3    0    0  0.27891300764E+02  0.48422472115E+01 -0.13237880845E+01  0.28339450092E+02  0.51100000000E-03 0. -1.
        -11    1    3    3    0    0  0.44037276140E+01  0.11508624120E+01 -0.99648182964E+00  0.46594288799E+01  0.51100000000E-03 0.  1.
         12    1    3    3    0    0  0.23733575768E+01  0.13341090841E+02  0.11121268611E+02  0.17529978509E+02  0.00000000000E+00 0. -1.
</event>
<event>
 7    1  0.9953837E-014  0.5052885E+02  0.7816164E-02  0.1300439E+00
        -11   -1    0    0    0    0  0.00000000000E+00  0.00000000000E+00  0.45593999997E+02  0.45594000000E+02  0.51100000000E-03 0. -1.
         11   -1    0    0    0    0 -0.00000000000E+00 -0.00000000000E+00 -0.45593999997E+02  0.45594000000E+02  0.51100000000E-03 0.  1.
    9900012    2    1    2    0    0 -0.10716465103E+02  0.26267080196E+02  0.29126697138E+02  0.50528848355E+02  0.29999965060E+02 0.  0.
        -12    1    1    2    0    0  0.10716465103E+02 -0.26267080196E+02 -0.29126697138E+02  0.40659151645E+02  0.00000000000E+00 0.  1.
         11    1    3    3    0    0 -0.16839123107E+02  0.21691645176E+02  0.21923914438E+02  0.35138889595E+02  0.51100000000E-03 0. -1.
        -11    1    3    3    0    0  0.21603826754E+01  0.67030208282E+01  0.81734683680E+01  0.10789037351E+02  0.51100000000E-03 0.  1.
         12    1    3    3    0    0  0.39622753282E+01 -0.21275858081E+01 -0.97068566858E+00  0.46009214093E+01  0.00000000000E+00 0. -1.
</event>
<event>
 7    1  0.9953837E-014  0.5052886E+02  0.7816164E-02  0.1300439E+00
        -11   -1    0    0    0    0  0.00000000000E+00  0.00000000000E+00  0.45593999997E+02  0.45594000000E+02  0.51100000000E-03 0. -1.
         11   -1    0    0    0    0 -0.00000000000E+00 -0.00000000000E+00 -0.45593999997E+02  0.45594000000E+02  0.51100000000E-03 0.  1.
    9900012    2    1    2    0    0  0.24054899498E+02 -0.19650259954E+02 -0.26237273892E+02  0.50528862683E+02  0.30000008611E+02 0.  0.
         12    1    1    2    0    0 -0.24054899498E+02  0.19650259954E+02  0.26237273892E+02  0.40659137317E+02  0.00000000000E+00 0. -1.
         11    1    3    3    0    0 -0.51401368635E+01 -0.55178362723E+01 -0.34087262957E+01  0.82756836167E+01  0.51100000000E-03 0.  1.
        -11    1    3    3    0    0  0.29980514078E+02 -0.13751369223E+02 -0.18459871447E+02  0.37798124742E+02  0.51100000000E-03 0. -1.
         12    1    3    3    0    0 -0.78547771600E+00 -0.38105445832E+00 -0.43686761487E+01  0.44550543245E+01  0.00000000000E+00 0. -1.
</event>
<event>
 7    1  0.9953837E-014  0.5052888E+02  0.7816164E-02  0.1300439E+00
        -11   -1    0    0    0    0  0.00000000000E+00  0.00000000000E+00  0.45593999997E+02  0.45594000000E+02  0.51100000000E-03 0. -1.
         11   -1    0    0    0    0 -0.00000000000E+00 -0.00000000000E+00 -0.45593999997E+02  0.45594000000E+02  0.51100000000E-03 0.  1.
    9900012    2    1    2    0    0  0.32246704750E+02  0.22040886561E+02  0.11292170851E+02  0.50528883308E+02  0.30000071304E+02 0.  0.
        -12    1    1    2    0    0 -0.32246704750E+02 -0.22040886561E+02 -0.11292170851E+02  0.40659116692E+02  0.00000000000E+00 0.  1.
         11    1    3    3    0    0  0.88249919406E+01  0.79229512963E+01  0.10559410398E+02  0.15879382488E+02  0.51100000000E-03 0. -1.
        -11    1    3    3    0    0  0.67516073942E+01  0.10882720146E+02 -0.84510833113E+01  0.15344008915E+02  0.51100000000E-03 0.  1.
        -12    1    3    3    0    0  0.16670105415E+02  0.32352151184E+01  0.91838437647E+01  0.19305491905E+02  0.00000000000E+00 0.  1.
</event>
<event>
 7    1  0.9953837E-014  0.5052885E+02  0.7816164E-02  0.1300439E+00
        -11   -1    0    0    0    0  0.00000000000E+00  0.00000000000E+00  0.45593999997E+02  0.45594000000E+02  0.51100000000E-03 0.  1.
         11   -1    0    0    0    0 -0.00000000000E+00 -0.00000000000E+00 -0.45593999997E+02  0.45594000000E+02  0.51100000000E-03 0. -1.
    9900012    2    1    2    0    0  0.20563382266E+01 -0.28695205566E+02 -0.28731911783E+02  0.50528854608E+02  0.29999984065E+02 0.  0.
         12    1    1    2    0    0 -0.20563382266E+01  0.28695205566E+02  0.28731911783E+02  0.40659145392E+02  0.00000000000E+00 0. -1.
         11    1    3    3    0    0  0.17423188652E+00 -0.37292893464E+01 -0.18900930788E+02  0.19266113793E+02  0.51100000000E-03 0. -1.
        -11    1    3    3    0    0 -0.55257030821E+01 -0.19678485879E+02 -0.54037429244E+01  0.21141822033E+02  0.51100000000E-03 0.  1.
         12    1    3    3    0    0  0.74078094223E+01 -0.52874303404E+01 -0.44272380705E+01  0.10120918781E+02  0.00000000000E+00 0. -1.
</event>
<event>
 7    1  0.9953837E-014  0.5052885E+02  0.7816164E-02  0.1300439E+00
        -11   -1    0    0    0    0  0.00000000000E+00  0.00000000000E+00  0.45593999997E+02  0.45594000000E+02  0.51100000000E-03 0.  1.
         11   -1    0    0    0    0 -0.00000000000E+00 -0.00000000000E+00 -0.45593999997E+02  0.45594000000E+02  0.51100000000E-03 0. -1.
    9900012    2    1    2    0    0  0.12399839641E+02  0.37913738159E+02 -0.78714063785E+01  0.50528848475E+02  0.29999965425E+02 0.  0.
        -12    1    1    2    0    0 -0.12399839641E+02 -0.37913738159E+02  0.78714063785E+01  0.40659151525E+02  0.00000000000E+00 0.  1.
         11    1    3    3    0    0  0.14935243448E+02  0.31066905325E+02 -0.77449695397E+01  0.35329855035E+02  0.51100000000E-03 0. -1.
        -11    1    3    3    0    0 -0.29879727255E+01  0.31636690978E+00  0.56948543222E+01  0.64389001423E+01  0.51100000000E-03 0.  1.
        -12    1    3    3    0    0  0.45256891867E+00  0.65304659243E+01 -0.58212911610E+01  0.87600932983E+01  0.00000000000E+00 0.  1.
</event>
<event>
 7    1  0.9953837E-014  0.5052886E+02  0.7816164E-02  0.1300439E+00
        -11   -1    0    0    0    0  0.00000000000E+00  0.00000000000E+00  0.45593999997E+02  0.45594000000E+02  0.51100000000E-03 0. -1.
         11   -1    0    0    0    0 -0.00000000000E+00 -0.00000000000E+00 -0.45593999997E+02  0.45594000000E+02  0.51100000000E-03 0.  1.
    9900012    2    1    2    0    0 -0.13072111679E+02 -0.95088513770E+01 -0.37307732746E+02  0.50528864730E+02  0.30000014833E+02 0.  0.
         12    1    1    2    0    0  0.13072111679E+02  0.95088513770E+01  0.37307732746E+02  0.40659135270E+02  0.00000000000E+00 0. -1.
         11    1    3    3    0    0 -0.18516464344E+01  0.42516592301E+01 -0.21048062225E+01  0.50926820264E+01  0.51100000000E-03 0. -1.
        -11    1    3    3    0    0 -0.13726782371E+01 -0.14790550422E+02 -0.88645191256E+01  0.17298101830E+02  0.51100000000E-03 0.  1.
        -12    1    3    3    0    0 -0.98477870074E+01  0.10300398153E+01 -0.26338407398E+02  0.28138080873E+02  0.00000000000E+00 0.  1.
</event>
<event>
 7    1  0.9953837E-014  0.5052882E+02  0.7816164E-02  0.1300439E+00
        -11   -1    0    0    0    0  0.00000000000E+00  0.00000000000E+00  0.45593999997E+02  0.45594000000E+02  0.51100000000E-03 0. -1.
         11   -1    0    0    0    0 -0.00000000000E+00 -0.00000000000E+00 -0.45593999997E+02  0.45594000000E+02  0.51100000000E-03 0.  1.
    9900012    2    1    2    0    0  0.18247772329E+02  0.14661663475E+01  0.36304792684E+02  0.50528821325E+02  0.29999882898E+02 0.  0.
        -12    1    1    2    0    0 -0.18247772329E+02 -0.14661663475E+01 -0.36304792684E+02  0.40659178675E+02  0.00000000000E+00 0.  1.
         11    1    3    3    0    0  0.18732159782E+02 -0.73612617945E+01  0.33640648931E+02  0.39201725039E+02  0.51100000000E-03 0. -1.
        -11    1    3    3    0    0 -0.17719858413E+01  0.78882440080E+01  0.42026788123E+01  0.91119063215E+01  0.51100000000E-03 0.  1.
         12    1    3    3    0    0  0.12875983881E+01  0.93918413407E+00 -0.15385350593E+01  0.22151899637E+01  0.00000000000E+00 0. -1.
</event>
<event>
 7    1  0.9953837E-014  0.5052886E+02  0.7816164E-02  0.1300439E+00
        -11   -1    0    0    0    0  0.00000000000E+00  0.00000000000E+00  0.45593999997E+02  0.45594000000E+02  0.51100000000E-03 0. -1.
         11   -1    0    0    0    0 -0.00000000000E+00 -0.00000000000E+00 -0.45593999997E+02  0.45594000000E+02  0.51100000000E-03 0.  1.
    9900012    2    1    2    0    0 -0.40282517863E+02  0.49145317730E+01  0.25163145666E+01  0.50528859491E+02  0.29999998910E+02 0.  0.
        -12    1    1    2    0    0  0.40282517863E+02 -0.49145317730E+01 -0.25163145666E+01  0.40659140509E+02  0.00000000000E+00 0.  1.
         11    1    3    3    0    0 -0.35418372419E+02 -0.37162343928E+01 -0.56741052559E+01  0.36061987932E+02  0.51100000000E-03 0. -1.
        -11    1    3    3    0    0  0.11549525818E+01  0.42708976323E+01  0.38175799850E+01  0.58436631709E+01  0.51100000000E-03 0.  1.
         12    1    3    3    0    0 -0.60190980250E+01  0.43598685335E+01  0.43728398374E+01  0.86232083883E+01  0.00000000000E+00 0. -1.
</event>
<event>
 7    1  0.1582178E-013  0.5052886E+02  0.7816164E-02  0.1300439E+00
        -11   -1    0    0    0    0  0.00000000000E+00  0.00000000000E+00  0.45593999997E+02  0.45594000000E+02  0.51100000000E-03 0. -1.
         11   -1    0    0    0    0 -0.00000000000E+00 -0.00000000000E+00 -0.45593999997E+02  0.45594000000E+02  0.51100000000E-03 0.  1.
    9900012    2    1    2    0    0  0.16411847880E+02 -0.12527126283E+02  0.35026964543E+02  0.50528857254E+02  0.29999992110E+02 0.  0.
        -12    1    1    2    0    0 -0.16411847880E+02  0.12527126283E+02 -0.35026964543E+02  0.40659142746E+02  0.00000000000E+00 0.  1.
         11    1    3    3    0    0  0.11626548277E+02 -0.95406516452E+01  0.31628769002E+02  0.35022559693E+02  0.51100000000E-03 0. -1.
        -11    1    3    3    0    0 -0.45416283952E+01  0.10599173720E+01  0.25216028052E+01  0.53017255949E+01  0.51100000000E-03 0.  1.
         12    1    3    3    0    0  0.93269279982E+01 -0.40463920103E+01  0.87659273566E+00  0.10204571966E+02  0.00000000000E+00 0. -1.
</event>
<event>
 7    1  0.9953837E-014  0.5052885E+02  0.7816164E-02  0.1300439E+00
        -11   -1    0    0    0    0  0.00000000000E+00  0.00000000000E+00  0.45593999997E+02  0.45594000000E+02  0.51100000000E-03 0. -1.
         11   -1    0    0    0    0 -0.00000000000E+00 -0.00000000000E+00 -0.45593999997E+02  0.45594000000E+02  0.51100000000E-03 0.  1.
    9900012    2    1    2    0    0  0.18357273475E+02  0.13377404829E+01 -0.36254478853E+02  0.50528852494E+02  0.29999977640E+02 0.  0.
         12    1    1    2    0    0 -0.18357273475E+02 -0.13377404829E+01  0.36254478853E+02  0.40659147506E+02  0.00000000000E+00 0. -1.
         11    1    3    3    0    0  0.10996775241E+02 -0.37184439586E+01 -0.67929063701E+01  0.13449887300E+02  0.51100000000E-03 0. -1.
        -11    1    3    3    0    0  0.92562800375E+01  0.11782020779E+02 -0.23618090370E+02  0.27969785962E+02  0.51100000000E-03 0.  1.
        -12    1    3    3    0    0 -0.18957818035E+01 -0.67258363370E+01 -0.58434821126E+01  0.91091792319E+01  0.00000000000E+00 0.  1.
</event>
<event>
 7    1  0.9953837E-014  0.5052885E+02  0.7816164E-02  0.1300439E+00
        -11   -1    0    0    0    0  0.00000000000E+00  0.00000000000E+00  0.45593999997E+02  0.45594000000E+02  0.51100000000E-03 0. -1.
         11   -1    0    0    0    0 -0.00000000000E+00 -0.00000000000E+00 -0.45593999997E+02  0.45594000000E+02  0.51100000000E-03 0.  1.
    9900012    2    1    2    0    0  0.10020769296E+02 -0.97530198332E+01  0.38178911764E+02  0.50528849534E+02  0.29999968643E+02 0.  0.
        -12    1    1    2    0    0 -0.10020769296E+02  0.97530198332E+01 -0.38178911764E+02  0.40659150466E+02  0.00000000000E+00 0.  1.
         11    1    3    3    0    0  0.14790619400E+02  0.21557003376E+01  0.32466144952E+02  0.35741572916E+02  0.51100000000E-03 0. -1.
        -11    1    3    3    0    0 -0.20234138361E+01 -0.22706527289E+01 -0.37028161979E+00  0.30638498832E+01  0.51100000000E-03 0.  1.
         12    1    3    3    0    0 -0.27464362677E+01 -0.96380674419E+01  0.60830484316E+01  0.11723426735E+02  0.00000000000E+00 0. -1.
</event>
<event>
 7    1  0.9953837E-014  0.5052888E+02  0.7816164E-02  0.1300439E+00
        -11   -1    0    0    0    0  0.00000000000E+00  0.00000000000E+00  0.45593999997E+02  0.45594000000E+02  0.51100000000E-03 0. -1.
         11   -1    0    0    0    0 -0.00000000000E+00 -0.00000000000E+00 -0.45593999997E+02  0.45594000000E+02  0.51100000000E-03 0.  1.
    9900012    2    1    2    0    0  0.10700523626E+02  0.21556414971E+02  0.32771695760E+02  0.50528877097E+02  0.30000052423E+02 0.  0.
        -12    1    1    2    0    0 -0.10700523626E+02 -0.21556414971E+02 -0.32771695760E+02  0.40659122903E+02  0.00000000000E+00 0.  1.
         11    1    3    3    0    0  0.11845911205E+02  0.24204347835E+02  0.31115711574E+02  0.41162647794E+02  0.51100000000E-03 0. -1.
        -11    1    3    3    0    0 -0.38212670216E+01 -0.19876820886E+01  0.39011550800E+01  0.58113658424E+01  0.51100000000E-03 0.  1.
         12    1    3    3    0    0  0.26758794428E+01 -0.66025077581E+00 -0.22451708938E+01  0.35548634604E+01  0.00000000000E+00 0. -1.
</event>
<event>
 7    1  0.9953837E-014  0.5052888E+02  0.7816164E-02  0.1300439E+00
        -11   -1    0    0    0    0  0.00000000000E+00  0.00000000000E+00  0.45593999997E+02  0.45594000000E+02  0.51100000000E-03 0. -1.
         11   -1    0    0    0    0 -0.00000000000E+00 -0.00000000000E+00 -0.45593999997E+02  0.45594000000E+02  0.51100000000E-03 0.  1.
    9900012    2    1    2    0    0  0.27571262353E+02 -0.11842468662E+02 -0.27436206848E+02  0.50528880261E+02  0.30000062042E+02 0.  0.
         12    1    1    2    0    0 -0.27571262353E+02  0.11842468662E+02  0.27436206848E+02  0.40659119739E+02  0.00000000000E+00 0. -1.
         11    1    3    3    0    0 -0.51010965843E+00 -0.41256809365E+01 -0.20010116073E+02  0.20437372643E+02  0.51100000000E-03 0. -1.
        -11    1    3    3    0    0  0.15453200819E+02 -0.45922381986E+01 -0.34224988606E+01  0.16480399448E+02  0.51100000000E-03 0.  1.
         12    1    3    3    0    0  0.12628171192E+02 -0.31245495264E+01 -0.40035919142E+01  0.13611108170E+02  0.00000000000E+00 0. -1.
</event>
<event>
 7    1  0.1226077E-013  0.5052886E+02  0.7816164E-02  0.1300439E+00
        -11   -1    0    0    0    0  0.00000000000E+00  0.00000000000E+00  0.45593999997E+02  0.45594000000E+02  0.51100000000E-03 0. -1.
         11   -1    0    0    0    0 -0.00000000000E+00 -0.00000000000E+00 -0.45593999997E+02  0.45594000000E+02  0.51100000000E-03 0.  1.
    9900012    2    1    2    0    0  0.70128735153E+01  0.13999114253E+02  0.37523464504E+02  0.50528856093E+02  0.29999988582E+02 0.  0.
        -12    1    1    2    0    0 -0.70128735153E+01 -0.13999114253E+02 -0.37523464504E+02  0.40659143907E+02  0.00000000000E+00 0.  1.
         11    1    3    3    0    0  0.51915611304E+01  0.10309154462E+02  0.38400794245E+02  0.40098029523E+02  0.51100000000E-03 0. -1.
        -11    1    3    3    0    0  0.55478164681E+01  0.10818956287E+01 -0.14792274812E+01  0.58426774613E+01  0.51100000000E-03 0.  1.
         12    1    3    3    0    0 -0.37265040832E+01  0.26080641628E+01  0.60189774023E+00  0.45881491093E+01  0.00000000000E+00 0. -1.
</event>
<event>
 7    1  0.9953837E-014  0.5052885E+02  0.7816164E-02  0.1300439E+00
        -11   -1    0    0    0    0  0.00000000000E+00  0.00000000000E+00  0.45593999997E+02  0.45594000000E+02  0.51100000000E-03 0. -1.
         11   -1    0    0    0    0 -0.00000000000E+00 -0.00000000000E+00 -0.45593999997E+02  0.45594000000E+02  0.51100000000E-03 0.  1.
    9900012    2    1    2    0    0  0.25224102640E-01  0.25093901103E+02  0.31991590332E+02  0.50528851450E+02  0.29999974468E+02 0.  0.
        -12    1    1    2    0    0 -0.25224102640E-01 -0.25093901103E+02 -0.31991590332E+02  0.40659148550E+02  0.00000000000E+00 0.  1.
         11    1    3    3    0    0  0.10426062289E+00 -0.41774945359E+01  0.31559041791E+01  0.52366079024E+01  0.51100000000E-03 0. -1.
        -11    1    3    3    0    0 -0.64356586897E+01  0.25828591572E+02  0.17527390427E+02  0.31870727334E+02  0.51100000000E-03 0.  1.
         12    1    3    3    0    0  0.63566221694E+01  0.34428040667E+01  0.11308295726E+02  0.13421516213E+02  0.00000000000E+00 0. -1.
</event>
<event>
 7    1  0.9953837E-014  0.5052887E+02  0.7816164E-02  0.1300439E+00
        -11   -1    0    0    0    0  0.00000000000E+00  0.00000000000E+00  0.45593999997E+02  0.45594000000E+02  0.51100000000E-03 0. -1.
         11   -1    0    0    0    0 -0.00000000000E+00 -0.00000000000E+00 -0.45593999997E+02  0.45594000000E+02  0.51100000000E-03 0.  1.
    9900012    2    1    2    0    0  0.12463882347E+02 -0.19844153952E+02  0.33226888105E+02  0.50528869385E+02  0.30000028983E+02 0.  0.
        -12    1    1    2    0    0 -0.12463882347E+02  0.19844153952E+02 -0.33226888105E+02  0.40659130615E+02  0.00000000000E+00 0.  1.
         11    1    3    3    0    0  0.18916072797E+01 -0.14468894513E+02  0.20765735713E+02  0.25379969789E+02  0.51100000000E-03 0. -1.
        -11    1    3    3    0    0  0.12289736455E+02 -0.23912376027E+01  0.15930109616E+02  0.20261392649E+02  0.51100000000E-03 0.  1.
        -12    1    3    3    0    0 -0.17174613882E+01 -0.29840218358E+01 -0.34689572243E+01  0.48875069474E+01  0.00000000000E+00 0.  1.
</event>
<event>
 7    1  0.9953837E-014  0.5052886E+02  0.7816164E-02  0.1300439E+00
        -11   -1    0    0    0    0  0.00000000000E+00  0.00000000000E+00  0.45593999997E+02  0.45594000000E+02  0.51100000000E-03 0. -1.
         11   -1    0    0    0    0 -0.00000000000E+00 -0.00000000000E+00 -0.45593999997E+02  0.45594000000E+02  0.51100000000E-03 0.  1.
    9900012    2    1    2    0    0  0.52918402728E+01  0.27004840699E+01  0.40222751612E+02  0.50528856688E+02  0.29999990388E+02 0.  0.
        -12    1    1    2    0    0 -0.52918402728E+01 -0.27004840699E+01 -0.40222751612E+02  0.40659143312E+02  0.00000000000E+00 0.  1.
         11    1    3    3    0    0 -0.15348785254E+01  0.62147954955E+01  0.19028892934E+02  0.20076810048E+02  0.51100000000E-03 0. -1.
        -11    1    3    3    0    0  0.66005543316E+00 -0.55153736492E+01 -0.23503598188E+01  0.60315181509E+01  0.51100000000E-03 0.  1.
        -12    1    3    3    0    0  0.61666633651E+01  0.20010622237E+01  0.23544218496E+02  0.24420528489E+02  0.00000000000E+00 0.  1.
</event>
<event>
 7    1  0.9953837E-014  0.5052886E+02  0.7816164E-02  0.1300439E+00
        -11   -1    0    0    0    0  0.00000000000E+00  0.00000000000E+00  0.45593999997E+02  0.45594000000E+02  0.51100000000E-03 0. -1.
         11   -1    0    0    0    0 -0.00000000000E+00 -0.00000000000E+00 -0.45593999997E+02  0.45594000000E+02  0.51100000000E-03 0.  1.
    9900012    2    1    2    0    0 -0.14424401215E+02 -0.15893705605E+02  0.34532481960E+02  0.50528861561E+02  0.30000005201E+02 0.  0.
        -12    1    1    2    0    0  0.14424401215E+02  0.15893705605E+02 -0.34532481960E+02  0.40659138439E+02  0.00000000000E+00 0.  1.
         11    1    3    3    0    0 -0.83758565713E+01 -0.75381343171E+01  0.36626443238E+02  0.38320683538E+02  0.51100000000E-03 0. -1.
        -11    1    3    3    0    0 -0.21781252600E+00 -0.51024038076E+01  0.29812418576E+00  0.51157448337E+01  0.51100000000E-03 0.  1.
         12    1    3    3    0    0 -0.58307321173E+01 -0.32531674804E+01 -0.23920854638E+01  0.70924331893E+01  0.00000000000E+00 0. -1.
</event>
<event>
 7    1  0.9953837E-014  0.5052885E+02  0.7816164E-02  0.1300439E+00
        -11   -1    0    0    0    0  0.00000000000E+00  0.00000000000E+00  0.45593999997E+02  0.45594000000E+02  0.51100000000E-03 0. -1.
         11   -1    0    0    0    0 -0.00000000000E+00 -0.00000000000E+00 -0.45593999997E+02  0.45594000000E+02  0.51100000000E-03 0.  1.
    9900012    2    1    2    0    0  0.10021520712E+01  0.25938181972E+02 -0.31294932677E+02  0.50528850918E+02  0.29999972850E+02 0.  0.
         12    1    1    2    0    0 -0.10021520712E+01 -0.25938181972E+02  0.31294932677E+02  0.40659149082E+02  0.00000000000E+00 0. -1.
         11    1    3    3    0    0 -0.10340472800E+02  0.51533111363E+01 -0.12261336975E+01  0.11618321630E+02  0.51100000000E-03 0. -1.
        -11    1    3    3    0    0  0.11795015343E+02  0.16844224098E+02 -0.26738901765E+02  0.33731574826E+02  0.51100000000E-03 0.  1.
         12    1    3    3    0    0 -0.45239047233E+00  0.39406467384E+01 -0.33298972151E+01  0.51789544620E+01  0.00000000000E+00 0. -1.
</event>
<event>
 7    1  0.9953837E-014  0.5052888E+02  0.7816164E-02  0.1300439E+00
        -11   -1    0    0    0    0  0.00000000000E+00  0.00000000000E+00  0.45593999997E+02  0.45594000000E+02  0.51100000000E-03 0. -1.
         11   -1    0    0    0    0 -0.00000000000E+00 -0.00000000000E+00 -0.45593999997E+02  0.45594000000E+02  0.51100000000E-03 0.  1.
    9900012    2    1    2    0    0 -0.13570590077E+02 -0.10760267443E+02  0.36786134107E+02  0.50528881305E+02  0.30000065214E+02 0.  0.
        -12    1    1    2    0    0  0.13570590077E+02  0.10760267443E+02 -0.36786134107E+02  0.40659118695E+02  0.00000000000E+00 0.  1.
         11    1    3    3    0    0  0.66546152748E+01  0.44661462946E+00  0.15076465462E+02  0.16485847876E+02  0.51100000000E-03 0. -1.
        -11    1    3    3    0    0 -0.10901077019E+02 -0.11611498888E+02  0.90607947676E+01  0.18323711106E+02  0.51100000000E-03 0.  1.
        -12    1    3    3    0    0 -0.93241283328E+01  0.40461681566E+00  0.12648873877E+02  0.15719322323E+02  0.00000000000E+00 0.  1.
</event>
<event>
 7    1  0.9953837E-014  0.5052886E+02  0.7816164E-02  0.1300439E+00
        -11   -1    0    0    0    0  0.00000000000E+00  0.00000000000E+00  0.45593999997E+02  0.45594000000E+02  0.51100000000E-03 0.  1.
         11   -1    0    0    0    0 -0.00000000000E+00 -0.00000000000E+00 -0.45593999997E+02  0.45594000000E+02  0.51100000000E-03 0. -1.
    9900012    2    1    2    0    0  0.32137840423E+02 -0.24241910973E+02  0.57144401691E+01  0.50528857595E+02  0.29999993145E+02 0.  0.
        -12    1    1    2    0    0 -0.32137840423E+02  0.24241910973E+02 -0.57144401691E+01  0.40659142405E+02  0.00000000000E+00 0.  1.
         11    1    3    3    0    0  0.17604596365E+02  0.25655782339E+01  0.43839685851E+01  0.18322750494E+02  0.51100000000E-03 0. -1.
        -11    1    3    3    0    0  0.10207161052E+02 -0.24571120612E+02  0.35710586063E+01  0.26845457059E+02  0.51100000000E-03 0.  1.
         12    1    3    3    0    0  0.43260830060E+01 -0.22363685949E+01 -0.22405870224E+01  0.53606500420E+01  0.00000000000E+00 0. -1.
</event>
<event>
 7    1  0.9953837E-014  0.5052884E+02  0.7816164E-02  0.1300439E+00
        -11   -1    0    0    0    0  0.00000000000E+00  0.00000000000E+00  0.45593999997E+02  0.45594000000E+02  0.51100000000E-03 0.  1.
         11   -1    0    0    0    0 -0.00000000000E+00 -0.00000000000E+00 -0.45593999997E+02  0.45594000000E+02  0.51100000000E-03 0. -1.
    9900012    2    1    2    0    0 -0.93679824630E+00 -0.32680482692E+02  0.24171788789E+02  0.50528844657E+02  0.29999953819E+02 0.  0.
        -12    1    1    2    0    0  0.93679824630E+00  0.32680482692E+02 -0.24171788789E+02  0.40659155343E+02  0.00000000000E+00 0.  1.
         11    1    3    3    0    0  0.95213923879E+01 -0.28590638817E+02  0.16774762099E+02  0.34488754467E+02  0.51100000000E-03 0. -1.
        -11    1    3    3    0    0 -0.79822061156E+01 -0.46407574968E+01  0.11584990285E+01  0.93056093232E+01  0.51100000000E-03 0.  1.
        -12    1    3    3    0    0 -0.24759845186E+01  0.55091362179E+00  0.62385276619E+01  0.67344808666E+01  0.00000000000E+00 0.  1.
</event>
<event>
 7    1  0.9953837E-014  0.5052884E+02  0.7816164E-02  0.1300439E+00
        -11   -1    0    0    0    0  0.00000000000E+00  0.00000000000E+00  0.45593999997E+02  0.45594000000E+02  0.51100000000E-03 0. -1.
         11   -1    0    0    0    0 -0.00000000000E+00 -0.00000000000E+00 -0.45593999997E+02  0.45594000000E+02  0.51100000000E-03 0.  1.
    9900012    2    1    2    0    0 -0.25947555112E+02  0.14647129424E+01 -0.31268930784E+02  0.50528843187E+02  0.29999949352E+02 0.  0.
         12    1    1    2    0    0  0.25947555112E+02 -0.14647129424E+01  0.31268930784E+02  0.40659156813E+02  0.00000000000E+00 0. -1.
         11    1    3    3    0    0 -0.66362050665E+01  0.36509345711E+01  0.38554655283E+01  0.84990090969E+01  0.51100000000E-03 0. -1.
        -11    1    3    3    0    0 -0.19785516948E+02 -0.42967458235E+01 -0.27791457268E+02  0.34384499457E+02  0.51100000000E-03 0.  1.
         12    1    3    3    0    0  0.47416690200E+00  0.21105241948E+01 -0.73329390444E+01  0.76453346334E+01  0.00000000000E+00 0. -1.
</event>
<event>
 7    1  0.9953837E-014  0.5052892E+02  0.7816164E-02  0.1300439E+00
        -11   -1    0    0    0    0  0.00000000000E+00  0.00000000000E+00  0.45593999997E+02  0.45594000000E+02  0.51100000000E-03 0. -1.
         11   -1    0    0    0    0 -0.00000000000E+00 -0.00000000000E+00 -0.45593999997E+02  0.45594000000E+02  0.51100000000E-03 0.  1.
    9900012    2    1    2    0    0  0.82557535955E+01 -0.82432754354E+01 -0.38949346267E+02  0.50528921900E+02  0.30000188606E+02 0.  0.
         12    1    1    2    0    0 -0.82557535955E+01  0.82432754354E+01  0.38949346267E+02  0.40659078100E+02  0.00000000000E+00 0. -1.
         11    1    3    3    0    0 -0.68366909868E+01 -0.59539184171E+01 -0.38830867768E+01  0.98624465192E+01  0.51100000000E-03 0. -1.
        -11    1    3    3    0    0  0.13982267083E+02  0.26453788006E+01 -0.31226278946E+02  0.34315919321E+02  0.51100000000E-03 0.  1.
        -12    1    3    3    0    0  0.11101774990E+01 -0.49347358189E+01 -0.38399805440E+01  0.63505560591E+01  0.00000000000E+00 0.  1.
</event>
<event>
 7    1  0.9953837E-014  0.5052886E+02  0.7816164E-02  0.1300439E+00
        -11   -1    0    0    0    0  0.00000000000E+00  0.00000000000E+00  0.45593999997E+02  0.45594000000E+02  0.51100000000E-03 0. -1.
         11   -1    0    0    0    0 -0.00000000000E+00 -0.00000000000E+00 -0.45593999997E+02  0.45594000000E+02  0.51100000000E-03 0.  1.
    9900012    2    1    2    0    0 -0.14514325867E+02  0.52141293452E+01  0.37620641970E+02  0.50528862006E+02  0.30000006552E+02 0.  0.
        -12    1    1    2    0    0  0.14514325867E+02 -0.52141293452E+01 -0.37620641970E+02  0.40659137994E+02  0.00000000000E+00 0.  1.
         11    1    3    3    0    0  0.61312742745E+01  0.72890653684E+01  0.19256770407E+02  0.21483626439E+02  0.51100000000E-03 0. -1.
        -11    1    3    3    0    0 -0.70400383852E+01  0.33580903432E+01  0.54441638946E+01  0.95119835992E+01  0.51100000000E-03 0.  1.
         12    1    3    3    0    0 -0.13605561757E+02 -0.54330263664E+01  0.12919707668E+02  0.19533251968E+02  0.00000000000E+00 0. -1.
</event>
<event>
 7    1  0.9953837E-014  0.5052874E+02  0.7816164E-02  0.1300439E+00
        -11   -1    0    0    0    0  0.00000000000E+00  0.00000000000E+00  0.45593999997E+02  0.45594000000E+02  0.51100000000E-03 0. -1.
         11   -1    0    0    0    0 -0.00000000000E+00 -0.00000000000E+00 -0.45593999997E+02  0.45594000000E+02  0.51100000000E-03 0.  1.
    9900012    2    1    2    0    0 -0.39101106105E+02 -0.96034929080E+01 -0.56614654100E+01  0.50528735800E+02  0.29999622935E+02 0.  0.
         12    1    1    2    0    0  0.39101106105E+02  0.96034929080E+01  0.56614654100E+01  0.40659264200E+02  0.00000000000E+00 0. -1.
         11    1    3    3    0    0 -0.37461242123E+01 -0.72905330819E+01  0.48881680232E+01  0.95435583572E+01  0.51100000000E-03 0. -1.
        -11    1    3    3    0    0 -0.35065899284E+02  0.21281755111E+01 -0.89150066826E+01  0.36243948019E+02  0.51100000000E-03 0.  1.
        -12    1    3    3    0    0 -0.28908260962E+00 -0.44411353372E+01 -0.16346267505E+01  0.47412294241E+01  0.00000000000E+00 0.  1.
</event>
<event>
 7    1  0.9953837E-014  0.5052886E+02  0.7816164E-02  0.1300439E+00
        -11   -1    0    0    0    0  0.00000000000E+00  0.00000000000E+00  0.45593999997E+02  0.45594000000E+02  0.51100000000E-03 0.  1.
         11   -1    0    0    0    0 -0.00000000000E+00 -0.00000000000E+00 -0.45593999997E+02  0.45594000000E+02  0.51100000000E-03 0. -1.
    9900012    2    1    2    0    0  0.38558521783E+02  0.21107120408E+01  0.12725982650E+02  0.50528863981E+02  0.30000012557E+02 0.  0.
         12    1    1    2    0    0 -0.38558521783E+02 -0.21107120408E+01 -0.12725982650E+02  0.40659136019E+02  0.00000000000E+00 0. -1.
         11    1    3    3    0    0 -0.19657178251E+00 -0.11192600895E+01 -0.32030412041E+01  0.33986551502E+01  0.51100000000E-03 0. -1.
        -11    1    3    3    0    0  0.24407718023E+02  0.14264373120E+00  0.20376222170E+02  0.31795400241E+02  0.51100000000E-03 0.  1.
        -12    1    3    3    0    0  0.14347375543E+02  0.30873283991E+01 -0.44471983165E+01  0.15334808589E+02  0.00000000000E+00 0.  1.
</event>
<event>
 7    1  0.9953837E-014  0.5052886E+02  0.7816164E-02  0.1300439E+00
        -11   -1    0    0    0    0  0.00000000000E+00  0.00000000000E+00  0.45593999997E+02  0.45594000000E+02  0.51100000000E-03 0. -1.
         11   -1    0    0    0    0 -0.00000000000E+00 -0.00000000000E+00 -0.45593999997E+02  0.45594000000E+02  0.51100000000E-03 0.  1.
    9900012    2    1    2    0    0 -0.29093474860E+02 -0.20075617050E+01  0.28332055849E+02  0.50528856231E+02  0.29999988999E+02 0.  0.
        -12    1    1    2    0    0  0.29093474860E+02  0.20075617050E+01 -0.28332055849E+02  0.40659143769E+02  0.00000000000E+00 0.  1.
         11    1    3    3    0    0 -0.23749441324E+02  0.74241540850E+01  0.23033672643E+02  0.33907286868E+02  0.51100000000E-03 0. -1.
        -11    1    3    3    0    0 -0.68820512276E+01 -0.37051978397E+01 -0.11057908058E+01  0.78939149792E+01  0.51100000000E-03 0.  1.
        -12    1    3    3    0    0  0.15380176923E+01 -0.57265179503E+01  0.64041740122E+01  0.87276543834E+01  0.00000000000E+00 0.  1.
</event>
<event>
 7    1  0.9953837E-014  0.5052886E+02  0.7816164E-02  0.1300439E+00
        -11   -1    0    0    0    0  0.00000000000E+00  0.00000000000E+00  0.45593999997E+02  0.45594000000E+02  0.51100000000E-03 0. -1.
         11   -1    0    0    0    0 -0.00000000000E+00 -0.00000000000E+00 -0.45593999997E+02  0.45594000000E+02  0.51100000000E-03 0.  1.
    9900012    2    1    2    0    0 -0.13824192412E+02  0.15891410217E+02  0.34778161093E+02  0.50528859532E+02  0.29999999035E+02 0.  0.
        -12    1    1    2    0    0  0.13824192412E+02 -0.15891410217E+02 -0.34778161093E+02  0.40659140468E+02  0.00000000000E+00 0.  1.
         11    1    3    3    0    0 -0.10022331976E+02  0.35789735642E+01  0.32626924016E+02  0.34318688218E+02  0.51100000000E-03 0. -1.
        -11    1    3    3    0    0  0.28693241526E+01  0.58239098093E+01 -0.56156617937E+00  0.65166174811E+01  0.51100000000E-03 0.  1.
         12    1    3    3    0    0 -0.66711845879E+01  0.64885268435E+01  0.27128032570E+01  0.96935538331E+01  0.00000000000E+00 0. -1.
</event>
<event>
 7    1  0.9953837E-014  0.5052886E+02  0.7816164E-02  0.1300439E+00
        -11   -1    0    0    0    0  0.00000000000E+00  0.00000000000E+00  0.45593999997E+02  0.45594000000E+02  0.51100000000E-03 0. -1.
         11   -1    0    0    0    0 -0.00000000000E+00 -0.00000000000E+00 -0.45593999997E+02  0.45594000000E+02  0.51100000000E-03 0.  1.
    9900012    2    1    2    0    0 -0.31330025748E+02 -0.21320510852E+01  0.25827301001E+02  0.50528860410E+02  0.30000001702E+02 0.  0.
        -12    1    1    2    0    0  0.31330025748E+02  0.21320510852E+01 -0.25827301001E+02  0.40659139590E+02  0.00000000000E+00 0.  1.
         11    1    3    3    0    0 -0.91104559162E+00 -0.58343224330E+01  0.61772555163E+01  0.85456309479E+01  0.51100000000E-03 0. -1.
        -11    1    3    3    0    0 -0.88817326987E+01  0.87807080883E+01  0.15168723072E+00  0.12490357062E+02  0.51100000000E-03 0.  1.
        -12    1    3    3    0    0 -0.21537247458E+02 -0.50784367405E+01  0.19498358254E+02  0.29492872400E+02  0.00000000000E+00 0.  1.
</event>
<event>
 7    1  0.9953837E-014  0.5052886E+02  0.7816164E-02  0.1300439E+00
        -11   -1    0    0    0    0  0.00000000000E+00  0.00000000000E+00  0.45593999997E+02  0.45594000000E+02  0.51100000000E-03 0. -1.
         11   -1    0    0    0    0 -0.00000000000E+00 -0.00000000000E+00 -0.45593999997E+02  0.45594000000E+02  0.51100000000E-03 0.  1.
    9900012    2    1    2    0    0 -0.25923891726E+02  0.29319396587E+02  0.11022261424E+02  0.50528862954E+02  0.30000009434E+02 0.  0.
        -12    1    1    2    0    0  0.25923891726E+02 -0.29319396587E+02 -0.11022261424E+02  0.40659137046E+02  0.00000000000E+00 0.  1.
         11    1    3    3    0    0 -0.70806761586E+01  0.24865511528E+02 -0.89792846405E-01  0.25854162169E+02  0.51100000000E-03 0. -1.
        -11    1    3    3    0    0 -0.13641434112E+02 -0.15140361543E+01  0.47684085722E+01  0.14529926039E+02  0.51100000000E-03 0.  1.
         12    1    3    3    0    0 -0.52017814550E+01  0.59679212133E+01  0.63436456979E+01  0.10144774746E+02  0.00000000000E+00 0. -1.
</event>
<event>
 7    1  0.9953837E-014  0.5052880E+02  0.7816164E-02  0.1300439E+00
        -11   -1    0    0    0    0  0.00000000000E+00  0.00000000000E+00  0.45593999997E+02  0.45594000000E+02  0.51100000000E-03 0. -1.
         11   -1    0    0    0    0 -0.00000000000E+00 -0.00000000000E+00 -0.45593999997E+02  0.45594000000E+02  0.51100000000E-03 0.  1.
    9900012    2    1    2    0    0  0.16557052875E+02 -0.43945474725E+00 -0.37132754273E+02  0.50528799808E+02  0.29999817495E+02 0.  0.
         12    1    1    2    0    0 -0.16557052875E+02  0.43945474725E+00  0.37132754273E+02  0.40659200192E+02  0.00000000000E+00 0. -1.
         11    1    3    3    0    0 -0.77741606130E+01  0.14496552103E+01 -0.55841005172E+01  0.96809737275E+01  0.51100000000E-03 0. -1.
        -11    1    3    3    0    0  0.23615708881E+01 -0.20183014320E+01 -0.10896478753E+01  0.32920951510E+01  0.51100000000E-03 0.  1.
         12    1    3    3    0    0  0.21969642599E+02  0.12919147449E+00 -0.30459005881E+02  0.37555730929E+02  0.00000000000E+00 0. -1.
</event>
<event>
 7    1  0.9953837E-014  0.5052889E+02  0.7816164E-02  0.1300439E+00
        -11   -1    0    0    0    0  0.00000000000E+00  0.00000000000E+00  0.45593999997E+02  0.45594000000E+02  0.51100000000E-03 0. -1.
         11   -1    0    0    0    0 -0.00000000000E+00 -0.00000000000E+00 -0.45593999997E+02  0.45594000000E+02  0.51100000000E-03 0.  1.
    9900012    2    1    2    0    0 -0.34587620137E+02  0.10662227988E+02  0.18525027448E+02  0.50528890143E+02  0.30000092079E+02 0.  0.
        -12    1    1    2    0    0  0.34587620137E+02 -0.10662227988E+02 -0.18525027448E+02  0.40659109857E+02  0.00000000000E+00 0.  1.
         11    1    3    3    0    0 -0.36662394027E+02  0.92519388967E+01  0.12288439668E+02  0.39758461475E+02  0.51100000000E-03 0. -1.
        -11    1    3    3    0    0  0.87783520389E+00  0.11713880995E+01  0.82701495127E+01  0.83986973960E+01  0.51100000000E-03 0.  1.
         12    1    3    3    0    0  0.11969386861E+01  0.23890099167E+00 -0.20335617335E+01  0.23717312719E+01  0.00000000000E+00 0. -1.
</event>
<event>
 7    1  0.9953837E-014  0.5052886E+02  0.7816164E-02  0.1300439E+00
        -11   -1    0    0    0    0  0.00000000000E+00  0.00000000000E+00  0.45593999997E+02  0.45594000000E+02  0.51100000000E-03 0.  1.
         11   -1    0    0    0    0 -0.00000000000E+00 -0.00000000000E+00 -0.45593999997E+02  0.45594000000E+02  0.51100000000E-03 0. -1.
    9900012    2    1    2    0    0 -0.39831936986E+02 -0.46812742412E+01  0.66834295581E+01  0.50528858799E+02  0.29999996805E+02 0.  0.
        -12    1    1    2    0    0  0.39831936986E+02  0.46812742412E+01 -0.66834295581E+01  0.40659141201E+02  0.00000000000E+00 0.  1.
         11    1    3    3    0    0 -0.29131845873E+02 -0.33324970474E+01 -0.16755739132E+01  0.29369670219E+02  0.51100000000E-03 0. -1.
        -11    1    3    3    0    0 -0.12213823987E+02  0.11538283662E+01  0.11536571783E+02  0.16840466295E+02  0.51100000000E-03 0.  1.
         12    1    3    3    0    0  0.15137328742E+01 -0.25026055599E+01 -0.31775683114E+01  0.43187222852E+01  0.00000000000E+00 0. -1.
</event>
<event>
 7    1  0.9953837E-014  0.5052886E+02  0.7816164E-02  0.1300439E+00
        -11   -1    0    0    0    0  0.00000000000E+00  0.00000000000E+00  0.45593999997E+02  0.45594000000E+02  0.51100000000E-03 0. -1.
         11   -1    0    0    0    0 -0.00000000000E+00 -0.00000000000E+00 -0.45593999997E+02  0.45594000000E+02  0.51100000000E-03 0.  1.
    9900012    2    1    2    0    0  0.39405593108E+01 -0.31751930906E+02 -0.25088889985E+02  0.50528861733E+02  0.30000005722E+02 0.  0.
         12    1    1    2    0    0 -0.39405593108E+01  0.31751930906E+02  0.25088889985E+02  0.40659138267E+02  0.00000000000E+00 0. -1.
         11    1    3    3    0    0  0.70395613577E+01 -0.28270383973E+01  0.38793163527E+01  0.85203677053E+01  0.51100000000E-03 0. -1.
        -11    1    3    3    0    0 -0.53998018573E+01 -0.11959138555E+02 -0.10328316446E+02  0.16698891459E+02  0.51100000000E-03 0.  1.
         12    1    3    3    0    0  0.23007998104E+01 -0.16965753954E+02 -0.18639889892E+02  0.25309602569E+02  0.00000000000E+00 0. -1.
</event>
<event>
 7    1  0.9953837E-014  0.5052886E+02  0.7816164E-02  0.1300439E+00
        -11   -1    0    0    0    0  0.00000000000E+00  0.00000000000E+00  0.45593999997E+02  0.45594000000E+02  0.51100000000E-03 0. -1.
         11   -1    0    0    0    0 -0.00000000000E+00 -0.00000000000E+00 -0.45593999997E+02  0.45594000000E+02  0.51100000000E-03 0.  1.
    9900012    2    1    2    0    0 -0.52901865337E+01 -0.34163374687E+01 -0.40168499835E+02  0.50528858171E+02  0.29999994896E+02 0.  0.
         12    1    1    2    0    0  0.52901865337E+01  0.34163374687E+01  0.40168499835E+02  0.40659141829E+02  0.00000000000E+00 0. -1.
         11    1    3    3    0    0  0.50507814516E-01  0.34689082612E+01  0.45276912972E+00  0.34986962872E+01  0.51100000000E-03 0. -1.
        -11    1    3    3    0    0 -0.13000583491E+02 -0.77671458272E+01 -0.32367911181E+02  0.35735492160E+02  0.51100000000E-03 0.  1.
        -12    1    3    3    0    0  0.76598891426E+01  0.88190009735E+00 -0.82533577840E+01  0.11294669724E+02  0.00000000000E+00 0.  1.
</event>
<event>
 7    1  0.9953837E-014  0.5052886E+02  0.7816164E-02  0.1300439E+00
        -11   -1    0    0    0    0  0.00000000000E+00  0.00000000000E+00  0.45593999997E+02  0.45594000000E+02  0.51100000000E-03 0. -1.
         11   -1    0    0    0    0 -0.00000000000E+00 -0.00000000000E+00 -0.45593999997E+02  0.45594000000E+02  0.51100000000E-03 0.  1.
    9900012    2    1    2    0    0 -0.57537108375E+01  0.74592920259E+01 -0.39552742023E+02  0.50528860468E+02  0.30000001880E+02 0.  0.
         12    1    1    2    0    0  0.57537108375E+01 -0.74592920259E+01  0.39552742023E+02  0.40659139532E+02  0.00000000000E+00 0. -1.
         11    1    3    3    0    0 -0.86504672969E+01 -0.75910858043E+00 -0.74367695509E+01  0.11432951146E+02  0.51100000000E-03 0. -1.
        -11    1    3    3    0    0  0.76694625212E+01  0.11960693079E+02 -0.13820326485E+02  0.19821207296E+02  0.51100000000E-03 0.  1.
        -12    1    3    3    0    0 -0.47727060618E+01 -0.37422924723E+01 -0.18295645987E+02  0.19274702026E+02  0.00000000000E+00 0.  1.
</event>
<event>
 7    1  0.9953837E-014  0.5052886E+02  0.7816164E-02  0.1300439E+00
        -11   -1    0    0    0    0  0.00000000000E+00  0.00000000000E+00  0.45593999997E+02  0.45594000000E+02  0.51100000000E-03 0. -1.
         11   -1    0    0    0    0 -0.00000000000E+00 -0.00000000000E+00 -0.45593999997E+02  0.45594000000E+02  0.51100000000E-03 0.  1.
    9900012    2    1    2    0    0  0.31066159904E+02  0.23110277659E+02  0.12408640122E+02  0.50528861122E+02  0.30000003867E+02 0.  0.
        -12    1    1    2    0    0 -0.31066159904E+02 -0.23110277659E+02 -0.12408640122E+02  0.40659138878E+02  0.00000000000E+00 0.  1.
         11    1    3    3    0    0  0.12666082510E+02 -0.47668652861E+01  0.75959119487E+00  0.13554690327E+02  0.51100000000E-03 0. -1.
        -11    1    3    3    0    0  0.29977068513E+00  0.62027341666E+01 -0.50680615998E+00  0.62306200615E+01  0.51100000000E-03 0.  1.
         12    1    3    3    0    0  0.18100306708E+02  0.21674408778E+02  0.12155855087E+02  0.30743550734E+02  0.00000000000E+00 0. -1.
</event>
<event>
 7    1  0.9953837E-014  0.5052886E+02  0.7816164E-02  0.1300439E+00
        -11   -1    0    0    0    0  0.00000000000E+00  0.00000000000E+00  0.45593999997E+02  0.45594000000E+02  0.51100000000E-03 0. -1.
         11   -1    0    0    0    0 -0.00000000000E+00 -0.00000000000E+00 -0.45593999997E+02  0.45594000000E+02  0.51100000000E-03 0.  1.
    9900012    2    1    2    0    0  0.36046721353E+02  0.48498291958E+01  0.18173576969E+02  0.50528857567E+02  0.29999993061E+02 0.  0.
        -12    1    1    2    0    0 -0.36046721353E+02 -0.48498291958E+01 -0.18173576969E+02  0.40659142433E+02  0.00000000000E+00 0.  1.
         11    1    3    3    0    0  0.16263060392E+02  0.10652140043E+02 -0.34618988807E+01  0.19746897603E+02  0.51100000000E-03 0. -1.
        -11    1    3    3    0    0  0.77722647983E+01 -0.60161795243E+01  0.86656950925E+01  0.13103312095E+02  0.51100000000E-03 0.  1.
         12    1    3    3    0    0  0.12011396163E+02  0.21386867675E+00  0.12969780757E+02  0.17678647869E+02  0.00000000000E+00 0. -1.
</event>
<event>
 7    1  0.9953837E-014  0.5052887E+02  0.7816164E-02  0.1300439E+00
        -11   -1    0    0    0    0  0.00000000000E+00  0.00000000000E+00  0.45593999997E+02  0.45594000000E+02  0.51100000000E-03 0.  1.
         11   -1    0    0    0    0 -0.00000000000E+00 -0.00000000000E+00 -0.45593999997E+02  0.45594000000E+02  0.51100000000E-03 0. -1.
    9900012    2    1    2    0    0  0.11802035722E+02 -0.38515230344E+02  0.55185143065E+01  0.50528867990E+02  0.30000024743E+02 0.  0.
         12    1    1    2    0    0 -0.11802035722E+02  0.38515230344E+02 -0.55185143065E+01  0.40659132010E+02  0.00000000000E+00 0. -1.
         11    1    3    3    0    0 -0.17211872370E+00 -0.49310994922E+01 -0.50464476462E+01  0.70577617673E+01  0.51100000000E-03 0. -1.
        -11    1    3    3    0    0  0.15349831657E+02 -0.33238785925E+02  0.13462896302E+02  0.39008765666E+02  0.51100000000E-03 0.  1.
        -12    1    3    3    0    0 -0.33756772112E+01 -0.34534492682E+00 -0.28979343495E+01  0.44623405570E+01  0.00000000000E+00 0.  1.
</event>
<event>
 7    1  0.9953837E-014  0.5052886E+02  0.7816164E-02  0.1300439E+00
        -11   -1    0    0    0    0  0.00000000000E+00  0.00000000000E+00  0.45593999997E+02  0.45594000000E+02  0.51100000000E-03 0. -1.
         11   -1    0    0    0    0 -0.00000000000E+00 -0.00000000000E+00 -0.45593999997E+02  0.45594000000E+02  0.51100000000E-03 0.  1.
    9900012    2    1    2    0    0 -0.75697036218E+01 -0.56766983132E+01 -0.39542893309E+02  0.50528859233E+02  0.29999998126E+02 0.  0.
         12    1    1    2    0    0  0.75697036218E+01  0.56766983132E+01  0.39542893309E+02  0.40659140767E+02  0.00000000000E+00 0. -1.
         11    1    3    3    0    0  0.46453394340E+01 -0.11241228694E+02 -0.69392327009E+01  0.14003476417E+02  0.51100000000E-03 0. -1.
        -11    1    3    3    0    0 -0.12837288792E+02  0.28413897898E+01 -0.22673941874E+02  0.26210248374E+02  0.51100000000E-03 0.  1.
         12    1    3    3    0    0  0.62224573655E+00  0.27231405913E+01 -0.99297187340E+01  0.10315134443E+02  0.00000000000E+00 0. -1.
</event>
<event>
 7    1  0.9953837E-014  0.5052886E+02  0.7816164E-02  0.1300439E+00
        -11   -1    0    0    0    0  0.00000000000E+00  0.00000000000E+00  0.45593999997E+02  0.45594000000E+02  0.51100000000E-03 0. -1.
         11   -1    0    0    0    0 -0.00000000000E+00 -0.00000000000E+00 -0.45593999997E+02  0.45594000000E+02  0.51100000000E-03 0.  1.
    9900012    2    1    2    0    0 -0.49985084202E+01  0.15597293845E+02 -0.37214313504E+02  0.50528858454E+02  0.29999995756E+02 0.  0.
         12    1    1    2    0    0  0.49985084202E+01 -0.15597293845E+02  0.37214313504E+02  0.40659141546E+02  0.00000000000E+00 0. -1.
         11    1    3    3    0    0 -0.70694069393E+00  0.52650678645E+01 -0.30505974833E+02  0.30965064274E+02  0.51100000000E-03 0. -1.
        -11    1    3    3    0    0  0.50711280322E+01  0.44325647685E+01 -0.22709111054E+00  0.67391053248E+01  0.51100000000E-03 0.  1.
        -12    1    3    3    0    0 -0.93626957584E+01  0.58996612117E+01 -0.64812475609E+01  0.12824688855E+02  0.00000000000E+00 0.  1.
</event>
<event>
 7    1  0.9953837E-014  0.5052885E+02  0.7816164E-02  0.1300439E+00
        -11   -1    0    0    0    0  0.00000000000E+00  0.00000000000E+00  0.45593999997E+02  0.45594000000E+02  0.51100000000E-03 0. -1.
         11   -1    0    0    0    0 -0.00000000000E+00 -0.00000000000E+00 -0.45593999997E+02  0.45594000000E+02  0.51100000000E-03 0.  1.
    9900012    2    1    2    0    0 -0.29553589553E+02 -0.14703611017E+00  0.27923642364E+02  0.50528854929E+02  0.29999985041E+02 0.  0.
        -12    1    1    2    0    0  0.29553589553E+02  0.14703611017E+00 -0.27923642364E+02  0.40659145071E+02  0.00000000000E+00 0.  1.
         11    1    3    3    0    0 -0.70089237924E+01 -0.67639394037E+01  0.14650822181E+02  0.17593250974E+02  0.51100000000E-03 0. -1.
        -11    1    3    3    0    0 -0.11239564092E+02 -0.32499433772E+01 -0.15993567779E+01  0.11808804990E+02  0.51100000000E-03 0.  1.
        -12    1    3    3    0    0 -0.11305101669E+02  0.98668466707E+01  0.14872176961E+02  0.21126798965E+02  0.00000000000E+00 0.  1.
</event>
<event>
 7    1  0.9953837E-014  0.5052886E+02  0.7816164E-02  0.1300439E+00
        -11   -1    0    0    0    0  0.00000000000E+00  0.00000000000E+00  0.45593999997E+02  0.45594000000E+02  0.51100000000E-03 0. -1.
         11   -1    0    0    0    0 -0.00000000000E+00 -0.00000000000E+00 -0.45593999997E+02  0.45594000000E+02  0.51100000000E-03 0.  1.
    9900012    2    1    2    0    0 -0.36021384876E+02  0.10888385872E+02 -0.15397022497E+02  0.50528863055E+02  0.30000009743E+02 0.  0.
         12    1    1    2    0    0  0.36021384876E+02 -0.10888385872E+02  0.15397022497E+02  0.40659136945E+02  0.00000000000E+00 0. -1.
         11    1    3    3    0    0 -0.22371977127E+02  0.12541516944E+02 -0.16130265339E+02  0.30298192487E+02  0.51100000000E-03 0. -1.
        -11    1    3    3    0    0 -0.32987072364E+01  0.55597795694E+01  0.34467524666E+01  0.73261668776E+01  0.51100000000E-03 0.  1.
         12    1    3    3    0    0 -0.10350700513E+02 -0.72129106409E+01 -0.27135096244E+01  0.12904503691E+02  0.00000000000E+00 0. -1.
</event>
<event>
 7    1  0.9953837E-014  0.5052886E+02  0.7816164E-02  0.1300439E+00
        -11   -1    0    0    0    0  0.00000000000E+00  0.00000000000E+00  0.45593999997E+02  0.45594000000E+02  0.51100000000E-03 0. -1.
         11   -1    0    0    0    0 -0.00000000000E+00 -0.00000000000E+00 -0.45593999997E+02  0.45594000000E+02  0.51100000000E-03 0.  1.
    9900012    2    1    2    0    0  0.31120638421E+01  0.35182337005E+02  0.20141596053E+02  0.50528859944E+02  0.30000000286E+02 0.  0.
        -12    1    1    2    0    0 -0.31120638421E+01 -0.35182337005E+02 -0.20141596053E+02  0.40659140056E+02  0.00000000000E+00 0.  1.
         11    1    3    3    0    0  0.22105048223E+01  0.45132354380E+00  0.65782462866E+01  0.69543762465E+01  0.51100000000E-03 0. -1.
        -11    1    3    3    0    0 -0.83710227668E+01  0.25703591463E+02  0.14358105252E+02  0.30608884706E+02  0.51100000000E-03 0.  1.
        -12    1    3    3    0    0  0.92725817866E+01  0.90274219985E+01 -0.79475548524E+00  0.12965598992E+02  0.00000000000E+00 0.  1.
</event>
<event>
 7    1  0.9953837E-014  0.5052887E+02  0.7816164E-02  0.1300439E+00
        -11   -1    0    0    0    0  0.00000000000E+00  0.00000000000E+00  0.45593999997E+02  0.45594000000E+02  0.51100000000E-03 0. -1.
         11   -1    0    0    0    0 -0.00000000000E+00 -0.00000000000E+00 -0.45593999997E+02  0.45594000000E+02  0.51100000000E-03 0.  1.
    9900012    2    1    2    0    0  0.22371153971E+02  0.36328962784E+01  0.33756461704E+02  0.50528866068E+02  0.30000018900E+02 0.  0.
        -12    1    1    2    0    0 -0.22371153971E+02 -0.36328962784E+01 -0.33756461704E+02  0.40659133932E+02  0.00000000000E+00 0.  1.
         11    1    3    3    0    0  0.12413612661E+02  0.88393919742E+01  0.17306524356E+01  0.15337137539E+02  0.51100000000E-03 0. -1.
        -11    1    3    3    0    0  0.35440610796E+01 -0.87113145118E+00  0.23056986740E+02  0.23344033001E+02  0.51100000000E-03 0.  1.
         12    1    3    3    0    0  0.64134802298E+01 -0.43353642446E+01  0.89688225278E+01  0.11847695528E+02  0.00000000000E+00 0. -1.
</event>
<event>
 7    1  0.9953837E-014  0.5052888E+02  0.7816164E-02  0.1300439E+00
        -11   -1    0    0    0    0  0.00000000000E+00  0.00000000000E+00  0.45593999997E+02  0.45594000000E+02  0.51100000000E-03 0. -1.
         11   -1    0    0    0    0 -0.00000000000E+00 -0.00000000000E+00 -0.45593999997E+02  0.45594000000E+02  0.51100000000E-03 0.  1.
    9900012    2    1    2    0    0  0.37493478797E+02 -0.11961274957E+02  0.10214269123E+02  0.50528876244E+02  0.30000049831E+02 0.  0.
        -12    1    1    2    0    0 -0.37493478797E+02  0.11961274957E+02 -0.10214269123E+02  0.40659123756E+02  0.00000000000E+00 0.  1.
         11    1    3    3    0    0  0.31706693374E+02  0.23286278902E+01  0.12978665689E+02  0.34339229401E+02  0.51100000000E-03 0. -1.
        -11    1    3    3    0    0  0.90284979063E-01  0.28077640665E+00 -0.13974822852E+00  0.32636880437E+00  0.51100000000E-03 0.  1.
         12    1    3    3    0    0  0.56965004446E+01 -0.14570679254E+02 -0.26246483373E+01  0.15863278038E+02  0.00000000000E+00 0. -1.
</event>
<event>
 7    1  0.9953837E-014  0.5052890E+02  0.7816164E-02  0.1300439E+00
        -11   -1    0    0    0    0  0.00000000000E+00  0.00000000000E+00  0.45593999997E+02  0.45594000000E+02  0.51100000000E-03 0. -1.
         11   -1    0    0    0    0 -0.00000000000E+00 -0.00000000000E+00 -0.45593999997E+02  0.45594000000E+02  0.51100000000E-03 0.  1.
    9900012    2    1    2    0    0 -0.15191702042E+02  0.36000050994E+02 -0.11241498021E+02  0.50528895727E+02  0.30000109052E+02 0.  0.
         12    1    1    2    0    0  0.15191702042E+02 -0.36000050994E+02  0.11241498021E+02  0.40659104273E+02  0.00000000000E+00 0. -1.
         11    1    3    3    0    0  0.39130515783E+01  0.11811689001E+02  0.55836558407E+01  0.13638371696E+02  0.51100000000E-03 0. -1.
        -11    1    3    3    0    0 -0.32336781402E+01  0.16603118551E+01 -0.65288013026E+01  0.74725200890E+01  0.51100000000E-03 0.  1.
         12    1    3    3    0    0 -0.15871075480E+02  0.22528050138E+02 -0.10296352559E+02  0.29418003942E+02  0.00000000000E+00 0. -1.
</event>
<event>
 7    1  0.9953837E-014  0.5052886E+02  0.7816164E-02  0.1300439E+00
        -11   -1    0    0    0    0  0.00000000000E+00  0.00000000000E+00  0.45593999997E+02  0.45594000000E+02  0.51100000000E-03 0. -1.
         11   -1    0    0    0    0 -0.00000000000E+00 -0.00000000000E+00 -0.45593999997E+02  0.45594000000E+02  0.51100000000E-03 0.  1.
    9900012    2    1    2    0    0 -0.47501854609E+01  0.29916387134E+02 -0.27122149752E+02  0.50528862180E+02  0.30000007082E+02 0.  0.
         12    1    1    2    0    0  0.47501854609E+01 -0.29916387134E+02  0.27122149752E+02  0.40659137820E+02  0.00000000000E+00 0. -1.
         11    1    3    3    0    0  0.66373360876E+00  0.55654337558E+00 -0.96951734042E+01  0.97337901370E+01  0.51100000000E-03 0. -1.
        -11    1    3    3    0    0  0.34269908837E+01  0.24784905656E+02 -0.61742684528E+01  0.25771251543E+02  0.51100000000E-03 0.  1.
         12    1    3    3    0    0 -0.88409099534E+01  0.45749381028E+01 -0.11252707895E+02  0.15023820500E+02  0.00000000000E+00 0. -1.
</event>
<event>
 7    1  0.1387532E-013  0.5052886E+02  0.7816164E-02  0.1300439E+00
        -11   -1    0    0    0    0  0.00000000000E+00  0.00000000000E+00  0.45593999997E+02  0.45594000000E+02  0.51100000000E-03 0. -1.
         11   -1    0    0    0    0 -0.00000000000E+00 -0.00000000000E+00 -0.45593999997E+02  0.45594000000E+02  0.51100000000E-03 0.  1.
    9900012    2    1    2    0    0  0.14861591833E+02  0.66871177403E+01  0.37250253985E+02  0.50528857394E+02  0.29999992536E+02 0.  0.
        -12    1    1    2    0    0 -0.14861591833E+02 -0.66871177403E+01 -0.37250253985E+02  0.40659142606E+02  0.00000000000E+00 0.  1.
         11    1    3    3    0    0  0.17825322373E+02 -0.92266983282E+00  0.23533358307E+02  0.29536627952E+02  0.51100000000E-03 0. -1.
        -11    1    3    3    0    0 -0.39554223018E+01  0.36537549327E+01 -0.12093144462E+01  0.55188524518E+01  0.51100000000E-03 0.  1.
         12    1    3    3    0    0  0.99169176107E+00  0.39560326404E+01  0.14926210124E+02  0.15473376990E+02  0.00000000000E+00 0. -1.
</event>
<event>
 7    1  0.9953837E-014  0.5052886E+02  0.7816164E-02  0.1300439E+00
        -11   -1    0    0    0    0  0.00000000000E+00  0.00000000000E+00  0.45593999997E+02  0.45594000000E+02  0.51100000000E-03 0. -1.
         11   -1    0    0    0    0 -0.00000000000E+00 -0.00000000000E+00 -0.45593999997E+02  0.45594000000E+02  0.51100000000E-03 0.  1.
    9900012    2    1    2    0    0  0.26247201140E+02  0.92936357499E+01 -0.29629008300E+02  0.50528863684E+02  0.30000011653E+02 0.  0.
         12    1    1    2    0    0 -0.26247201140E+02 -0.92936357499E+01  0.29629008300E+02  0.40659136316E+02  0.00000000000E+00 0. -1.
         11    1    3    3    0    0  0.28008335281E+01  0.44480084191E+01 -0.70530137141E+00  0.53034797665E+01  0.51100000000E-03 0. -1.
        -11    1    3    3    0    0 -0.16554190948E+01 -0.64220032105E+01 -0.93308610939E+01  0.11447598291E+02  0.51100000000E-03 0.  1.
        -12    1    3    3    0    0  0.25101786707E+02  0.11267630541E+02 -0.19592845835E+02  0.33777785626E+02  0.00000000000E+00 0.  1.
</event>
<event>
 7    1  0.9953837E-014  0.5052885E+02  0.7816164E-02  0.1300439E+00
        -11   -1    0    0    0    0  0.00000000000E+00  0.00000000000E+00  0.45593999997E+02  0.45594000000E+02  0.51100000000E-03 0. -1.
         11   -1    0    0    0    0 -0.00000000000E+00 -0.00000000000E+00 -0.45593999997E+02  0.45594000000E+02  0.51100000000E-03 0.  1.
    9900012    2    1    2    0    0  0.21282586307E+02 -0.11240137212E+02  0.32770064198E+02  0.50528852542E+02  0.29999977787E+02 0.  0.
        -12    1    1    2    0    0 -0.21282586307E+02  0.11240137212E+02 -0.32770064198E+02  0.40659147458E+02  0.00000000000E+00 0.  1.
         11    1    3    3    0    0  0.10821506200E+02 -0.13773098208E+02  0.13698412650E+02  0.22236225850E+02  0.51100000000E-03 0. -1.
        -11    1    3    3    0    0  0.22113647870E+01  0.25915023908E+00  0.19593305374E+02  0.19719404373E+02  0.51100000000E-03 0.  1.
         12    1    3    3    0    0  0.82497153198E+01  0.22738107569E+01 -0.52165382615E+00  0.85732223189E+01  0.00000000000E+00 0. -1.
</event>
<event>
 7    1  0.9953837E-014  0.5052886E+02  0.7816164E-02  0.1300439E+00
        -11   -1    0    0    0    0  0.00000000000E+00  0.00000000000E+00  0.45593999997E+02  0.45594000000E+02  0.51100000000E-03 0. -1.
         11   -1    0    0    0    0 -0.00000000000E+00 -0.00000000000E+00 -0.45593999997E+02  0.45594000000E+02  0.51100000000E-03 0.  1.
    9900012    2    1    2    0    0 -0.22257507962E+02 -0.73675806474E+01 -0.33218781804E+02  0.50528863636E+02  0.30000011509E+02 0.  0.
         12    1    1    2    0    0  0.22257507962E+02  0.73675806474E+01  0.33218781804E+02  0.40659136364E+02  0.00000000000E+00 0. -1.
         11    1    3    3    0    0  0.11910212300E+01  0.69957160605E+01 -0.30447783145E+01  0.77219977995E+01  0.51100000000E-03 0. -1.
        -11    1    3    3    0    0 -0.21607742187E+02 -0.14577205596E+02 -0.21070045452E+02  0.33516208930E+02  0.51100000000E-03 0.  1.
        -12    1    3    3    0    0 -0.18407870044E+01  0.21390888815E+00 -0.91039580383E+01  0.92906569074E+01  0.00000000000E+00 0.  1.
</event>
<event>
 7    1  0.9953837E-014  0.5052888E+02  0.7816164E-02  0.1300439E+00
        -11   -1    0    0    0    0  0.00000000000E+00  0.00000000000E+00  0.45593999997E+02  0.45594000000E+02  0.51100000000E-03 0. -1.
         11   -1    0    0    0    0 -0.00000000000E+00 -0.00000000000E+00 -0.45593999997E+02  0.45594000000E+02  0.51100000000E-03 0.  1.
    9900012    2    1    2    0    0  0.16007924470E+02  0.51613119771E+01  0.37017179772E+02  0.50528875742E+02  0.30000048306E+02 0.  0.
        -12    1    1    2    0    0 -0.16007924470E+02 -0.51613119771E+01 -0.37017179772E+02  0.40659124258E+02  0.00000000000E+00 0.  1.
         11    1    3    3    0    0  0.90023485350E+00  0.43297359622E+01 -0.29635767557E+01  0.53235161070E+01  0.51100000000E-03 0.  1.
        -11    1    3    3    0    0  0.10472060780E+02  0.68822308280E+00  0.39100905548E+02  0.40484793725E+02  0.51100000000E-03 0. -1.
         12    1    3    3    0    0  0.46356288362E+01  0.14335293215E+00  0.87985097944E+00  0.47205659106E+01  0.00000000000E+00 0. -1.
</event>
<event>
 7    1  0.1089571E-013  0.5052896E+02  0.7816164E-02  0.1300438E+00
        -11   -1    0    0    0    0  0.00000000000E+00  0.00000000000E+00  0.45593999997E+02  0.45594000000E+02  0.51100000000E-03 0. -1.
         11   -1    0    0    0    0 -0.00000000000E+00 -0.00000000000E+00 -0.45593999997E+02  0.45594000000E+02  0.51100000000E-03 0.  1.
    9900012    2    1    2    0    0  0.15126708574E+02  0.23072126130E+02  0.29866657816E+02  0.50528959608E+02  0.30000303224E+02 0.  0.
        -12    1    1    2    0    0 -0.15126708574E+02 -0.23072126130E+02 -0.29866657816E+02  0.40659040392E+02  0.00000000000E+00 0.  1.
         11    1    3    3    0    0  0.14502367716E+01  0.23879833413E+02  0.20884212280E+02  0.31756888282E+02  0.51100000000E-03 0. -1.
        -11    1    3    3    0    0  0.20526646927E+01 -0.16436824389E+01 -0.15597493996E+01  0.30574405557E+01  0.51100000000E-03 0.  1.
         12    1    3    3    0    0  0.11623807110E+02  0.83597515602E+00  0.10542194936E+02  0.15714630771E+02  0.00000000000E+00 0. -1.
</event>
<event>
 7    1  0.9953837E-014  0.5052886E+02  0.7816164E-02  0.1300439E+00
        -11   -1    0    0    0    0  0.00000000000E+00  0.00000000000E+00  0.45593999997E+02  0.45594000000E+02  0.51100000000E-03 0. -1.
         11   -1    0    0    0    0 -0.00000000000E+00 -0.00000000000E+00 -0.45593999997E+02  0.45594000000E+02  0.51100000000E-03 0.  1.
    9900012    2    1    2    0    0  0.18575299618E+02  0.91891426397E+01  0.34981188489E+02  0.50528860235E+02  0.30000001169E+02 0.  0.
        -12    1    1    2    0    0 -0.18575299618E+02 -0.91891426397E+01 -0.34981188489E+02  0.40659139765E+02  0.00000000000E+00 0.  1.
         11    1    3    3    0    0  0.58357820711E+01  0.85261959164E+01  0.26147330783E+02  0.28114680801E+02  0.51100000000E-03 0. -1.
        -11    1    3    3    0    0  0.81095020865E+01  0.79318332669E+01  0.22397447226E+01  0.11562632042E+02  0.51100000000E-03 0.  1.
        -12    1    3    3    0    0  0.46300154601E+01 -0.72688865437E+01  0.65941129834E+01  0.10851547391E+02  0.00000000000E+00 0.  1.
</event>
<event>
 7    1  0.9953837E-014  0.5052886E+02  0.7816164E-02  0.1300439E+00
        -11   -1    0    0    0    0  0.00000000000E+00  0.00000000000E+00  0.45593999997E+02  0.45594000000E+02  0.51100000000E-03 0. -1.
         11   -1    0    0    0    0 -0.00000000000E+00 -0.00000000000E+00 -0.45593999997E+02  0.45594000000E+02  0.51100000000E-03 0.  1.
    9900012    2    1    2    0    0 -0.35520611691E+01 -0.12042516639E+02 -0.38672030614E+02  0.50528864528E+02  0.30000014218E+02 0.  0.
         12    1    1    2    0    0  0.35520611691E+01  0.12042516639E+02  0.38672030614E+02  0.40659135472E+02  0.00000000000E+00 0. -1.
         11    1    3    3    0    0  0.37887951578E+01  0.38630833175E+01 -0.40400668922E+01  0.67528158734E+01  0.51100000000E-03 0. -1.
        -11    1    3    3    0    0 -0.11085367904E+02 -0.18844893577E+02 -0.30107701799E+02  0.37208723485E+02  0.51100000000E-03 0.  1.
        -12    1    3    3    0    0  0.37445115768E+01  0.29392936202E+01 -0.45242619227E+01  0.65673251693E+01  0.00000000000E+00 0.  1.
</event>
<event>
 7    1  0.9953837E-014  0.5052885E+02  0.7816164E-02  0.1300439E+00
        -11   -1    0    0    0    0  0.00000000000E+00  0.00000000000E+00  0.45593999997E+02  0.45594000000E+02  0.51100000000E-03 0. -1.
         11   -1    0    0    0    0 -0.00000000000E+00 -0.00000000000E+00 -0.45593999997E+02  0.45594000000E+02  0.51100000000E-03 0.  1.
    9900012    2    1    2    0    0  0.20535703046E+02  0.11924140369E+02  0.33004028592E+02  0.50528854333E+02  0.29999983230E+02 0.  0.
        -12    1    1    2    0    0 -0.20535703046E+02 -0.11924140369E+02 -0.33004028592E+02  0.40659145667E+02  0.00000000000E+00 0.  1.
         11    1    3    3    0    0  0.13647264287E+02  0.19232516286E+02  0.23644056288E+02  0.33394294471E+02  0.51100000000E-03 0. -1.
        -11    1    3    3    0    0  0.41912546622E+00 -0.78477964556E+01  0.50066068085E+01  0.93182448648E+01  0.51100000000E-03 0.  1.
        -12    1    3    3    0    0  0.64693132931E+01  0.53942053818E+00  0.43533654950E+01  0.78163149971E+01  0.00000000000E+00 0.  1.
</event>
<event>
 7    1  0.9953837E-014  0.5052886E+02  0.7816164E-02  0.1300439E+00
        -11   -1    0    0    0    0  0.00000000000E+00  0.00000000000E+00  0.45593999997E+02  0.45594000000E+02  0.51100000000E-03 0. -1.
         11   -1    0    0    0    0 -0.00000000000E+00 -0.00000000000E+00 -0.45593999997E+02  0.45594000000E+02  0.51100000000E-03 0.  1.
    9900012    2    1    2    0    0  0.19294699625E+02  0.21275072188E+02 -0.28779364178E+02  0.50528856714E+02  0.29999990469E+02 0.  0.
         12    1    1    2    0    0 -0.19294699625E+02 -0.21275072188E+02  0.28779364178E+02  0.40659143286E+02  0.00000000000E+00 0. -1.
         11    1    3    3    0    0  0.13937471144E+02  0.19793818960E+02 -0.14848003225E+02  0.28399147363E+02  0.51100000000E-03 0. -1.
        -11    1    3    3    0    0  0.80060166307E+01 -0.20788493864E+01 -0.15378886562E+02  0.17462189702E+02  0.51100000000E-03 0.  1.
         12    1    3    3    0    0 -0.26487881499E+01  0.35601026141E+01  0.14475256082E+01  0.46675196488E+01  0.00000000000E+00 0. -1.
</event>
<event>
 7    1  0.9953837E-014  0.5052885E+02  0.7816164E-02  0.1300439E+00
        -11   -1    0    0    0    0  0.00000000000E+00  0.00000000000E+00  0.45593999997E+02  0.45594000000E+02  0.51100000000E-03 0. -1.
         11   -1    0    0    0    0 -0.00000000000E+00 -0.00000000000E+00 -0.45593999997E+02  0.45594000000E+02  0.51100000000E-03 0.  1.
    9900012    2    1    2    0    0  0.62046650525E+01 -0.63175545616E+01  0.39683207375E+02  0.50528852055E+02  0.29999976305E+02 0.  0.
        -12    1    1    2    0    0 -0.62046650525E+01  0.63175545616E+01 -0.39683207375E+02  0.40659147945E+02  0.00000000000E+00 0.  1.
         11    1    3    3    0    0  0.60627399824E+01 -0.67735634109E+01  0.39129516336E+02  0.40171594770E+02  0.51100000000E-03 0. -1.
        -11    1    3    3    0    0  0.20942860026E+01  0.44163194845E+01 -0.19719665357E+01  0.52705373472E+01  0.51100000000E-03 0.  1.
        -12    1    3    3    0    0 -0.19523609325E+01 -0.39603106352E+01  0.25256575746E+01  0.50867199374E+01  0.00000000000E+00 0.  1.
</event>
<event>
 7    1  0.9953837E-014  0.5052885E+02  0.7816164E-02  0.1300439E+00
        -11   -1    0    0    0    0  0.00000000000E+00  0.00000000000E+00  0.45593999997E+02  0.45594000000E+02  0.51100000000E-03 0. -1.
         11   -1    0    0    0    0 -0.00000000000E+00 -0.00000000000E+00 -0.45593999997E+02  0.45594000000E+02  0.51100000000E-03 0.  1.
    9900012    2    1    2    0    0  0.15549335365E+02  0.13319087254E+02  0.35128141527E+02  0.50528852902E+02  0.29999978882E+02 0.  0.
        -12    1    1    2    0    0 -0.15549335365E+02 -0.13319087254E+02 -0.35128141527E+02  0.40659147098E+02  0.00000000000E+00 0.  1.
         11    1    3    3    0    0  0.69045461645E+01  0.62897571981E+01  0.74785412312E+01  0.11965048373E+02  0.51100000000E-03 0. -1.
        -11    1    3    3    0    0  0.75856574523E+01 -0.43890407664E+01  0.25411180422E+02  0.26879991974E+02  0.51100000000E-03 0.  1.
        -12    1    3    3    0    0  0.10591317483E+01  0.11418370823E+02  0.22384198734E+01  0.11683812555E+02  0.00000000000E+00 0.  1.
</event>
<event>
 7    1  0.9953837E-014  0.5052885E+02  0.7816164E-02  0.1300439E+00
        -11   -1    0    0    0    0  0.00000000000E+00  0.00000000000E+00  0.45593999997E+02  0.45594000000E+02  0.51100000000E-03 0. -1.
         11   -1    0    0    0    0 -0.00000000000E+00 -0.00000000000E+00 -0.45593999997E+02  0.45594000000E+02  0.51100000000E-03 0.  1.
    9900012    2    1    2    0    0 -0.33717450891E+01 -0.18236046380E+01 -0.40478049543E+02  0.50528847358E+02  0.29999962028E+02 0.  0.
         12    1    1    2    0    0  0.33717450891E+01  0.18236046380E+01  0.40478049543E+02  0.40659152642E+02  0.00000000000E+00 0. -1.
         11    1    3    3    0    0 -0.11516342832E+02 -0.14363566795E+01 -0.59991455553E+01  0.13064418103E+02  0.51100000000E-03 0. -1.
        -11    1    3    3    0    0  0.32506805750E+01  0.57465889388E+01 -0.12674246667E+02  0.14290792052E+02  0.51100000000E-03 0.  1.
         12    1    3    3    0    0  0.48939171676E+01 -0.61338368973E+01 -0.21804657321E+02  0.23173637203E+02  0.00000000000E+00 0. -1.
</event>
<event>
 7    1  0.9953837E-014  0.5052885E+02  0.7816164E-02  0.1300439E+00
        -11   -1    0    0    0    0  0.00000000000E+00  0.00000000000E+00  0.45593999997E+02  0.45594000000E+02  0.51100000000E-03 0. -1.
         11   -1    0    0    0    0 -0.00000000000E+00 -0.00000000000E+00 -0.45593999997E+02  0.45594000000E+02  0.51100000000E-03 0.  1.
    9900012    2    1    2    0    0  0.24507770833E+02  0.54452931248E+01  0.31982558787E+02  0.50528854473E+02  0.29999983657E+02 0.  0.
        -12    1    1    2    0    0 -0.24507770833E+02 -0.54452931248E+01 -0.31982558787E+02  0.40659145527E+02  0.00000000000E+00 0.  1.
         11    1    3    3    0    0  0.17272394322E+01 -0.23164868216E+01  0.81557677042E+01  0.86525149152E+01  0.51100000000E-03 0. -1.
        -11    1    3    3    0    0  0.15461057060E+02 -0.14332794888E+01  0.24623580723E+00  0.15529301589E+02  0.51100000000E-03 0.  1.
        -12    1    3    3    0    0  0.73194743407E+01  0.91950594352E+01  0.23580555275E+02  0.26347037969E+02  0.00000000000E+00 0.  1.
</event>
<event>
 7    1  0.9953837E-014  0.5052886E+02  0.7816164E-02  0.1300439E+00
        -11   -1    0    0    0    0  0.00000000000E+00  0.00000000000E+00  0.45593999997E+02  0.45594000000E+02  0.51100000000E-03 0. -1.
         11   -1    0    0    0    0 -0.00000000000E+00 -0.00000000000E+00 -0.45593999997E+02  0.45594000000E+02  0.51100000000E-03 0.  1.
    9900012    2    1    2    0    0 -0.30101671600E+02 -0.99267123158E+01 -0.25465967129E+02  0.50528859179E+02  0.29999997960E+02 0.  0.
         12    1    1    2    0    0  0.30101671600E+02  0.99267123158E+01  0.25465967129E+02  0.40659140821E+02  0.00000000000E+00 0. -1.
         11    1    3    3    0    0 -0.21289938599E+02 -0.11899902718E+01 -0.46112947845E+01  0.21816085860E+02  0.51100000000E-03 0. -1.
        -11    1    3    3    0    0 -0.30167063418E+01 -0.66356286076E+01 -0.21319448732E+02  0.22531111350E+02  0.51100000000E-03 0.  1.
        -12    1    3    3    0    0 -0.57950266592E+01 -0.21010934364E+01  0.46477638737E+00  0.61816619690E+01  0.00000000000E+00 0.  1.
</event>
<event>
 7    1  0.9953837E-014  0.5052887E+02  0.7816164E-02  0.1300439E+00
        -11   -1    0    0    0    0  0.00000000000E+00  0.00000000000E+00  0.45593999997E+02  0.45594000000E+02  0.51100000000E-03 0. -1.
         11   -1    0    0    0    0 -0.00000000000E+00 -0.00000000000E+00 -0.45593999997E+02  0.45594000000E+02  0.51100000000E-03 0.  1.
    9900012    2    1    2    0    0 -0.24272299313E+02 -0.46198933018E+01 -0.32290503039E+02  0.50528874154E+02  0.30000043479E+02 0.  0.
         12    1    1    2    0    0  0.24272299313E+02  0.46198933018E+01  0.32290503039E+02  0.40659125846E+02  0.00000000000E+00 0. -1.
         11    1    3    3    0    0 -0.19759589425E+02  0.13577392391E+01 -0.82306616768E+01  0.21448277833E+02  0.51100000000E-03 0. -1.
        -11    1    3    3    0    0  0.55064834354E+00 -0.96011901637E+01 -0.10991407559E+02  0.14604694675E+02  0.51100000000E-03 0.  1.
        -12    1    3    3    0    0 -0.50633582313E+01  0.36235576228E+01 -0.13068433802E+02  0.14475901646E+02  0.00000000000E+00 0.  1.
</event>
<event>
 7    1  0.9953837E-014  0.5052886E+02  0.7816164E-02  0.1300439E+00
        -11   -1    0    0    0    0  0.00000000000E+00  0.00000000000E+00  0.45593999997E+02  0.45594000000E+02  0.51100000000E-03 0. -1.
         11   -1    0    0    0    0 -0.00000000000E+00 -0.00000000000E+00 -0.45593999997E+02  0.45594000000E+02  0.51100000000E-03 0.  1.
    9900012    2    1    2    0    0 -0.93512479890E+01  0.32307599714E+01 -0.39437066040E+02  0.50528858017E+02  0.29999994428E+02 0.  0.
         12    1    1    2    0    0  0.93512479890E+01 -0.32307599714E+01  0.39437066040E+02  0.40659141983E+02  0.00000000000E+00 0. -1.
         11    1    3    3    0    0  0.92325261298E+00 -0.75877032389E+01 -0.99170938595E-01  0.76443097115E+01  0.51100000000E-03 0. -1.
        -11    1    3    3    0    0  0.65101445770E+00  0.34947878719E+01 -0.51868867597E+01  0.62881759369E+01  0.51100000000E-03 0.  1.
         12    1    3    3    0    0 -0.10925515060E+02  0.73236753384E+01 -0.34151008342E+02  0.36596372369E+02  0.00000000000E+00 0. -1.
</event>
<event>
 7    1  0.9953837E-014  0.5052881E+02  0.7816164E-02  0.1300439E+00
        -11   -1    0    0    0    0  0.00000000000E+00  0.00000000000E+00  0.45593999997E+02  0.45594000000E+02  0.51100000000E-03 0. -1.
         11   -1    0    0    0    0 -0.00000000000E+00 -0.00000000000E+00 -0.45593999997E+02  0.45594000000E+02  0.51100000000E-03 0.  1.
    9900012    2    1    2    0    0 -0.17727629253E+02 -0.11090144461E+02 -0.34869900986E+02  0.50528805002E+02  0.29999833284E+02 0.  0.
         12    1    1    2    0    0  0.17727629253E+02  0.11090144461E+02  0.34869900986E+02  0.40659194998E+02  0.00000000000E+00 0. -1.
         11    1    3    3    0    0 -0.11911615258E+02 -0.88895479998E+01 -0.26449098506E+01  0.15096562194E+02  0.51100000000E-03 0. -1.
        -11    1    3    3    0    0 -0.47413574596E+01  0.52609011952E+01 -0.13456978714E+02  0.15206834921E+02  0.51100000000E-03 0.  1.
         12    1    3    3    0    0 -0.10746565354E+01 -0.74614976559E+01 -0.18768012422E+02  0.20225407887E+02  0.00000000000E+00 0. -1.
</event>
<event>
 7    1  0.9953837E-014  0.5052886E+02  0.7816164E-02  0.1300439E+00
        -11   -1    0    0    0    0  0.00000000000E+00  0.00000000000E+00  0.45593999997E+02  0.45594000000E+02  0.51100000000E-03 0. -1.
         11   -1    0    0    0    0 -0.00000000000E+00 -0.00000000000E+00 -0.45593999997E+02  0.45594000000E+02  0.51100000000E-03 0.  1.
    9900012    2    1    2    0    0  0.41335355255E+00 -0.19633929298E+02  0.35602013949E+02  0.50528862798E+02  0.30000008960E+02 0.  0.
        -12    1    1    2    0    0 -0.41335355255E+00  0.19633929298E+02 -0.35602013949E+02  0.40659137202E+02  0.00000000000E+00 0.  1.
         11    1    3    3    0    0 -0.56167304248E+01 -0.44994686143E+01  0.19233776806E+02  0.20536091375E+02  0.51100000000E-03 0. -1.
        -11    1    3    3    0    0  0.10175256164E+02 -0.12673311237E+01  0.41879708517E+01  0.11076148532E+02  0.51100000000E-03 0.  1.
        -12    1    3    3    0    0 -0.41451721868E+01 -0.13867129560E+02  0.12180266291E+02  0.18916622891E+02  0.00000000000E+00 0.  1.
</event>
<event>
 7    1  0.9953837E-014  0.5052886E+02  0.7816164E-02  0.1300439E+00
        -11   -1    0    0    0    0  0.00000000000E+00  0.00000000000E+00  0.45593999997E+02  0.45594000000E+02  0.51100000000E-03 0. -1.
         11   -1    0    0    0    0 -0.00000000000E+00 -0.00000000000E+00 -0.45593999997E+02  0.45594000000E+02  0.51100000000E-03 0.  1.
    9900012    2    1    2    0    0  0.13477697792E+02  0.20922024107E+02  0.32152548527E+02  0.50528858256E+02  0.29999995156E+02 0.  0.
        -12    1    1    2    0    0 -0.13477697792E+02 -0.20922024107E+02 -0.32152548527E+02  0.40659141744E+02  0.00000000000E+00 0.  1.
         11    1    3    3    0    0 -0.34488283599E+01  0.46491524697E+01  0.17681443177E+02  0.18604904429E+02  0.51100000000E-03 0. -1.
        -11    1    3    3    0    0  0.15441777850E+02  0.19297134314E+02  0.10891927299E+02  0.27008553764E+02  0.51100000000E-03 0.  1.
        -12    1    3    3    0    0  0.14847483020E+01 -0.30242626762E+01  0.35791780512E+01  0.49154000628E+01  0.00000000000E+00 0.  1.
</event>
<event>
 7    1  0.9953837E-014  0.5052886E+02  0.7816164E-02  0.1300439E+00
        -11   -1    0    0    0    0  0.00000000000E+00  0.00000000000E+00  0.45593999997E+02  0.45594000000E+02  0.51100000000E-03 0. -1.
         11   -1    0    0    0    0 -0.00000000000E+00 -0.00000000000E+00 -0.45593999997E+02  0.45594000000E+02  0.51100000000E-03 0.  1.
    9900012    2    1    2    0    0  0.70584805498E+01 -0.25471828053E+02 -0.30895458485E+02  0.50528861703E+02  0.30000005632E+02 0.  0.
         12    1    1    2    0    0 -0.70584805498E+01  0.25471828053E+02  0.30895458485E+02  0.40659138297E+02  0.00000000000E+00 0. -1.
         11    1    3    3    0    0  0.10581069495E+02 -0.27084803074E+01  0.15032594649E+00  0.10923254798E+02  0.51100000000E-03 0. -1.
        -11    1    3    3    0    0 -0.49100005376E+01 -0.19246116014E+02 -0.29402905934E+02  0.35483122249E+02  0.51100000000E-03 0.  1.
        -12    1    3    3    0    0  0.13874115929E+01 -0.35172317320E+01 -0.16428784975E+01  0.41224846564E+01  0.00000000000E+00 0.  1.
</event>
<event>
 7    1  0.9953837E-014  0.5052887E+02  0.7816164E-02  0.1300439E+00
        -11   -1    0    0    0    0  0.00000000000E+00  0.00000000000E+00  0.45593999997E+02  0.45594000000E+02  0.51100000000E-03 0. -1.
         11   -1    0    0    0    0 -0.00000000000E+00 -0.00000000000E+00 -0.45593999997E+02  0.45594000000E+02  0.51100000000E-03 0.  1.
    9900012    2    1    2    0    0 -0.27061058137E+02  0.93547496357E+01  0.28867853935E+02  0.50528865736E+02  0.30000017892E+02 0.  0.
        -12    1    1    2    0    0  0.27061058137E+02 -0.93547496357E+01 -0.28867853935E+02  0.40659134264E+02  0.00000000000E+00 0.  1.
         11    1    3    3    0    0 -0.21896604575E+02 -0.24827827274E+01  0.30245445965E+02  0.37422085776E+02  0.51100000000E-03 0. -1.
        -11    1    3    3    0    0 -0.19512198703E+01  0.54354777253E+01 -0.14050114682E+01  0.59435456229E+01  0.51100000000E-03 0.  1.
         12    1    3    3    0    0 -0.32132336922E+01  0.64020546377E+01  0.27419438655E-01  0.71632343373E+01  0.00000000000E+00 0. -1.
</event>
<event>
 7    1  0.9953837E-014  0.5052886E+02  0.7816164E-02  0.1300439E+00
        -11   -1    0    0    0    0  0.00000000000E+00  0.00000000000E+00  0.45593999997E+02  0.45594000000E+02  0.51100000000E-03 0. -1.
         11   -1    0    0    0    0 -0.00000000000E+00 -0.00000000000E+00 -0.45593999997E+02  0.45594000000E+02  0.51100000000E-03 0.  1.
    9900012    2    1    2    0    0  0.15016301587E+02 -0.18406845228E+02  0.32997942204E+02  0.50528862598E+02  0.30000008353E+02 0.  0.
        -12    1    1    2    0    0 -0.15016301587E+02  0.18406845228E+02 -0.32997942204E+02  0.40659137402E+02  0.00000000000E+00 0.  1.
         11    1    3    3    0    0 -0.15359675767E+01  0.47130413514E+01  0.16198192943E+02  0.16939699232E+02  0.51100000000E-03 0. -1.
        -11    1    3    3    0    0  0.15315545284E+02 -0.17665551321E+02  0.12346579136E+02  0.26440038719E+02  0.51100000000E-03 0.  1.
         12    1    3    3    0    0  0.12367238792E+01 -0.54543352583E+01  0.44531701244E+01  0.71491246471E+01  0.00000000000E+00 0. -1.
</event>
<event>
 7    1  0.9953837E-014  0.5052886E+02  0.7816164E-02  0.1300439E+00
        -11   -1    0    0    0    0  0.00000000000E+00  0.00000000000E+00  0.45593999997E+02  0.45594000000E+02  0.51100000000E-03 0. -1.
         11   -1    0    0    0    0 -0.00000000000E+00 -0.00000000000E+00 -0.45593999997E+02  0.45594000000E+02  0.51100000000E-03 0.  1.
    9900012    2    1    2    0    0  0.28529224305E+02  0.63864242498E+01  0.28257080201E+02  0.50528860368E+02  0.30000001575E+02 0.  0.
        -12    1    1    2    0    0 -0.28529224305E+02 -0.63864242498E+01 -0.28257080201E+02  0.40659139632E+02  0.00000000000E+00 0.  1.
         11    1    3    3    0    0  0.22186280790E+02  0.78401864037E+01  0.25669867643E+02  0.34823005086E+02  0.51100000000E-03 0. -1.
        -11    1    3    3    0    0  0.56454110970E+01  0.55401131501E+01 -0.71157344814E+00  0.79416533042E+01  0.51100000000E-03 0.  1.
         12    1    3    3    0    0  0.69753241743E+00 -0.69938753039E+01  0.32987860061E+01  0.77642019779E+01  0.00000000000E+00 0. -1.
</event>
<event>
 7    1  0.9953837E-014  0.5052885E+02  0.7816164E-02  0.1300439E+00
        -11   -1    0    0    0    0  0.00000000000E+00  0.00000000000E+00  0.45593999997E+02  0.45594000000E+02  0.51100000000E-03 0. -1.
         11   -1    0    0    0    0 -0.00000000000E+00 -0.00000000000E+00 -0.45593999997E+02  0.45594000000E+02  0.51100000000E-03 0.  1.
    9900012    2    1    2    0    0  0.56640075728E+01  0.22855157764E+02  0.33147051739E+02  0.50528852725E+02  0.29999978342E+02 0.  0.
        -12    1    1    2    0    0 -0.56640075728E+01 -0.22855157764E+02 -0.33147051739E+02  0.40659147275E+02  0.00000000000E+00 0.  1.
         11    1    3    3    0    0 -0.34097945113E+01 -0.35113590650E+01  0.93316202560E+01  0.10537337328E+02  0.51100000000E-03 0. -1.
        -11    1    3    3    0    0 -0.91346804667E+00  0.20410148019E+02  0.16412650642E+02  0.26206557717E+02  0.51100000000E-03 0.  1.
         12    1    3    3    0    0  0.99872701308E+01  0.59563688101E+01  0.74027808406E+01  0.13784957680E+02  0.00000000000E+00 0. -1.
</event>
<event>
 7    1  0.9953837E-014  0.5052886E+02  0.7816164E-02  0.1300439E+00
        -11   -1    0    0    0    0  0.00000000000E+00  0.00000000000E+00  0.45593999997E+02  0.45594000000E+02  0.51100000000E-03 0. -1.
         11   -1    0    0    0    0 -0.00000000000E+00 -0.00000000000E+00 -0.45593999997E+02  0.45594000000E+02  0.51100000000E-03 0.  1.
    9900012    2    1    2    0    0 -0.99764394829E+01  0.28047995292E+02  0.27693797824E+02  0.50528858069E+02  0.29999994585E+02 0.  0.
        -12    1    1    2    0    0  0.99764394829E+01 -0.28047995292E+02 -0.27693797824E+02  0.40659141931E+02  0.00000000000E+00 0.  1.
         11    1    3    3    0    0 -0.13498763445E+02  0.20227799792E+02  0.16181858122E+02  0.29210152884E+02  0.51100000000E-03 0. -1.
        -11    1    3    3    0    0  0.81618404921E+01  0.92667755706E+01  0.53161267974E+01  0.13444328696E+02  0.51100000000E-03 0.  1.
        -12    1    3    3    0    0 -0.46395165304E+01 -0.14465800704E+01  0.61958129046E+01  0.78743764887E+01  0.00000000000E+00 0.  1.
</event>
<event>
 7    1  0.9953837E-014  0.5052886E+02  0.7816164E-02  0.1300439E+00
        -11   -1    0    0    0    0  0.00000000000E+00  0.00000000000E+00  0.45593999997E+02  0.45594000000E+02  0.51100000000E-03 0. -1.
         11   -1    0    0    0    0 -0.00000000000E+00 -0.00000000000E+00 -0.45593999997E+02  0.45594000000E+02  0.51100000000E-03 0.  1.
    9900012    2    1    2    0    0 -0.27775616552E+02 -0.58996358173E+01  0.29101122485E+02  0.50528857024E+02  0.29999991410E+02 0.  0.
        -12    1    1    2    0    0  0.27775616552E+02  0.58996358173E+01 -0.29101122485E+02  0.40659142976E+02  0.00000000000E+00 0.  1.
         11    1    3    3    0    0 -0.12192642495E+02  0.13442194625E+01  0.17684260653E+02  0.21522094045E+02  0.51100000000E-03 0. -1.
        -11    1    3    3    0    0 -0.16181852584E+02 -0.12029056312E+02  0.46416028151E+01  0.20690457360E+02  0.51100000000E-03 0.  1.
        -12    1    3    3    0    0  0.59887852677E+00  0.47852010318E+01  0.67752590174E+01  0.83163056195E+01  0.00000000000E+00 0.  1.
</event>
<event>
 7    1  0.9953837E-014  0.5052894E+02  0.7816164E-02  0.1300439E+00
        -11   -1    0    0    0    0  0.00000000000E+00  0.00000000000E+00  0.45593999997E+02  0.45594000000E+02  0.51100000000E-03 0. -1.
         11   -1    0    0    0    0 -0.00000000000E+00 -0.00000000000E+00 -0.45593999997E+02  0.45594000000E+02  0.51100000000E-03 0.  1.
    9900012    2    1    2    0    0  0.23796888155E+01  0.10552396657E+02  0.39193659549E+02  0.50528942670E+02  0.30000251739E+02 0.  0.
        -12    1    1    2    0    0 -0.23796888155E+01 -0.10552396657E+02 -0.39193659549E+02  0.40659057330E+02  0.00000000000E+00 0.  1.
         11    1    3    3    0    0  0.10588524510E+02  0.13649687312E+02  0.28309462052E+02  0.33164083840E+02  0.51100000000E-03 0. -1.
        -11    1    3    3    0    0 -0.90014442598E+01  0.92394427530E-01  0.10823330609E+02  0.14077607085E+02  0.51100000000E-03 0.  1.
        -12    1    3    3    0    0  0.79260856491E+00 -0.31896850823E+01  0.60866888586E-01  0.32872517457E+01  0.00000000000E+00 0.  1.
</event>
<event>
 7    1  0.9953837E-014  0.5052886E+02  0.7816164E-02  0.1300439E+00
        -11   -1    0    0    0    0  0.00000000000E+00  0.00000000000E+00  0.45593999997E+02  0.45594000000E+02  0.51100000000E-03 0. -1.
         11   -1    0    0    0    0 -0.00000000000E+00 -0.00000000000E+00 -0.45593999997E+02  0.45594000000E+02  0.51100000000E-03 0.  1.
    9900012    2    1    2    0    0 -0.19367053872E+02  0.17341169914E+02  0.31262865623E+02  0.50528859371E+02  0.29999998545E+02 0.  0.
        -12    1    1    2    0    0  0.19367053872E+02 -0.17341169914E+02 -0.31262865623E+02  0.40659140629E+02  0.00000000000E+00 0.  1.
         11    1    3    3    0    0 -0.49151267139E+01 -0.14067101029E+01  0.18243379519E+02  0.18946192242E+02  0.51100000000E-03 0. -1.
        -11    1    3    3    0    0 -0.21008033260E+01  0.13989977200E+02  0.18568835742E+01  0.14268176251E+02  0.51100000000E-03 0.  1.
        -12    1    3    3    0    0 -0.12351123832E+02  0.47579028174E+01  0.11162602530E+02  0.17314490879E+02  0.00000000000E+00 0.  1.
</event>
<event>
 7    1  0.9953837E-014  0.5052886E+02  0.7816164E-02  0.1300439E+00
        -11   -1    0    0    0    0  0.00000000000E+00  0.00000000000E+00  0.45593999997E+02  0.45594000000E+02  0.51100000000E-03 0. -1.
         11   -1    0    0    0    0 -0.00000000000E+00 -0.00000000000E+00 -0.45593999997E+02  0.45594000000E+02  0.51100000000E-03 0.  1.
    9900012    2    1    2    0    0 -0.36682622322E+01 -0.31495987002E+02  0.25450193662E+02  0.50528859546E+02  0.29999999076E+02 0.  0.
        -12    1    1    2    0    0  0.36682622322E+01  0.31495987002E+02 -0.25450193662E+02  0.40659140454E+02  0.00000000000E+00 0.  1.
         11    1    3    3    0    0  0.28557589836E+01 -0.13896698679E+02  0.17583344026E+02  0.22593087016E+02  0.51100000000E-03 0. -1.
        -11    1    3    3    0    0 -0.95328731647E+01 -0.19162144109E+02  0.24457449629E+01  0.21541706207E+02  0.51100000000E-03 0.  1.
        -12    1    3    3    0    0  0.30088519489E+01  0.15628557856E+01  0.54211046731E+01  0.63940663222E+01  0.00000000000E+00 0.  1.
</event>
<event>
 7    1  0.9953837E-014  0.5052886E+02  0.7816164E-02  0.1300439E+00
        -11   -1    0    0    0    0  0.00000000000E+00  0.00000000000E+00  0.45593999997E+02  0.45594000000E+02  0.51100000000E-03 0. -1.
         11   -1    0    0    0    0 -0.00000000000E+00 -0.00000000000E+00 -0.45593999997E+02  0.45594000000E+02  0.51100000000E-03 0.  1.
    9900012    2    1    2    0    0  0.20356496142E+02  0.28435331029E+02  0.20741524448E+02  0.50528858072E+02  0.29999994595E+02 0.  0.
        -12    1    1    2    0    0 -0.20356496142E+02 -0.28435331029E+02 -0.20741524448E+02  0.40659141928E+02  0.00000000000E+00 0.  1.
         11    1    3    3    0    0 -0.32586478858E+01  0.92125254489E+01  0.58117825620E+01  0.11369530685E+02  0.51100000000E-03 0. -1.
        -11    1    3    3    0    0  0.19061880812E+02  0.16303213963E+02  0.20221411163E+01  0.25164243295E+02  0.51100000000E-03 0.  1.
         12    1    3    3    0    0  0.45532632151E+01  0.29195916172E+01  0.12907600769E+02  0.13995084092E+02  0.00000000000E+00 0. -1.
</event>
<event>
 7    1  0.9953837E-014  0.5052887E+02  0.7816164E-02  0.1300439E+00
        -11   -1    0    0    0    0  0.00000000000E+00  0.00000000000E+00  0.45593999997E+02  0.45594000000E+02  0.51100000000E-03 0. -1.
         11   -1    0    0    0    0 -0.00000000000E+00 -0.00000000000E+00 -0.45593999997E+02  0.45594000000E+02  0.51100000000E-03 0.  1.
    9900012    2    1    2    0    0  0.24895284693E+02 -0.21225668994E+02 -0.24142503455E+02  0.50528871907E+02  0.30000036648E+02 0.  0.
         12    1    1    2    0    0 -0.24895284693E+02  0.21225668994E+02  0.24142503455E+02  0.40659128093E+02  0.00000000000E+00 0. -1.
         11    1    3    3    0    0 -0.31550433529E+01 -0.45384424010E+01 -0.83577382752E+01  0.10020157051E+02  0.51100000000E-03 0. -1.
        -11    1    3    3    0    0  0.24993567847E+02 -0.12887072903E+02 -0.19633339132E+02  0.34296108926E+02  0.51100000000E-03 0.  1.
        -12    1    3    3    0    0  0.30567601996E+01 -0.38001536896E+01  0.38485739517E+01  0.62126059302E+01  0.00000000000E+00 0.  1.
</event>
<event>
 7    1  0.9953837E-014  0.5052885E+02  0.7816164E-02  0.1300439E+00
        -11   -1    0    0    0    0  0.00000000000E+00  0.00000000000E+00  0.45593999997E+02  0.45594000000E+02  0.51100000000E-03 0.  1.
         11   -1    0    0    0    0 -0.00000000000E+00 -0.00000000000E+00 -0.45593999997E+02  0.45594000000E+02  0.51100000000E-03 0. -1.
    9900012    2    1    2    0    0  0.87857690696E+01  0.34375898105E+02 -0.19856345704E+02  0.50528848836E+02  0.29999966521E+02 0.  0.
         12    1    1    2    0    0 -0.87857690696E+01 -0.34375898105E+02  0.19856345704E+02  0.40659151164E+02  0.00000000000E+00 0. -1.
         11    1    3    3    0    0 -0.58697380226E+01  0.26770058857E+00 -0.11152824921E+00  0.58768977251E+01  0.51100000000E-03 0. -1.
        -11    1    3    3    0    0  0.13942208595E+02  0.26519823013E+02 -0.86384861472E+01  0.31181879935E+02  0.51100000000E-03 0.  1.
         12    1    3    3    0    0  0.71329849748E+00  0.75883745040E+01 -0.11106331307E+02  0.13470071175E+02  0.00000000000E+00 0. -1.
</event>
<event>
 7    1  0.9953837E-014  0.5052886E+02  0.7816164E-02  0.1300439E+00
        -11   -1    0    0    0    0  0.00000000000E+00  0.00000000000E+00  0.45593999997E+02  0.45594000000E+02  0.51100000000E-03 0. -1.
         11   -1    0    0    0    0 -0.00000000000E+00 -0.00000000000E+00 -0.45593999997E+02  0.45594000000E+02  0.51100000000E-03 0.  1.
    9900012    2    1    2    0    0  0.26094997353E+02  0.30440397348E+02  0.67527224637E+01  0.50528856647E+02  0.29999990263E+02 0.  0.
        -12    1    1    2    0    0 -0.26094997353E+02 -0.30440397348E+02 -0.67527224637E+01  0.40659143353E+02  0.00000000000E+00 0.  1.
         11    1    3    3    0    0  0.80818609223E+01  0.18448847067E+02  0.92282107710E+01  0.22154825848E+02  0.51100000000E-03 0. -1.
        -11    1    3    3    0    0  0.13765739391E+02  0.14676555689E+01 -0.77434844235E+01  0.15862255361E+02  0.51100000000E-03 0.  1.
        -12    1    3    3    0    0  0.42473970397E+01  0.10523894712E+02  0.52679961162E+01  0.12511775438E+02  0.00000000000E+00 0.  1.
</event>
<event>
 7    1  0.9953837E-014  0.5052887E+02  0.7816164E-02  0.1300439E+00
        -11   -1    0    0    0    0  0.00000000000E+00  0.00000000000E+00  0.45593999997E+02  0.45594000000E+02  0.51100000000E-03 0. -1.
         11   -1    0    0    0    0 -0.00000000000E+00 -0.00000000000E+00 -0.45593999997E+02  0.45594000000E+02  0.51100000000E-03 0.  1.
    9900012    2    1    2    0    0  0.29247700668E+02 -0.19967188058E+02  0.19976197648E+02  0.50528867376E+02  0.30000022875E+02 0.  0.
        -12    1    1    2    0    0 -0.29247700668E+02  0.19967188058E+02 -0.19976197648E+02  0.40659132624E+02  0.00000000000E+00 0.  1.
         11    1    3    3    0    0  0.88816977085E+01 -0.15915583141E+02  0.20837242856E+02  0.27683587755E+02  0.51100000000E-03 0. -1.
        -11    1    3    3    0    0  0.17818342340E+02 -0.64892868066E+01  0.72917978018E+00  0.18977246123E+02  0.51100000000E-03 0.  1.
        -12    1    3    3    0    0  0.25476606195E+01  0.24376818896E+01 -0.15902249880E+01  0.38680334977E+01  0.00000000000E+00 0.  1.
</event>
<event>
 7    1  0.9953837E-014  0.5052885E+02  0.7816164E-02  0.1300439E+00
        -11   -1    0    0    0    0  0.00000000000E+00  0.00000000000E+00  0.45593999997E+02  0.45594000000E+02  0.51100000000E-03 0.  1.
         11   -1    0    0    0    0 -0.00000000000E+00 -0.00000000000E+00 -0.45593999997E+02  0.45594000000E+02  0.51100000000E-03 0. -1.
    9900012    2    1    2    0    0  0.32652312905E+02 -0.23606681363E+02 -0.54513436479E+01  0.50528854773E+02  0.29999984567E+02 0.  0.
        -12    1    1    2    0    0 -0.32652312905E+02  0.23606681363E+02  0.54513436479E+01  0.40659145227E+02  0.00000000000E+00 0.  1.
         11    1    3    3    0    0  0.41006105692E+01 -0.31208996921E+01 -0.26035532777E+01  0.57735181527E+01  0.51100000000E-03 0. -1.
        -11    1    3    3    0    0  0.27734319739E+02 -0.47697375952E+01 -0.58273014079E+01  0.28738481694E+02  0.51100000000E-03 0.  1.
        -12    1    3    3    0    0  0.81738259745E+00 -0.15716044076E+02  0.29795110377E+01  0.16016854926E+02  0.00000000000E+00 0.  1.
</event>
<event>
 7    1  0.9953837E-014  0.5052886E+02  0.7816164E-02  0.1300439E+00
        -11   -1    0    0    0    0  0.00000000000E+00  0.00000000000E+00  0.45593999997E+02  0.45594000000E+02  0.51100000000E-03 0. -1.
         11   -1    0    0    0    0 -0.00000000000E+00 -0.00000000000E+00 -0.45593999997E+02  0.45594000000E+02  0.51100000000E-03 0.  1.
    9900012    2    1    2    0    0 -0.10727590576E+02 -0.31159449933E+02 -0.23815397391E+02  0.50528859914E+02  0.30000000194E+02 0.  0.
         12    1    1    2    0    0  0.10727590576E+02  0.31159449933E+02  0.23815397391E+02  0.40659140086E+02  0.00000000000E+00 0. -1.
         11    1    3    3    0    0 -0.35229729658E+01  0.94752967727E+00 -0.23010534610E+01  0.43132352473E+01  0.51100000000E-03 0. -1.
        -11    1    3    3    0    0 -0.13325677221E+02 -0.74809228434E+01 -0.56702545841E+01  0.16299989794E+02  0.51100000000E-03 0.  1.
        -12    1    3    3    0    0  0.61210596102E+01 -0.24626056767E+02 -0.15844089345E+02  0.29915634872E+02  0.00000000000E+00 0.  1.
</event>
<event>
 7    1  0.9953837E-014  0.5052886E+02  0.7816164E-02  0.1300439E+00
        -11   -1    0    0    0    0  0.00000000000E+00  0.00000000000E+00  0.45593999997E+02  0.45594000000E+02  0.51100000000E-03 0.  1.
         11   -1    0    0    0    0 -0.00000000000E+00 -0.00000000000E+00 -0.45593999997E+02  0.45594000000E+02  0.51100000000E-03 0. -1.
    9900012    2    1    2    0    0 -0.22788428012E+02 -0.13880081758E+02  0.30678927366E+02  0.50528859512E+02  0.29999998973E+02 0.  0.
        -12    1    1    2    0    0  0.22788428012E+02  0.13880081758E+02 -0.30678927366E+02  0.40659140488E+02  0.00000000000E+00 0.  1.
         11    1    3    3    0    0 -0.19245753526E+02 -0.31316192860E+00  0.17961933306E+02  0.26327327010E+02  0.51100000000E-03 0. -1.
        -11    1    3    3    0    0 -0.57196687625E+01 -0.15990949342E+02  0.12180601735E+02  0.20899572496E+02  0.51100000000E-03 0.  1.
         12    1    3    3    0    0  0.21769942763E+01  0.24240295127E+01  0.53639232547E+00  0.33019600064E+01  0.00000000000E+00 0. -1.
</event>
<event>
 7    1  0.9953837E-014  0.5052885E+02  0.7816164E-02  0.1300439E+00
        -11   -1    0    0    0    0  0.00000000000E+00  0.00000000000E+00  0.45593999997E+02  0.45594000000E+02  0.51100000000E-03 0. -1.
         11   -1    0    0    0    0 -0.00000000000E+00 -0.00000000000E+00 -0.45593999997E+02  0.45594000000E+02  0.51100000000E-03 0.  1.
    9900012    2    1    2    0    0  0.16606407653E+02 -0.59346940663E+01 -0.36635675532E+02  0.50528854775E+02  0.29999984573E+02 0.  0.
         12    1    1    2    0    0 -0.16606407653E+02  0.59346940663E+01  0.36635675532E+02  0.40659145225E+02  0.00000000000E+00 0. -1.
         11    1    3    3    0    0  0.14115300585E+01 -0.69217514719E+01  0.31982012716E+01  0.77544536997E+01  0.51100000000E-03 0. -1.
        -11    1    3    3    0    0  0.10210553512E+02  0.19428506069E+01 -0.24206847387E+02  0.26343908826E+02  0.51100000000E-03 0.  1.
         12    1    3    3    0    0  0.49843240820E+01 -0.95579320132E+00 -0.15627029416E+02  0.16430492250E+02  0.00000000000E+00 0. -1.
</event>
<event>
 7    1  0.9953837E-014  0.5052887E+02  0.7816164E-02  0.1300439E+00
        -11   -1    0    0    0    0  0.00000000000E+00  0.00000000000E+00  0.45593999997E+02  0.45594000000E+02  0.51100000000E-03 0. -1.
         11   -1    0    0    0    0 -0.00000000000E+00 -0.00000000000E+00 -0.45593999997E+02  0.45594000000E+02  0.51100000000E-03 0.  1.
    9900012    2    1    2    0    0  0.19002786831E+02 -0.22145424691E+02  0.28313225531E+02  0.50528874554E+02  0.30000044694E+02 0.  0.
        -12    1    1    2    0    0 -0.19002786831E+02  0.22145424691E+02 -0.28313225531E+02  0.40659125446E+02  0.00000000000E+00 0.  1.
         11    1    3    3    0    0  0.18511947438E+01 -0.97739758912E+01 -0.10928059623E+01  0.10007584715E+02  0.51100000000E-03 0.  1.
        -11    1    3    3    0    0  0.20182951105E+02 -0.11576530593E+02  0.29260926751E+02  0.37384079639E+02  0.51100000000E-03 0. -1.
        -12    1    3    3    0    0 -0.30313590180E+01 -0.79491820670E+00  0.14510474267E+00  0.31372101998E+01  0.00000000000E+00 0.  1.
</event>
<event>
 7    1  0.9953837E-014  0.5052887E+02  0.7816164E-02  0.1300439E+00
        -11   -1    0    0    0    0  0.00000000000E+00  0.00000000000E+00  0.45593999997E+02  0.45594000000E+02  0.51100000000E-03 0. -1.
         11   -1    0    0    0    0 -0.00000000000E+00 -0.00000000000E+00 -0.45593999997E+02  0.45594000000E+02  0.51100000000E-03 0.  1.
    9900012    2    1    2    0    0  0.29023065361E+02 -0.12917704372E+02 -0.25376362554E+02  0.50528865901E+02  0.30000018393E+02 0.  0.
         12    1    1    2    0    0 -0.29023065361E+02  0.12917704372E+02  0.25376362554E+02  0.40659134099E+02  0.00000000000E+00 0. -1.
         11    1    3    3    0    0  0.80924373055E+01 -0.14327635359E+02 -0.84375950742E+01  0.18492206127E+02  0.51100000000E-03 0. -1.
        -11    1    3    3    0    0  0.22777475550E+02  0.41069884584E+01 -0.17080216551E+02  0.28764814345E+02  0.51100000000E-03 0.  1.
         12    1    3    3    0    0 -0.18468474946E+01 -0.26970574713E+01  0.14144907067E+00  0.32718454290E+01  0.00000000000E+00 0. -1.
</event>
<event>
 7    1  0.1315241E-013  0.5052886E+02  0.7816164E-02  0.1300439E+00
        -11   -1    0    0    0    0  0.00000000000E+00  0.00000000000E+00  0.45593999997E+02  0.45594000000E+02  0.51100000000E-03 0. -1.
         11   -1    0    0    0    0 -0.00000000000E+00 -0.00000000000E+00 -0.45593999997E+02  0.45594000000E+02  0.51100000000E-03 0.  1.
    9900012    2    1    2    0    0  0.15268121183E+02  0.29563866991E+02  0.23367234514E+02  0.50528863207E+02  0.30000010203E+02 0.  0.
        -12    1    1    2    0    0 -0.15268121183E+02 -0.29563866991E+02 -0.23367234514E+02  0.40659136793E+02  0.00000000000E+00 0.  1.
         11    1    3    3    0    0  0.17062330942E+01  0.22480442784E+02  0.14496255789E+02  0.26803413427E+02  0.51100000000E-03 0. -1.
        -11    1    3    3    0    0  0.62931891020E+00 -0.45543072400E+01  0.21336938284E+01  0.50685704436E+01  0.51100000000E-03 0.  1.
         12    1    3    3    0    0  0.12932569178E+02  0.11637731447E+02  0.67372848965E+01  0.18656879336E+02  0.00000000000E+00 0. -1.
</event>
<event>
 7    1  0.9953837E-014  0.5052885E+02  0.7816164E-02  0.1300439E+00
        -11   -1    0    0    0    0  0.00000000000E+00  0.00000000000E+00  0.45593999997E+02  0.45594000000E+02  0.51100000000E-03 0. -1.
         11   -1    0    0    0    0 -0.00000000000E+00 -0.00000000000E+00 -0.45593999997E+02  0.45594000000E+02  0.51100000000E-03 0.  1.
    9900012    2    1    2    0    0  0.16946192084E+02  0.26379404576E+02 -0.25886673529E+02  0.50528852465E+02  0.29999977552E+02 0.  0.
         12    1    1    2    0    0 -0.16946192084E+02 -0.26379404576E+02  0.25886673529E+02  0.40659147535E+02  0.00000000000E+00 0. -1.
         11    1    3    3    0    0 -0.15604017224E+01  0.89183609034E+01 -0.15520948223E+02  0.17968635138E+02  0.51100000000E-03 0.  1.
        -11    1    3    3    0    0  0.16295910987E+02  0.11690698269E+02 -0.14824816031E+02  0.24940014265E+02  0.51100000000E-03 0. -1.
         12    1    3    3    0    0  0.22106828188E+01  0.57703454040E+01  0.44590907250E+01  0.76202030616E+01  0.00000000000E+00 0. -1.
</event>
<event>
 7    1  0.9953837E-014  0.5052886E+02  0.7816164E-02  0.1300439E+00
        -11   -1    0    0    0    0  0.00000000000E+00  0.00000000000E+00  0.45593999997E+02  0.45594000000E+02  0.51100000000E-03 0. -1.
         11   -1    0    0    0    0 -0.00000000000E+00 -0.00000000000E+00 -0.45593999997E+02  0.45594000000E+02  0.51100000000E-03 0.  1.
    9900012    2    1    2    0    0  0.29551756790E+02  0.21820850110E+02  0.17427263505E+02  0.50528863977E+02  0.30000012545E+02 0.  0.
        -12    1    1    2    0    0 -0.29551756790E+02 -0.21820850110E+02 -0.17427263505E+02  0.40659136023E+02  0.00000000000E+00 0.  1.
         11    1    3    3    0    0  0.21304691636E+02  0.24235395690E+02  0.17584199448E+01  0.32316193014E+02  0.51100000000E-03 0. -1.
        -11    1    3    3    0    0  0.52485525427E+01 -0.16669746376E-01  0.10837455233E+02  0.12041512275E+02  0.51100000000E-03 0.  1.
         12    1    3    3    0    0  0.29985126113E+01 -0.23978758338E+01  0.48313883273E+01  0.61711586889E+01  0.00000000000E+00 0. -1.
</event>
<event>
 7    1  0.9953837E-014  0.5052887E+02  0.7816164E-02  0.1300439E+00
        -11   -1    0    0    0    0  0.00000000000E+00  0.00000000000E+00  0.45593999997E+02  0.45594000000E+02  0.51100000000E-03 0. -1.
         11   -1    0    0    0    0 -0.00000000000E+00 -0.00000000000E+00 -0.45593999997E+02  0.45594000000E+02  0.51100000000E-03 0.  1.
    9900012    2    1    2    0    0  0.72478507417E+01 -0.33833010775E+02  0.21353248718E+02  0.50528865857E+02  0.30000018258E+02 0.  0.
        -12    1    1    2    0    0 -0.72478507417E+01  0.33833010775E+02 -0.21353248718E+02  0.40659134143E+02  0.00000000000E+00 0.  1.
         11    1    3    3    0    0 -0.92720005346E+01 -0.77037638505E+01 -0.58032341765E+00  0.12068750843E+02  0.51100000000E-03 0. -1.
        -11    1    3    3    0    0  0.95172200959E+01 -0.95591889432E+01  0.77904742300E+01  0.15577132618E+02  0.51100000000E-03 0.  1.
         12    1    3    3    0    0  0.70026311804E+01 -0.16570057981E+02  0.14143097906E+02  0.22882982396E+02  0.00000000000E+00 0. -1.
</event>
<event>
 7    1  0.9953837E-014  0.5052886E+02  0.7816164E-02  0.1300439E+00
        -11   -1    0    0    0    0  0.00000000000E+00  0.00000000000E+00  0.45593999997E+02  0.45594000000E+02  0.51100000000E-03 0. -1.
         11   -1    0    0    0    0 -0.00000000000E+00 -0.00000000000E+00 -0.45593999997E+02  0.45594000000E+02  0.51100000000E-03 0.  1.
    9900012    2    1    2    0    0  0.65889660200E+01 -0.34816493510E+02 -0.19938989678E+02  0.50528855851E+02  0.29999987844E+02 0.  0.
         12    1    1    2    0    0 -0.65889660200E+01  0.34816493510E+02  0.19938989678E+02  0.40659144149E+02  0.00000000000E+00 0. -1.
         11    1    3    3    0    0  0.10655309172E+02 -0.72554008145E+01 -0.29722482037E+01  0.13229161507E+02  0.51100000000E-03 0.  1.
        -11    1    3    3    0    0 -0.81065466140E+01 -0.55660924642E+01 -0.96311289053E+01  0.13764306288E+02  0.51100000000E-03 0. -1.
         12    1    3    3    0    0  0.40402034622E+01 -0.21995000232E+02 -0.73356125690E+01  0.23535388056E+02  0.00000000000E+00 0. -1.
</event>
<event>
 7    1  0.9953837E-014  0.5052886E+02  0.7816164E-02  0.1300439E+00
        -11   -1    0    0    0    0  0.00000000000E+00  0.00000000000E+00  0.45593999997E+02  0.45594000000E+02  0.51100000000E-03 0. -1.
         11   -1    0    0    0    0 -0.00000000000E+00 -0.00000000000E+00 -0.45593999997E+02  0.45594000000E+02  0.51100000000E-03 0.  1.
    9900012    2    1    2    0    0  0.27766576517E+02  0.13927488292E+02 -0.26233719745E+02  0.50528858922E+02  0.29999997179E+02 0.  0.
         12    1    1    2    0    0 -0.27766576517E+02 -0.13927488292E+02  0.26233719745E+02  0.40659141078E+02  0.00000000000E+00 0. -1.
         11    1    3    3    0    0 -0.24187633393E+01 -0.52001102502E+01 -0.72630672930E+01  0.92543886600E+01  0.51100000000E-03 0. -1.
        -11    1    3    3    0    0  0.15907605650E+02  0.58451748742E+01 -0.66369318942E+01  0.18200737678E+02  0.51100000000E-03 0.  1.
         12    1    3    3    0    0  0.14277734206E+02  0.13282423667E+02 -0.12333720557E+02  0.23073732584E+02  0.00000000000E+00 0. -1.
</event>
<event>
 7    1  0.9953837E-014  0.5052881E+02  0.7816164E-02  0.1300439E+00
        -11   -1    0    0    0    0  0.00000000000E+00  0.00000000000E+00  0.45593999997E+02  0.45594000000E+02  0.51100000000E-03 0. -1.
         11   -1    0    0    0    0 -0.00000000000E+00 -0.00000000000E+00 -0.45593999997E+02  0.45594000000E+02  0.51100000000E-03 0.  1.
    9900012    2    1    2    0    0  0.44552812987E+01 -0.35722437982E+01 -0.40256173798E+02  0.50528806870E+02  0.29999838960E+02 0.  0.
         12    1    1    2    0    0 -0.44552812987E+01  0.35722437982E+01  0.40256173798E+02  0.40659193130E+02  0.00000000000E+00 0. -1.
         11    1    3    3    0    0  0.69833645118E+01 -0.10687855493E+02 -0.16235283181E+02  0.20653862960E+02  0.51100000000E-03 0. -1.
        -11    1    3    3    0    0 -0.87618836892E+01  0.28262810434E+01 -0.81629825584E+01  0.12304176317E+02  0.51100000000E-03 0.  1.
        -12    1    3    3    0    0  0.62338004760E+01  0.42893306518E+01 -0.15857908058E+02  0.17570767593E+02  0.00000000000E+00 0.  1.
</event>
<event>
 7    1  0.9953837E-014  0.5052886E+02  0.7816164E-02  0.1300439E+00
        -11   -1    0    0    0    0  0.00000000000E+00  0.00000000000E+00  0.45593999997E+02  0.45594000000E+02  0.51100000000E-03 0. -1.
         11   -1    0    0    0    0 -0.00000000000E+00 -0.00000000000E+00 -0.45593999997E+02  0.45594000000E+02  0.51100000000E-03 0.  1.
    9900012    2    1    2    0    0 -0.92211598316E+01  0.13503147861E+02 -0.37226346134E+02  0.50528860348E+02  0.30000001514E+02 0.  0.
         12    1    1    2    0    0  0.92211598316E+01 -0.13503147861E+02  0.37226346134E+02  0.40659139652E+02  0.00000000000E+00 0. -1.
         11    1    3    3    0    0  0.32319828656E+01 -0.73082009751E+01 -0.81538055312E+01  0.11416657113E+02  0.51100000000E-03 0. -1.
        -11    1    3    3    0    0 -0.88739834847E+01  0.20681442153E+02 -0.26057621413E+02  0.34430644293E+02  0.51100000000E-03 0.  1.
        -12    1    3    3    0    0 -0.35791592124E+01  0.12990668263E+00 -0.30149191889E+01  0.46815589422E+01  0.00000000000E+00 0.  1.
</event>
<event>
 7    1  0.9953837E-014  0.5052886E+02  0.7816164E-02  0.1300439E+00
        -11   -1    0    0    0    0  0.00000000000E+00  0.00000000000E+00  0.45593999997E+02  0.45594000000E+02  0.51100000000E-03 0. -1.
         11   -1    0    0    0    0 -0.00000000000E+00 -0.00000000000E+00 -0.45593999997E+02  0.45594000000E+02  0.51100000000E-03 0.  1.
    9900012    2    1    2    0    0  0.27494889184E+02 -0.23542718832E+02  0.18518557478E+02  0.50528861884E+02  0.30000006184E+02 0.  0.
        -12    1    1    2    0    0 -0.27494889184E+02  0.23542718832E+02 -0.18518557478E+02  0.40659138116E+02  0.00000000000E+00 0.  1.
         11    1    3    3    0    0  0.30717272920E+02 -0.19059853794E+02  0.13527686774E+02  0.38598279651E+02  0.51100000000E-03 0. -1.
        -11    1    3    3    0    0  0.11478866157E+01 -0.21041106985E+01 -0.21549030008E+01  0.32231246823E+01  0.51100000000E-03 0.  1.
         12    1    3    3    0    0 -0.43702703523E+01 -0.23787543397E+01  0.71457737047E+01  0.87074575508E+01  0.00000000000E+00 0. -1.
</event>
<event>
 7    1  0.9953837E-014  0.5052889E+02  0.7816164E-02  0.1300439E+00
        -11   -1    0    0    0    0  0.00000000000E+00  0.00000000000E+00  0.45593999997E+02  0.45594000000E+02  0.51100000000E-03 0.  1.
         11   -1    0    0    0    0 -0.00000000000E+00 -0.00000000000E+00 -0.45593999997E+02  0.45594000000E+02  0.51100000000E-03 0. -1.
    9900012    2    1    2    0    0  0.32476008344E+02 -0.17210282338E+02 -0.17386141743E+02  0.50528894490E+02  0.30000105293E+02 0.  0.
         12    1    1    2    0    0 -0.32476008344E+02  0.17210282338E+02  0.17386141743E+02  0.40659105510E+02  0.00000000000E+00 0. -1.
         11    1    3    3    0    0  0.26558936924E+02 -0.45649959109E+01 -0.13048203745E+02  0.29941141252E+02  0.51100000000E-03 0. -1.
        -11    1    3    3    0    0 -0.12944707767E+00 -0.13762183329E+02 -0.43665500272E+01  0.14438878278E+02  0.51100000000E-03 0.  1.
         12    1    3    3    0    0  0.60465184979E+01  0.11168969019E+01  0.28612029857E-01  0.61488749608E+01  0.00000000000E+00 0. -1.
</event>
<event>
 7    1  0.9953837E-014  0.5052886E+02  0.7816164E-02  0.1300439E+00
        -11   -1    0    0    0    0  0.00000000000E+00  0.00000000000E+00  0.45593999997E+02  0.45594000000E+02  0.51100000000E-03 0. -1.
         11   -1    0    0    0    0 -0.00000000000E+00 -0.00000000000E+00 -0.45593999997E+02  0.45594000000E+02  0.51100000000E-03 0.  1.
    9900012    2    1    2    0    0  0.36141953648E+02 -0.14193203736E+02  0.12061412901E+02  0.50528861704E+02  0.30000005636E+02 0.  0.
        -12    1    1    2    0    0 -0.36141953648E+02  0.14193203736E+02 -0.12061412901E+02  0.40659138296E+02  0.00000000000E+00 0.  1.
         11    1    3    3    0    0  0.70310335058E+01 -0.12456207655E+02  0.95070964757E+01  0.17174906840E+02  0.51100000000E-03 0. -1.
        -11    1    3    3    0    0  0.27867413627E+02 -0.53054274123E+01 -0.68570261753E+00  0.28376231086E+02  0.51100000000E-03 0.  1.
        -12    1    3    3    0    0  0.12435065149E+01  0.35684313310E+01  0.32400190429E+01  0.49777237785E+01  0.00000000000E+00 0.  1.
</event>
<event>
 7    1  0.9953837E-014  0.5052885E+02  0.7816164E-02  0.1300439E+00
        -11   -1    0    0    0    0  0.00000000000E+00  0.00000000000E+00  0.45593999997E+02  0.45594000000E+02  0.51100000000E-03 0.  1.
         11   -1    0    0    0    0 -0.00000000000E+00 -0.00000000000E+00 -0.45593999997E+02  0.45594000000E+02  0.51100000000E-03 0. -1.
    9900012    2    1    2    0    0  0.10216595491E+01  0.39800052712E+02 -0.82509612562E+01  0.50528851635E+02  0.29999975029E+02 0.  0.
        -12    1    1    2    0    0 -0.10216595491E+01 -0.39800052712E+02  0.82509612562E+01  0.40659148365E+02  0.00000000000E+00 0.  1.
         11    1    3    3    0    0  0.67965943627E+01 -0.13766413004E+00  0.34128658583E+01  0.76065958202E+01  0.51100000000E-03 0. -1.
        -11    1    3    3    0    0 -0.44472382212E+01  0.13925027759E+02 -0.78670150051E+01  0.16600429249E+02  0.51100000000E-03 0.  1.
         12    1    3    3    0    0 -0.13276965925E+01  0.26012689083E+02 -0.37968121094E+01  0.26321826566E+02  0.00000000000E+00 0. -1.
</event>
<event>
 7    1  0.9953837E-014  0.5052886E+02  0.7816164E-02  0.1300439E+00
        -11   -1    0    0    0    0  0.00000000000E+00  0.00000000000E+00  0.45593999997E+02  0.45594000000E+02  0.51100000000E-03 0. -1.
         11   -1    0    0    0    0 -0.00000000000E+00 -0.00000000000E+00 -0.45593999997E+02  0.45594000000E+02  0.51100000000E-03 0.  1.
    9900012    2    1    2    0    0  0.70343946284E+01  0.10599883164E+02 -0.38617683349E+02  0.50528859599E+02  0.29999999237E+02 0.  0.
         12    1    1    2    0    0 -0.70343946284E+01 -0.10599883164E+02  0.38617683349E+02  0.40659140401E+02  0.00000000000E+00 0. -1.
         11    1    3    3    0    0  0.81938495583E+01  0.65593693551E+01 -0.24887795216E+01  0.10786960679E+02  0.51100000000E-03 0. -1.
        -11    1    3    3    0    0 -0.58536141869E+01  0.82926415199E+01 -0.24016870290E+02  0.26073794531E+02  0.51100000000E-03 0.  1.
         12    1    3    3    0    0  0.46941592570E+01 -0.42521277105E+01 -0.12112033537E+02  0.13668104390E+02  0.00000000000E+00 0. -1.
</event>
<event>
 7    1  0.9953837E-014  0.5052887E+02  0.7816164E-02  0.1300439E+00
        -11   -1    0    0    0    0  0.00000000000E+00  0.00000000000E+00  0.45593999997E+02  0.45594000000E+02  0.51100000000E-03 0. -1.
         11   -1    0    0    0    0 -0.00000000000E+00 -0.00000000000E+00 -0.45593999997E+02  0.45594000000E+02  0.51100000000E-03 0.  1.
    9900012    2    1    2    0    0 -0.96097667423E+01  0.33541154933E+02 -0.20876026739E+02  0.50528865928E+02  0.30000018476E+02 0.  0.
         12    1    1    2    0    0  0.96097667423E+01 -0.33541154933E+02  0.20876026739E+02  0.40659134072E+02  0.00000000000E+00 0. -1.
         11    1    3    3    0    0 -0.13930558822E+02  0.18750266060E+02 -0.18740270392E+02  0.29947131433E+02  0.51100000000E-03 0. -1.
        -11    1    3    3    0    0  0.75884783779E+01  0.13634235185E+02 -0.46701970277E+01  0.16287667535E+02  0.51100000000E-03 0.  1.
        -12    1    3    3    0    0 -0.32676862987E+01  0.11566536871E+01  0.25344406813E+01  0.42940669610E+01  0.00000000000E+00 0.  1.
</event>
<event>
 7    1  0.9953837E-014  0.5052886E+02  0.7816164E-02  0.1300439E+00
        -11   -1    0    0    0    0  0.00000000000E+00  0.00000000000E+00  0.45593999997E+02  0.45594000000E+02  0.51100000000E-03 0. -1.
         11   -1    0    0    0    0 -0.00000000000E+00 -0.00000000000E+00 -0.45593999997E+02  0.45594000000E+02  0.51100000000E-03 0.  1.
    9900012    2    1    2    0    0  0.83443831431E+01  0.92306467672E+01 -0.38708299289E+02  0.50528855842E+02  0.29999987818E+02 0.  0.
         12    1    1    2    0    0 -0.83443831431E+01 -0.92306467672E+01  0.38708299289E+02  0.40659144158E+02  0.00000000000E+00 0. -1.
         11    1    3    3    0    0 -0.49407980820E+01  0.67159538784E+01 -0.14181879312E+01  0.84573506167E+01  0.51100000000E-03 0. -1.
        -11    1    3    3    0    0  0.92761793076E+01  0.39692245264E+00 -0.36249456864E+02  0.37419622836E+02  0.51100000000E-03 0.  1.
        -12    1    3    3    0    0  0.40090019175E+01  0.21177704361E+01 -0.10406544942E+01  0.46518823900E+01  0.00000000000E+00 0.  1.
</event>
<event>
 7    1  0.9953837E-014  0.5052886E+02  0.7816164E-02  0.1300439E+00
        -11   -1    0    0    0    0  0.00000000000E+00  0.00000000000E+00  0.45593999997E+02  0.45594000000E+02  0.51100000000E-03 0.  1.
         11   -1    0    0    0    0 -0.00000000000E+00 -0.00000000000E+00 -0.45593999997E+02  0.45594000000E+02  0.51100000000E-03 0. -1.
    9900012    2    1    2    0    0 -0.85880233060E+01  0.38818168846E+02 -0.85183073399E+01  0.50528856664E+02  0.29999990317E+02 0.  0.
         12    1    1    2    0    0  0.85880233060E+01 -0.38818168846E+02  0.85183073399E+01  0.40659143336E+02  0.00000000000E+00 0. -1.
         11    1    3    3    0    0 -0.79999376582E+01  0.20059713732E+02  0.45281030668E+01  0.22065693626E+02  0.51100000000E-03 0. -1.
        -11    1    3    3    0    0  0.19399051134E+01 -0.27842931377E+01 -0.31176104550E+01  0.46081466270E+01  0.51100000000E-03 0.  1.
         12    1    3    3    0    0 -0.25279907613E+01  0.21542748252E+02 -0.99287999517E+01  0.23855016412E+02  0.00000000000E+00 0. -1.
</event>
<event>
 7    1  0.9953837E-014  0.5052885E+02  0.7816164E-02  0.1300439E+00
        -11   -1    0    0    0    0  0.00000000000E+00  0.00000000000E+00  0.45593999997E+02  0.45594000000E+02  0.51100000000E-03 0.  1.
         11   -1    0    0    0    0 -0.00000000000E+00 -0.00000000000E+00 -0.45593999997E+02  0.45594000000E+02  0.51100000000E-03 0. -1.
    9900012    2    1    2    0    0 -0.17040685879E+02 -0.36560844190E+02 -0.51074357223E+01  0.50528853393E+02  0.29999980374E+02 0.  0.
        -12    1    1    2    0    0  0.17040685879E+02  0.36560844190E+02  0.51074357223E+01  0.40659146607E+02  0.00000000000E+00 0.  1.
         11    1    3    3    0    0 -0.91112930367E+00 -0.19671300125E+02 -0.11648292534E+02  0.22879530686E+02  0.51100000000E-03 0. -1.
        -11    1    3    3    0    0 -0.25119313269E+01 -0.90464695296E+01  0.73353158297E+01  0.11914498249E+02  0.51100000000E-03 0.  1.
        -12    1    3    3    0    0 -0.13617625249E+02 -0.78430745356E+01 -0.79445901811E+00  0.15734824458E+02  0.00000000000E+00 0.  1.
</event>
<event>
 7    1  0.9953837E-014  0.5052887E+02  0.7816164E-02  0.1300439E+00
        -11   -1    0    0    0    0  0.00000000000E+00  0.00000000000E+00  0.45593999997E+02  0.45594000000E+02  0.51100000000E-03 0. -1.
         11   -1    0    0    0    0 -0.00000000000E+00 -0.00000000000E+00 -0.45593999997E+02  0.45594000000E+02  0.51100000000E-03 0.  1.
    9900012    2    1    2    0    0  0.11163255957E+02 -0.36004938750E+02  0.15237823218E+02  0.50528866286E+02  0.30000019564E+02 0.  0.
        -12    1    1    2    0    0 -0.11163255957E+02  0.36004938750E+02 -0.15237823218E+02  0.40659133714E+02  0.00000000000E+00 0.  1.
         11    1    3    3    0    0  0.97817252970E+00 -0.19909459133E+02  0.75559828027E+01  0.21317510663E+02  0.51100000000E-03 0. -1.
        -11    1    3    3    0    0  0.25939263274E+01  0.48108553105E+01 -0.55409918591E+00  0.54936152741E+01  0.51100000000E-03 0.  1.
        -12    1    3    3    0    0  0.75911570999E+01 -0.20906334927E+02  0.82359396009E+01  0.23717740350E+02  0.00000000000E+00 0.  1.
</event>
<event>
 7    1  0.9953837E-014  0.5052890E+02  0.7816164E-02  0.1300439E+00
        -11   -1    0    0    0    0  0.00000000000E+00  0.00000000000E+00  0.45593999997E+02  0.45594000000E+02  0.51100000000E-03 0. -1.
         11   -1    0    0    0    0 -0.00000000000E+00 -0.00000000000E+00 -0.45593999997E+02  0.45594000000E+02  0.51100000000E-03 0.  1.
    9900012    2    1    2    0    0 -0.32741724303E+02 -0.23774559280E+02  0.39889653231E+01  0.50528904786E+02  0.30000136587E+02 0.  0.
        -12    1    1    2    0    0  0.32741724303E+02  0.23774559280E+02 -0.39889653231E+01  0.40659095214E+02  0.00000000000E+00 0.  1.
         11    1    3    3    0    0 -0.30633140292E+02 -0.15663607875E+02  0.38563195168E+01  0.34620934364E+02  0.51100000000E-03 0. -1.
        -11    1    3    3    0    0  0.62910381974E-01  0.34273103317E+01  0.20758335864E+01  0.40074304942E+01  0.51100000000E-03 0.  1.
         12    1    3    3    0    0 -0.21714943929E+01 -0.11538261737E+02 -0.19431877801E+01  0.11900539927E+02  0.00000000000E+00 0. -1.
</event>
<event>
 7    1  0.9953837E-014  0.5052885E+02  0.7816164E-02  0.1300439E+00
        -11   -1    0    0    0    0  0.00000000000E+00  0.00000000000E+00  0.45593999997E+02  0.45594000000E+02  0.51100000000E-03 0. -1.
         11   -1    0    0    0    0 -0.00000000000E+00 -0.00000000000E+00 -0.45593999997E+02  0.45594000000E+02  0.51100000000E-03 0.  1.
    9900012    2    1    2    0    0  0.17214323592E+02 -0.25236118893E+02  0.26832288296E+02  0.50528851845E+02  0.29999975668E+02 0.  0.
        -12    1    1    2    0    0 -0.17214323592E+02  0.25236118893E+02 -0.26832288296E+02  0.40659148155E+02  0.00000000000E+00 0.  1.
         11    1    3    3    0    0 -0.61761290729E+01 -0.10000147157E+02  0.50395871364E+01  0.12788469504E+02  0.51100000000E-03 0. -1.
        -11    1    3    3    0    0  0.21319131437E+02 -0.17145162518E+02  0.17086115147E+02  0.32255190188E+02  0.51100000000E-03 0.  1.
        -12    1    3    3    0    0  0.20713212278E+01  0.19091907815E+01  0.47065860120E+01  0.54851921532E+01  0.00000000000E+00 0.  1.
</event>
<event>
 7    1  0.9953837E-014  0.5052887E+02  0.7816164E-02  0.1300439E+00
        -11   -1    0    0    0    0  0.00000000000E+00  0.00000000000E+00  0.45593999997E+02  0.45594000000E+02  0.51100000000E-03 0. -1.
         11   -1    0    0    0    0 -0.00000000000E+00 -0.00000000000E+00 -0.45593999997E+02  0.45594000000E+02  0.51100000000E-03 0.  1.
    9900012    2    1    2    0    0  0.24784640301E+02  0.38278805423E+01 -0.32003653239E+02  0.50528869599E+02  0.30000029633E+02 0.  0.
         12    1    1    2    0    0 -0.24784640301E+02 -0.38278805423E+01  0.32003653239E+02  0.40659130401E+02  0.00000000000E+00 0. -1.
         11    1    3    3    0    0 -0.14071136696E+01  0.16982427521E+01 -0.75586246688E+00  0.23313784880E+01  0.51100000000E-03 0. -1.
        -11    1    3    3    0    0  0.70803069617E+01 -0.22366321112E+00 -0.27733166644E+02  0.28623579515E+02  0.51100000000E-03 0.  1.
        -12    1    3    3    0    0  0.19111447009E+02  0.23533010013E+01 -0.35146241280E+01  0.19573911596E+02  0.00000000000E+00 0.  1.
</event>
<event>
 7    1  0.9953837E-014  0.5052882E+02  0.7816164E-02  0.1300439E+00
        -11   -1    0    0    0    0  0.00000000000E+00  0.00000000000E+00  0.45593999997E+02  0.45594000000E+02  0.51100000000E-03 0. -1.
         11   -1    0    0    0    0 -0.00000000000E+00 -0.00000000000E+00 -0.45593999997E+02  0.45594000000E+02  0.51100000000E-03 0.  1.
    9900012    2    1    2    0    0 -0.34572625736E+02 -0.21192300322E+02  0.29645836091E+01  0.50528821464E+02  0.29999883323E+02 0.  0.
         12    1    1    2    0    0  0.34572625736E+02  0.21192300322E+02 -0.29645836091E+01  0.40659178536E+02  0.00000000000E+00 0. -1.
         11    1    3    3    0    0 -0.10437943204E+02 -0.37816397539E+01 -0.77849620577E+01  0.13559391287E+02  0.51100000000E-03 0. -1.
        -11    1    3    3    0    0 -0.23391911353E+02 -0.64969789288E+01  0.57876583461E+01  0.24957749125E+02  0.51100000000E-03 0.  1.
         12    1    3    3    0    0 -0.74277117864E+00 -0.10913681639E+02  0.49618873206E+01  0.12011681053E+02  0.00000000000E+00 0. -1.
</event>
<event>
 7    1  0.9953837E-014  0.5052886E+02  0.7816164E-02  0.1300439E+00
        -11   -1    0    0    0    0  0.00000000000E+00  0.00000000000E+00  0.45593999997E+02  0.45594000000E+02  0.51100000000E-03 0. -1.
         11   -1    0    0    0    0 -0.00000000000E+00 -0.00000000000E+00 -0.45593999997E+02  0.45594000000E+02  0.51100000000E-03 0.  1.
    9900012    2    1    2    0    0  0.31453505348E+02 -0.20778657890E+02  0.15234496854E+02  0.50528861829E+02  0.30000006016E+02 0.  0.
        -12    1    1    2    0    0 -0.31453505348E+02  0.20778657890E+02 -0.15234496854E+02  0.40659138171E+02  0.00000000000E+00 0.  1.
         11    1    3    3    0    0 -0.62374728259E+00  0.16563544669E+01  0.60824375929E+01  0.63347153152E+01  0.51100000000E-03 0. -1.
        -11    1    3    3    0    0  0.15673485469E+02 -0.17074392743E+01 -0.11870173311E+01  0.15810835083E+02  0.51100000000E-03 0.  1.
         12    1    3    3    0    0  0.16403767162E+02 -0.20727573083E+02  0.10339076593E+02  0.28383311431E+02  0.00000000000E+00 0. -1.
</event>
<event>
 7    1  0.9953837E-014  0.5052884E+02  0.7816164E-02  0.1300439E+00
        -11   -1    0    0    0    0  0.00000000000E+00  0.00000000000E+00  0.45593999997E+02  0.45594000000E+02  0.51100000000E-03 0. -1.
         11   -1    0    0    0    0 -0.00000000000E+00 -0.00000000000E+00 -0.45593999997E+02  0.45594000000E+02  0.51100000000E-03 0.  1.
    9900012    2    1    2    0    0  0.69629710787E+01 -0.77938291455E-01 -0.40058438266E+02  0.50528837232E+02  0.29999931252E+02 0.  0.
         12    1    1    2    0    0 -0.69629710787E+01  0.77938291455E-01  0.40058438266E+02  0.40659162768E+02  0.00000000000E+00 0. -1.
         11    1    3    3    0    0  0.96957689206E+01  0.21906958288E+01 -0.56775904650E+01  0.11447362881E+02  0.51100000000E-03 0. -1.
        -11    1    3    3    0    0 -0.10346799183E+02 -0.30430924870E+01 -0.17668032337E+02  0.20699662610E+02  0.51100000000E-03 0.  1.
        -12    1    3    3    0    0  0.76140013412E+01  0.77445836674E+00 -0.16712815464E+02  0.18381811742E+02  0.00000000000E+00 0.  1.
</event>
<event>
 7    1  0.9953837E-014  0.5052885E+02  0.7816164E-02  0.1300439E+00
        -11   -1    0    0    0    0  0.00000000000E+00  0.00000000000E+00  0.45593999997E+02  0.45594000000E+02  0.51100000000E-03 0. -1.
         11   -1    0    0    0    0 -0.00000000000E+00 -0.00000000000E+00 -0.45593999997E+02  0.45594000000E+02  0.51100000000E-03 0.  1.
    9900012    2    1    2    0    0  0.15315172669E+02 -0.39948720592E+01 -0.37452004647E+02  0.50528853812E+02  0.29999981647E+02 0.  0.
         12    1    1    2    0    0 -0.15315172669E+02  0.39948720592E+01  0.37452004647E+02  0.40659146188E+02  0.00000000000E+00 0. -1.
         11    1    3    3    0    0  0.78716223208E+01  0.99779364228E+01 -0.24973602274E+02  0.28021464345E+02  0.51100000000E-03 0. -1.
        -11    1    3    3    0    0  0.31566610020E+00  0.68684453126E-01 -0.51125388139E+01  0.51227352094E+01  0.51100000000E-03 0.  1.
         12    1    3    3    0    0  0.71278842476E+01 -0.14041492935E+02 -0.73658635589E+01  0.17384654258E+02  0.00000000000E+00 0. -1.
</event>
<event>
 7    1  0.9953837E-014  0.5052887E+02  0.7816164E-02  0.1300439E+00
        -11   -1    0    0    0    0  0.00000000000E+00  0.00000000000E+00  0.45593999997E+02  0.45594000000E+02  0.51100000000E-03 0. -1.
         11   -1    0    0    0    0 -0.00000000000E+00 -0.00000000000E+00 -0.45593999997E+02  0.45594000000E+02  0.51100000000E-03 0.  1.
    9900012    2    1    2    0    0  0.31141093361E+01  0.21342343696E+02  0.34466968252E+02  0.50528865579E+02  0.30000017414E+02 0.  0.
        -12    1    1    2    0    0 -0.31141093361E+01 -0.21342343696E+02 -0.34466968252E+02  0.40659134421E+02  0.00000000000E+00 0.  1.
         11    1    3    3    0    0 -0.38059952359E+01 -0.39528917842E+01  0.13083526460E+02  0.14187657244E+02  0.51100000000E-03 0. -1.
        -11    1    3    3    0    0  0.72912402240E+01  0.15208595772E+02  0.59194320512E+01  0.17874653715E+02  0.51100000000E-03 0.  1.
        -12    1    3    3    0    0 -0.37113565206E+00  0.10086639708E+02  0.15464009741E+02  0.18466554620E+02  0.00000000000E+00 0.  1.
</event>
<event>
 7    1  0.9953837E-014  0.5052886E+02  0.7816164E-02  0.1300439E+00
        -11   -1    0    0    0    0  0.00000000000E+00  0.00000000000E+00  0.45593999997E+02  0.45594000000E+02  0.51100000000E-03 0. -1.
         11   -1    0    0    0    0 -0.00000000000E+00 -0.00000000000E+00 -0.45593999997E+02  0.45594000000E+02  0.51100000000E-03 0.  1.
    9900012    2    1    2    0    0 -0.74721927124E+01 -0.29557847508E+02 -0.26901032013E+02  0.50528861586E+02  0.30000005276E+02 0.  0.
         12    1    1    2    0    0  0.74721927124E+01  0.29557847508E+02  0.26901032013E+02  0.40659138414E+02  0.00000000000E+00 0. -1.
         11    1    3    3    0    0  0.56954175999E+01 -0.10499481068E+02 -0.42560165151E+00  0.11952322844E+02  0.51100000000E-03 0. -1.
        -11    1    3    3    0    0 -0.94741946266E+01 -0.70278097680E+01 -0.22455538371E+02  0.25365363742E+02  0.51100000000E-03 0.  1.
         12    1    3    3    0    0 -0.36934156856E+01 -0.12030556672E+02 -0.40198919900E+01  0.13211175000E+02  0.00000000000E+00 0. -1.
</event>
<event>
 7    1  0.9953837E-014  0.5052886E+02  0.7816164E-02  0.1300439E+00
        -11   -1    0    0    0    0  0.00000000000E+00  0.00000000000E+00  0.45593999997E+02  0.45594000000E+02  0.51100000000E-03 0. -1.
         11   -1    0    0    0    0 -0.00000000000E+00 -0.00000000000E+00 -0.45593999997E+02  0.45594000000E+02  0.51100000000E-03 0.  1.
    9900012    2    1    2    0    0  0.17116791778E+02  0.35002983650E+02 -0.11617768474E+02  0.50528856262E+02  0.29999989095E+02 0.  0.
         12    1    1    2    0    0 -0.17116791778E+02 -0.35002983650E+02  0.11617768474E+02  0.40659143738E+02  0.00000000000E+00 0. -1.
         11    1    3    3    0    0  0.96520615454E+01  0.12885091690E+02  0.92227833014E+01  0.18553910963E+02  0.51100000000E-03 0. -1.
        -11    1    3    3    0    0  0.62440234190E+01  0.12174270443E+02 -0.86129884285E+01  0.16167382571E+02  0.51100000000E-03 0.  1.
         12    1    3    3    0    0  0.12207068133E+01  0.99436215172E+01 -0.12227563347E+02  0.15807562728E+02  0.00000000000E+00 0. -1.
</event>
<event>
 7    1  0.9953837E-014  0.5052885E+02  0.7816164E-02  0.1300439E+00
        -11   -1    0    0    0    0  0.00000000000E+00  0.00000000000E+00  0.45593999997E+02  0.45594000000E+02  0.51100000000E-03 0. -1.
         11   -1    0    0    0    0 -0.00000000000E+00 -0.00000000000E+00 -0.45593999997E+02  0.45594000000E+02  0.51100000000E-03 0.  1.
    9900012    2    1    2    0    0  0.20969265307E+01 -0.77380366694E+01 -0.39860912444E+02  0.50528847854E+02  0.29999963538E+02 0.  0.
         12    1    1    2    0    0 -0.20969265307E+01  0.77380366694E+01  0.39860912444E+02  0.40659152146E+02  0.00000000000E+00 0. -1.
         11    1    3    3    0    0  0.84622398318E+01  0.59176445874E+01 -0.10741633673E+02  0.14900023982E+02  0.51100000000E-03 0. -1.
        -11    1    3    3    0    0 -0.10598692431E+02 -0.82966591677E+01 -0.16632151775E+02  0.21396151699E+02  0.51100000000E-03 0.  1.
         12    1    3    3    0    0  0.42333791295E+01 -0.53590220890E+01 -0.12487126995E+02  0.14232672174E+02  0.00000000000E+00 0. -1.
</event>
<event>
 7    1  0.9953837E-014  0.5052885E+02  0.7816164E-02  0.1300439E+00
        -11   -1    0    0    0    0  0.00000000000E+00  0.00000000000E+00  0.45593999997E+02  0.45594000000E+02  0.51100000000E-03 0. -1.
         11   -1    0    0    0    0 -0.00000000000E+00 -0.00000000000E+00 -0.45593999997E+02  0.45594000000E+02  0.51100000000E-03 0.  1.
    9900012    2    1    2    0    0 -0.15995976505E+02  0.12001615567E+02 -0.35401357425E+02  0.50528854065E+02  0.29999982417E+02 0.  0.
         12    1    1    2    0    0  0.15995976505E+02 -0.12001615567E+02  0.35401357425E+02  0.40659145935E+02  0.00000000000E+00 0. -1.
         11    1    3    3    0    0 -0.14226591567E+02  0.17428409568E+02 -0.26853947521E+02  0.35032554366E+02  0.51100000000E-03 0.  1.
        -11    1    3    3    0    0  0.45615008217E+01 -0.18341794577E+01 -0.60606424679E+01  0.78040304595E+01  0.51100000000E-03 0. -1.
        -12    1    3    3    0    0 -0.63308857604E+01 -0.35926145442E+01 -0.24867674366E+01  0.76922692398E+01  0.00000000000E+00 0.  1.
</event>
<event>
 7    1  0.9953837E-014  0.5052886E+02  0.7816164E-02  0.1300439E+00
        -11   -1    0    0    0    0  0.00000000000E+00  0.00000000000E+00  0.45593999997E+02  0.45594000000E+02  0.51100000000E-03 0. -1.
         11   -1    0    0    0    0 -0.00000000000E+00 -0.00000000000E+00 -0.45593999997E+02  0.45594000000E+02  0.51100000000E-03 0.  1.
    9900012    2    1    2    0    0  0.19118667904E+02 -0.16673004577E+02  0.31775036253E+02  0.50528862369E+02  0.30000007657E+02 0.  0.
        -12    1    1    2    0    0 -0.19118667904E+02  0.16673004577E+02 -0.31775036253E+02  0.40659137631E+02  0.00000000000E+00 0.  1.
         11    1    3    3    0    0 -0.18152090699E+01  0.56303179162E+01  0.61765215945E+01  0.85524781832E+01  0.51100000000E-03 0. -1.
        -11    1    3    3    0    0  0.14806768525E+02 -0.14019061740E+02  0.24092502449E+02  0.31563003038E+02  0.51100000000E-03 0.  1.
        -12    1    3    3    0    0  0.61271084481E+01 -0.82842607532E+01  0.15060122094E+01  0.10413381148E+02  0.00000000000E+00 0.  1.
</event>
<event>
 7    1  0.9953837E-014  0.5052886E+02  0.7816164E-02  0.1300439E+00
        -11   -1    0    0    0    0  0.00000000000E+00  0.00000000000E+00  0.45593999997E+02  0.45594000000E+02  0.51100000000E-03 0. -1.
         11   -1    0    0    0    0 -0.00000000000E+00 -0.00000000000E+00 -0.45593999997E+02  0.45594000000E+02  0.51100000000E-03 0.  1.
    9900012    2    1    2    0    0 -0.95773118624E+01  0.74763398180E+01 -0.38801353326E+02  0.50528861058E+02  0.30000003672E+02 0.  0.
         12    1    1    2    0    0  0.95773118624E+01 -0.74763398180E+01  0.38801353326E+02  0.40659138942E+02  0.00000000000E+00 0. -1.
         11    1    3    3    0    0  0.59502873380E+01  0.48537315058E+00 -0.77555192235E+01  0.97872153950E+01  0.51100000000E-03 0. -1.
        -11    1    3    3    0    0 -0.19234579051E+02  0.84079538192E+01 -0.30039568992E+02  0.36647488647E+02  0.51100000000E-03 0.  1.
        -12    1    3    3    0    0  0.37069798502E+01 -0.14169871517E+01 -0.10062651107E+01  0.40941570159E+01  0.00000000000E+00 0.  1.
</event>
<event>
 7    1  0.9953837E-014  0.5052886E+02  0.7816164E-02  0.1300439E+00
        -11   -1    0    0    0    0  0.00000000000E+00  0.00000000000E+00  0.45593999997E+02  0.45594000000E+02  0.51100000000E-03 0. -1.
         11   -1    0    0    0    0 -0.00000000000E+00 -0.00000000000E+00 -0.45593999997E+02  0.45594000000E+02  0.51100000000E-03 0.  1.
    9900012    2    1    2    0    0  0.32759518487E+02 -0.14707818316E+02 -0.19069871593E+02  0.50528856210E+02  0.29999988937E+02 0.  0.
         12    1    1    2    0    0 -0.32759518487E+02  0.14707818316E+02  0.19069871593E+02  0.40659143790E+02  0.00000000000E+00 0. -1.
         11    1    3    3    0    0  0.19202357764E+02 -0.42705364460E+01 -0.23532248931E+02  0.30671399793E+02  0.51100000000E-03 0. -1.
        -11    1    3    3    0    0  0.86649959584E+01 -0.29048628565E+01 -0.12337246511E+01  0.92218468839E+01  0.51100000000E-03 0.  1.
         12    1    3    3    0    0  0.48921647645E+01 -0.75324190134E+01  0.56961019893E+01  0.10635609534E+02  0.00000000000E+00 0. -1.
</event>
<event>
 7    1  0.9953837E-014  0.5052897E+02  0.7816164E-02  0.1300438E+00
        -11   -1    0    0    0    0  0.00000000000E+00  0.00000000000E+00  0.45593999997E+02  0.45594000000E+02  0.51100000000E-03 0. -1.
         11   -1    0    0    0    0 -0.00000000000E+00 -0.00000000000E+00 -0.45593999997E+02  0.45594000000E+02  0.51100000000E-03 0.  1.
    9900012    2    1    2    0    0 -0.71495391258E+01 -0.79615005531E+01  0.39225693552E+02  0.50528973507E+02  0.30000345469E+02 0.  0.
        -12    1    1    2    0    0  0.71495391258E+01  0.79615005531E+01 -0.39225693552E+02  0.40659026493E+02  0.00000000000E+00 0.  1.
         11    1    3    3    0    0 -0.12458725432E+02 -0.19445935641E+01  0.19300770553E+02  0.23054739811E+02  0.51100000000E-03 0. -1.
        -11    1    3    3    0    0  0.47527845980E+01 -0.98521168922E+01  0.49508997291E+01  0.12006855420E+02  0.51100000000E-03 0.  1.
        -12    1    3    3    0    0  0.55640170847E+00  0.38352099032E+01  0.14974023269E+02  0.15467378276E+02  0.00000000000E+00 0.  1.
</event>
<event>
 7    1  0.9953837E-014  0.5052885E+02  0.7816164E-02  0.1300439E+00
        -11   -1    0    0    0    0  0.00000000000E+00  0.00000000000E+00  0.45593999997E+02  0.45594000000E+02  0.51100000000E-03 0. -1.
         11   -1    0    0    0    0 -0.00000000000E+00 -0.00000000000E+00 -0.45593999997E+02  0.45594000000E+02  0.51100000000E-03 0.  1.
    9900012    2    1    2    0    0 -0.35021887319E+01 -0.25416182882E+02 -0.31542339795E+02  0.50528845091E+02  0.29999955138E+02 0.  0.
         12    1    1    2    0    0  0.35021887319E+01  0.25416182882E+02  0.31542339795E+02  0.40659154909E+02  0.00000000000E+00 0. -1.
         11    1    3    3    0    0  0.46148547792E+00 -0.14004669561E+02  0.51120776211E+00  0.14021593062E+02  0.51100000000E-03 0. -1.
        -11    1    3    3    0    0 -0.52950303437E+01  0.59339529864E+00 -0.83803456036E+01  0.99307430245E+01  0.51100000000E-03 0.  1.
         12    1    3    3    0    0  0.13313561338E+01 -0.12004908619E+02 -0.23673201953E+02  0.26576509004E+02  0.00000000000E+00 0. -1.
</event>
<event>
 7    1  0.9953837E-014  0.5052886E+02  0.7816164E-02  0.1300439E+00
        -11   -1    0    0    0    0  0.00000000000E+00  0.00000000000E+00  0.45593999997E+02  0.45594000000E+02  0.51100000000E-03 0. -1.
         11   -1    0    0    0    0 -0.00000000000E+00 -0.00000000000E+00 -0.45593999997E+02  0.45594000000E+02  0.51100000000E-03 0.  1.
    9900012    2    1    2    0    0 -0.31528216795E+02  0.46815235977E+00  0.25669402621E+02  0.50528857710E+02  0.29999993494E+02 0.  0.
        -12    1    1    2    0    0  0.31528216795E+02 -0.46815235977E+00 -0.25669402621E+02  0.40659142290E+02  0.00000000000E+00 0.  1.
         11    1    3    3    0    0 -0.11131624591E+02 -0.23069180869E+01  0.22983914951E+02  0.25641670847E+02  0.51100000000E-03 0.  1.
        -11    1    3    3    0    0 -0.21271869777E+02 -0.56880229790E+00  0.24977521887E+01  0.21425562912E+02  0.51100000000E-03 0. -1.
        -12    1    3    3    0    0  0.87527757272E+00  0.33438727446E+01  0.18773548079E+00  0.34616239502E+01  0.00000000000E+00 0.  1.
</event>
<event>
 7    1  0.9953837E-014  0.5052886E+02  0.7816164E-02  0.1300439E+00
        -11   -1    0    0    0    0  0.00000000000E+00  0.00000000000E+00  0.45593999997E+02  0.45594000000E+02  0.51100000000E-03 0. -1.
         11   -1    0    0    0    0 -0.00000000000E+00 -0.00000000000E+00 -0.45593999997E+02  0.45594000000E+02  0.51100000000E-03 0.  1.
    9900012    2    1    2    0    0  0.10258566524E+02  0.38745438145E+02  0.68351037845E+01  0.50528858249E+02  0.29999995135E+02 0.  0.
        -12    1    1    2    0    0 -0.10258566524E+02 -0.38745438145E+02 -0.68351037845E+01  0.40659141751E+02  0.00000000000E+00 0.  1.
         11    1    3    3    0    0  0.87740372011E+01  0.17338647514E+01 -0.44672828400E+01  0.99973312447E+01  0.51100000000E-03 0.  1.
        -11    1    3    3    0    0  0.66109948372E+01  0.16356883193E+02  0.51541505855E+01  0.18379829951E+02  0.51100000000E-03 0. -1.
         12    1    3    3    0    0 -0.51264655147E+01  0.20654690201E+02  0.61482360390E+01  0.22151697054E+02  0.00000000000E+00 0. -1.
</event>
<event>
 7    1  0.9953837E-014  0.5052887E+02  0.7816164E-02  0.1300439E+00
        -11   -1    0    0    0    0  0.00000000000E+00  0.00000000000E+00  0.45593999997E+02  0.45594000000E+02  0.51100000000E-03 0. -1.
         11   -1    0    0    0    0 -0.00000000000E+00 -0.00000000000E+00 -0.45593999997E+02  0.45594000000E+02  0.51100000000E-03 0.  1.
    9900012    2    1    2    0    0 -0.26428124360E+02 -0.74856393525E+01  0.29978060739E+02  0.50528872127E+02  0.30000037318E+02 0.  0.
        -12    1    1    2    0    0  0.26428124360E+02  0.74856393525E+01 -0.29978060739E+02  0.40659127873E+02  0.00000000000E+00 0.  1.
         11    1    3    3    0    0 -0.18956176287E+02 -0.56354235948E+01  0.98264512505E+01  0.22082883937E+02  0.51100000000E-03 0. -1.
        -11    1    3    3    0    0  0.23463019993E+01  0.65342910514E+01  0.50949839878E+01  0.86116754881E+01  0.51100000000E-03 0.  1.
        -12    1    3    3    0    0 -0.98182500722E+01 -0.83845068091E+01  0.15056625500E+02  0.19834312702E+02  0.00000000000E+00 0.  1.
</event>
<event>
 7    1  0.9953837E-014  0.5052886E+02  0.7816164E-02  0.1300439E+00
        -11   -1    0    0    0    0  0.00000000000E+00  0.00000000000E+00  0.45593999997E+02  0.45594000000E+02  0.51100000000E-03 0. -1.
         11   -1    0    0    0    0 -0.00000000000E+00 -0.00000000000E+00 -0.45593999997E+02  0.45594000000E+02  0.51100000000E-03 0.  1.
    9900012    2    1    2    0    0  0.24374597289E+02  0.32327176485E+02 -0.37413946397E+01  0.50528863679E+02  0.30000011640E+02 0.  0.
         12    1    1    2    0    0 -0.24374597289E+02 -0.32327176485E+02  0.37413946397E+01  0.40659136321E+02  0.00000000000E+00 0. -1.
         11    1    3    3    0    0 -0.40570145435E+01 -0.32504400530E+00 -0.52513312230E+01  0.66439070197E+01  0.51100000000E-03 0. -1.
        -11    1    3    3    0    0  0.26181456436E+02  0.29282119164E+02 -0.66578401164E+00  0.39285549919E+02  0.51100000000E-03 0.  1.
         12    1    3    3    0    0  0.22501553966E+01  0.33701013263E+01  0.21757205950E+01  0.45994067406E+01  0.00000000000E+00 0. -1.
</event>
<event>
 7    1  0.9953837E-014  0.5052886E+02  0.7816164E-02  0.1300439E+00
        -11   -1    0    0    0    0  0.00000000000E+00  0.00000000000E+00  0.45593999997E+02  0.45594000000E+02  0.51100000000E-03 0. -1.
         11   -1    0    0    0    0 -0.00000000000E+00 -0.00000000000E+00 -0.45593999997E+02  0.45594000000E+02  0.51100000000E-03 0.  1.
    9900012    2    1    2    0    0  0.30597469795E+01  0.23077162100E+02  0.33335390506E+02  0.50528859302E+02  0.29999998333E+02 0.  0.
        -12    1    1    2    0    0 -0.30597469795E+01 -0.23077162100E+02 -0.33335390506E+02  0.40659140698E+02  0.00000000000E+00 0.  1.
         11    1    3    3    0    0 -0.10428756636E+02  0.74707422425E+01  0.20412921694E+02  0.24109299595E+02  0.51100000000E-03 0. -1.
        -11    1    3    3    0    0  0.24016937384E+01  0.10614246699E+02  0.59288798095E+01  0.12392819770E+02  0.51100000000E-03 0.  1.
         12    1    3    3    0    0  0.11086809877E+02  0.49921731586E+01  0.69935890023E+01  0.14026739936E+02  0.00000000000E+00 0. -1.
</event>
<event>
 7    1  0.9953837E-014  0.5052883E+02  0.7816164E-02  0.1300439E+00
        -11   -1    0    0    0    0  0.00000000000E+00  0.00000000000E+00  0.45593999997E+02  0.45594000000E+02  0.51100000000E-03 0. -1.
         11   -1    0    0    0    0 -0.00000000000E+00 -0.00000000000E+00 -0.45593999997E+02  0.45594000000E+02  0.51100000000E-03 0.  1.
    9900012    2    1    2    0    0  0.26009380468E+02 -0.11832954098E+01 -0.31229474307E+02  0.50528829745E+02  0.29999908493E+02 0.  0.
         12    1    1    2    0    0 -0.26009380468E+02  0.11832954098E+01  0.31229474307E+02  0.40659170255E+02  0.00000000000E+00 0. -1.
         11    1    3    3    0    0  0.18181197676E+02  0.15290163320E+01 -0.14466923538E+01  0.18302643495E+02  0.51100000000E-03 0. -1.
        -11    1    3    3    0    0  0.63801203763E+01  0.13184511326E+01 -0.96529607967E+01  0.11645767549E+02  0.51100000000E-03 0.  1.
         12    1    3    3    0    0  0.14480624151E+01 -0.40307628745E+01 -0.20129821156E+02  0.20580418701E+02  0.00000000000E+00 0. -1.
</event>
<event>
 7    1  0.9953837E-014  0.5052881E+02  0.7816164E-02  0.1300439E+00
        -11   -1    0    0    0    0  0.00000000000E+00  0.00000000000E+00  0.45593999997E+02  0.45594000000E+02  0.51100000000E-03 0. -1.
         11   -1    0    0    0    0 -0.00000000000E+00 -0.00000000000E+00 -0.45593999997E+02  0.45594000000E+02  0.51100000000E-03 0.  1.
    9900012    2    1    2    0    0  0.15661779650E+02  0.33220957870E+02 -0.17442669316E+02  0.50528805511E+02  0.29999834832E+02 0.  0.
         12    1    1    2    0    0 -0.15661779650E+02 -0.33220957870E+02  0.17442669316E+02  0.40659194489E+02  0.00000000000E+00 0. -1.
         11    1    3    3    0    0  0.35301058253E+01  0.58310472461E+00 -0.27649204648E+01  0.45217743968E+01  0.51100000000E-03 0. -1.
        -11    1    3    3    0    0 -0.40934180208E+01  0.55252928835E+01  0.52497699673E+01  0.86513014923E+01  0.51100000000E-03 0.  1.
        -12    1    3    3    0    0  0.16225091846E+02  0.27112560261E+02 -0.19927518819E+02  0.37355729622E+02  0.00000000000E+00 0.  1.
</event>
<event>
 7    1  0.9953837E-014  0.5052885E+02  0.7816164E-02  0.1300439E+00
        -11   -1    0    0    0    0  0.00000000000E+00  0.00000000000E+00  0.45593999997E+02  0.45594000000E+02  0.51100000000E-03 0. -1.
         11   -1    0    0    0    0 -0.00000000000E+00 -0.00000000000E+00 -0.45593999997E+02  0.45594000000E+02  0.51100000000E-03 0.  1.
    9900012    2    1    2    0    0  0.28126308044E+02  0.18285054874E+02 -0.22972453913E+02  0.50528854968E+02  0.29999985161E+02 0.  0.
         12    1    1    2    0    0 -0.28126308044E+02 -0.18285054874E+02  0.22972453913E+02  0.40659145032E+02  0.00000000000E+00 0. -1.
         11    1    3    3    0    0 -0.12903991022E+01  0.29925801481E+00 -0.36047460358E+00  0.13728173233E+01  0.51100000000E-03 0. -1.
        -11    1    3    3    0    0  0.21260776487E+02  0.33624993874E+01 -0.64428069928E+00  0.21534672434E+02  0.51100000000E-03 0.  1.
        -12    1    3    3    0    0  0.81559306586E+01  0.14623297472E+02 -0.21967698611E+02  0.27621365211E+02  0.00000000000E+00 0.  1.
</event>
<event>
 7    1  0.9953837E-014  0.5052888E+02  0.7816164E-02  0.1300439E+00
        -11   -1    0    0    0    0  0.00000000000E+00  0.00000000000E+00  0.45593999997E+02  0.45594000000E+02  0.51100000000E-03 0. -1.
         11   -1    0    0    0    0 -0.00000000000E+00 -0.00000000000E+00 -0.45593999997E+02  0.45594000000E+02  0.51100000000E-03 0.  1.
    9900012    2    1    2    0    0  0.75148636862E+01 -0.11247488581E+02 -0.38342989585E+02  0.50528880163E+02  0.30000061743E+02 0.  0.
         12    1    1    2    0    0 -0.75148636862E+01  0.11247488581E+02  0.38342989585E+02  0.40659119837E+02  0.00000000000E+00 0. -1.
         11    1    3    3    0    0  0.25522031900E+01 -0.20823978111E+02 -0.19208388456E+02  0.28444929123E+02  0.51100000000E-03 0. -1.
        -11    1    3    3    0    0  0.32957372187E+01  0.61739812643E+01 -0.14476721018E+02  0.16079657340E+02  0.51100000000E-03 0.  1.
         12    1    3    3    0    0  0.16669232775E+01  0.34025082652E+01 -0.46578801109E+01  0.60042936999E+01  0.00000000000E+00 0. -1.
</event>
<event>
 7    1  0.9953837E-014  0.5052887E+02  0.7816164E-02  0.1300439E+00
        -11   -1    0    0    0    0  0.00000000000E+00  0.00000000000E+00  0.45593999997E+02  0.45594000000E+02  0.51100000000E-03 0. -1.
         11   -1    0    0    0    0 -0.00000000000E+00 -0.00000000000E+00 -0.45593999997E+02  0.45594000000E+02  0.51100000000E-03 0.  1.
    9900012    2    1    2    0    0 -0.15601815369E+02  0.23833095528E+02 -0.29012609837E+02  0.50528872921E+02  0.30000039732E+02 0.  0.
         12    1    1    2    0    0  0.15601815369E+02 -0.23833095528E+02  0.29012609837E+02  0.40659127079E+02  0.00000000000E+00 0. -1.
         11    1    3    3    0    0  0.83594911975E+00  0.67081305873E+01 -0.18920994483E+02  0.20092333349E+02  0.51100000000E-03 0. -1.
        -11    1    3    3    0    0 -0.16763438867E+02  0.66538251230E+01 -0.81071989903E+01  0.19774047313E+02  0.51100000000E-03 0.  1.
         12    1    3    3    0    0  0.32567437796E+00  0.10471139818E+02 -0.19844163630E+01  0.10662492259E+02  0.00000000000E+00 0. -1.
</event>
<event>
 7    1  0.9953837E-014  0.5052886E+02  0.7816164E-02  0.1300439E+00
        -11   -1    0    0    0    0  0.00000000000E+00  0.00000000000E+00  0.45593999997E+02  0.45594000000E+02  0.51100000000E-03 0. -1.
         11   -1    0    0    0    0 -0.00000000000E+00 -0.00000000000E+00 -0.45593999997E+02  0.45594000000E+02  0.51100000000E-03 0.  1.
    9900012    2    1    2    0    0  0.29912961703E+02  0.23449634236E+02  0.14439357059E+02  0.50528860118E+02  0.30000000815E+02 0.  0.
        -12    1    1    2    0    0 -0.29912961703E+02 -0.23449634236E+02 -0.14439357059E+02  0.40659139882E+02  0.00000000000E+00 0.  1.
         11    1    3    3    0    0  0.13420885704E+02  0.11747350075E+02  0.26392936545E+01  0.18030149143E+02  0.51100000000E-03 0. -1.
        -11    1    3    3    0    0 -0.50007712627E+01  0.49655033974E+01 -0.50681332564E-01  0.70474467767E+01  0.51100000000E-03 0.  1.
        -12    1    3    3    0    0  0.21492847261E+02  0.67367807642E+01  0.11850744737E+02  0.25451264198E+02  0.00000000000E+00 0.  1.
</event>
<event>
 7    1  0.9953837E-014  0.5052885E+02  0.7816164E-02  0.1300439E+00
        -11   -1    0    0    0    0  0.00000000000E+00  0.00000000000E+00  0.45593999997E+02  0.45594000000E+02  0.51100000000E-03 0. -1.
         11   -1    0    0    0    0 -0.00000000000E+00 -0.00000000000E+00 -0.45593999997E+02  0.45594000000E+02  0.51100000000E-03 0.  1.
    9900012    2    1    2    0    0  0.72177743351E+01 -0.10848703825E+02 -0.38514613484E+02  0.50528854745E+02  0.29999984484E+02 0.  0.
         12    1    1    2    0    0 -0.72177743351E+01  0.10848703825E+02  0.38514613484E+02  0.40659145255E+02  0.00000000000E+00 0. -1.
         11    1    3    3    0    0 -0.31242847753E+01 -0.10149341284E+02 -0.14348988646E+02  0.17851155685E+02  0.51100000000E-03 0. -1.
        -11    1    3    3    0    0  0.72895956906E+01  0.90968247439E+01 -0.14225665019E+02  0.18391845238E+02  0.51100000000E-03 0.  1.
         12    1    3    3    0    0  0.30524634198E+01 -0.97961872850E+01 -0.99399598185E+01  0.14285853823E+02  0.00000000000E+00 0. -1.
</event>
<event>
 7    1  0.9953837E-014  0.5052886E+02  0.7816164E-02  0.1300439E+00
        -11   -1    0    0    0    0  0.00000000000E+00  0.00000000000E+00  0.45593999997E+02  0.45594000000E+02  0.51100000000E-03 0. -1.
         11   -1    0    0    0    0 -0.00000000000E+00 -0.00000000000E+00 -0.45593999997E+02  0.45594000000E+02  0.51100000000E-03 0.  1.
    9900012    2    1    2    0    0  0.38686062967E+02  0.73571384659E+00 -0.12490500610E+02  0.50528863902E+02  0.30000012316E+02 0.  0.
         12    1    1    2    0    0 -0.38686062967E+02 -0.73571384659E+00  0.12490500610E+02  0.40659136098E+02  0.00000000000E+00 0. -1.
         11    1    3    3    0    0  0.21300835661E+01 -0.79739413062E+00  0.42906848645E+01  0.48562403427E+01  0.51100000000E-03 0. -1.
        -11    1    3    3    0    0  0.28563908965E+02 -0.65767024092E+01 -0.58513305577E+01  0.29889596509E+02  0.51100000000E-03 0.  1.
        -12    1    3    3    0    0  0.79920704361E+01  0.81098103864E+01 -0.10929854916E+02  0.15783027050E+02  0.00000000000E+00 0.  1.
</event>
<event>
 7    1  0.9953837E-014  0.5052878E+02  0.7816164E-02  0.1300439E+00
        -11   -1    0    0    0    0  0.00000000000E+00  0.00000000000E+00  0.45593999997E+02  0.45594000000E+02  0.51100000000E-03 0. -1.
         11   -1    0    0    0    0 -0.00000000000E+00 -0.00000000000E+00 -0.45593999997E+02  0.45594000000E+02  0.51100000000E-03 0.  1.
    9900012    2    1    2    0    0  0.32647979403E+02 -0.60441801050E+01  0.23468049779E+02  0.50528781701E+02  0.29999762456E+02 0.  0.
        -12    1    1    2    0    0 -0.32647979403E+02  0.60441801050E+01 -0.23468049779E+02  0.40659218299E+02  0.00000000000E+00 0.  1.
         11    1    3    3    0    0  0.17194566028E+02 -0.15435154509E+00  0.21612693846E+00  0.17196617004E+02  0.51100000000E-03 0. -1.
        -11    1    3    3    0    0  0.16566341898E+02 -0.95070815072E+01  0.22427531452E+02  0.29458826351E+02  0.51100000000E-03 0.  1.
        -12    1    3    3    0    0 -0.11129285219E+01  0.36172529473E+01  0.82439138894E+00  0.38733383459E+01  0.00000000000E+00 0.  1.
</event>
<event>
 7    1  0.9953837E-014  0.5052885E+02  0.7816164E-02  0.1300439E+00
        -11   -1    0    0    0    0  0.00000000000E+00  0.00000000000E+00  0.45593999997E+02  0.45594000000E+02  0.51100000000E-03 0. -1.
         11   -1    0    0    0    0 -0.00000000000E+00 -0.00000000000E+00 -0.45593999997E+02  0.45594000000E+02  0.51100000000E-03 0.  1.
    9900012    2    1    2    0    0  0.84701533266E+01 -0.26434462726E+02 -0.29709291693E+02  0.50528851830E+02  0.29999975622E+02 0.  0.
         12    1    1    2    0    0 -0.84701533266E+01  0.26434462726E+02  0.29709291693E+02  0.40659148170E+02  0.00000000000E+00 0. -1.
         11    1    3    3    0    0  0.15973657036E+02 -0.12858248201E+02 -0.83250031064E+01  0.22131379146E+02  0.51100000000E-03 0. -1.
        -11    1    3    3    0    0 -0.87290566745E+00 -0.69836484759E+01 -0.16299519486E+02  0.17754088151E+02  0.51100000000E-03 0.  1.
         12    1    3    3    0    0 -0.66305980422E+01 -0.65925660490E+01 -0.50847691011E+01  0.10643384533E+02  0.00000000000E+00 0. -1.
</event>
<event>
 7    1  0.9953837E-014  0.5052886E+02  0.7816164E-02  0.1300439E+00
        -11   -1    0    0    0    0  0.00000000000E+00  0.00000000000E+00  0.45593999997E+02  0.45594000000E+02  0.51100000000E-03 0. -1.
         11   -1    0    0    0    0 -0.00000000000E+00 -0.00000000000E+00 -0.45593999997E+02  0.45594000000E+02  0.51100000000E-03 0.  1.
    9900012    2    1    2    0    0  0.13462498643E+02  0.34480329413E+02 -0.16823610523E+02  0.50528857644E+02  0.29999993294E+02 0.  0.
         12    1    1    2    0    0 -0.13462498643E+02 -0.34480329413E+02  0.16823610523E+02  0.40659142356E+02  0.00000000000E+00 0. -1.
         11    1    3    3    0    0  0.94500028913E+01 -0.10986339056E+00 -0.70377411860E+01  0.11783226463E+02  0.51100000000E-03 0. -1.
        -11    1    3    3    0    0 -0.49643331175E+01  0.15977926977E+02 -0.57453474305E+01  0.17690329877E+02  0.51100000000E-03 0.  1.
         12    1    3    3    0    0  0.89768288695E+01  0.18612265826E+02 -0.40405219061E+01  0.21055301304E+02  0.00000000000E+00 0. -1.
</event>
<event>
 7    1  0.9953837E-014  0.5052886E+02  0.7816164E-02  0.1300439E+00
        -11   -1    0    0    0    0  0.00000000000E+00  0.00000000000E+00  0.45593999997E+02  0.45594000000E+02  0.51100000000E-03 0. -1.
         11   -1    0    0    0    0 -0.00000000000E+00 -0.00000000000E+00 -0.45593999997E+02  0.45594000000E+02  0.51100000000E-03 0.  1.
    9900012    2    1    2    0    0  0.38093471629E+02  0.85215572400E+01 -0.11377010070E+02  0.50528857404E+02  0.29999992565E+02 0.  0.
         12    1    1    2    0    0 -0.38093471629E+02 -0.85215572400E+01  0.11377010070E+02  0.40659142596E+02  0.00000000000E+00 0. -1.
         11    1    3    3    0    0  0.51152845549E+01  0.60537699914E+01  0.48560509786E+01  0.92949178885E+01  0.51100000000E-03 0. -1.
        -11    1    3    3    0    0  0.18975983540E+02  0.93797377715E+01 -0.14194187641E+02  0.25486121616E+02  0.51100000000E-03 0.  1.
        -12    1    3    3    0    0  0.14002203534E+02 -0.69119505229E+01 -0.20388734079E+01  0.15747817900E+02  0.00000000000E+00 0.  1.
</event>
<event>
 7    1  0.9953837E-014  0.5052886E+02  0.7816164E-02  0.1300439E+00
        -11   -1    0    0    0    0  0.00000000000E+00  0.00000000000E+00  0.45593999997E+02  0.45594000000E+02  0.51100000000E-03 0. -1.
         11   -1    0    0    0    0 -0.00000000000E+00 -0.00000000000E+00 -0.45593999997E+02  0.45594000000E+02  0.51100000000E-03 0.  1.
    9900012    2    1    2    0    0  0.19835812869E+02 -0.19411355496E+02  0.29713731604E+02  0.50528855392E+02  0.29999986450E+02 0.  0.
        -12    1    1    2    0    0 -0.19835812869E+02  0.19411355496E+02 -0.29713731604E+02  0.40659144608E+02  0.00000000000E+00 0.  1.
         11    1    3    3    0    0  0.18831746086E+02 -0.73403037737E+01  0.17113521173E+02  0.26483718155E+02  0.51100000000E-03 0. -1.
        -11    1    3    3    0    0 -0.31682345564E+01 -0.10216204409E+02  0.15354433972E+02  0.18712754623E+02  0.51100000000E-03 0.  1.
        -12    1    3    3    0    0  0.41723013400E+01 -0.18548473139E+01 -0.27542235403E+01  0.53323826137E+01  0.00000000000E+00 0.  1.
</event>
<event>
 7    1  0.9953837E-014  0.5052886E+02  0.7816164E-02  0.1300439E+00
        -11   -1    0    0    0    0  0.00000000000E+00  0.00000000000E+00  0.45593999997E+02  0.45594000000E+02  0.51100000000E-03 0.  1.
         11   -1    0    0    0    0 -0.00000000000E+00 -0.00000000000E+00 -0.45593999997E+02  0.45594000000E+02  0.51100000000E-03 0. -1.
    9900012    2    1    2    0    0 -0.15544191171E+02 -0.33770104957E+02 -0.16465835071E+02  0.50528860898E+02  0.30000003185E+02 0.  0.
         12    1    1    2    0    0  0.15544191171E+02  0.33770104957E+02  0.16465835071E+02  0.40659139102E+02  0.00000000000E+00 0. -1.
         11    1    3    3    0    0 -0.73514760980E+01 -0.24473979746E+02 -0.21150111220E+02  0.33171480074E+02  0.51100000000E-03 0. -1.
        -11    1    3    3    0    0 -0.49066610708E+01 -0.11654036052E+02  0.31467280434E+01  0.13030494112E+02  0.51100000000E-03 0.  1.
         12    1    3    3    0    0 -0.32860540021E+01  0.23579108411E+01  0.15375481055E+01  0.43268867117E+01  0.00000000000E+00 0. -1.
</event>
<event>
 7    1  0.9953837E-014  0.5052886E+02  0.7816164E-02  0.1300439E+00
        -11   -1    0    0    0    0  0.00000000000E+00  0.00000000000E+00  0.45593999997E+02  0.45594000000E+02  0.51100000000E-03 0. -1.
         11   -1    0    0    0    0 -0.00000000000E+00 -0.00000000000E+00 -0.45593999997E+02  0.45594000000E+02  0.51100000000E-03 0.  1.
    9900012    2    1    2    0    0 -0.10226279098E+02 -0.37043045846E+02  0.13281635587E+02  0.50528857441E+02  0.29999992679E+02 0.  0.
        -12    1    1    2    0    0  0.10226279098E+02  0.37043045846E+02 -0.13281635587E+02  0.40659142559E+02  0.00000000000E+00 0.  1.
         11    1    3    3    0    0 -0.24622110234E+01 -0.15327925868E+02  0.76717668650E+01  0.17316575921E+02  0.51100000000E-03 0. -1.
        -11    1    3    3    0    0 -0.70894549669E+01  0.19767118373E+01 -0.30658523285E+01  0.79729048769E+01  0.51100000000E-03 0.  1.
        -12    1    3    3    0    0 -0.67461310736E+00 -0.23691831815E+02  0.86757210505E+01  0.25239376644E+02  0.00000000000E+00 0.  1.
</event>
<event>
 7    1  0.9953837E-014  0.5052888E+02  0.7816164E-02  0.1300439E+00
        -11   -1    0    0    0    0  0.00000000000E+00  0.00000000000E+00  0.45593999997E+02  0.45594000000E+02  0.51100000000E-03 0. -1.
         11   -1    0    0    0    0 -0.00000000000E+00 -0.00000000000E+00 -0.45593999997E+02  0.45594000000E+02  0.51100000000E-03 0.  1.
    9900012    2    1    2    0    0 -0.82745304723E+01  0.27198449648E+02 -0.29067865875E+02  0.50528876248E+02  0.30000049844E+02 0.  0.
         12    1    1    2    0    0  0.82745304723E+01 -0.27198449648E+02  0.29067865875E+02  0.40659123752E+02  0.00000000000E+00 0. -1.
         11    1    3    3    0    0  0.10961951967E+01  0.18263461507E+02 -0.15366414672E+02  0.23893144838E+02  0.51100000000E-03 0.  1.
        -11    1    3    3    0    0 -0.51790070469E+01 -0.40049566897E+01  0.98222370534E+00  0.66201628188E+01  0.51100000000E-03 0. -1.
         12    1    3    3    0    0 -0.41917186221E+01  0.12939944830E+02 -0.14683674908E+02  0.20015568591E+02  0.00000000000E+00 0. -1.
</event>
<event>
 7    1  0.9953837E-014  0.5052886E+02  0.7816164E-02  0.1300439E+00
        -11   -1    0    0    0    0  0.00000000000E+00  0.00000000000E+00  0.45593999997E+02  0.45594000000E+02  0.51100000000E-03 0. -1.
         11   -1    0    0    0    0 -0.00000000000E+00 -0.00000000000E+00 -0.45593999997E+02  0.45594000000E+02  0.51100000000E-03 0.  1.
    9900012    2    1    2    0    0  0.46403184916E+01 -0.27170915549E+01 -0.40301990876E+02  0.50528860674E+02  0.30000002504E+02 0.  0.
         12    1    1    2    0    0 -0.46403184916E+01  0.27170915549E+01  0.40301990876E+02  0.40659139326E+02  0.00000000000E+00 0. -1.
         11    1    3    3    0    0 -0.94694804116E+01 -0.11448995030E+01 -0.17733296439E+02  0.20135830179E+02  0.51100000000E-03 0.  1.
        -11    1    3    3    0    0  0.73081791437E+01 -0.81076291074E+01 -0.12549146520E+02  0.16632023653E+02  0.51100000000E-03 0. -1.
         12    1    3    3    0    0  0.68016197595E+01  0.65354370555E+01 -0.10019547917E+02  0.13761006842E+02  0.00000000000E+00 0. -1.
</event>
<event>
 7    1  0.9953837E-014  0.5052883E+02  0.7816164E-02  0.1300439E+00
        -11   -1    0    0    0    0  0.00000000000E+00  0.00000000000E+00  0.45593999997E+02  0.45594000000E+02  0.51100000000E-03 0. -1.
         11   -1    0    0    0    0 -0.00000000000E+00 -0.00000000000E+00 -0.45593999997E+02  0.45594000000E+02  0.51100000000E-03 0.  1.
    9900012    2    1    2    0    0 -0.36351484743E+02  0.13476668879E+02 -0.12252211255E+02  0.50528834641E+02  0.29999923373E+02 0.  0.
         12    1    1    2    0    0  0.36351484743E+02 -0.13476668879E+02  0.12252211255E+02  0.40659165359E+02  0.00000000000E+00 0. -1.
         11    1    3    3    0    0 -0.10015301548E+02  0.36947630198E+01  0.23708855605E+01  0.10935201758E+02  0.51100000000E-03 0. -1.
        -11    1    3    3    0    0 -0.24577152610E+01  0.18343826827E+01 -0.14091837526E+02  0.14421692316E+02  0.51100000000E-03 0.  1.
        -12    1    3    3    0    0 -0.23878467934E+02  0.79475231766E+01 -0.53125928931E+00  0.25171940567E+02  0.00000000000E+00 0.  1.
</event>
<event>
 7    1  0.9953837E-014  0.5052886E+02  0.7816164E-02  0.1300439E+00
        -11   -1    0    0    0    0  0.00000000000E+00  0.00000000000E+00  0.45593999997E+02  0.45594000000E+02  0.51100000000E-03 0. -1.
         11   -1    0    0    0    0 -0.00000000000E+00 -0.00000000000E+00 -0.45593999997E+02  0.45594000000E+02  0.51100000000E-03 0.  1.
    9900012    2    1    2    0    0  0.21248894230E+02  0.16326117797E+02 -0.30579537765E+02  0.50528858860E+02  0.29999996991E+02 0.  0.
         12    1    1    2    0    0 -0.21248894230E+02 -0.16326117797E+02  0.30579537765E+02  0.40659141140E+02  0.00000000000E+00 0. -1.
         11    1    3    3    0    0  0.22598982783E+02  0.17378323466E+02 -0.31246116330E+02  0.42297044049E+02  0.51100000000E-03 0. -1.
        -11    1    3    3    0    0 -0.39721436145E+01  0.13459172006E+01 -0.99316387166E+00  0.43099643551E+01  0.51100000000E-03 0.  1.
         12    1    3    3    0    0  0.26220550614E+01 -0.23981228696E+01  0.16597424366E+01  0.39218504559E+01  0.00000000000E+00 0. -1.
</event>
<event>
 7    1  0.9953837E-014  0.5052886E+02  0.7816164E-02  0.1300439E+00
        -11   -1    0    0    0    0  0.00000000000E+00  0.00000000000E+00  0.45593999997E+02  0.45594000000E+02  0.51100000000E-03 0. -1.
         11   -1    0    0    0    0 -0.00000000000E+00 -0.00000000000E+00 -0.45593999997E+02  0.45594000000E+02  0.51100000000E-03 0.  1.
    9900012    2    1    2    0    0 -0.17414776871E+02 -0.15128510908E+02 -0.33481628829E+02  0.50528858780E+02  0.29999996746E+02 0.  0.
         12    1    1    2    0    0  0.17414776871E+02  0.15128510908E+02  0.33481628829E+02  0.40659141220E+02  0.00000000000E+00 0. -1.
         11    1    3    3    0    0 -0.93531228595E+01 -0.64681646111E+01 -0.11212010651E+01  0.11426948532E+02  0.51100000000E-03 0. -1.
        -11    1    3    3    0    0  0.53210032259E+01  0.22248263791E+00 -0.12298542954E+02  0.13402116732E+02  0.51100000000E-03 0.  1.
         12    1    3    3    0    0 -0.13382657238E+02 -0.88828289347E+01 -0.20061884810E+02  0.25699793515E+02  0.00000000000E+00 0. -1.
</event>
<event>
 7    1  0.9953837E-014  0.5052886E+02  0.7816164E-02  0.1300439E+00
        -11   -1    0    0    0    0  0.00000000000E+00  0.00000000000E+00  0.45593999997E+02  0.45594000000E+02  0.51100000000E-03 0. -1.
         11   -1    0    0    0    0 -0.00000000000E+00 -0.00000000000E+00 -0.45593999997E+02  0.45594000000E+02  0.51100000000E-03 0.  1.
    9900012    2    1    2    0    0  0.29001861162E+02  0.10327378892E+02 -0.26559421677E+02  0.50528860985E+02  0.30000003449E+02 0.  0.
         12    1    1    2    0    0 -0.29001861162E+02 -0.10327378892E+02  0.26559421677E+02  0.40659139015E+02  0.00000000000E+00 0. -1.
         11    1    3    3    0    0  0.26975264413E+01 -0.99625987317E+00 -0.92681387071E+00  0.30212856284E+01  0.51100000000E-03 0. -1.
        -11    1    3    3    0    0  0.26288142282E+01 -0.84715495010E+01 -0.35222007195E+01  0.95437787780E+01  0.51100000000E-03 0.  1.
        -12    1    3    3    0    0  0.23675520493E+02  0.19795188266E+02 -0.22110407087E+02  0.37963796578E+02  0.00000000000E+00 0.  1.
</event>
<event>
 7    1  0.9953837E-014  0.5052886E+02  0.7816164E-02  0.1300439E+00
        -11   -1    0    0    0    0  0.00000000000E+00  0.00000000000E+00  0.45593999997E+02  0.45594000000E+02  0.51100000000E-03 0. -1.
         11   -1    0    0    0    0 -0.00000000000E+00 -0.00000000000E+00 -0.45593999997E+02  0.45594000000E+02  0.51100000000E-03 0.  1.
    9900012    2    1    2    0    0 -0.37083400344E+02  0.46312131517E+01 -0.16016828793E+02  0.50528861779E+02  0.30000005863E+02 0.  0.
         12    1    1    2    0    0  0.37083400344E+02 -0.46312131517E+01  0.16016828793E+02  0.40659138221E+02  0.00000000000E+00 0. -1.
         11    1    3    3    0    0  0.31063337463E+01 -0.11771549699E+01 -0.18173801140E+00  0.33268652111E+01  0.51100000000E-03 0. -1.
        -11    1    3    3    0    0 -0.26167364500E+02  0.11553309203E+02 -0.62743055972E+01  0.29284412738E+02  0.51100000000E-03 0.  1.
        -12    1    3    3    0    0 -0.14022369590E+02 -0.57449410817E+01 -0.95607851843E+01  0.17917583830E+02  0.00000000000E+00 0.  1.
</event>
<event>
 7    1  0.9953837E-014  0.5052887E+02  0.7816164E-02  0.1300439E+00
        -11   -1    0    0    0    0  0.00000000000E+00  0.00000000000E+00  0.45593999997E+02  0.45594000000E+02  0.51100000000E-03 0.  1.
         11   -1    0    0    0    0 -0.00000000000E+00 -0.00000000000E+00 -0.45593999997E+02  0.45594000000E+02  0.51100000000E-03 0. -1.
    9900012    2    1    2    0    0  0.19346348842E+02  0.25813258609E+02  0.24749942238E+02  0.50528866041E+02  0.30000018818E+02 0.  0.
        -12    1    1    2    0    0 -0.19346348842E+02 -0.25813258609E+02 -0.24749942238E+02  0.40659133959E+02  0.00000000000E+00 0.  1.
         11    1    3    3    0    0  0.22564488407E+02  0.21057322070E+02  0.23551719865E+02  0.38823323643E+02  0.51100000000E-03 0. -1.
        -11    1    3    3    0    0 -0.53457147759E+01  0.65670147587E+01 -0.41745073264E+00  0.84780077071E+01  0.51100000000E-03 0.  1.
         12    1    3    3    0    0  0.21275752103E+01 -0.18110782202E+01  0.16156731063E+01  0.32275346910E+01  0.00000000000E+00 0. -1.
</event>
<event>
 7    1  0.9953837E-014  0.5052887E+02  0.7816164E-02  0.1300439E+00
        -11   -1    0    0    0    0  0.00000000000E+00  0.00000000000E+00  0.45593999997E+02  0.45594000000E+02  0.51100000000E-03 0. -1.
         11   -1    0    0    0    0 -0.00000000000E+00 -0.00000000000E+00 -0.45593999997E+02  0.45594000000E+02  0.51100000000E-03 0.  1.
    9900012    2    1    2    0    0 -0.13621973314E+00 -0.22019783643E+02  0.34180049114E+02  0.50528865910E+02  0.30000018421E+02 0.  0.
        -12    1    1    2    0    0  0.13621973314E+00  0.22019783643E+02 -0.34180049114E+02  0.40659134090E+02  0.00000000000E+00 0.  1.
         11    1    3    3    0    0  0.17898863972E+01 -0.27000164574E+02  0.27849424042E+02  0.38830439092E+02  0.51100000000E-03 0. -1.
        -11    1    3    3    0    0 -0.37775718918E+01  0.29703867194E+01  0.26055932202E-02  0.48055440598E+01  0.51100000000E-03 0.  1.
         12    1    3    3    0    0  0.18514657615E+01  0.20099942122E+01  0.63280194787E+01  0.68928827585E+01  0.00000000000E+00 0. -1.
</event>
<event>
 7    1  0.9953837E-014  0.5052886E+02  0.7816164E-02  0.1300439E+00
        -11   -1    0    0    0    0  0.00000000000E+00  0.00000000000E+00  0.45593999997E+02  0.45594000000E+02  0.51100000000E-03 0. -1.
         11   -1    0    0    0    0 -0.00000000000E+00 -0.00000000000E+00 -0.45593999997E+02  0.45594000000E+02  0.51100000000E-03 0.  1.
    9900012    2    1    2    0    0 -0.54677274783E+01  0.27557904851E+02  0.29391006710E+02  0.50528862786E+02  0.30000008924E+02 0.  0.
        -12    1    1    2    0    0  0.54677274783E+01 -0.27557904851E+02 -0.29391006710E+02  0.40659137214E+02  0.00000000000E+00 0.  1.
         11    1    3    3    0    0  0.53918516580E+01  0.11906094900E+02  0.46583068280E+01  0.13875409285E+02  0.51100000000E-03 0. -1.
        -11    1    3    3    0    0 -0.92053392974E+01 -0.60098855523E+00  0.15080727232E+02  0.17678455615E+02  0.51100000000E-03 0.  1.
         12    1    3    3    0    0 -0.16542398389E+01  0.16252798506E+02  0.96519726502E+01  0.18974997885E+02  0.00000000000E+00 0. -1.
</event>
<event>
 7    1  0.9953837E-014  0.5052889E+02  0.7816164E-02  0.1300439E+00
        -11   -1    0    0    0    0  0.00000000000E+00  0.00000000000E+00  0.45593999997E+02  0.45594000000E+02  0.51100000000E-03 0. -1.
         11   -1    0    0    0    0 -0.00000000000E+00 -0.00000000000E+00 -0.45593999997E+02  0.45594000000E+02  0.51100000000E-03 0.  1.
    9900012    2    1    2    0    0 -0.90093744038E+01  0.36285275285E+02 -0.15980401422E+02  0.50528889591E+02  0.30000090401E+02 0.  0.
         12    1    1    2    0    0  0.90093744038E+01 -0.36285275285E+02  0.15980401422E+02  0.40659110409E+02  0.00000000000E+00 0. -1.
         11    1    3    3    0    0 -0.13596776540E+01  0.33976957072E+01  0.66033104342E+01  0.75496204138E+01  0.51100000000E-03 0. -1.
        -11    1    3    3    0    0 -0.10980354490E+02  0.28864830092E+02 -0.16688706043E+02  0.35103554103E+02  0.51100000000E-03 0.  1.
        -12    1    3    3    0    0  0.33306577406E+01  0.40227494852E+01 -0.58950058129E+01  0.78757150749E+01  0.00000000000E+00 0.  1.
</event>
<event>
 7    1  0.9953837E-014  0.5052886E+02  0.7816164E-02  0.1300439E+00
        -11   -1    0    0    0    0  0.00000000000E+00  0.00000000000E+00  0.45593999997E+02  0.45594000000E+02  0.51100000000E-03 0. -1.
         11   -1    0    0    0    0 -0.00000000000E+00 -0.00000000000E+00 -0.45593999997E+02  0.45594000000E+02  0.51100000000E-03 0.  1.
    9900012    2    1    2    0    0  0.43590251775E+01  0.42423987635E+01 -0.40201579572E+02  0.50528855299E+02  0.29999986165E+02 0.  0.
         12    1    1    2    0    0 -0.43590251775E+01 -0.42423987635E+01  0.40201579572E+02  0.40659144701E+02  0.00000000000E+00 0. -1.
         11    1    3    3    0    0  0.63088802193E+01  0.81556172380E+01 -0.10173438109E+02  0.14484988967E+02  0.51100000000E-03 0. -1.
        -11    1    3    3    0    0 -0.72508488108E+01  0.27638090536E+01 -0.24931442158E+02  0.26111113674E+02  0.51100000000E-03 0.  1.
        -12    1    3    3    0    0  0.53009937690E+01 -0.66770275282E+01 -0.50966993052E+01  0.99327526577E+01  0.00000000000E+00 0.  1.
</event>
<event>
 7    1  0.1202473E-013  0.5052887E+02  0.7816164E-02  0.1300439E+00
        -11   -1    0    0    0    0  0.00000000000E+00  0.00000000000E+00  0.45593999997E+02  0.45594000000E+02  0.51100000000E-03 0. -1.
         11   -1    0    0    0    0 -0.00000000000E+00 -0.00000000000E+00 -0.45593999997E+02  0.45594000000E+02  0.51100000000E-03 0.  1.
    9900012    2    1    2    0    0 -0.15240942187E+02 -0.27962283136E+02  0.25278238282E+02  0.50528869075E+02  0.30000028041E+02 0.  0.
        -12    1    1    2    0    0  0.15240942187E+02  0.27962283136E+02 -0.25278238282E+02  0.40659130925E+02  0.00000000000E+00 0.  1.
         11    1    3    3    0    0 -0.17993911791E+01 -0.23862806900E+02  0.21178779228E+02  0.31956408616E+02  0.51100000000E-03 0. -1.
        -11    1    3    3    0    0 -0.20042862405E+01 -0.15259736543E+01 -0.37113307144E+01  0.44855027433E+01  0.51100000000E-03 0.  1.
         12    1    3    3    0    0 -0.11437264767E+02 -0.25735025816E+01  0.78107897684E+01  0.14086957716E+02  0.00000000000E+00 0. -1.
</event>
<event>
 7    1  0.9953837E-014  0.5052894E+02  0.7816164E-02  0.1300439E+00
        -11   -1    0    0    0    0  0.00000000000E+00  0.00000000000E+00  0.45593999997E+02  0.45594000000E+02  0.51100000000E-03 0. -1.
         11   -1    0    0    0    0 -0.00000000000E+00 -0.00000000000E+00 -0.45593999997E+02  0.45594000000E+02  0.51100000000E-03 0.  1.
    9900012    2    1    2    0    0  0.35734286972E+02  0.17953020344E+02  0.73422869079E+01  0.50528937272E+02  0.30000235331E+02 0.  0.
        -12    1    1    2    0    0 -0.35734286972E+02 -0.17953020344E+02 -0.73422869079E+01  0.40659062728E+02  0.00000000000E+00 0.  1.
         11    1    3    3    0    0 -0.14096153734E+01  0.34574618300E+01  0.26178735008E+01  0.45600789175E+01  0.51100000000E-03 0.  1.
        -11    1    3    3    0    0  0.25908381615E+02  0.20336213185E+02  0.18776589998E+01  0.32989868265E+02  0.51100000000E-03 0. -1.
        -12    1    3    3    0    0  0.11235520731E+02 -0.58406546707E+01  0.28467544074E+01  0.12978990089E+02  0.00000000000E+00 0.  1.
</event>
<event>
 7    1  0.9953837E-014  0.5052886E+02  0.7816164E-02  0.1300439E+00
        -11   -1    0    0    0    0  0.00000000000E+00  0.00000000000E+00  0.45593999997E+02  0.45594000000E+02  0.51100000000E-03 0. -1.
         11   -1    0    0    0    0 -0.00000000000E+00 -0.00000000000E+00 -0.45593999997E+02  0.45594000000E+02  0.51100000000E-03 0.  1.
    9900012    2    1    2    0    0 -0.59660977684E+01  0.19805462813E+02  0.35004499103E+02  0.50528860347E+02  0.30000001512E+02 0.  0.
        -12    1    1    2    0    0  0.59660977684E+01 -0.19805462813E+02 -0.35004499103E+02  0.40659139653E+02  0.00000000000E+00 0.  1.
         11    1    3    3    0    0  0.63198338729E+01  0.97462665899E+01  0.27313540846E+02  0.29680962357E+02  0.51100000000E-03 0. -1.
        -11    1    3    3    0    0 -0.25656563356E+01 -0.23499170167E+01  0.23758037843E+01  0.42129735698E+01  0.51100000000E-03 0.  1.
         12    1    3    3    0    0 -0.97202753058E+01  0.12409113239E+02  0.53151544730E+01  0.16634924421E+02  0.00000000000E+00 0. -1.
</event>
<event>
 7    1  0.9953837E-014  0.5052888E+02  0.7816164E-02  0.1300439E+00
        -11   -1    0    0    0    0  0.00000000000E+00  0.00000000000E+00  0.45593999997E+02  0.45594000000E+02  0.51100000000E-03 0. -1.
         11   -1    0    0    0    0 -0.00000000000E+00 -0.00000000000E+00 -0.45593999997E+02  0.45594000000E+02  0.51100000000E-03 0.  1.
    9900012    2    1    2    0    0 -0.13658513971E+01 -0.25846235357E+02  0.31357146472E+02  0.50528879657E+02  0.30000060205E+02 0.  0.
        -12    1    1    2    0    0  0.13658513971E+01  0.25846235357E+02 -0.31357146472E+02  0.40659120343E+02  0.00000000000E+00 0.  1.
         11    1    3    3    0    0 -0.97496143056E+01 -0.95676368401E+01  0.93108779059E+01  0.16531397444E+02  0.51100000000E-03 0. -1.
        -11    1    3    3    0    0  0.12142871216E+02 -0.13336697134E+02  0.22898158316E+02  0.29148627177E+02  0.51100000000E-03 0.  1.
        -12    1    3    3    0    0 -0.37591083071E+01 -0.29419013833E+01 -0.85188974938E+00  0.48488550358E+01  0.00000000000E+00 0.  1.
</event>
<event>
 7    1  0.9953837E-014  0.5052887E+02  0.7816164E-02  0.1300439E+00
        -11   -1    0    0    0    0  0.00000000000E+00  0.00000000000E+00  0.45593999997E+02  0.45594000000E+02  0.51100000000E-03 0. -1.
         11   -1    0    0    0    0 -0.00000000000E+00 -0.00000000000E+00 -0.45593999997E+02  0.45594000000E+02  0.51100000000E-03 0.  1.
    9900012    2    1    2    0    0  0.38788905095E+02 -0.23281666674E+01 -0.11965182330E+02  0.50528866873E+02  0.30000021347E+02 0.  0.
        -12    1    1    2    0    0 -0.38788905095E+02  0.23281666674E+01  0.11965182330E+02  0.40659133127E+02  0.00000000000E+00 0.  1.
         11    1    3    3    0    0  0.21236469702E+02 -0.63723079607E+01 -0.13582918688E+01  0.22213484895E+02  0.51100000000E-03 0. -1.
        -11    1    3    3    0    0 -0.58348658572E+00  0.76359543376E+01 -0.19599935108E+01  0.79050509211E+01  0.51100000000E-03 0.  1.
         12    1    3    3    0    0  0.18135921979E+02 -0.35918130444E+01 -0.86468969502E+01  0.20410331056E+02  0.00000000000E+00 0. -1.
</event>
<event>
 7    1  0.9953837E-014  0.5052886E+02  0.7816164E-02  0.1300439E+00
        -11   -1    0    0    0    0  0.00000000000E+00  0.00000000000E+00  0.45593999997E+02  0.45594000000E+02  0.51100000000E-03 0. -1.
         11   -1    0    0    0    0 -0.00000000000E+00 -0.00000000000E+00 -0.45593999997E+02  0.45594000000E+02  0.51100000000E-03 0.  1.
    9900012    2    1    2    0    0 -0.93516839238E+01 -0.16891852094E+02  0.35782356549E+02  0.50528859582E+02  0.29999999184E+02 0.  0.
        -12    1    1    2    0    0  0.93516839238E+01  0.16891852094E+02 -0.35782356549E+02  0.40659140418E+02  0.00000000000E+00 0.  1.
         11    1    3    3    0    0 -0.47760117723E+01 -0.66401925851E+01  0.45194776893E+01  0.93449518384E+01  0.51100000000E-03 0. -1.
        -11    1    3    3    0    0 -0.65998131832E+01  0.63350880640E+01  0.16595342601E+02  0.18949835650E+02  0.51100000000E-03 0.  1.
        -12    1    3    3    0    0  0.20241410318E+01 -0.16586747573E+02  0.14667536258E+02  0.22234072094E+02  0.00000000000E+00 0.  1.
</event>
<event>
 7    1  0.9953837E-014  0.5052886E+02  0.7816164E-02  0.1300439E+00
        -11   -1    0    0    0    0  0.00000000000E+00  0.00000000000E+00  0.45593999997E+02  0.45594000000E+02  0.51100000000E-03 0. -1.
         11   -1    0    0    0    0 -0.00000000000E+00 -0.00000000000E+00 -0.45593999997E+02  0.45594000000E+02  0.51100000000E-03 0.  1.
    9900012    2    1    2    0    0 -0.32462523422E+01  0.40272604136E+02 -0.45546699573E+01  0.50528858142E+02  0.29999994809E+02 0.  0.
         12    1    1    2    0    0  0.32462523422E+01 -0.40272604136E+02  0.45546699573E+01  0.40659141858E+02  0.00000000000E+00 0. -1.
         11    1    3    3    0    0  0.58337929900E+01  0.63808679260E+01  0.36667635624E+01  0.93911538920E+01  0.51100000000E-03 0. -1.
        -11    1    3    3    0    0 -0.11308406274E+02  0.18447460719E+02  0.31006173458E+01  0.21858698214E+02  0.51100000000E-03 0.  1.
        -12    1    3    3    0    0  0.22283609416E+01  0.15444275492E+02 -0.11322050866E+02  0.19279006036E+02  0.00000000000E+00 0.  1.
</event>
<event>
 7    1  0.1477266E-013  0.5052886E+02  0.7816164E-02  0.1300439E+00
        -11   -1    0    0    0    0  0.00000000000E+00  0.00000000000E+00  0.45593999997E+02  0.45594000000E+02  0.51100000000E-03 0. -1.
         11   -1    0    0    0    0 -0.00000000000E+00 -0.00000000000E+00 -0.45593999997E+02  0.45594000000E+02  0.51100000000E-03 0.  1.
    9900012    2    1    2    0    0 -0.23831931585E+01 -0.24173990571E+02  0.32605280928E+02  0.50528858664E+02  0.29999996395E+02 0.  0.
        -12    1    1    2    0    0  0.23831931585E+01  0.24173990571E+02 -0.32605280928E+02  0.40659141336E+02  0.00000000000E+00 0.  1.
         11    1    3    3    0    0  0.90037245247E+01 -0.15424659365E+02  0.25146352162E+02  0.30843576303E+02  0.51100000000E-03 0. -1.
        -11    1    3    3    0    0 -0.49951878513E+01  0.16631376932E+01 -0.19441270259E+00  0.52683702619E+01  0.51100000000E-03 0.  1.
         12    1    3    3    0    0 -0.63917298319E+01 -0.10412468900E+02  0.76533414694E+01  0.14416912099E+02  0.00000000000E+00 0. -1.
</event>
<event>
 7    1  0.9953837E-014  0.5052885E+02  0.7816164E-02  0.1300439E+00
        -11   -1    0    0    0    0  0.00000000000E+00  0.00000000000E+00  0.45593999997E+02  0.45594000000E+02  0.51100000000E-03 0. -1.
         11   -1    0    0    0    0 -0.00000000000E+00 -0.00000000000E+00 -0.45593999997E+02  0.45594000000E+02  0.51100000000E-03 0.  1.
    9900012    2    1    2    0    0 -0.13479823566E+01 -0.37150878315E+02  0.16466987920E+02  0.50528849650E+02  0.29999968997E+02 0.  0.
        -12    1    1    2    0    0  0.13479823566E+01  0.37150878315E+02 -0.16466987920E+02  0.40659150350E+02  0.00000000000E+00 0.  1.
         11    1    3    3    0    0 -0.71322968450E+01 -0.54925514478E+01 -0.39934918872E+01  0.98481347171E+01  0.51100000000E-03 0. -1.
        -11    1    3    3    0    0  0.71050834014E+01 -0.57946842103E+01  0.40610630547E+01  0.10027602337E+02  0.51100000000E-03 0.  1.
         12    1    3    3    0    0 -0.13207689130E+01 -0.25863642657E+02  0.16399416752E+02  0.30653112596E+02  0.00000000000E+00 0. -1.
</event>
<event>
 7    1  0.9953837E-014  0.5052886E+02  0.7816164E-02  0.1300439E+00
        -11   -1    0    0    0    0  0.00000000000E+00  0.00000000000E+00  0.45593999997E+02  0.45594000000E+02  0.51100000000E-03 0. -1.
         11   -1    0    0    0    0 -0.00000000000E+00 -0.00000000000E+00 -0.45593999997E+02  0.45594000000E+02  0.51100000000E-03 0.  1.
    9900012    2    1    2    0    0  0.34714412123E+02  0.14161660730E+02 -0.15732852146E+02  0.50528859818E+02  0.29999999902E+02 0.  0.
         12    1    1    2    0    0 -0.34714412123E+02 -0.14161660730E+02  0.15732852146E+02  0.40659140182E+02  0.00000000000E+00 0. -1.
         11    1    3    3    0    0  0.43447287092E+01  0.37163194640E+01 -0.14575067401E+02  0.15656317828E+02  0.51100000000E-03 0. -1.
        -11    1    3    3    0    0  0.26808901118E+02  0.71802748532E+01 -0.55958807631E+01  0.28312319013E+02  0.51100000000E-03 0.  1.
         12    1    3    3    0    0  0.35607822963E+01  0.32650664132E+01  0.44380960179E+01  0.65602229771E+01  0.00000000000E+00 0. -1.
</event>
<event>
 7    1  0.9953837E-014  0.5052877E+02  0.7816164E-02  0.1300439E+00
        -11   -1    0    0    0    0  0.00000000000E+00  0.00000000000E+00  0.45593999997E+02  0.45594000000E+02  0.51100000000E-03 0. -1.
         11   -1    0    0    0    0 -0.00000000000E+00 -0.00000000000E+00 -0.45593999997E+02  0.45594000000E+02  0.51100000000E-03 0.  1.
    9900012    2    1    2    0    0 -0.29839445884E+02 -0.12080330498E+02 -0.24836386112E+02  0.50528769920E+02  0.29999726646E+02 0.  0.
         12    1    1    2    0    0  0.29839445884E+02  0.12080330498E+02  0.24836386112E+02  0.40659230080E+02  0.00000000000E+00 0. -1.
         11    1    3    3    0    0 -0.93376034419E+01 -0.24624468534E+01  0.47633480557E+01  0.10767728057E+02  0.51100000000E-03 0. -1.
        -11    1    3    3    0    0 -0.12937187124E+02 -0.81047039742E+01 -0.89013717550E+01  0.17671770047E+02  0.51100000000E-03 0.  1.
         12    1    3    3    0    0 -0.75646553182E+01 -0.15131796702E+01 -0.20698362413E+02  0.22089271816E+02  0.00000000000E+00 0. -1.
</event>
<event>
 7    1  0.9953837E-014  0.5052886E+02  0.7816164E-02  0.1300439E+00
        -11   -1    0    0    0    0  0.00000000000E+00  0.00000000000E+00  0.45593999997E+02  0.45594000000E+02  0.51100000000E-03 0. -1.
         11   -1    0    0    0    0 -0.00000000000E+00 -0.00000000000E+00 -0.45593999997E+02  0.45594000000E+02  0.51100000000E-03 0.  1.
    9900012    2    1    2    0    0 -0.18478834809E+02  0.13885183929E+02 -0.33449968061E+02  0.50528855495E+02  0.29999986762E+02 0.  0.
         12    1    1    2    0    0  0.18478834809E+02 -0.13885183929E+02  0.33449968061E+02  0.40659144505E+02  0.00000000000E+00 0. -1.
         11    1    3    3    0    0 -0.10273954559E+02 -0.23558774552E+01  0.16318971045E+01  0.10666179695E+02  0.51100000000E-03 0. -1.
        -11    1    3    3    0    0 -0.57815406803E+01  0.87620518936E+01 -0.15105940613E+02  0.18395358330E+02  0.51100000000E-03 0.  1.
         12    1    3    3    0    0 -0.24233395697E+01  0.74790094908E+01 -0.19975924553E+02  0.21467317470E+02  0.00000000000E+00 0. -1.
</event>
<event>
 7    1  0.1000587E-013  0.5052887E+02  0.7816164E-02  0.1300439E+00
        -11   -1    0    0    0    0  0.00000000000E+00  0.00000000000E+00  0.45593999997E+02  0.45594000000E+02  0.51100000000E-03 0. -1.
         11   -1    0    0    0    0 -0.00000000000E+00 -0.00000000000E+00 -0.45593999997E+02  0.45594000000E+02  0.51100000000E-03 0.  1.
    9900012    2    1    2    0    0  0.82305979514E+01 -0.11301855525E+01  0.39801315890E+02  0.50528870538E+02  0.30000032488E+02 0.  0.
        -12    1    1    2    0    0 -0.82305979514E+01  0.11301855525E+01 -0.39801315890E+02  0.40659129462E+02  0.00000000000E+00 0.  1.
         11    1    3    3    0    0  0.13819880213E+02 -0.89184028823E+01  0.34527152338E+02  0.38244623777E+02  0.51100000000E-03 0. -1.
        -11    1    3    3    0    0 -0.12471332215E+01  0.62764406407E+01  0.38630904909E+01  0.74747920901E+01  0.51100000000E-03 0.  1.
         12    1    3    3    0    0 -0.43421490400E+01  0.15117766892E+01  0.14110730617E+01  0.48094546707E+01  0.00000000000E+00 0. -1.
</event>
<event>
 7    1  0.9953837E-014  0.5052887E+02  0.7816164E-02  0.1300439E+00
        -11   -1    0    0    0    0  0.00000000000E+00  0.00000000000E+00  0.45593999997E+02  0.45594000000E+02  0.51100000000E-03 0. -1.
         11   -1    0    0    0    0 -0.00000000000E+00 -0.00000000000E+00 -0.45593999997E+02  0.45594000000E+02  0.51100000000E-03 0.  1.
    9900012    2    1    2    0    0  0.15977405524E+02 -0.14188556762E+02  0.34591510514E+02  0.50528865357E+02  0.30000016740E+02 0.  0.
        -12    1    1    2    0    0 -0.15977405524E+02  0.14188556762E+02 -0.34591510514E+02  0.40659134643E+02  0.00000000000E+00 0.  1.
         11    1    3    3    0    0 -0.14282049753E+01 -0.28777421006E+01  0.20376023349E+02  0.20627736105E+02  0.51100000000E-03 0. -1.
        -11    1    3    3    0    0 -0.24248580709E-02 -0.19072103306E+00 -0.30031291487E+01  0.30091801769E+01  0.51100000000E-03 0.  1.
         12    1    3    3    0    0  0.17408035357E+02 -0.11120093628E+02  0.17218616313E+02  0.26891949075E+02  0.00000000000E+00 0. -1.
</event>
<event>
 7    1  0.9953837E-014  0.5052886E+02  0.7816164E-02  0.1300439E+00
        -11   -1    0    0    0    0  0.00000000000E+00  0.00000000000E+00  0.45593999997E+02  0.45594000000E+02  0.51100000000E-03 0. -1.
         11   -1    0    0    0    0 -0.00000000000E+00 -0.00000000000E+00 -0.45593999997E+02  0.45594000000E+02  0.51100000000E-03 0.  1.
    9900012    2    1    2    0    0 -0.57526847274E+01  0.39578458403E+02 -0.73224413782E+01  0.50528857131E+02  0.29999991736E+02 0.  0.
         12    1    1    2    0    0  0.57526847274E+01 -0.39578458403E+02  0.73224413782E+01  0.40659142869E+02  0.00000000000E+00 0. -1.
         11    1    3    3    0    0 -0.26573030610E+01  0.58613321028E+01 -0.13312618535E+02  0.14786557615E+02  0.51100000000E-03 0. -1.
        -11    1    3    3    0    0  0.29619171966E+00  0.82394454840E+01  0.57267488104E+01  0.10038517999E+02  0.51100000000E-03 0.  1.
         12    1    3    3    0    0 -0.33915733860E+01  0.25477680816E+02  0.26342834644E+00  0.25703781517E+02  0.00000000000E+00 0. -1.
</event>
<event>
 7    1  0.9953837E-014  0.5052889E+02  0.7816164E-02  0.1300439E+00
        -11   -1    0    0    0    0  0.00000000000E+00  0.00000000000E+00  0.45593999997E+02  0.45594000000E+02  0.51100000000E-03 0. -1.
         11   -1    0    0    0    0 -0.00000000000E+00 -0.00000000000E+00 -0.45593999997E+02  0.45594000000E+02  0.51100000000E-03 0.  1.
    9900012    2    1    2    0    0 -0.21448324683E+02 -0.16008146464E+02 -0.30608360401E+02  0.50528891410E+02  0.30000095929E+02 0.  0.
         12    1    1    2    0    0  0.21448324683E+02  0.16008146464E+02  0.30608360401E+02  0.40659108590E+02  0.00000000000E+00 0. -1.
         11    1    3    3    0    0 -0.97291014285E+01  0.68961323861E+01 -0.78523628510E+01  0.14278363320E+02  0.51100000000E-03 0. -1.
        -11    1    3    3    0    0 -0.91541915739E+01 -0.12911940444E+02 -0.20126168058E+02  0.25604297888E+02  0.51100000000E-03 0.  1.
         12    1    3    3    0    0 -0.25650316805E+01 -0.99923384061E+01 -0.26298294924E+01  0.10646230202E+02  0.00000000000E+00 0. -1.
</event>
<event>
 7    1  0.9953837E-014  0.5052886E+02  0.7816164E-02  0.1300439E+00
        -11   -1    0    0    0    0  0.00000000000E+00  0.00000000000E+00  0.45593999997E+02  0.45594000000E+02  0.51100000000E-03 0.  1.
         11   -1    0    0    0    0 -0.00000000000E+00 -0.00000000000E+00 -0.45593999997E+02  0.45594000000E+02  0.51100000000E-03 0. -1.
    9900012    2    1    2    0    0 -0.26057467637E+02 -0.29162435146E+02  0.11123235379E+02  0.50528860700E+02  0.30000002584E+02 0.  0.
        -12    1    1    2    0    0  0.26057467637E+02  0.29162435146E+02 -0.11123235379E+02  0.40659139300E+02  0.00000000000E+00 0.  1.
         11    1    3    3    0    0 -0.13147041788E+02 -0.16181594669E+02  0.55392687899E+00  0.20856546911E+02  0.51100000000E-03 0. -1.
        -11    1    3    3    0    0 -0.10319367002E+02  0.41865715828E+00  0.12135144517E+02  0.15935066421E+02  0.51100000000E-03 0.  1.
        -12    1    3    3    0    0 -0.25910588476E+01 -0.13399497635E+02 -0.15658360168E+01  0.13737247368E+02  0.00000000000E+00 0.  1.
</event>
<event>
 7    1  0.9953837E-014  0.5052885E+02  0.7816164E-02  0.1300439E+00
        -11   -1    0    0    0    0  0.00000000000E+00  0.00000000000E+00  0.45593999997E+02  0.45594000000E+02  0.51100000000E-03 0. -1.
         11   -1    0    0    0    0 -0.00000000000E+00 -0.00000000000E+00 -0.45593999997E+02  0.45594000000E+02  0.51100000000E-03 0.  1.
    9900012    2    1    2    0    0  0.94450214371E+01  0.13074216690E+02  0.37323217062E+02  0.50528854610E+02  0.29999984072E+02 0.  0.
        -12    1    1    2    0    0 -0.94450214371E+01 -0.13074216690E+02 -0.37323217062E+02  0.40659145390E+02  0.00000000000E+00 0.  1.
         11    1    3    3    0    0  0.81656403777E+01  0.11395750896E+02  0.24957648426E+01  0.14239721334E+02  0.51100000000E-03 0. -1.
        -11    1    3    3    0    0  0.39274330368E+01 -0.29107245136E+01  0.17464446649E+02  0.18135709097E+02  0.51100000000E-03 0.  1.
         12    1    3    3    0    0 -0.26480519773E+01  0.45891903073E+01  0.17363005571E+02  0.18153424179E+02  0.00000000000E+00 0. -1.
</event>
<event>
 7    1  0.9953837E-014  0.5052886E+02  0.7816164E-02  0.1300439E+00
        -11   -1    0    0    0    0  0.00000000000E+00  0.00000000000E+00  0.45593999997E+02  0.45594000000E+02  0.51100000000E-03 0. -1.
         11   -1    0    0    0    0 -0.00000000000E+00 -0.00000000000E+00 -0.45593999997E+02  0.45594000000E+02  0.51100000000E-03 0.  1.
    9900012    2    1    2    0    0 -0.21175040195E+02  0.29024840543E+02 -0.19035281594E+02  0.50528860300E+02  0.30000001368E+02 0.  0.
         12    1    1    2    0    0  0.21175040195E+02 -0.29024840543E+02  0.19035281594E+02  0.40659139700E+02  0.00000000000E+00 0. -1.
         11    1    3    3    0    0  0.53202847554E+01  0.62357757159E+01  0.87299796319E+00  0.82433278694E+01  0.51100000000E-03 0. -1.
        -11    1    3    3    0    0 -0.14394269015E+02  0.13680931724E+02 -0.18386762265E+02  0.27063552985E+02  0.51100000000E-03 0.  1.
         12    1    3    3    0    0 -0.12101055936E+02  0.91081331030E+01 -0.15215172920E+01  0.15221979446E+02  0.00000000000E+00 0. -1.
</event>
<event>
 7    1  0.9953837E-014  0.5052887E+02  0.7816164E-02  0.1300439E+00
        -11   -1    0    0    0    0  0.00000000000E+00  0.00000000000E+00  0.45593999997E+02  0.45594000000E+02  0.51100000000E-03 0. -1.
         11   -1    0    0    0    0 -0.00000000000E+00 -0.00000000000E+00 -0.45593999997E+02  0.45594000000E+02  0.51100000000E-03 0.  1.
    9900012    2    1    2    0    0  0.16671013613E+01 -0.19249836702E+02 -0.35774702844E+02  0.50528870600E+02  0.30000032676E+02 0.  0.
         12    1    1    2    0    0 -0.16671013613E+01  0.19249836702E+02  0.35774702844E+02  0.40659129400E+02  0.00000000000E+00 0. -1.
         11    1    3    3    0    0  0.99644882249E+01 -0.14550139711E+02 -0.58184959468E+01  0.18570204267E+02  0.51100000000E-03 0. -1.
        -11    1    3    3    0    0 -0.45121984368E-01 -0.19465005852E+01 -0.10014583072E+02  0.10202096592E+02  0.51100000000E-03 0.  1.
         12    1    3    3    0    0 -0.82522648792E+01 -0.27531964061E+01 -0.19941623825E+02  0.21756569740E+02  0.00000000000E+00 0. -1.
</event>
<event>
 7    1  0.9953837E-014  0.5052886E+02  0.7816164E-02  0.1300439E+00
        -11   -1    0    0    0    0  0.00000000000E+00  0.00000000000E+00  0.45593999997E+02  0.45594000000E+02  0.51100000000E-03 0. -1.
         11   -1    0    0    0    0 -0.00000000000E+00 -0.00000000000E+00 -0.45593999997E+02  0.45594000000E+02  0.51100000000E-03 0.  1.
    9900012    2    1    2    0    0 -0.40433374406E+00  0.27798735363E+02  0.29668715436E+02  0.50528857742E+02  0.29999993593E+02 0.  0.
        -12    1    1    2    0    0  0.40433374406E+00 -0.27798735363E+02 -0.29668715436E+02  0.40659142258E+02  0.00000000000E+00 0.  1.
         11    1    3    3    0    0 -0.59277131129E+01  0.31255506194E+01  0.41226017541E+01  0.78678265682E+01  0.51100000000E-03 0. -1.
        -11    1    3    3    0    0  0.84943499706E+01  0.28205978064E+02  0.20952446447E+02  0.36148806237E+02  0.51100000000E-03 0.  1.
        -12    1    3    3    0    0 -0.29709706017E+01 -0.35327933209E+01  0.45936672348E+01  0.65122249369E+01  0.00000000000E+00 0.  1.
</event>
<event>
 7    1  0.9953837E-014  0.5052887E+02  0.7816164E-02  0.1300439E+00
        -11   -1    0    0    0    0  0.00000000000E+00  0.00000000000E+00  0.45593999997E+02  0.45594000000E+02  0.51100000000E-03 0. -1.
         11   -1    0    0    0    0 -0.00000000000E+00 -0.00000000000E+00 -0.45593999997E+02  0.45594000000E+02  0.51100000000E-03 0.  1.
    9900012    2    1    2    0    0  0.63573220278E+00  0.52817544102E+01 -0.40309595717E+02  0.50528873203E+02  0.30000040587E+02 0.  0.
         12    1    1    2    0    0 -0.63573220278E+00 -0.52817544102E+01  0.40309595717E+02  0.40659126797E+02  0.00000000000E+00 0. -1.
         11    1    3    3    0    0 -0.55569867231E+01 -0.57952825718E+01 -0.10286368927E+02  0.13048938175E+02  0.51100000000E-03 0. -1.
        -11    1    3    3    0    0  0.78786832452E+00  0.28256742942E+01  0.22729591741E+01  0.37109992431E+01  0.51100000000E-03 0.  1.
        -12    1    3    3    0    0  0.54048506013E+01  0.82513626877E+01 -0.32296185963E+02  0.33768935784E+02  0.00000000000E+00 0.  1.
</event>
<event>
 7    1  0.9953837E-014  0.5052886E+02  0.7816164E-02  0.1300439E+00
        -11   -1    0    0    0    0  0.00000000000E+00  0.00000000000E+00  0.45593999997E+02  0.45594000000E+02  0.51100000000E-03 0. -1.
         11   -1    0    0    0    0 -0.00000000000E+00 -0.00000000000E+00 -0.45593999997E+02  0.45594000000E+02  0.51100000000E-03 0.  1.
    9900012    2    1    2    0    0 -0.30955760440E+02 -0.90287878673E+01  0.24766654905E+02  0.50528864373E+02  0.30000013748E+02 0.  0.
        -12    1    1    2    0    0  0.30955760440E+02  0.90287878673E+01 -0.24766654905E+02  0.40659135627E+02  0.00000000000E+00 0.  1.
         11    1    3    3    0    0 -0.23534035048E+02 -0.14274929892E+01  0.24975304058E+02  0.34346096647E+02  0.51100000000E-03 0. -1.
        -11    1    3    3    0    0 -0.20482845599E+01  0.33819465224E+01 -0.94525076777E-01  0.39549926890E+01  0.51100000000E-03 0.  1.
         12    1    3    3    0    0 -0.53734408326E+01 -0.10983241401E+02 -0.11412407642E+00  0.12227775037E+02  0.00000000000E+00 0. -1.
</event>
<event>
 7    1  0.9953837E-014  0.5052886E+02  0.7816164E-02  0.1300439E+00
        -11   -1    0    0    0    0  0.00000000000E+00  0.00000000000E+00  0.45593999997E+02  0.45594000000E+02  0.51100000000E-03 0. -1.
         11   -1    0    0    0    0 -0.00000000000E+00 -0.00000000000E+00 -0.45593999997E+02  0.45594000000E+02  0.51100000000E-03 0.  1.
    9900012    2    1    2    0    0  0.90348088611E+00  0.28938030336E+02 -0.28547154841E+02  0.50528856785E+02  0.29999990685E+02 0.  0.
         12    1    1    2    0    0 -0.90348088611E+00 -0.28938030336E+02  0.28547154841E+02  0.40659143215E+02  0.00000000000E+00 0. -1.
         11    1    3    3    0    0 -0.52175587021E+01  0.61097649487E+01  0.13438610512E+01  0.81460486939E+01  0.51100000000E-03 0. -1.
        -11    1    3    3    0    0  0.11388831814E+02  0.14989904040E+02 -0.12514257020E+02  0.22605515748E+02  0.51100000000E-03 0.  1.
         12    1    3    3    0    0 -0.52677922257E+01  0.78383613473E+01 -0.17376758872E+02  0.19777292343E+02  0.00000000000E+00 0. -1.
</event>
<event>
 7    1  0.9953837E-014  0.5052884E+02  0.7816164E-02  0.1300439E+00
        -11   -1    0    0    0    0  0.00000000000E+00  0.00000000000E+00  0.45593999997E+02  0.45594000000E+02  0.51100000000E-03 0. -1.
         11   -1    0    0    0    0 -0.00000000000E+00 -0.00000000000E+00 -0.45593999997E+02  0.45594000000E+02  0.51100000000E-03 0.  1.
    9900012    2    1    2    0    0  0.19620841892E+02 -0.35052539745E+02  0.62856394409E+01  0.50528840610E+02  0.29999941518E+02 0.  0.
        -12    1    1    2    0    0 -0.19620841892E+02  0.35052539745E+02 -0.62856394409E+01  0.40659159390E+02  0.00000000000E+00 0.  1.
         11    1    3    3    0    0  0.11734168595E+02 -0.52033797978E+01  0.12199411571E+02  0.17708515378E+02  0.51100000000E-03 0. -1.
        -11    1    3    3    0    0  0.33175370615E+01 -0.12981469920E+02  0.21568104171E+01  0.13571162252E+02  0.51100000000E-03 0.  1.
         12    1    3    3    0    0  0.45691362358E+01 -0.16867690027E+02 -0.80705825475E+01  0.19249162981E+02  0.00000000000E+00 0. -1.
</event>
<event>
 7    1  0.9953837E-014  0.5052886E+02  0.7816164E-02  0.1300439E+00
        -11   -1    0    0    0    0  0.00000000000E+00  0.00000000000E+00  0.45593999997E+02  0.45594000000E+02  0.51100000000E-03 0. -1.
         11   -1    0    0    0    0 -0.00000000000E+00 -0.00000000000E+00 -0.45593999997E+02  0.45594000000E+02  0.51100000000E-03 0.  1.
    9900012    2    1    2    0    0  0.88512936942E+01 -0.63288665511E+01  0.39176088373E+02  0.50528857705E+02  0.29999993482E+02 0.  0.
        -12    1    1    2    0    0 -0.88512936942E+01  0.63288665511E+01 -0.39176088373E+02  0.40659142295E+02  0.00000000000E+00 0.  1.
         11    1    3    3    0    0  0.36456155620E+01 -0.21706606330E+01 -0.29033926065E+01  0.51412030983E+01  0.51100000000E-03 0. -1.
        -11    1    3    3    0    0 -0.51239471001E+01 -0.42858352325E+01  0.16543855995E+02  0.17841591548E+02  0.51100000000E-03 0.  1.
         12    1    3    3    0    0  0.10329625232E+02  0.12762931447E+00  0.25535624985E+02  0.27546063059E+02  0.00000000000E+00 0. -1.
</event>
<event>
 7    1  0.9953837E-014  0.5052887E+02  0.7816164E-02  0.1300439E+00
        -11   -1    0    0    0    0  0.00000000000E+00  0.00000000000E+00  0.45593999997E+02  0.45594000000E+02  0.51100000000E-03 0. -1.
         11   -1    0    0    0    0 -0.00000000000E+00 -0.00000000000E+00 -0.45593999997E+02  0.45594000000E+02  0.51100000000E-03 0.  1.
    9900012    2    1    2    0    0 -0.91780993310E+01 -0.19228703007E+02 -0.34629243177E+02  0.50528868065E+02  0.30000024971E+02 0.  0.
         12    1    1    2    0    0  0.91780993310E+01  0.19228703007E+02  0.34629243177E+02  0.40659131935E+02  0.00000000000E+00 0. -1.
         11    1    3    3    0    0  0.17730665149E+01  0.37635238861E+01 -0.84999493338E+00  0.42462181474E+01  0.51100000000E-03 0. -1.
        -11    1    3    3    0    0 -0.14379655034E+02 -0.22039685064E+02 -0.33654985306E+02  0.42722128140E+02  0.51100000000E-03 0.  1.
        -12    1    3    3    0    0  0.34284891882E+01 -0.95254182894E+00 -0.12426293768E+00  0.35605217774E+01  0.00000000000E+00 0.  1.
</event>
<event>
 7    1  0.9953837E-014  0.5052886E+02  0.7816164E-02  0.1300439E+00
        -11   -1    0    0    0    0  0.00000000000E+00  0.00000000000E+00  0.45593999997E+02  0.45594000000E+02  0.51100000000E-03 0. -1.
         11   -1    0    0    0    0 -0.00000000000E+00 -0.00000000000E+00 -0.45593999997E+02  0.45594000000E+02  0.51100000000E-03 0.  1.
    9900012    2    1    2    0    0 -0.15132797617E+02 -0.32508705291E+02  0.19166338214E+02  0.50528855839E+02  0.29999987809E+02 0.  0.
        -12    1    1    2    0    0  0.15132797617E+02  0.32508705291E+02 -0.19166338214E+02  0.40659144161E+02  0.00000000000E+00 0.  1.
         11    1    3    3    0    0 -0.59082633637E+01 -0.13999423005E+02  0.10164048811E+02  0.18281118919E+02  0.51100000000E-03 0. -1.
        -11    1    3    3    0    0  0.75570687710E+01 -0.37598195339E+01  0.40561048907E+01  0.93646953225E+01  0.51100000000E-03 0.  1.
        -12    1    3    3    0    0 -0.16781603024E+02 -0.14749462752E+02  0.49461845122E+01  0.22883041598E+02  0.00000000000E+00 0.  1.
</event>
<event>
 7    1  0.9953837E-014  0.5052886E+02  0.7816164E-02  0.1300439E+00
        -11   -1    0    0    0    0  0.00000000000E+00  0.00000000000E+00  0.45593999997E+02  0.45594000000E+02  0.51100000000E-03 0. -1.
         11   -1    0    0    0    0 -0.00000000000E+00 -0.00000000000E+00 -0.45593999997E+02  0.45594000000E+02  0.51100000000E-03 0.  1.
    9900012    2    1    2    0    0  0.98911392012E+01  0.17859738683E+02 -0.35161924362E+02  0.50528858035E+02  0.29999994482E+02 0.  0.
         12    1    1    2    0    0 -0.98911392012E+01 -0.17859738683E+02  0.35161924362E+02  0.40659141965E+02  0.00000000000E+00 0. -1.
         11    1    3    3    0    0 -0.21016232859E+01  0.16927500572E+02 -0.14554983961E+02  0.22423306054E+02  0.51100000000E-03 0.  1.
        -11    1    3    3    0    0  0.61545799036E+01 -0.69518041917E+01 -0.94257881694E+01  0.13230718733E+02  0.51100000000E-03 0. -1.
         12    1    3    3    0    0  0.58381825836E+01  0.78840423029E+01 -0.11181152232E+02  0.14874833248E+02  0.00000000000E+00 0. -1.
</event>
<event>
 7    1  0.9953837E-014  0.5052887E+02  0.7816164E-02  0.1300439E+00
        -11   -1    0    0    0    0  0.00000000000E+00  0.00000000000E+00  0.45593999997E+02  0.45594000000E+02  0.51100000000E-03 0.  1.
         11   -1    0    0    0    0 -0.00000000000E+00 -0.00000000000E+00 -0.45593999997E+02  0.45594000000E+02  0.51100000000E-03 0. -1.
    9900012    2    1    2    0    0  0.29893189869E+02 -0.18760559391E+02 -0.20189200586E+02  0.50528865608E+02  0.30000017503E+02 0.  0.
        -12    1    1    2    0    0 -0.29893189869E+02  0.18760559391E+02  0.20189200586E+02  0.40659134392E+02  0.00000000000E+00 0.  1.
         11    1    3    3    0    0  0.44178872797E+01  0.18683773109E+01 -0.21868330091E+01  0.52716980815E+01  0.51100000000E-03 0. -1.
        -11    1    3    3    0    0  0.61357328008E+01 -0.11470749837E+02 -0.19900125675E+02  0.23774783300E+02  0.51100000000E-03 0.  1.
        -12    1    3    3    0    0  0.19339569788E+02 -0.91581868652E+01  0.18977580989E+01  0.21482384226E+02  0.00000000000E+00 0.  1.
</event>
<event>
 7    1  0.9953837E-014  0.5052886E+02  0.7816164E-02  0.1300439E+00
        -11   -1    0    0    0    0  0.00000000000E+00  0.00000000000E+00  0.45593999997E+02  0.45594000000E+02  0.51100000000E-03 0. -1.
         11   -1    0    0    0    0 -0.00000000000E+00 -0.00000000000E+00 -0.45593999997E+02  0.45594000000E+02  0.51100000000E-03 0.  1.
    9900012    2    1    2    0    0 -0.11918519992E+02 -0.31309725867E+02  0.23039432122E+02  0.50528862218E+02  0.30000007198E+02 0.  0.
        -12    1    1    2    0    0  0.11918519992E+02  0.31309725867E+02 -0.23039432122E+02  0.40659137782E+02  0.00000000000E+00 0.  1.
         11    1    3    3    0    0  0.64786189831E+01 -0.71795849663E+01 -0.16352624035E+01  0.98078044233E+01  0.51100000000E-03 0. -1.
        -11    1    3    3    0    0 -0.82579820498E+01 -0.13176651390E+02  0.19460971078E+02  0.24910796955E+02  0.51100000000E-03 0.  1.
         12    1    3    3    0    0 -0.10139156925E+02 -0.10953489511E+02  0.52137234472E+01  0.15810260839E+02  0.00000000000E+00 0. -1.
</event>
<event>
 7    1  0.9953837E-014  0.5052886E+02  0.7816164E-02  0.1300439E+00
        -11   -1    0    0    0    0  0.00000000000E+00  0.00000000000E+00  0.45593999997E+02  0.45594000000E+02  0.51100000000E-03 0. -1.
         11   -1    0    0    0    0 -0.00000000000E+00 -0.00000000000E+00 -0.45593999997E+02  0.45594000000E+02  0.51100000000E-03 0.  1.
    9900012    2    1    2    0    0 -0.23292452894E+02  0.12656013318E+02 -0.30829407016E+02  0.50528863611E+02  0.30000011433E+02 0.  0.
         12    1    1    2    0    0  0.23292452894E+02 -0.12656013318E+02  0.30829407016E+02  0.40659136389E+02  0.00000000000E+00 0. -1.
         11    1    3    3    0    0 -0.93308236615E+01  0.10512304694E+02  0.15603325674E+01  0.14142399307E+02  0.51100000000E-03 0. -1.
        -11    1    3    3    0    0 -0.56450132003E+01  0.52253924776E+01 -0.15892343085E+02  0.17656088739E+02  0.51100000000E-03 0.  1.
         12    1    3    3    0    0 -0.83166160325E+01 -0.30816838530E+01 -0.16497396498E+02  0.18730375565E+02  0.00000000000E+00 0. -1.
</event>
<event>
 7    1  0.9953837E-014  0.5052887E+02  0.7816164E-02  0.1300439E+00
        -11   -1    0    0    0    0  0.00000000000E+00  0.00000000000E+00  0.45593999997E+02  0.45594000000E+02  0.51100000000E-03 0. -1.
         11   -1    0    0    0    0 -0.00000000000E+00 -0.00000000000E+00 -0.45593999997E+02  0.45594000000E+02  0.51100000000E-03 0.  1.
    9900012    2    1    2    0    0 -0.21690433375E+02  0.20389257848E+02 -0.27694182899E+02  0.50528874308E+02  0.30000043948E+02 0.  0.
         12    1    1    2    0    0  0.21690433375E+02 -0.20389257848E+02  0.27694182899E+02  0.40659125692E+02  0.00000000000E+00 0. -1.
         11    1    3    3    0    0  0.69729218974E+01  0.81131638471E+01 -0.84191266721E+01  0.13613477204E+02  0.51100000000E-03 0. -1.
        -11    1    3    3    0    0 -0.19601270161E+02  0.90605106471E+01 -0.11025643177E+02  0.24245978075E+02  0.51100000000E-03 0.  1.
         12    1    3    3    0    0 -0.90620851114E+01  0.32155833533E+01 -0.82494130502E+01  0.12669419029E+02  0.00000000000E+00 0. -1.
</event>
<event>
 7    1  0.9953837E-014  0.5052887E+02  0.7816164E-02  0.1300439E+00
        -11   -1    0    0    0    0  0.00000000000E+00  0.00000000000E+00  0.45593999997E+02  0.45594000000E+02  0.51100000000E-03 0. -1.
         11   -1    0    0    0    0 -0.00000000000E+00 -0.00000000000E+00 -0.45593999997E+02  0.45594000000E+02  0.51100000000E-03 0.  1.
    9900012    2    1    2    0    0  0.24569919614E+02  0.31080958823E+02  0.91355123121E+01  0.50528873886E+02  0.30000042662E+02 0.  0.
        -12    1    1    2    0    0 -0.24569919614E+02 -0.31080958823E+02 -0.91355123121E+01  0.40659126114E+02  0.00000000000E+00 0.  1.
         11    1    3    3    0    0  0.16498537469E+02  0.19405254282E+02 -0.44264022918E+01  0.25852633713E+02  0.51100000000E-03 0. -1.
        -11    1    3    3    0    0 -0.39224146977E+01  0.26555335822E+00  0.15626135230E+01  0.42305575200E+01  0.51100000000E-03 0.  1.
        -12    1    3    3    0    0  0.11993796843E+02  0.11410151183E+02  0.11999301081E+02  0.20445682653E+02  0.00000000000E+00 0.  1.
</event>
<event>
 7    1  0.9953837E-014  0.5052888E+02  0.7816164E-02  0.1300439E+00
        -11   -1    0    0    0    0  0.00000000000E+00  0.00000000000E+00  0.45593999997E+02  0.45594000000E+02  0.51100000000E-03 0. -1.
         11   -1    0    0    0    0 -0.00000000000E+00 -0.00000000000E+00 -0.45593999997E+02  0.45594000000E+02  0.51100000000E-03 0.  1.
    9900012    2    1    2    0    0  0.31142675429E+02 -0.95039440215E+01  0.24351033082E+02  0.50528880519E+02  0.30000062824E+02 0.  0.
        -12    1    1    2    0    0 -0.31142675429E+02  0.95039440215E+01 -0.24351033082E+02  0.40659119481E+02  0.00000000000E+00 0.  1.
         11    1    3    3    0    0  0.31199842325E+02 -0.62408659803E+01  0.28369334213E+02  0.42628601822E+02  0.51100000000E-03 0. -1.
        -11    1    3    3    0    0  0.15056333519E+01 -0.35344393736E+01 -0.47867398224E+01  0.61377578858E+01  0.51100000000E-03 0.  1.
         12    1    3    3    0    0 -0.15628002479E+01  0.27136133243E+00  0.76843869080E+00  0.17625208110E+01  0.00000000000E+00 0. -1.
</event>
<event>
 7    1  0.9953837E-014  0.5052887E+02  0.7816164E-02  0.1300439E+00
        -11   -1    0    0    0    0  0.00000000000E+00  0.00000000000E+00  0.45593999997E+02  0.45594000000E+02  0.51100000000E-03 0. -1.
         11   -1    0    0    0    0 -0.00000000000E+00 -0.00000000000E+00 -0.45593999997E+02  0.45594000000E+02  0.51100000000E-03 0.  1.
    9900012    2    1    2    0    0  0.19031015408E+02  0.11517676723E+02  0.34034228042E+02  0.50528866918E+02  0.30000021485E+02 0.  0.
        -12    1    1    2    0    0 -0.19031015408E+02 -0.11517676723E+02 -0.34034228042E+02  0.40659133082E+02  0.00000000000E+00 0.  1.
         11    1    3    3    0    0  0.20509724862E+00 -0.12038728386E+01  0.69123070366E+00  0.14032729028E+01  0.51100000000E-03 0. -1.
        -11    1    3    3    0    0  0.20292152500E+02  0.12403914360E+02  0.10107369970E+02  0.25841584172E+02  0.51100000000E-03 0.  1.
        -12    1    3    3    0    0 -0.14662343398E+01  0.31763520120E+00  0.23235627367E+02  0.23284009844E+02  0.00000000000E+00 0.  1.
</event>
<event>
 7    1  0.9953837E-014  0.5052886E+02  0.7816164E-02  0.1300439E+00
        -11   -1    0    0    0    0  0.00000000000E+00  0.00000000000E+00  0.45593999997E+02  0.45594000000E+02  0.51100000000E-03 0. -1.
         11   -1    0    0    0    0 -0.00000000000E+00 -0.00000000000E+00 -0.45593999997E+02  0.45594000000E+02  0.51100000000E-03 0.  1.
    9900012    2    1    2    0    0 -0.26632698929E+02  0.21193738193E+02 -0.22241630295E+02  0.50528864384E+02  0.30000013781E+02 0.  0.
         12    1    1    2    0    0  0.26632698929E+02 -0.21193738193E+02  0.22241630295E+02  0.40659135616E+02  0.00000000000E+00 0. -1.
         11    1    3    3    0    0  0.23175289685E+01  0.12735742646E+00  0.16220765139E+01  0.28316590388E+01  0.51100000000E-03 0. -1.
        -11    1    3    3    0    0 -0.14419801275E+02  0.22465125171E+02 -0.15810886922E+02  0.31025741946E+02  0.51100000000E-03 0.  1.
        -12    1    3    3    0    0 -0.14530426622E+02 -0.13987444043E+01 -0.80528198876E+01  0.16671463399E+02  0.00000000000E+00 0.  1.
</event>
<event>
 7    1  0.9953837E-014  0.5052886E+02  0.7816164E-02  0.1300439E+00
        -11   -1    0    0    0    0  0.00000000000E+00  0.00000000000E+00  0.45593999997E+02  0.45594000000E+02  0.51100000000E-03 0. -1.
         11   -1    0    0    0    0 -0.00000000000E+00 -0.00000000000E+00 -0.45593999997E+02  0.45594000000E+02  0.51100000000E-03 0.  1.
    9900012    2    1    2    0    0 -0.24801597835E+02  0.14972314434E+02 -0.28528510845E+02  0.50528863441E+02  0.30000010915E+02 0.  0.
         12    1    1    2    0    0  0.24801597835E+02 -0.14972314434E+02  0.28528510845E+02  0.40659136559E+02  0.00000000000E+00 0. -1.
         11    1    3    3    0    0 -0.72308752418E+01  0.14185406608E+02  0.94584072084E+00  0.15950107597E+02  0.51100000000E-03 0. -1.
        -11    1    3    3    0    0 -0.66549146727E+01 -0.75325783575E+00 -0.14616672747E+02  0.16078010111E+02  0.51100000000E-03 0.  1.
         12    1    3    3    0    0 -0.10915807920E+02  0.15401656616E+01 -0.14857678819E+02  0.18500745734E+02  0.00000000000E+00 0. -1.
</event>
<event>
 7    1  0.9953837E-014  0.5052886E+02  0.7816164E-02  0.1300439E+00
        -11   -1    0    0    0    0  0.00000000000E+00  0.00000000000E+00  0.45593999997E+02  0.45594000000E+02  0.51100000000E-03 0. -1.
         11   -1    0    0    0    0 -0.00000000000E+00 -0.00000000000E+00 -0.45593999997E+02  0.45594000000E+02  0.51100000000E-03 0.  1.
    9900012    2    1    2    0    0 -0.52490531320E+01  0.26703452705E+02 -0.30208260352E+02  0.50528856642E+02  0.29999990249E+02 0.  0.
         12    1    1    2    0    0  0.52490531320E+01 -0.26703452705E+02  0.30208260352E+02  0.40659143358E+02  0.00000000000E+00 0. -1.
         11    1    3    3    0    0 -0.66631547850E+01 -0.11588671778E+01  0.19024651684E+01  0.70256657195E+01  0.51100000000E-03 0. -1.
        -11    1    3    3    0    0  0.12564065206E+00  0.27770515076E+02 -0.29087999948E+02  0.40216029570E+02  0.51100000000E-03 0.  1.
         12    1    3    3    0    0  0.12884610009E+01  0.91804807118E-01 -0.30227255720E+01  0.32871613525E+01  0.00000000000E+00 0. -1.
</event>
<event>
 7    1  0.9953837E-014  0.5052886E+02  0.7816164E-02  0.1300439E+00
        -11   -1    0    0    0    0  0.00000000000E+00  0.00000000000E+00  0.45593999997E+02  0.45594000000E+02  0.51100000000E-03 0. -1.
         11   -1    0    0    0    0 -0.00000000000E+00 -0.00000000000E+00 -0.45593999997E+02  0.45594000000E+02  0.51100000000E-03 0.  1.
    9900012    2    1    2    0    0  0.29140884074E+02  0.20424558210E+02  0.19667528116E+02  0.50528863697E+02  0.30000011694E+02 0.  0.
        -12    1    1    2    0    0 -0.29140884074E+02 -0.20424558210E+02 -0.19667528116E+02  0.40659136303E+02  0.00000000000E+00 0.  1.
         11    1    3    3    0    0 -0.68932871610E+00  0.62078179777E+01 -0.77270453805E-01  0.62464509209E+01  0.51100000000E-03 0. -1.
        -11    1    3    3    0    0  0.30843229898E+02  0.17273424540E+02  0.14673584439E+02  0.38275189175E+02  0.51100000000E-03 0.  1.
        -12    1    3    3    0    0 -0.10130171076E+01 -0.30566843086E+01  0.50712141316E+01  0.60072236009E+01  0.00000000000E+00 0.  1.
</event>
<event>
 7    1  0.9953837E-014  0.5052886E+02  0.7816164E-02  0.1300439E+00
        -11   -1    0    0    0    0  0.00000000000E+00  0.00000000000E+00  0.45593999997E+02  0.45594000000E+02  0.51100000000E-03 0.  1.
         11   -1    0    0    0    0 -0.00000000000E+00 -0.00000000000E+00 -0.45593999997E+02  0.45594000000E+02  0.51100000000E-03 0. -1.
    9900012    2    1    2    0    0  0.16075928568E+02  0.34486966773E+02  0.14331048932E+02  0.50528864249E+02  0.30000013372E+02 0.  0.
        -12    1    1    2    0    0 -0.16075928568E+02 -0.34486966773E+02 -0.14331048932E+02  0.40659135751E+02  0.00000000000E+00 0.  1.
         11    1    3    3    0    0  0.65293222101E+01  0.18739868939E+02  0.10068017057E+02  0.22252633644E+02  0.51100000000E-03 0. -1.
        -11    1    3    3    0    0 -0.19239944232E+01 -0.33410522914E+01 -0.29642983659E+01  0.48632756469E+01  0.51100000000E-03 0.  1.
        -12    1    3    3    0    0  0.11470600781E+02  0.19088150125E+02  0.72273302416E+01  0.23412954959E+02  0.00000000000E+00 0.  1.
</event>
<event>
 7    1  0.9953837E-014  0.5052886E+02  0.7816164E-02  0.1300439E+00
        -11   -1    0    0    0    0  0.00000000000E+00  0.00000000000E+00  0.45593999997E+02  0.45594000000E+02  0.51100000000E-03 0. -1.
         11   -1    0    0    0    0 -0.00000000000E+00 -0.00000000000E+00 -0.45593999997E+02  0.45594000000E+02  0.51100000000E-03 0.  1.
    9900012    2    1    2    0    0  0.32568680803E+02  0.10891279092E+02 -0.21767561380E+02  0.50528860093E+02  0.30000000740E+02 0.  0.
         12    1    1    2    0    0 -0.32568680803E+02 -0.10891279092E+02  0.21767561380E+02  0.40659139907E+02  0.00000000000E+00 0. -1.
         11    1    3    3    0    0 -0.45673935378E+01  0.11016306125E+01  0.18634666690E+01  0.50544220266E+01  0.51100000000E-03 0. -1.
        -11    1    3    3    0    0  0.25598032381E+02  0.39041562262E+01 -0.15380390344E+02  0.30117405350E+02  0.51100000000E-03 0.  1.
         12    1    3    3    0    0  0.11538041961E+02  0.58854922530E+01 -0.82506377045E+01  0.15357032717E+02  0.00000000000E+00 0. -1.
</event>
<event>
 7    1  0.9953837E-014  0.5052886E+02  0.7816164E-02  0.1300439E+00
        -11   -1    0    0    0    0  0.00000000000E+00  0.00000000000E+00  0.45593999997E+02  0.45594000000E+02  0.51100000000E-03 0. -1.
         11   -1    0    0    0    0 -0.00000000000E+00 -0.00000000000E+00 -0.45593999997E+02  0.45594000000E+02  0.51100000000E-03 0.  1.
    9900012    2    1    2    0    0  0.15116033878E+02 -0.37216177845E+02 -0.62950362709E+01  0.50528857667E+02  0.29999993365E+02 0.  0.
         12    1    1    2    0    0 -0.15116033878E+02  0.37216177845E+02  0.62950362709E+01  0.40659142333E+02  0.00000000000E+00 0. -1.
         11    1    3    3    0    0  0.13392161505E+02 -0.85121893676E+01  0.46767716673E+01  0.16543263013E+02  0.51100000000E-03 0. -1.
        -11    1    3    3    0    0 -0.37664531443E+01 -0.16635436856E+02 -0.11737318248E+02  0.20704795787E+02  0.51100000000E-03 0.  1.
        -12    1    3    3    0    0  0.54903255168E+01 -0.12068551622E+02  0.76551030999E+00  0.13280798867E+02  0.00000000000E+00 0.  1.
</event>
<event>
 7    1  0.9953837E-014  0.5052888E+02  0.7816164E-02  0.1300439E+00
        -11   -1    0    0    0    0  0.00000000000E+00  0.00000000000E+00  0.45593999997E+02  0.45594000000E+02  0.51100000000E-03 0. -1.
         11   -1    0    0    0    0 -0.00000000000E+00 -0.00000000000E+00 -0.45593999997E+02  0.45594000000E+02  0.51100000000E-03 0.  1.
    9900012    2    1    2    0    0 -0.22708865846E+02 -0.22633586336E+01  0.33650391328E+02  0.50528877815E+02  0.30000054607E+02 0.  0.
        -12    1    1    2    0    0  0.22708865846E+02  0.22633586336E+01 -0.33650391328E+02  0.40659122185E+02  0.00000000000E+00 0.  1.
         11    1    3    3    0    0 -0.20886845499E+02  0.18753026714E+01  0.13657816769E+02  0.25026246905E+02  0.51100000000E-03 0. -1.
        -11    1    3    3    0    0 -0.17730012222E+01 -0.70501106567E+01  0.21153563228E+02  0.22367852626E+02  0.51100000000E-03 0.  1.
         12    1    3    3    0    0 -0.49019124744E-01  0.29114493518E+01 -0.11609886686E+01  0.31347782842E+01  0.00000000000E+00 0. -1.
</event>
<event>
 7    1  0.9953837E-014  0.5052887E+02  0.7816164E-02  0.1300439E+00
        -11   -1    0    0    0    0  0.00000000000E+00  0.00000000000E+00  0.45593999997E+02  0.45594000000E+02  0.51100000000E-03 0. -1.
         11   -1    0    0    0    0 -0.00000000000E+00 -0.00000000000E+00 -0.45593999997E+02  0.45594000000E+02  0.51100000000E-03 0.  1.
    9900012    2    1    2    0    0  0.39752409528E+02  0.56709518310E+01 -0.63836805509E+01  0.50528866521E+02  0.30000020276E+02 0.  0.
         12    1    1    2    0    0 -0.39752409528E+02 -0.56709518310E+01  0.63836805509E+01  0.40659133479E+02  0.00000000000E+00 0. -1.
         11    1    3    3    0    0  0.13954943622E+02  0.14682806367E+02 -0.33350427649E+01  0.20529192989E+02  0.51100000000E-03 0. -1.
        -11    1    3    3    0    0  0.14877414582E+02 -0.27502656654E+00 -0.53780378886E+01  0.15822022502E+02  0.51100000000E-03 0.  1.
         12    1    3    3    0    0  0.10920051324E+02 -0.87368279690E+01  0.23294001026E+01  0.14177651029E+02  0.00000000000E+00 0. -1.
</event>
<event>
 7    1  0.9953837E-014  0.5052890E+02  0.7816164E-02  0.1300439E+00
        -11   -1    0    0    0    0  0.00000000000E+00  0.00000000000E+00  0.45593999997E+02  0.45594000000E+02  0.51100000000E-03 0. -1.
         11   -1    0    0    0    0 -0.00000000000E+00 -0.00000000000E+00 -0.45593999997E+02  0.45594000000E+02  0.51100000000E-03 0.  1.
    9900012    2    1    2    0    0  0.19654355038E+02  0.20057663947E+01  0.35536537666E+02  0.50528901632E+02  0.30000127002E+02 0.  0.
        -12    1    1    2    0    0 -0.19654355038E+02 -0.20057663947E+01 -0.35536537666E+02  0.40659098368E+02  0.00000000000E+00 0.  1.
         11    1    3    3    0    0  0.18968894020E+01  0.48516625557E+01  0.12773771413E+02  0.13795146079E+02  0.51100000000E-03 0. -1.
        -11    1    3    3    0    0  0.96641796660E+01 -0.12375889402E+02  0.88341453119E+01  0.18016690338E+02  0.51100000000E-03 0.  1.
        -12    1    3    3    0    0  0.80932859699E+01  0.95299932406E+01  0.13928620941E+02  0.18717065215E+02  0.00000000000E+00 0.  1.
</event>
<event>
 7    1  0.9953837E-014  0.5052887E+02  0.7816164E-02  0.1300439E+00
        -11   -1    0    0    0    0  0.00000000000E+00  0.00000000000E+00  0.45593999997E+02  0.45594000000E+02  0.51100000000E-03 0. -1.
         11   -1    0    0    0    0 -0.00000000000E+00 -0.00000000000E+00 -0.45593999997E+02  0.45594000000E+02  0.51100000000E-03 0.  1.
    9900012    2    1    2    0    0 -0.10245168674E+02  0.26550056179E+02  0.29039560765E+02  0.50528867524E+02  0.30000023325E+02 0.  0.
        -12    1    1    2    0    0  0.10245168674E+02 -0.26550056179E+02 -0.29039560765E+02  0.40659132476E+02  0.00000000000E+00 0.  1.
         11    1    3    3    0    0  0.48581803672E+01  0.30599431065E+01  0.15875152341E+02  0.16881517420E+02  0.51100000000E-03 0.  1.
        -11    1    3    3    0    0 -0.13261883802E+02  0.90030963231E+01  0.93380382450E+01  0.18550802244E+02  0.51100000000E-03 0. -1.
         12    1    3    3    0    0 -0.18414652391E+01  0.14487016749E+02  0.38263701798E+01  0.15096547860E+02  0.00000000000E+00 0. -1.
</event>
<event>
 7    1  0.9953837E-014  0.5052886E+02  0.7816164E-02  0.1300439E+00
        -11   -1    0    0    0    0  0.00000000000E+00  0.00000000000E+00  0.45593999997E+02  0.45594000000E+02  0.51100000000E-03 0.  1.
         11   -1    0    0    0    0 -0.00000000000E+00 -0.00000000000E+00 -0.45593999997E+02  0.45594000000E+02  0.51100000000E-03 0. -1.
    9900012    2    1    2    0    0  0.29810088720E+02  0.26016566932E+02  0.93628095379E+01  0.50528863919E+02  0.30000012367E+02 0.  0.
        -12    1    1    2    0    0 -0.29810088720E+02 -0.26016566932E+02 -0.93628095379E+01  0.40659136081E+02  0.00000000000E+00 0.  1.
         11    1    3    3    0    0  0.12079921374E+02  0.24996558740E+02  0.15287128028E+00  0.27762849622E+02  0.51100000000E-03 0. -1.
        -11    1    3    3    0    0  0.11387426198E+01  0.17554923034E+01  0.53087458130E+01  0.57062483603E+01  0.51100000000E-03 0.  1.
         12    1    3    3    0    0  0.16591424726E+02 -0.73548411123E+00  0.39011924446E+01  0.17059765937E+02  0.00000000000E+00 0. -1.
</event>
<event>
 7    1  0.9953837E-014  0.5052885E+02  0.7816164E-02  0.1300439E+00
        -11   -1    0    0    0    0  0.00000000000E+00  0.00000000000E+00  0.45593999997E+02  0.45594000000E+02  0.51100000000E-03 0. -1.
         11   -1    0    0    0    0 -0.00000000000E+00 -0.00000000000E+00 -0.45593999997E+02  0.45594000000E+02  0.51100000000E-03 0.  1.
    9900012    2    1    2    0    0  0.55134306524E+01 -0.39038021746E+01 -0.40094000957E+02  0.50528849717E+02  0.29999969199E+02 0.  0.
         12    1    1    2    0    0 -0.55134306524E+01  0.39038021746E+01  0.40094000957E+02  0.40659150283E+02  0.00000000000E+00 0. -1.
         11    1    3    3    0    0  0.34275789688E+00 -0.77601602933E+01 -0.53488383257E+01  0.94312057792E+01  0.51100000000E-03 0. -1.
        -11    1    3    3    0    0 -0.67634458250E+01  0.28747290223E+01 -0.23677645941E+02  0.24791917714E+02  0.51100000000E-03 0.  1.
        -12    1    3    3    0    0  0.11934118580E+02  0.98162909629E+00 -0.11067516690E+02  0.16305726223E+02  0.00000000000E+00 0.  1.
</event>
<event>
 7    1  0.9953837E-014  0.5052886E+02  0.7816164E-02  0.1300439E+00
        -11   -1    0    0    0    0  0.00000000000E+00  0.00000000000E+00  0.45593999997E+02  0.45594000000E+02  0.51100000000E-03 0.  1.
         11   -1    0    0    0    0 -0.00000000000E+00 -0.00000000000E+00 -0.45593999997E+02  0.45594000000E+02  0.51100000000E-03 0. -1.
    9900012    2    1    2    0    0 -0.31237143173E+02 -0.23419502382E+02 -0.11354875041E+02  0.50528863356E+02  0.30000010657E+02 0.  0.
         12    1    1    2    0    0  0.31237143173E+02  0.23419502382E+02  0.11354875041E+02  0.40659136644E+02  0.00000000000E+00 0. -1.
         11    1    3    3    0    0 -0.22297892059E+02 -0.12279704810E+01 -0.10869494881E+02  0.24836461524E+02  0.51100000000E-03 0. -1.
        -11    1    3    3    0    0 -0.77098758509E+01 -0.69797595537E+01 -0.76946128225E+00  0.10428389137E+02  0.51100000000E-03 0.  1.
         12    1    3    3    0    0 -0.12293752627E+01 -0.15211772347E+02  0.28408112149E+00  0.15264012695E+02  0.00000000000E+00 0. -1.
</event>
<event>
 7    1  0.9953837E-014  0.5052887E+02  0.7816164E-02  0.1300439E+00
        -11   -1    0    0    0    0  0.00000000000E+00  0.00000000000E+00  0.45593999997E+02  0.45594000000E+02  0.51100000000E-03 0. -1.
         11   -1    0    0    0    0 -0.00000000000E+00 -0.00000000000E+00 -0.45593999997E+02  0.45594000000E+02  0.51100000000E-03 0.  1.
    9900012    2    1    2    0    0 -0.16936552013E+02  0.62823052130E+01  0.36425959091E+02  0.50528872506E+02  0.30000038469E+02 0.  0.
        -12    1    1    2    0    0  0.16936552013E+02 -0.62823052130E+01 -0.36425959091E+02  0.40659127494E+02  0.00000000000E+00 0.  1.
         11    1    3    3    0    0 -0.16431576837E+01  0.69118989515E+01  0.63370472124E+01  0.95201093440E+01  0.51100000000E-03 0. -1.
        -11    1    3    3    0    0 -0.17727739955E+02 -0.65778535755E+01  0.13543008000E+02  0.23258417563E+02  0.51100000000E-03 0.  1.
        -12    1    3    3    0    0  0.24343456262E+01  0.59482598370E+01  0.16545903879E+02  0.17750345599E+02  0.00000000000E+00 0.  1.
</event>
<event>
 7    1  0.9953837E-014  0.5052888E+02  0.7816164E-02  0.1300439E+00
        -11   -1    0    0    0    0  0.00000000000E+00  0.00000000000E+00  0.45593999997E+02  0.45594000000E+02  0.51100000000E-03 0. -1.
         11   -1    0    0    0    0 -0.00000000000E+00 -0.00000000000E+00 -0.45593999997E+02  0.45594000000E+02  0.51100000000E-03 0.  1.
    9900012    2    1    2    0    0 -0.12629244953E+01  0.71890443874E+01 -0.39998588292E+02  0.50528875528E+02  0.30000047654E+02 0.  0.
         12    1    1    2    0    0  0.12629244953E+01 -0.71890443874E+01  0.39998588292E+02  0.40659124472E+02  0.00000000000E+00 0. -1.
         11    1    3    3    0    0  0.65556447747E+01  0.13650086567E+02 -0.23406019650E+02  0.27877286414E+02  0.51100000000E-03 0. -1.
        -11    1    3    3    0    0 -0.11549379330E+01 -0.69286047063E+01 -0.13651850607E+02  0.15352930341E+02  0.51100000000E-03 0.  1.
         12    1    3    3    0    0 -0.66636313370E+01  0.46756252707E+00 -0.29407180350E+01  0.72986587722E+01  0.00000000000E+00 0. -1.
</event>
<event>
 7    1  0.2056531E-013  0.5052886E+02  0.7816164E-02  0.1300439E+00
        -11   -1    0    0    0    0  0.00000000000E+00  0.00000000000E+00  0.45593999997E+02  0.45594000000E+02  0.51100000000E-03 0. -1.
         11   -1    0    0    0    0 -0.00000000000E+00 -0.00000000000E+00 -0.45593999997E+02  0.45594000000E+02  0.51100000000E-03 0.  1.
    9900012    2    1    2    0    0  0.20535095480E+01  0.13134442262E+02  0.38424411369E+02  0.50528857559E+02  0.29999993036E+02 0.  0.
        -12    1    1    2    0    0 -0.20535095480E+01 -0.13134442262E+02 -0.38424411369E+02  0.40659142441E+02  0.00000000000E+00 0.  1.
         11    1    3    3    0    0 -0.43643663614E+01  0.28790210302E+01  0.23960448418E+02  0.24524264402E+02  0.51100000000E-03 0. -1.
        -11    1    3    3    0    0  0.83931537345E+01 -0.15489184324E+01  0.20848939699E+01  0.87858386650E+01  0.51100000000E-03 0.  1.
         12    1    3    3    0    0 -0.19752778251E+01  0.11804339664E+02  0.12379068981E+02  0.17218754491E+02  0.00000000000E+00 0. -1.
</event>
<event>
 7    1  0.9953837E-014  0.5052886E+02  0.7816164E-02  0.1300439E+00
        -11   -1    0    0    0    0  0.00000000000E+00  0.00000000000E+00  0.45593999997E+02  0.45594000000E+02  0.51100000000E-03 0. -1.
         11   -1    0    0    0    0 -0.00000000000E+00 -0.00000000000E+00 -0.45593999997E+02  0.45594000000E+02  0.51100000000E-03 0.  1.
    9900012    2    1    2    0    0  0.66601375329E+01  0.27693268191E+01 -0.40014232511E+02  0.50528863186E+02  0.30000010141E+02 0.  0.
         12    1    1    2    0    0 -0.66601375329E+01 -0.27693268191E+01  0.40014232511E+02  0.40659136814E+02  0.00000000000E+00 0. -1.
         11    1    3    3    0    0  0.39449398718E+01  0.13058548950E+02 -0.62817925686E+01  0.15018294491E+02  0.51100000000E-03 0. -1.
        -11    1    3    3    0    0  0.28474561332E+01 -0.47472498888E+01 -0.15877920362E+02  0.16815253291E+02  0.51100000000E-03 0.  1.
         12    1    3    3    0    0 -0.13225847213E+00 -0.55419722426E+01 -0.17854519580E+02  0.18695315405E+02  0.00000000000E+00 0. -1.
</event>
<event>
 7    1  0.9953837E-014  0.5052886E+02  0.7816164E-02  0.1300439E+00
        -11   -1    0    0    0    0  0.00000000000E+00  0.00000000000E+00  0.45593999997E+02  0.45594000000E+02  0.51100000000E-03 0. -1.
         11   -1    0    0    0    0 -0.00000000000E+00 -0.00000000000E+00 -0.45593999997E+02  0.45594000000E+02  0.51100000000E-03 0.  1.
    9900012    2    1    2    0    0 -0.14407700671E+02  0.66350597673E+01 -0.37437411111E+02  0.50528860714E+02  0.30000002627E+02 0.  0.
         12    1    1    2    0    0  0.14407700671E+02 -0.66350597673E+01  0.37437411111E+02  0.40659139286E+02  0.00000000000E+00 0. -1.
         11    1    3    3    0    0 -0.13566937273E+02  0.57095783456E+01 -0.16397129714E+02  0.22034675741E+02  0.51100000000E-03 0.  1.
        -11    1    3    3    0    0  0.66229794683E+01 -0.43415693929E+01 -0.33782975920E+01  0.86096444010E+01  0.51100000000E-03 0. -1.
         12    1    3    3    0    0 -0.74637428657E+01  0.52670508147E+01 -0.17661983805E+02  0.19884540572E+02  0.00000000000E+00 0. -1.
</event>
<event>
 7    1  0.9953837E-014  0.5052886E+02  0.7816164E-02  0.1300439E+00
        -11   -1    0    0    0    0  0.00000000000E+00  0.00000000000E+00  0.45593999997E+02  0.45594000000E+02  0.51100000000E-03 0. -1.
         11   -1    0    0    0    0 -0.00000000000E+00 -0.00000000000E+00 -0.45593999997E+02  0.45594000000E+02  0.51100000000E-03 0.  1.
    9900012    2    1    2    0    0  0.11457002638E+02  0.21111399405E+02  0.32805666579E+02  0.50528857683E+02  0.29999993414E+02 0.  0.
        -12    1    1    2    0    0 -0.11457002638E+02 -0.21111399405E+02 -0.32805666579E+02  0.40659142317E+02  0.00000000000E+00 0.  1.
         11    1    3    3    0    0  0.18329233209E+02  0.58541493255E+01  0.23894339197E+02  0.30678515288E+02  0.51100000000E-03 0. -1.
        -11    1    3    3    0    0 -0.68457284120E+01  0.13508063007E+02  0.96439292023E+01  0.17953749871E+02  0.51100000000E-03 0.  1.
         12    1    3    3    0    0 -0.26502159730E-01  0.17491870717E+01 -0.73260182033E+00  0.18965925244E+01  0.00000000000E+00 0. -1.
</event>
<event>
 7    1  0.9953837E-014  0.5052886E+02  0.7816164E-02  0.1300439E+00
        -11   -1    0    0    0    0  0.00000000000E+00  0.00000000000E+00  0.45593999997E+02  0.45594000000E+02  0.51100000000E-03 0. -1.
         11   -1    0    0    0    0 -0.00000000000E+00 -0.00000000000E+00 -0.45593999997E+02  0.45594000000E+02  0.51100000000E-03 0.  1.
    9900012    2    1    2    0    0 -0.30418800957E+02  0.54171122994E+01  0.26429471651E+02  0.50528861678E+02  0.30000005557E+02 0.  0.
        -12    1    1    2    0    0  0.30418800957E+02 -0.54171122994E+01 -0.26429471651E+02  0.40659138322E+02  0.00000000000E+00 0.  1.
         11    1    3    3    0    0  0.26989028956E+01  0.53885225602E+01  0.10890492212E+02  0.12446809756E+02  0.51100000000E-03 0.  1.
        -11    1    3    3    0    0 -0.24838801060E+02 -0.17500707485E+01  0.16006574340E+02  0.29601337944E+02  0.51100000000E-03 0. -1.
        -12    1    3    3    0    0 -0.82789027932E+01  0.17786604878E+01 -0.46759490150E+00  0.84807139784E+01  0.00000000000E+00 0.  1.
</event>
<event>
 7    1  0.9953837E-014  0.5052884E+02  0.7816164E-02  0.1300439E+00
        -11   -1    0    0    0    0  0.00000000000E+00  0.00000000000E+00  0.45593999997E+02  0.45594000000E+02  0.51100000000E-03 0. -1.
         11   -1    0    0    0    0 -0.00000000000E+00 -0.00000000000E+00 -0.45593999997E+02  0.45594000000E+02  0.51100000000E-03 0.  1.
    9900012    2    1    2    0    0 -0.11436390130E+02 -0.10848388779E+02 -0.37479178828E+02  0.50528838622E+02  0.29999935476E+02 0.  0.
         12    1    1    2    0    0  0.11436390130E+02  0.10848388779E+02  0.37479178828E+02  0.40659161378E+02  0.00000000000E+00 0. -1.
         11    1    3    3    0    0 -0.27520746220E+01 -0.11959395080E+02 -0.34206203684E+02  0.36340960584E+02  0.51100000000E-03 0.  1.
        -11    1    3    3    0    0  0.67096958596E+00 -0.31426955496E+01 -0.21123506457E+01  0.38456158172E+01  0.51100000000E-03 0. -1.
         12    1    3    3    0    0 -0.93552850941E+01  0.42537018507E+01 -0.11606244987E+01  0.10342262221E+02  0.00000000000E+00 0. -1.
</event>
<event>
 7    1  0.9953837E-014  0.5052887E+02  0.7816164E-02  0.1300439E+00
        -11   -1    0    0    0    0  0.00000000000E+00  0.00000000000E+00  0.45593999997E+02  0.45594000000E+02  0.51100000000E-03 0. -1.
         11   -1    0    0    0    0 -0.00000000000E+00 -0.00000000000E+00 -0.45593999997E+02  0.45594000000E+02  0.51100000000E-03 0.  1.
    9900012    2    1    2    0    0  0.18302135679E+02 -0.15429723257E+02 -0.32865188123E+02  0.50528866702E+02  0.30000020827E+02 0.  0.
         12    1    1    2    0    0 -0.18302135679E+02  0.15429723257E+02  0.32865188123E+02  0.40659133298E+02  0.00000000000E+00 0. -1.
         11    1    3    3    0    0  0.89251629469E+01  0.29782443866E+01 -0.24920409287E+01  0.97333828398E+01  0.51100000000E-03 0. -1.
        -11    1    3    3    0    0  0.14180175654E+01 -0.17990230370E+02 -0.14947552620E+02  0.23432637329E+02  0.51100000000E-03 0.  1.
         12    1    3    3    0    0  0.79589551672E+01 -0.41773727340E+00 -0.15425594574E+02  0.17362846533E+02  0.00000000000E+00 0. -1.
</event>
<event>
 7    1  0.9953837E-014  0.5052885E+02  0.7816164E-02  0.1300439E+00
        -11   -1    0    0    0    0  0.00000000000E+00  0.00000000000E+00  0.45593999997E+02  0.45594000000E+02  0.51100000000E-03 0. -1.
         11   -1    0    0    0    0 -0.00000000000E+00 -0.00000000000E+00 -0.45593999997E+02  0.45594000000E+02  0.51100000000E-03 0.  1.
    9900012    2    1    2    0    0 -0.12255242478E+02 -0.33890560195E+02  0.18825650202E+02  0.50528854115E+02  0.29999982569E+02 0.  0.
        -12    1    1    2    0    0  0.12255242478E+02  0.33890560195E+02 -0.18825650202E+02  0.40659145885E+02  0.00000000000E+00 0.  1.
         11    1    3    3    0    0 -0.59314708636E+01 -0.18964867378E+02  0.69108533133E+01  0.21038261217E+02  0.51100000000E-03 0. -1.
        -11    1    3    3    0    0  0.21583813320E+01 -0.49909592434E+00 -0.51394901475E+01  0.55966120067E+01  0.51100000000E-03 0.  1.
        -12    1    3    3    0    0 -0.84821529461E+01 -0.14426596893E+02  0.17054287036E+02  0.23893980891E+02  0.00000000000E+00 0.  1.
</event>
<event>
 7    1  0.1277805E-013  0.5052886E+02  0.7816164E-02  0.1300439E+00
        -11   -1    0    0    0    0  0.00000000000E+00  0.00000000000E+00  0.45593999997E+02  0.45594000000E+02  0.51100000000E-03 0. -1.
         11   -1    0    0    0    0 -0.00000000000E+00 -0.00000000000E+00 -0.45593999997E+02  0.45594000000E+02  0.51100000000E-03 0.  1.
    9900012    2    1    2    0    0 -0.40996287693E+01  0.88559655430E+01  0.39470627847E+02  0.50528861490E+02  0.30000004986E+02 0.  0.
        -12    1    1    2    0    0  0.40996287693E+01 -0.88559655430E+01 -0.39470627847E+02  0.40659138510E+02  0.00000000000E+00 0.  1.
         11    1    3    3    0    0  0.95065889480E+01 -0.21228660163E+01  0.87389461055E+01  0.13086289499E+02  0.51100000000E-03 0. -1.
        -11    1    3    3    0    0 -0.69573843831E+01  0.41510587558E+01  0.39450657721E+01  0.90111059508E+01  0.51100000000E-03 0.  1.
         12    1    3    3    0    0 -0.66488333342E+01  0.68277728035E+01  0.26786615969E+02  0.28431466041E+02  0.00000000000E+00 0. -1.
</event>
<event>
 7    1  0.9953837E-014  0.5052885E+02  0.7816164E-02  0.1300439E+00
        -11   -1    0    0    0    0  0.00000000000E+00  0.00000000000E+00  0.45593999997E+02  0.45594000000E+02  0.51100000000E-03 0.  1.
         11   -1    0    0    0    0 -0.00000000000E+00 -0.00000000000E+00 -0.45593999997E+02  0.45594000000E+02  0.51100000000E-03 0. -1.
    9900012    2    1    2    0    0 -0.39445277383E+02 -0.91770393480E+01  0.36080965904E+01  0.50528851951E+02  0.29999975991E+02 0.  0.
        -12    1    1    2    0    0  0.39445277383E+02  0.91770393480E+01 -0.36080965904E+01  0.40659148049E+02  0.00000000000E+00 0.  1.
         11    1    3    3    0    0 -0.19856036096E+02  0.12994842461E+01  0.22231101316E+01  0.20022313744E+02  0.51100000000E-03 0. -1.
        -11    1    3    3    0    0 -0.15271060127E+02 -0.14218665962E+02 -0.54813605283E+01  0.21573619368E+02  0.51100000000E-03 0.  1.
         12    1    3    3    0    0 -0.43181811599E+01  0.37421423680E+01  0.68663469871E+01  0.89329188387E+01  0.00000000000E+00 0. -1.
</event>
<event>
 7    1  0.9953837E-014  0.5052886E+02  0.7816164E-02  0.1300439E+00
        -11   -1    0    0    0    0  0.00000000000E+00  0.00000000000E+00  0.45593999997E+02  0.45594000000E+02  0.51100000000E-03 0. -1.
         11   -1    0    0    0    0 -0.00000000000E+00 -0.00000000000E+00 -0.45593999997E+02  0.45594000000E+02  0.51100000000E-03 0.  1.
    9900012    2    1    2    0    0  0.13110569736E+02 -0.23911065699E+02 -0.30158577467E+02  0.50528857159E+02  0.29999991822E+02 0.  0.
         12    1    1    2    0    0 -0.13110569736E+02  0.23911065699E+02  0.30158577467E+02  0.40659142841E+02  0.00000000000E+00 0. -1.
         11    1    3    3    0    0 -0.31827028970E+01 -0.13586559090E+01 -0.17634140669E+02  0.17970488613E+02  0.51100000000E-03 0. -1.
        -11    1    3    3    0    0  0.15456286479E+02 -0.15697195370E+02 -0.54959177061E+01  0.22704709773E+02  0.51100000000E-03 0.  1.
        -12    1    3    3    0    0  0.83698615352E+00 -0.68552144210E+01 -0.70285190922E+01  0.98536587727E+01  0.00000000000E+00 0.  1.
</event>
<event>
 7    1  0.9953837E-014  0.5052886E+02  0.7816164E-02  0.1300439E+00
        -11   -1    0    0    0    0  0.00000000000E+00  0.00000000000E+00  0.45593999997E+02  0.45594000000E+02  0.51100000000E-03 0. -1.
         11   -1    0    0    0    0 -0.00000000000E+00 -0.00000000000E+00 -0.45593999997E+02  0.45594000000E+02  0.51100000000E-03 0.  1.
    9900012    2    1    2    0    0 -0.79628843534E+01  0.61540355650E+01 -0.39393983752E+02  0.50528860353E+02  0.30000001529E+02 0.  0.
         12    1    1    2    0    0  0.79628843534E+01 -0.61540355650E+01  0.39393983752E+02  0.40659139647E+02  0.00000000000E+00 0. -1.
         11    1    3    3    0    0  0.32814323402E+01 -0.24424912902E+01  0.21338594271E+01  0.46137748343E+01  0.51100000000E-03 0. -1.
        -11    1    3    3    0    0 -0.73662326339E+00  0.90252624876E+01 -0.20107407830E+02  0.22052342884E+02  0.51100000000E-03 0.  1.
         12    1    3    3    0    0 -0.10507693430E+02 -0.42873563241E+00 -0.21420435350E+02  0.23862742634E+02  0.00000000000E+00 0. -1.
</event>
<event>
 7    1  0.9953837E-014  0.5052886E+02  0.7816164E-02  0.1300439E+00
        -11   -1    0    0    0    0  0.00000000000E+00  0.00000000000E+00  0.45593999997E+02  0.45594000000E+02  0.51100000000E-03 0. -1.
         11   -1    0    0    0    0 -0.00000000000E+00 -0.00000000000E+00 -0.45593999997E+02  0.45594000000E+02  0.51100000000E-03 0.  1.
    9900012    2    1    2    0    0 -0.11955623492E+02 -0.25208353307E+02  0.29576474881E+02  0.50528857413E+02  0.29999992592E+02 0.  0.
        -12    1    1    2    0    0  0.11955623492E+02  0.25208353307E+02 -0.29576474881E+02  0.40659142587E+02  0.00000000000E+00 0.  1.
         11    1    3    3    0    0 -0.17002238963E+02 -0.24426296871E+02  0.11970846989E+02  0.32078361655E+02  0.51100000000E-03 0. -1.
        -11    1    3    3    0    0  0.38868853799E+01 -0.11999240255E+01  0.10939498890E+02  0.11671346617E+02  0.51100000000E-03 0.  1.
         12    1    3    3    0    0  0.11597300906E+01  0.41786758924E+00  0.66661290019E+01  0.67791491410E+01  0.00000000000E+00 0. -1.
</event>
<event>
 7    1  0.9953837E-014  0.5052885E+02  0.7816164E-02  0.1300439E+00
        -11   -1    0    0    0    0  0.00000000000E+00  0.00000000000E+00  0.45593999997E+02  0.45594000000E+02  0.51100000000E-03 0. -1.
         11   -1    0    0    0    0 -0.00000000000E+00 -0.00000000000E+00 -0.45593999997E+02  0.45594000000E+02  0.51100000000E-03 0.  1.
    9900012    2    1    2    0    0 -0.16044657048E+01  0.24013193989E+02 -0.32771302917E+02  0.50528854772E+02  0.29999984565E+02 0.  0.
         12    1    1    2    0    0  0.16044657048E+01 -0.24013193989E+02  0.32771302917E+02  0.40659145228E+02  0.00000000000E+00 0. -1.
         11    1    3    3    0    0  0.54781632431E+01  0.17875907008E+02 -0.14002174299E+02  0.23358493299E+02  0.51100000000E-03 0.  1.
        -11    1    3    3    0    0 -0.10028985506E+02 -0.57734711494E-01 -0.17534648701E+02  0.20200192794E+02  0.51100000000E-03 0. -1.
         12    1    3    3    0    0  0.29463565582E+01  0.61950216930E+01 -0.12344799175E+01  0.69701686788E+01  0.00000000000E+00 0. -1.
</event>
<event>
 7    1  0.9953837E-014  0.5052886E+02  0.7816164E-02  0.1300439E+00
        -11   -1    0    0    0    0  0.00000000000E+00  0.00000000000E+00  0.45593999997E+02  0.45594000000E+02  0.51100000000E-03 0. -1.
         11   -1    0    0    0    0 -0.00000000000E+00 -0.00000000000E+00 -0.45593999997E+02  0.45594000000E+02  0.51100000000E-03 0.  1.
    9900012    2    1    2    0    0 -0.25077499865E+02  0.71694677017E+01 -0.31191079899E+02  0.50528859185E+02  0.29999997977E+02 0.  0.
         12    1    1    2    0    0  0.25077499865E+02 -0.71694677017E+01  0.31191079899E+02  0.40659140815E+02  0.00000000000E+00 0. -1.
         11    1    3    3    0    0 -0.97425010126E+01  0.93174377728E+01 -0.20128876997E+01  0.13630212390E+02  0.51100000000E-03 0. -1.
        -11    1    3    3    0    0 -0.10573291553E+02  0.45945947485E+01 -0.25249729321E+02  0.27757046424E+02  0.51100000000E-03 0.  1.
        -12    1    3    3    0    0 -0.47617072999E+01 -0.67425648196E+01 -0.39284628783E+01  0.91416003710E+01  0.00000000000E+00 0.  1.
</event>
<event>
 7    1  0.9953837E-014  0.5052887E+02  0.7816164E-02  0.1300439E+00
        -11   -1    0    0    0    0  0.00000000000E+00  0.00000000000E+00  0.45593999997E+02  0.45594000000E+02  0.51100000000E-03 0. -1.
         11   -1    0    0    0    0 -0.00000000000E+00 -0.00000000000E+00 -0.45593999997E+02  0.45594000000E+02  0.51100000000E-03 0.  1.
    9900012    2    1    2    0    0 -0.18455465425E+01  0.13917012082E+01 -0.40593373166E+02  0.50528870407E+02  0.30000032089E+02 0.  0.
         12    1    1    2    0    0  0.18455465425E+01 -0.13917012082E+01  0.40593373166E+02  0.40659129593E+02  0.00000000000E+00 0. -1.
         11    1    3    3    0    0 -0.39392900671E+01 -0.10794385916E+02 -0.13428195200E+02  0.17673516914E+02  0.51100000000E-03 0. -1.
        -11    1    3    3    0    0  0.57391903073E+01  0.13440827200E+02 -0.21041183168E+02  0.25618851079E+02  0.51100000000E-03 0.  1.
        -12    1    3    3    0    0 -0.36454467827E+01 -0.12547400761E+01 -0.61239947976E+01  0.72365024138E+01  0.00000000000E+00 0.  1.
</event>
<event>
 7    1  0.9953837E-014  0.5052886E+02  0.7816164E-02  0.1300439E+00
        -11   -1    0    0    0    0  0.00000000000E+00  0.00000000000E+00  0.45593999997E+02  0.45594000000E+02  0.51100000000E-03 0. -1.
         11   -1    0    0    0    0 -0.00000000000E+00 -0.00000000000E+00 -0.45593999997E+02  0.45594000000E+02  0.51100000000E-03 0.  1.
    9900012    2    1    2    0    0 -0.11822099735E+02  0.16104164774E+02 -0.35412703389E+02  0.50528859250E+02  0.29999998177E+02 0.  0.
         12    1    1    2    0    0  0.11822099735E+02 -0.16104164774E+02  0.35412703389E+02  0.40659140750E+02  0.00000000000E+00 0. -1.
         11    1    3    3    0    0 -0.87927534807E+01  0.36455456810E+01  0.28851271639E+01  0.99461789697E+01  0.51100000000E-03 0. -1.
        -11    1    3    3    0    0 -0.98085949627E+00  0.18133310879E+01 -0.11356764743E+02  0.11542372403E+02  0.51100000000E-03 0.  1.
         12    1    3    3    0    0 -0.20484867578E+01  0.10645288005E+02 -0.26941065809E+02  0.29040307878E+02  0.00000000000E+00 0. -1.
</event>
<event>
 7    1  0.1213010E-013  0.5052886E+02  0.7816164E-02  0.1300439E+00
        -11   -1    0    0    0    0  0.00000000000E+00  0.00000000000E+00  0.45593999997E+02  0.45594000000E+02  0.51100000000E-03 0. -1.
         11   -1    0    0    0    0 -0.00000000000E+00 -0.00000000000E+00 -0.45593999997E+02  0.45594000000E+02  0.51100000000E-03 0.  1.
    9900012    2    1    2    0    0  0.18917710739E+02 -0.12375757029E+02  0.33795360566E+02  0.50528861575E+02  0.30000005245E+02 0.  0.
        -12    1    1    2    0    0 -0.18917710739E+02  0.12375757029E+02 -0.33795360566E+02  0.40659138425E+02  0.00000000000E+00 0.  1.
         11    1    3    3    0    0  0.16763210762E+02  0.39419200591E+01  0.16327383126E+02  0.23730305704E+02  0.51100000000E-03 0. -1.
        -11    1    3    3    0    0  0.31222307726E+01 -0.68810132396E+01  0.77159460581E+00  0.75955267558E+01  0.51100000000E-03 0.  1.
         12    1    3    3    0    0 -0.96773079530E+00 -0.94366638482E+01  0.16696382834E+02  0.19203029116E+02  0.00000000000E+00 0. -1.
</event>
<event>
 7    1  0.9953837E-014  0.5052885E+02  0.7816164E-02  0.1300439E+00
        -11   -1    0    0    0    0  0.00000000000E+00  0.00000000000E+00  0.45593999997E+02  0.45594000000E+02  0.51100000000E-03 0. -1.
         11   -1    0    0    0    0 -0.00000000000E+00 -0.00000000000E+00 -0.45593999997E+02  0.45594000000E+02  0.51100000000E-03 0.  1.
    9900012    2    1    2    0    0 -0.42791030936E-01 -0.15648950508E+02 -0.37526985484E+02  0.50528854379E+02  0.29999983371E+02 0.  0.
         12    1    1    2    0    0  0.42791030936E-01  0.15648950508E+02  0.37526985484E+02  0.40659145621E+02  0.00000000000E+00 0. -1.
         11    1    3    3    0    0 -0.82243504407E+01 -0.35875333823E+01 -0.24533841782E+00  0.89761086859E+01  0.51100000000E-03 0. -1.
        -11    1    3    3    0    0 -0.75460952076E+00 -0.17400829532E+01 -0.16992367120E+02  0.17097890654E+02  0.51100000000E-03 0.  1.
         12    1    3    3    0    0  0.89361689306E+01 -0.10321334173E+02 -0.20289279946E+02  0.24454855039E+02  0.00000000000E+00 0. -1.
</event>
<event>
 7    1  0.9953837E-014  0.5052887E+02  0.7816164E-02  0.1300439E+00
        -11   -1    0    0    0    0  0.00000000000E+00  0.00000000000E+00  0.45593999997E+02  0.45594000000E+02  0.51100000000E-03 0. -1.
         11   -1    0    0    0    0 -0.00000000000E+00 -0.00000000000E+00 -0.45593999997E+02  0.45594000000E+02  0.51100000000E-03 0.  1.
    9900012    2    1    2    0    0  0.19301196087E+02 -0.28839776992E+02  0.21187158870E+02  0.50528873001E+02  0.30000039975E+02 0.  0.
        -12    1    1    2    0    0 -0.19301196087E+02  0.28839776992E+02 -0.21187158870E+02  0.40659126999E+02  0.00000000000E+00 0.  1.
         11    1    3    3    0    0  0.47133573723E+00 -0.88640456098E+01  0.61537970974E+01  0.10801049992E+02  0.51100000000E-03 0. -1.
        -11    1    3    3    0    0  0.75447870275E+01  0.23296685242E+01  0.12251713698E+02  0.14575858655E+02  0.51100000000E-03 0.  1.
        -12    1    3    3    0    0  0.11285073322E+02 -0.22305399907E+02  0.27816480737E+01  0.25151964354E+02  0.00000000000E+00 0.  1.
</event>
<event>
 7    1  0.9953837E-014  0.5052886E+02  0.7816164E-02  0.1300439E+00
        -11   -1    0    0    0    0  0.00000000000E+00  0.00000000000E+00  0.45593999997E+02  0.45594000000E+02  0.51100000000E-03 0. -1.
         11   -1    0    0    0    0 -0.00000000000E+00 -0.00000000000E+00 -0.45593999997E+02  0.45594000000E+02  0.51100000000E-03 0.  1.
    9900012    2    1    2    0    0 -0.24545457527E+02 -0.24538607095E+02 -0.21178828599E+02  0.50528861984E+02  0.30000006486E+02 0.  0.
         12    1    1    2    0    0  0.24545457527E+02  0.24538607095E+02  0.21178828599E+02  0.40659138016E+02  0.00000000000E+00 0. -1.
         11    1    3    3    0    0 -0.12516992666E+02 -0.88897198699E+01  0.59346442801E+01  0.16459715300E+02  0.51100000000E-03 0. -1.
        -11    1    3    3    0    0 -0.59608810808E+01 -0.95288239595E+01 -0.19792810764E+02  0.22761501434E+02  0.51100000000E-03 0.  1.
         12    1    3    3    0    0 -0.60675837809E+01 -0.61200632658E+01 -0.73206621148E+01  0.11307645251E+02  0.00000000000E+00 0. -1.
</event>
<event>
 7    1  0.9953837E-014  0.5052886E+02  0.7816164E-02  0.1300439E+00
        -11   -1    0    0    0    0  0.00000000000E+00  0.00000000000E+00  0.45593999997E+02  0.45594000000E+02  0.51100000000E-03 0. -1.
         11   -1    0    0    0    0 -0.00000000000E+00 -0.00000000000E+00 -0.45593999997E+02  0.45594000000E+02  0.51100000000E-03 0.  1.
    9900012    2    1    2    0    0 -0.25123863746E+02  0.27804197424E+02 -0.15776050209E+02  0.50528859772E+02  0.29999999762E+02 0.  0.
         12    1    1    2    0    0  0.25123863746E+02 -0.27804197424E+02  0.15776050209E+02  0.40659140228E+02  0.00000000000E+00 0. -1.
         11    1    3    3    0    0 -0.67535383477E+01  0.85069484884E+00  0.56706742356E+01  0.88594869201E+01  0.51100000000E-03 0. -1.
        -11    1    3    3    0    0 -0.11076043028E+02  0.23884184025E+02 -0.10926077922E+02  0.28504598835E+02  0.51100000000E-03 0.  1.
         12    1    3    3    0    0 -0.72942823706E+01  0.30693185501E+01 -0.10520646522E+02  0.13164774017E+02  0.00000000000E+00 0. -1.
</event>
<event>
 7    1  0.9953837E-014  0.5052886E+02  0.7816164E-02  0.1300439E+00
        -11   -1    0    0    0    0  0.00000000000E+00  0.00000000000E+00  0.45593999997E+02  0.45594000000E+02  0.51100000000E-03 0. -1.
         11   -1    0    0    0    0 -0.00000000000E+00 -0.00000000000E+00 -0.45593999997E+02  0.45594000000E+02  0.51100000000E-03 0.  1.
    9900012    2    1    2    0    0  0.37072564522E+02  0.41890351488E+01 -0.16162996135E+02  0.50528862038E+02  0.30000006651E+02 0.  0.
         12    1    1    2    0    0 -0.37072564522E+02 -0.41890351488E+01  0.16162996135E+02  0.40659137962E+02  0.00000000000E+00 0. -1.
         11    1    3    3    0    0  0.10822565264E+02  0.12240261935E+02 -0.37202483123E+01  0.16756854684E+02  0.51100000000E-03 0. -1.
        -11    1    3    3    0    0  0.18772716398E+02  0.16223761851E+01 -0.98951032169E+01  0.21282858205E+02  0.51100000000E-03 0.  1.
         12    1    3    3    0    0  0.74772828603E+01 -0.96736029716E+01 -0.25476446055E+01  0.12489149149E+02  0.00000000000E+00 0. -1.
</event>
<event>
 7    1  0.9953837E-014  0.5052887E+02  0.7816164E-02  0.1300439E+00
        -11   -1    0    0    0    0  0.00000000000E+00  0.00000000000E+00  0.45593999997E+02  0.45594000000E+02  0.51100000000E-03 0. -1.
         11   -1    0    0    0    0 -0.00000000000E+00 -0.00000000000E+00 -0.45593999997E+02  0.45594000000E+02  0.51100000000E-03 0.  1.
    9900012    2    1    2    0    0  0.13203936024E+02 -0.10650315959E+02 -0.36951206089E+02  0.50528870792E+02  0.30000033259E+02 0.  0.
         12    1    1    2    0    0 -0.13203936024E+02  0.10650315959E+02  0.36951206089E+02  0.40659129208E+02  0.00000000000E+00 0. -1.
         11    1    3    3    0    0 -0.83743878248E+01 -0.75773022531E+01 -0.13889727842E+02  0.17901687648E+02  0.51100000000E-03 0. -1.
        -11    1    3    3    0    0  0.43015351678E+01 -0.23021694624E+01 -0.93905355503E+01  0.10582312943E+02  0.51100000000E-03 0.  1.
         12    1    3    3    0    0  0.17276788681E+02 -0.77084424331E+00 -0.13670942697E+02  0.22044870201E+02  0.00000000000E+00 0. -1.
</event>
<event>
 7    1  0.9953837E-014  0.5052886E+02  0.7816164E-02  0.1300439E+00
        -11   -1    0    0    0    0  0.00000000000E+00  0.00000000000E+00  0.45593999997E+02  0.45594000000E+02  0.51100000000E-03 0. -1.
         11   -1    0    0    0    0 -0.00000000000E+00 -0.00000000000E+00 -0.45593999997E+02  0.45594000000E+02  0.51100000000E-03 0.  1.
    9900012    2    1    2    0    0  0.83768759210E+01  0.60903925986E+01 -0.39317945573E+02  0.50528858638E+02  0.29999996316E+02 0.  0.
         12    1    1    2    0    0 -0.83768759210E+01 -0.60903925986E+01  0.39317945573E+02  0.40659141362E+02  0.00000000000E+00 0. -1.
         11    1    3    3    0    0  0.59649291815E+00 -0.25216529824E+01  0.20515472954E+01  0.33050543311E+01  0.51100000000E-03 0. -1.
        -11    1    3    3    0    0 -0.15750696851E+01  0.75434905317E+01 -0.35041311545E+02  0.35878665094E+02  0.51100000000E-03 0.  1.
        -12    1    3    3    0    0  0.93554526879E+01  0.10685550492E+01 -0.63281813239E+01  0.11345139213E+02  0.00000000000E+00 0.  1.
</event>
<event>
 7    1  0.9953837E-014  0.5052887E+02  0.7816164E-02  0.1300439E+00
        -11   -1    0    0    0    0  0.00000000000E+00  0.00000000000E+00  0.45593999997E+02  0.45594000000E+02  0.51100000000E-03 0. -1.
         11   -1    0    0    0    0 -0.00000000000E+00 -0.00000000000E+00 -0.45593999997E+02  0.45594000000E+02  0.51100000000E-03 0.  1.
    9900012    2    1    2    0    0  0.17156233424E+02 -0.29182897897E+02  0.22520805417E+02  0.50528873698E+02  0.30000042092E+02 0.  0.
        -12    1    1    2    0    0 -0.17156233424E+02  0.29182897897E+02 -0.22520805417E+02  0.40659126302E+02  0.00000000000E+00 0.  1.
         11    1    3    3    0    0  0.41673865405E+01 -0.19773484273E+02  0.14709555063E+02  0.24994575437E+02  0.51100000000E-03 0. -1.
        -11    1    3    3    0    0  0.82621012065E+01  0.39305835122E+01  0.66957240041E+01  0.11337747717E+02  0.51100000000E-03 0.  1.
        -12    1    3    3    0    0  0.47267456772E+01 -0.13339997137E+02  0.11155263502E+01  0.14196550544E+02  0.00000000000E+00 0.  1.
</event>
<event>
 7    1  0.9953837E-014  0.5052887E+02  0.7816164E-02  0.1300439E+00
        -11   -1    0    0    0    0  0.00000000000E+00  0.00000000000E+00  0.45593999997E+02  0.45594000000E+02  0.51100000000E-03 0. -1.
         11   -1    0    0    0    0 -0.00000000000E+00 -0.00000000000E+00 -0.45593999997E+02  0.45594000000E+02  0.51100000000E-03 0.  1.
    9900012    2    1    2    0    0  0.24220672044E+02 -0.20030543659E+02  0.25793429375E+02  0.50528872704E+02  0.30000039070E+02 0.  0.
        -12    1    1    2    0    0 -0.24220672044E+02  0.20030543659E+02 -0.25793429375E+02  0.40659127296E+02  0.00000000000E+00 0.  1.
         11    1    3    3    0    0 -0.16517752454E+01 -0.66653785867E+01  0.98206637873E+01  0.11983366416E+02  0.51100000000E-03 0. -1.
        -11    1    3    3    0    0  0.17740947277E+02  0.14550986548E+01  0.53775633153E+01  0.18595072193E+02  0.51100000000E-03 0.  1.
        -12    1    3    3    0    0  0.81315000126E+01 -0.14820263727E+02  0.10595202273E+02  0.19950434095E+02  0.00000000000E+00 0.  1.
</event>
<event>
 7    1  0.9953837E-014  0.5052886E+02  0.7816164E-02  0.1300439E+00
        -11   -1    0    0    0    0  0.00000000000E+00  0.00000000000E+00  0.45593999997E+02  0.45594000000E+02  0.51100000000E-03 0. -1.
         11   -1    0    0    0    0 -0.00000000000E+00 -0.00000000000E+00 -0.45593999997E+02  0.45594000000E+02  0.51100000000E-03 0.  1.
    9900012    2    1    2    0    0  0.23565260309E+02 -0.14458001824E+02 -0.29812925195E+02  0.50528858115E+02  0.29999994725E+02 0.  0.
         12    1    1    2    0    0 -0.23565260309E+02  0.14458001824E+02  0.29812925195E+02  0.40659141885E+02  0.00000000000E+00 0. -1.
         11    1    3    3    0    0  0.69122872750E+01 -0.47171089313E+01  0.38618031659E+01  0.92165262434E+01  0.51100000000E-03 0. -1.
        -11    1    3    3    0    0  0.18427798144E+02 -0.11009198672E+02 -0.32123697833E+02  0.38635710975E+02  0.51100000000E-03 0.  1.
         12    1    3    3    0    0 -0.17748251102E+01  0.12683057794E+01 -0.15510305279E+01  0.26766208958E+01  0.00000000000E+00 0. -1.
</event>
<event>
 7    1  0.9953837E-014  0.5052887E+02  0.7816164E-02  0.1300439E+00
        -11   -1    0    0    0    0  0.00000000000E+00  0.00000000000E+00  0.45593999997E+02  0.45594000000E+02  0.51100000000E-03 0.  1.
         11   -1    0    0    0    0 -0.00000000000E+00 -0.00000000000E+00 -0.45593999997E+02  0.45594000000E+02  0.51100000000E-03 0. -1.
    9900012    2    1    2    0    0  0.73490510360E+01 -0.38175769594E+02  0.11906605501E+02  0.50528865851E+02  0.30000018239E+02 0.  0.
        -12    1    1    2    0    0 -0.73490510360E+01  0.38175769594E+02 -0.11906605501E+02  0.40659134149E+02  0.00000000000E+00 0.  1.
         11    1    3    3    0    0  0.10133774577E+02 -0.24350294884E+02  0.14654875383E+00  0.26375210424E+02  0.51100000000E-03 0. -1.
        -11    1    3    3    0    0 -0.39055322067E+01  0.15360668331E+01  0.67660004941E+01  0.79618745331E+01  0.51100000000E-03 0.  1.
        -12    1    3    3    0    0  0.11208086658E+01 -0.15361541544E+02  0.49940562526E+01  0.16191780894E+02  0.00000000000E+00 0.  1.
</event>
<event>
 7    1  0.9953837E-014  0.5052886E+02  0.7816164E-02  0.1300439E+00
        -11   -1    0    0    0    0  0.00000000000E+00  0.00000000000E+00  0.45593999997E+02  0.45594000000E+02  0.51100000000E-03 0. -1.
         11   -1    0    0    0    0 -0.00000000000E+00 -0.00000000000E+00 -0.45593999997E+02  0.45594000000E+02  0.51100000000E-03 0.  1.
    9900012    2    1    2    0    0  0.35465537416E+02  0.47119139319E+01 -0.19317319989E+02  0.50528864143E+02  0.30000013048E+02 0.  0.
         12    1    1    2    0    0 -0.35465537416E+02 -0.47119139319E+01  0.19317319989E+02  0.40659135857E+02  0.00000000000E+00 0. -1.
         11    1    3    3    0    0  0.25837993132E+02  0.11110752524E+02 -0.16242812679E+02  0.32478911231E+02  0.51100000000E-03 0. -1.
        -11    1    3    3    0    0  0.10053371592E+02 -0.52847544306E+01 -0.74048131975E+01  0.13558398449E+02  0.51100000000E-03 0.  1.
         12    1    3    3    0    0 -0.42582730807E+00 -0.11140841612E+01  0.43303058875E+01  0.44915544630E+01  0.00000000000E+00 0. -1.
</event>
<event>
 7    1  0.9953837E-014  0.5052884E+02  0.7816164E-02  0.1300439E+00
        -11   -1    0    0    0    0  0.00000000000E+00  0.00000000000E+00  0.45593999997E+02  0.45594000000E+02  0.51100000000E-03 0. -1.
         11   -1    0    0    0    0 -0.00000000000E+00 -0.00000000000E+00 -0.45593999997E+02  0.45594000000E+02  0.51100000000E-03 0.  1.
    9900012    2    1    2    0    0  0.53590630713E+01 -0.34638595369E+02  0.20606198483E+02  0.50528840367E+02  0.29999940779E+02 0.  0.
        -12    1    1    2    0    0 -0.53590630713E+01  0.34638595369E+02 -0.20606198483E+02  0.40659159633E+02  0.00000000000E+00 0.  1.
         11    1    3    3    0    0  0.15249024819E+02 -0.97494495574E+01  0.10896567006E+02  0.21126279781E+02  0.51100000000E-03 0. -1.
        -11    1    3    3    0    0  0.21812850075E-01  0.49340948091E+00  0.71271303200E-01  0.49900759119E+00  0.51100000000E-03 0.  1.
         12    1    3    3    0    0 -0.99117745980E+01 -0.25382555292E+02  0.96383601737E+01  0.28903552994E+02  0.00000000000E+00 0. -1.
</event>
<event>
 7    1  0.9953837E-014  0.5052887E+02  0.7816164E-02  0.1300439E+00
        -11   -1    0    0    0    0  0.00000000000E+00  0.00000000000E+00  0.45593999997E+02  0.45594000000E+02  0.51100000000E-03 0. -1.
         11   -1    0    0    0    0 -0.00000000000E+00 -0.00000000000E+00 -0.45593999997E+02  0.45594000000E+02  0.51100000000E-03 0.  1.
    9900012    2    1    2    0    0  0.34599376250E+02  0.24385129781E+01 -0.21215608094E+02  0.50528865612E+02  0.30000017513E+02 0.  0.
         12    1    1    2    0    0 -0.34599376250E+02 -0.24385129781E+01  0.21215608094E+02  0.40659134388E+02  0.00000000000E+00 0. -1.
         11    1    3    3    0    0 -0.10493625061E+01  0.62980706767E+01 -0.60476149588E+01  0.87943449369E+01  0.51100000000E-03 0. -1.
        -11    1    3    3    0    0  0.28651787379E+02  0.20647333885E+01 -0.72655317051E+01  0.29630659715E+02  0.51100000000E-03 0.  1.
         12    1    3    3    0    0  0.69969513772E+01 -0.59242910871E+01 -0.79024614305E+01  0.12103860959E+02  0.00000000000E+00 0. -1.
</event>
<event>
 7    1  0.9953837E-014  0.5052889E+02  0.7816164E-02  0.1300439E+00
        -11   -1    0    0    0    0  0.00000000000E+00  0.00000000000E+00  0.45593999997E+02  0.45594000000E+02  0.51100000000E-03 0. -1.
         11   -1    0    0    0    0 -0.00000000000E+00 -0.00000000000E+00 -0.45593999997E+02  0.45594000000E+02  0.51100000000E-03 0.  1.
    9900012    2    1    2    0    0 -0.10126346141E+02  0.28895213526E+02  0.26752329735E+02  0.50528887895E+02  0.30000085247E+02 0.  0.
        -12    1    1    2    0    0  0.10126346141E+02 -0.28895213526E+02 -0.26752329735E+02  0.40659112105E+02  0.00000000000E+00 0.  1.
         11    1    3    3    0    0 -0.28382377848E+01  0.11132411217E+02  0.12318846727E+02  0.16844588394E+02  0.51100000000E-03 0. -1.
        -11    1    3    3    0    0 -0.85938287470E+00  0.99456388591E+01 -0.54497022635E+01  0.11373369169E+02  0.51100000000E-03 0.  1.
        -12    1    3    3    0    0 -0.64287254815E+01  0.78171634492E+01  0.19883185272E+02  0.22310930332E+02  0.00000000000E+00 0.  1.
</event>
<event>
 7    1  0.9953837E-014  0.5052886E+02  0.7816164E-02  0.1300439E+00
        -11   -1    0    0    0    0  0.00000000000E+00  0.00000000000E+00  0.45593999997E+02  0.45594000000E+02  0.51100000000E-03 0. -1.
         11   -1    0    0    0    0 -0.00000000000E+00 -0.00000000000E+00 -0.45593999997E+02  0.45594000000E+02  0.51100000000E-03 0.  1.
    9900012    2    1    2    0    0 -0.15913491409E+02  0.10934944369E+02 -0.35782025556E+02  0.50528861175E+02  0.30000004026E+02 0.  0.
         12    1    1    2    0    0  0.15913491409E+02 -0.10934944369E+02  0.35782025556E+02  0.40659138825E+02  0.00000000000E+00 0. -1.
         11    1    3    3    0    0 -0.14437649395E+01  0.40362709410E+01 -0.15077860687E+02  0.15675389101E+02  0.51100000000E-03 0. -1.
        -11    1    3    3    0    0 -0.98683744524E+01  0.10086438684E+02 -0.75211616188E+00  0.14131055822E+02  0.51100000000E-03 0.  1.
        -12    1    3    3    0    0 -0.46013520171E+01 -0.31877652566E+01 -0.19952048707E+02  0.20722416252E+02  0.00000000000E+00 0.  1.
</event>
<event>
 7    1  0.9953837E-014  0.5052885E+02  0.7816164E-02  0.1300439E+00
        -11   -1    0    0    0    0  0.00000000000E+00  0.00000000000E+00  0.45593999997E+02  0.45594000000E+02  0.51100000000E-03 0. -1.
         11   -1    0    0    0    0 -0.00000000000E+00 -0.00000000000E+00 -0.45593999997E+02  0.45594000000E+02  0.51100000000E-03 0.  1.
    9900012    2    1    2    0    0 -0.24313815729E+02  0.26058808413E+01 -0.32484056430E+02  0.50528853767E+02  0.29999981511E+02 0.  0.
         12    1    1    2    0    0  0.24313815729E+02 -0.26058808413E+01  0.32484056430E+02  0.40659146233E+02  0.00000000000E+00 0. -1.
         11    1    3    3    0    0 -0.13880328699E+02 -0.36735293751E+01  0.21416166885E+00  0.14359812267E+02  0.51100000000E-03 0. -1.
        -11    1    3    3    0    0 -0.11836898274E+02  0.41147540881E+01 -0.23711527655E+02  0.26819394213E+02  0.51100000000E-03 0.  1.
         12    1    3    3    0    0  0.14034112443E+01  0.21646561283E+01 -0.89866904438E+01  0.93496472878E+01  0.00000000000E+00 0. -1.
</event>
<event>
 7    1  0.9953837E-014  0.5052885E+02  0.7816164E-02  0.1300439E+00
        -11   -1    0    0    0    0  0.00000000000E+00  0.00000000000E+00  0.45593999997E+02  0.45594000000E+02  0.51100000000E-03 0.  1.
         11   -1    0    0    0    0 -0.00000000000E+00 -0.00000000000E+00 -0.45593999997E+02  0.45594000000E+02  0.51100000000E-03 0. -1.
    9900012    2    1    2    0    0  0.98880622265E+01 -0.25601275059E+02  0.29999461014E+02  0.50528847029E+02  0.29999961028E+02 0.  0.
        -12    1    1    2    0    0 -0.98880622265E+01  0.25601275059E+02 -0.29999461014E+02  0.40659152971E+02  0.00000000000E+00 0.  1.
         11    1    3    3    0    0  0.94051749574E+01 -0.15743992849E+02  0.10938391400E+02  0.21353665575E+02  0.51100000000E-03 0. -1.
        -11    1    3    3    0    0 -0.58304567618E+01 -0.91773895488E+00  0.17056700053E+02  0.18049030107E+02  0.51100000000E-03 0.  1.
        -12    1    3    3    0    0  0.63133440309E+01 -0.89395432542E+01  0.20043695612E+01  0.11126151346E+02  0.00000000000E+00 0.  1.
</event>
<event>
 7    1  0.9953837E-014  0.5052886E+02  0.7816164E-02  0.1300439E+00
        -11   -1    0    0    0    0  0.00000000000E+00  0.00000000000E+00  0.45593999997E+02  0.45594000000E+02  0.51100000000E-03 0. -1.
         11   -1    0    0    0    0 -0.00000000000E+00 -0.00000000000E+00 -0.45593999997E+02  0.45594000000E+02  0.51100000000E-03 0.  1.
    9900012    2    1    2    0    0  0.27054175838E+02  0.10933058199E+02  0.28314403426E+02  0.50528860397E+02  0.30000001662E+02 0.  0.
        -12    1    1    2    0    0 -0.27054175838E+02 -0.10933058199E+02 -0.28314403426E+02  0.40659139603E+02  0.00000000000E+00 0.  1.
         11    1    3    3    0    0  0.18162751935E+02 -0.23496468677E+01  0.24234213923E+02  0.30376035340E+02  0.51100000000E-03 0. -1.
        -11    1    3    3    0    0  0.10532621409E+02  0.14178407995E+02  0.45208690096E+01  0.18231884814E+02  0.51100000000E-03 0.  1.
        -12    1    3    3    0    0 -0.16411975058E+01 -0.89570292765E+00 -0.44067950647E+00  0.19209402425E+01  0.00000000000E+00 0.  1.
</event>
<event>
 7    1  0.9953837E-014  0.5052886E+02  0.7816164E-02  0.1300439E+00
        -11   -1    0    0    0    0  0.00000000000E+00  0.00000000000E+00  0.45593999997E+02  0.45594000000E+02  0.51100000000E-03 0. -1.
         11   -1    0    0    0    0 -0.00000000000E+00 -0.00000000000E+00 -0.45593999997E+02  0.45594000000E+02  0.51100000000E-03 0.  1.
    9900012    2    1    2    0    0  0.26158739927E+02  0.36266013033E+01 -0.30914945160E+02  0.50528859013E+02  0.29999997454E+02 0.  0.
         12    1    1    2    0    0 -0.26158739927E+02 -0.36266013033E+01  0.30914945160E+02  0.40659140987E+02  0.00000000000E+00 0. -1.
         11    1    3    3    0    0  0.65760264913E+01 -0.12047928201E+01 -0.73923845807E+00  0.67262265731E+01  0.51100000000E-03 0. -1.
        -11    1    3    3    0    0  0.20668012817E+02  0.12400010500E+02 -0.23122186579E+02  0.33400037824E+02  0.51100000000E-03 0.  1.
        -12    1    3    3    0    0 -0.10852993812E+01 -0.75686163766E+01 -0.70535201234E+01  0.10402594615E+02  0.00000000000E+00 0.  1.
</event>
<event>
 7    1  0.9953837E-014  0.5052885E+02  0.7816164E-02  0.1300439E+00
        -11   -1    0    0    0    0  0.00000000000E+00  0.00000000000E+00  0.45593999997E+02  0.45594000000E+02  0.51100000000E-03 0. -1.
         11   -1    0    0    0    0 -0.00000000000E+00 -0.00000000000E+00 -0.45593999997E+02  0.45594000000E+02  0.51100000000E-03 0.  1.
    9900012    2    1    2    0    0  0.18445948450E+02 -0.28066099824E+02 -0.22917403485E+02  0.50528851509E+02  0.29999974646E+02 0.  0.
         12    1    1    2    0    0 -0.18445948450E+02  0.28066099824E+02  0.22917403485E+02  0.40659148491E+02  0.00000000000E+00 0. -1.
         11    1    3    3    0    0  0.95132435662E+01 -0.15755183002E+02 -0.68638503942E+01  0.19642811333E+02  0.51100000000E-03 0. -1.
        -11    1    3    3    0    0  0.63170943127E+01 -0.48907313553E+01 -0.20392247411E+02  0.21901339879E+02  0.51100000000E-03 0.  1.
        -12    1    3    3    0    0  0.26156105706E+01 -0.74201854668E+01  0.43386943203E+01  0.89847002969E+01  0.00000000000E+00 0.  1.
</event>
<event>
 7    1  0.9953837E-014  0.5052886E+02  0.7816164E-02  0.1300439E+00
        -11   -1    0    0    0    0  0.00000000000E+00  0.00000000000E+00  0.45593999997E+02  0.45594000000E+02  0.51100000000E-03 0. -1.
         11   -1    0    0    0    0 -0.00000000000E+00 -0.00000000000E+00 -0.45593999997E+02  0.45594000000E+02  0.51100000000E-03 0.  1.
    9900012    2    1    2    0    0  0.90268853082E+01 -0.32028289197E+02  0.23363853247E+02  0.50528860735E+02  0.30000002690E+02 0.  0.
        -12    1    1    2    0    0 -0.90268853082E+01  0.32028289197E+02 -0.23363853247E+02  0.40659139265E+02  0.00000000000E+00 0.  1.
         11    1    3    3    0    0  0.31160666957E+01 -0.18578400088E+02 -0.14860841028E+01  0.18896435318E+02  0.51100000000E-03 0. -1.
        -11    1    3    3    0    0  0.35692359939E+01  0.16511467373E+00  0.12837026818E+02  0.13325012804E+02  0.51100000000E-03 0.  1.
         12    1    3    3    0    0  0.23415826186E+01 -0.13615003782E+02  0.12012910532E+02  0.18307412613E+02  0.00000000000E+00 0. -1.
</event>
<event>
 7    1  0.9953837E-014  0.5052886E+02  0.7816164E-02  0.1300439E+00
        -11   -1    0    0    0    0  0.00000000000E+00  0.00000000000E+00  0.45593999997E+02  0.45594000000E+02  0.51100000000E-03 0. -1.
         11   -1    0    0    0    0 -0.00000000000E+00 -0.00000000000E+00 -0.45593999997E+02  0.45594000000E+02  0.51100000000E-03 0.  1.
    9900012    2    1    2    0    0  0.34467174642E+02  0.90814573482E+01 -0.19562895710E+02  0.50528857315E+02  0.29999992294E+02 0.  0.
         12    1    1    2    0    0 -0.34467174642E+02 -0.90814573482E+01  0.19562895710E+02  0.40659142685E+02  0.00000000000E+00 0. -1.
         11    1    3    3    0    0 -0.17300284441E+01 -0.59048705899E+01 -0.69204157299E+01  0.92602726329E+01  0.51100000000E-03 0.  1.
        -11    1    3    3    0    0  0.28113102394E+02  0.11369042544E+02 -0.85163100791E+01  0.31498082358E+02  0.51100000000E-03 0. -1.
        -12    1    3    3    0    0  0.80841006917E+01  0.36172853938E+01 -0.41261699006E+01  0.97705023239E+01  0.00000000000E+00 0.  1.
</event>
<event>
 7    1  0.9953837E-014  0.5052887E+02  0.7816164E-02  0.1300439E+00
        -11   -1    0    0    0    0  0.00000000000E+00  0.00000000000E+00  0.45593999997E+02  0.45594000000E+02  0.51100000000E-03 0. -1.
         11   -1    0    0    0    0 -0.00000000000E+00 -0.00000000000E+00 -0.45593999997E+02  0.45594000000E+02  0.51100000000E-03 0.  1.
    9900012    2    1    2    0    0 -0.37809275673E+02 -0.12903224979E+02  0.75584561952E+01  0.50528870621E+02  0.30000032740E+02 0.  0.
        -12    1    1    2    0    0  0.37809275673E+02  0.12903224979E+02 -0.75584561952E+01  0.40659129379E+02  0.00000000000E+00 0.  1.
         11    1    3    3    0    0 -0.27850769599E+02  0.98443782781E+00  0.30214671933E+01  0.28031477831E+02  0.51100000000E-03 0. -1.
        -11    1    3    3    0    0  0.14600621223E+01  0.12625831258E+01  0.28621497717E+01  0.34522165528E+01  0.51100000000E-03 0.  1.
         12    1    3    3    0    0 -0.11418568197E+02 -0.15150245933E+02  0.16748392302E+01  0.19045176238E+02  0.00000000000E+00 0. -1.
</event>
<event>
 7    1  0.9953837E-014  0.5052887E+02  0.7816164E-02  0.1300439E+00
        -11   -1    0    0    0    0  0.00000000000E+00  0.00000000000E+00  0.45593999997E+02  0.45594000000E+02  0.51100000000E-03 0. -1.
         11   -1    0    0    0    0 -0.00000000000E+00 -0.00000000000E+00 -0.45593999997E+02  0.45594000000E+02  0.51100000000E-03 0.  1.
    9900012    2    1    2    0    0 -0.15857171766E+02 -0.21987577895E+02 -0.30302827444E+02  0.50528870284E+02  0.30000031716E+02 0.  0.
         12    1    1    2    0    0  0.15857171766E+02  0.21987577895E+02  0.30302827444E+02  0.40659129716E+02  0.00000000000E+00 0. -1.
         11    1    3    3    0    0  0.60678589858E+01 -0.13789698193E+01 -0.16019741369E+02  0.17185825096E+02  0.51100000000E-03 0. -1.
        -11    1    3    3    0    0 -0.10282453978E+02 -0.96806573889E+01 -0.75477380561E+01  0.16012880357E+02  0.51100000000E-03 0.  1.
         12    1    3    3    0    0 -0.11642576774E+02 -0.10927950687E+02 -0.67353480190E+01  0.17330164831E+02  0.00000000000E+00 0. -1.
</event>
<event>
 7    1  0.9953837E-014  0.5052886E+02  0.7816164E-02  0.1300439E+00
        -11   -1    0    0    0    0  0.00000000000E+00  0.00000000000E+00  0.45593999997E+02  0.45594000000E+02  0.51100000000E-03 0. -1.
         11   -1    0    0    0    0 -0.00000000000E+00 -0.00000000000E+00 -0.45593999997E+02  0.45594000000E+02  0.51100000000E-03 0.  1.
    9900012    2    1    2    0    0 -0.28904100567E+02 -0.76053821968E+01 -0.27565861759E+02  0.50528860775E+02  0.30000002813E+02 0.  0.
         12    1    1    2    0    0  0.28904100567E+02  0.76053821968E+01  0.27565861759E+02  0.40659139225E+02  0.00000000000E+00 0. -1.
         11    1    3    3    0    0 -0.33139230042E+02 -0.31694505138E+01 -0.19145561210E+02  0.38403209484E+02  0.51100000000E-03 0.  1.
        -11    1    3    3    0    0  0.35258825399E+01 -0.26809408009E+01 -0.90948970733E+01  0.10116147700E+02  0.51100000000E-03 0. -1.
        -12    1    3    3    0    0  0.70924693533E+00 -0.17549908822E+01  0.67459652412E+00  0.20095035910E+01  0.00000000000E+00 0.  1.
</event>
<event>
 7    1  0.9953837E-014  0.5052886E+02  0.7816164E-02  0.1300439E+00
        -11   -1    0    0    0    0  0.00000000000E+00  0.00000000000E+00  0.45593999997E+02  0.45594000000E+02  0.51100000000E-03 0. -1.
         11   -1    0    0    0    0 -0.00000000000E+00 -0.00000000000E+00 -0.45593999997E+02  0.45594000000E+02  0.51100000000E-03 0.  1.
    9900012    2    1    2    0    0 -0.10619261131E+02  0.23734542246E+02 -0.31258095571E+02  0.50528859068E+02  0.29999997622E+02 0.  0.
         12    1    1    2    0    0  0.10619261131E+02 -0.23734542246E+02  0.31258095571E+02  0.40659140932E+02  0.00000000000E+00 0. -1.
         11    1    3    3    0    0  0.45802716295E+01  0.10136342412E+02 -0.92980638096E+01  0.14497527947E+02  0.51100000000E-03 0. -1.
        -11    1    3    3    0    0 -0.80774167995E+01  0.37028619653E+01 -0.22120413264E+02  0.23838383588E+02  0.51100000000E-03 0.  1.
        -12    1    3    3    0    0 -0.71221159615E+01  0.98953378685E+01  0.16038150185E+00  0.12192947532E+02  0.00000000000E+00 0.  1.
</event>
<event>
 7    1  0.9953837E-014  0.5052886E+02  0.7816164E-02  0.1300439E+00
        -11   -1    0    0    0    0  0.00000000000E+00  0.00000000000E+00  0.45593999997E+02  0.45594000000E+02  0.51100000000E-03 0. -1.
         11   -1    0    0    0    0 -0.00000000000E+00 -0.00000000000E+00 -0.45593999997E+02  0.45594000000E+02  0.51100000000E-03 0.  1.
    9900012    2    1    2    0    0  0.53177680907E+01  0.25507330533E+02 -0.31213182703E+02  0.50528863968E+02  0.30000012518E+02 0.  0.
         12    1    1    2    0    0 -0.53177680907E+01 -0.25507330533E+02  0.31213182703E+02  0.40659136032E+02  0.00000000000E+00 0. -1.
         11    1    3    3    0    0  0.10467362343E+02  0.15531857147E+02 -0.28700856648E+01  0.18948394466E+02  0.51100000000E-03 0. -1.
        -11    1    3    3    0    0 -0.21569449763E+01  0.30589729637E+01 -0.19960053405E+02  0.20307965418E+02  0.51100000000E-03 0.  1.
         12    1    3    3    0    0 -0.29926492756E+01  0.69165004223E+01 -0.83830436329E+01  0.11272504084E+02  0.00000000000E+00 0. -1.
</event>
<event>
 7    1  0.9953837E-014  0.5052888E+02  0.7816164E-02  0.1300439E+00
        -11   -1    0    0    0    0  0.00000000000E+00  0.00000000000E+00  0.45593999997E+02  0.45594000000E+02  0.51100000000E-03 0.  1.
         11   -1    0    0    0    0 -0.00000000000E+00 -0.00000000000E+00 -0.45593999997E+02  0.45594000000E+02  0.51100000000E-03 0. -1.
    9900012    2    1    2    0    0 -0.19016433207E+02 -0.23567628184E+02 -0.27131284030E+02  0.50528875522E+02  0.30000047638E+02 0.  0.
         12    1    1    2    0    0  0.19016433207E+02  0.23567628184E+02  0.27131284030E+02  0.40659124478E+02  0.00000000000E+00 0. -1.
         11    1    3    3    0    0 -0.88407276202E+01  0.46166332290E+01 -0.32306605304E+01  0.10483746227E+02  0.51100000000E-03 0. -1.
        -11    1    3    3    0    0 -0.55504625225E+01 -0.11016217863E+02 -0.16930159765E+02  0.20947434213E+02  0.51100000000E-03 0.  1.
         12    1    3    3    0    0 -0.46252430646E+01 -0.17168043551E+02 -0.69704637352E+01  0.19097695082E+02  0.00000000000E+00 0. -1.
</event>
<event>
 7    1  0.9953837E-014  0.5052886E+02  0.7816164E-02  0.1300439E+00
        -11   -1    0    0    0    0  0.00000000000E+00  0.00000000000E+00  0.45593999997E+02  0.45594000000E+02  0.51100000000E-03 0.  1.
         11   -1    0    0    0    0 -0.00000000000E+00 -0.00000000000E+00 -0.45593999997E+02  0.45594000000E+02  0.51100000000E-03 0. -1.
    9900012    2    1    2    0    0  0.10394556252E+02 -0.38863185114E+02 -0.58967263331E+01  0.50528864023E+02  0.30000012686E+02 0.  0.
         12    1    1    2    0    0 -0.10394556252E+02  0.38863185114E+02  0.58967263331E+01  0.40659135977E+02  0.00000000000E+00 0. -1.
         11    1    3    3    0    0  0.22982345583E+01 -0.33887215109E+02 -0.78576364062E+01  0.34862123861E+02  0.51100000000E-03 0. -1.
        -11    1    3    3    0    0  0.91649831109E+01 -0.46033524958E+01 -0.29141090947E+01  0.10662073049E+02  0.51100000000E-03 0.  1.
        -12    1    3    3    0    0 -0.10686614174E+01 -0.37261750947E+00  0.48750191677E+01  0.50046671137E+01  0.00000000000E+00 0.  1.
</event>
<event>
 7    1  0.9953837E-014  0.5052886E+02  0.7816164E-02  0.1300439E+00
        -11   -1    0    0    0    0  0.00000000000E+00  0.00000000000E+00  0.45593999997E+02  0.45594000000E+02  0.51100000000E-03 0. -1.
         11   -1    0    0    0    0 -0.00000000000E+00 -0.00000000000E+00 -0.45593999997E+02  0.45594000000E+02  0.51100000000E-03 0.  1.
    9900012    2    1    2    0    0 -0.22886028828E+02  0.25039872996E+02 -0.22414275256E+02  0.50528864613E+02  0.30000014477E+02 0.  0.
         12    1    1    2    0    0  0.22886028828E+02 -0.25039872996E+02  0.22414275256E+02  0.40659135387E+02  0.00000000000E+00 0. -1.
         11    1    3    3    0    0  0.40289278707E+01  0.72441708773E+01  0.28510386295E+01  0.87657682502E+01  0.51100000000E-03 0. -1.
        -11    1    3    3    0    0 -0.12754365242E+02  0.13225379611E+02 -0.14078417001E+02  0.23147058649E+02  0.51100000000E-03 0.  1.
         12    1    3    3    0    0 -0.14160591457E+02  0.45703225073E+01 -0.11186896885E+02  0.18616037714E+02  0.00000000000E+00 0. -1.
</event>
<event>
 7    1  0.9953837E-014  0.5052883E+02  0.7816164E-02  0.1300439E+00
        -11   -1    0    0    0    0  0.00000000000E+00  0.00000000000E+00  0.45593999997E+02  0.45594000000E+02  0.51100000000E-03 0. -1.
         11   -1    0    0    0    0 -0.00000000000E+00 -0.00000000000E+00 -0.45593999997E+02  0.45594000000E+02  0.51100000000E-03 0.  1.
    9900012    2    1    2    0    0 -0.16558415961E+02  0.79598661784E+01  0.36271579537E+02  0.50528830175E+02  0.29999909800E+02 0.  0.
        -12    1    1    2    0    0  0.16558415961E+02 -0.79598661784E+01 -0.36271579537E+02  0.40659169825E+02  0.00000000000E+00 0.  1.
         11    1    3    3    0    0  0.76623071949E+00  0.10656855606E+02  0.76037235332E+01  0.13113820677E+02  0.51100000000E-03 0. -1.
        -11    1    3    3    0    0 -0.19123898027E+02  0.17073251638E+01  0.21659044392E+02  0.28943956869E+02  0.51100000000E-03 0.  1.
        -12    1    3    3    0    0  0.17992513469E+01 -0.44043145917E+01  0.70088116118E+01  0.84710526289E+01  0.00000000000E+00 0.  1.
</event>
<event>
 7    1  0.9953837E-014  0.5052885E+02  0.7816164E-02  0.1300439E+00
        -11   -1    0    0    0    0  0.00000000000E+00  0.00000000000E+00  0.45593999997E+02  0.45594000000E+02  0.51100000000E-03 0. -1.
         11   -1    0    0    0    0 -0.00000000000E+00 -0.00000000000E+00 -0.45593999997E+02  0.45594000000E+02  0.51100000000E-03 0.  1.
    9900012    2    1    2    0    0  0.29928890502E+02  0.80464708674E+01 -0.26318851146E+02  0.50528854587E+02  0.29999984001E+02 0.  0.
         12    1    1    2    0    0 -0.29928890502E+02 -0.80464708674E+01  0.26318851146E+02  0.40659145413E+02  0.00000000000E+00 0. -1.
         11    1    3    3    0    0  0.90341465693E+01 -0.40495362690E+01  0.14011215025E+01  0.99988844355E+01  0.51100000000E-03 0. -1.
        -11    1    3    3    0    0  0.17322341735E+02  0.16338171627E+02 -0.20462812340E+02  0.31396274690E+02  0.51100000000E-03 0.  1.
         12    1    3    3    0    0  0.35724021978E+01 -0.42421644907E+01 -0.72571603085E+01  0.91336954609E+01  0.00000000000E+00 0. -1.
</event>
<event>
 7    1  0.9953837E-014  0.5052886E+02  0.7816164E-02  0.1300439E+00
        -11   -1    0    0    0    0  0.00000000000E+00  0.00000000000E+00  0.45593999997E+02  0.45594000000E+02  0.51100000000E-03 0. -1.
         11   -1    0    0    0    0 -0.00000000000E+00 -0.00000000000E+00 -0.45593999997E+02  0.45594000000E+02  0.51100000000E-03 0.  1.
    9900012    2    1    2    0    0  0.80398576336E+01  0.24361402774E+02  0.31544382610E+02  0.50528864125E+02  0.30000012994E+02 0.  0.
        -12    1    1    2    0    0 -0.80398576336E+01 -0.24361402774E+02 -0.31544382610E+02  0.40659135875E+02  0.00000000000E+00 0.  1.
         11    1    3    3    0    0 -0.22026801402E+01  0.11475945456E+02  0.27723467382E+02  0.30085540843E+02  0.51100000000E-03 0. -1.
        -11    1    3    3    0    0  0.12340820967E+02  0.80039000481E+01  0.35024894800E+01  0.15120374034E+02  0.51100000000E-03 0.  1.
        -12    1    3    3    0    0 -0.20982831928E+01  0.48815572694E+01  0.31842574824E+00  0.53229492472E+01  0.00000000000E+00 0.  1.
</event>
<event>
 7    1  0.9953837E-014  0.5052889E+02  0.7816164E-02  0.1300439E+00
        -11   -1    0    0    0    0  0.00000000000E+00  0.00000000000E+00  0.45593999997E+02  0.45594000000E+02  0.51100000000E-03 0. -1.
         11   -1    0    0    0    0 -0.00000000000E+00 -0.00000000000E+00 -0.45593999997E+02  0.45594000000E+02  0.51100000000E-03 0.  1.
    9900012    2    1    2    0    0 -0.24662130511E+01 -0.26922982192E+02 -0.30368304306E+02  0.50528891754E+02  0.30000096974E+02 0.  0.
         12    1    1    2    0    0  0.24662130511E+01  0.26922982192E+02  0.30368304306E+02  0.40659108246E+02  0.00000000000E+00 0. -1.
         11    1    3    3    0    0 -0.11169319866E+02 -0.12816451254E+01 -0.73883283685E+01  0.13453018874E+02  0.51100000000E-03 0. -1.
        -11    1    3    3    0    0  0.11270878324E+01 -0.71989771026E+01 -0.12704791489E+02  0.14646068597E+02  0.51100000000E-03 0.  1.
         12    1    3    3    0    0  0.75760189824E+01 -0.18442359964E+02 -0.10275184449E+02  0.22429804282E+02  0.00000000000E+00 0. -1.
</event>
<event>
 7    1  0.9953837E-014  0.5052886E+02  0.7816164E-02  0.1300439E+00
        -11   -1    0    0    0    0  0.00000000000E+00  0.00000000000E+00  0.45593999997E+02  0.45594000000E+02  0.51100000000E-03 0. -1.
         11   -1    0    0    0    0 -0.00000000000E+00 -0.00000000000E+00 -0.45593999997E+02  0.45594000000E+02  0.51100000000E-03 0.  1.
    9900012    2    1    2    0    0  0.10850421552E+02  0.36713558399E+02 -0.13694854294E+02  0.50528855244E+02  0.29999985999E+02 0.  0.
         12    1    1    2    0    0 -0.10850421552E+02 -0.36713558399E+02  0.13694854294E+02  0.40659144756E+02  0.00000000000E+00 0. -1.
         11    1    3    3    0    0  0.10799608333E+02  0.20085967242E+02  0.55632456755E+01  0.23473971178E+02  0.51100000000E-03 0. -1.
        -11    1    3    3    0    0  0.40853527823E+01  0.12247536085E+02 -0.11622522663E+02  0.17371680426E+02  0.51100000000E-03 0.  1.
         12    1    3    3    0    0 -0.40345395628E+01  0.43800550721E+01 -0.76355773065E+01  0.96832036394E+01  0.00000000000E+00 0. -1.
</event>
<event>
 7    1  0.9953837E-014  0.5052885E+02  0.7816164E-02  0.1300439E+00
        -11   -1    0    0    0    0  0.00000000000E+00  0.00000000000E+00  0.45593999997E+02  0.45594000000E+02  0.51100000000E-03 0. -1.
         11   -1    0    0    0    0 -0.00000000000E+00 -0.00000000000E+00 -0.45593999997E+02  0.45594000000E+02  0.51100000000E-03 0.  1.
    9900012    2    1    2    0    0  0.18481991549E+02  0.10524499191E+02 -0.34652807468E+02  0.50528853916E+02  0.29999981963E+02 0.  0.
         12    1    1    2    0    0 -0.18481991549E+02 -0.10524499191E+02  0.34652807468E+02  0.40659146084E+02  0.00000000000E+00 0. -1.
         11    1    3    3    0    0  0.73653598284E+01  0.87815366120E+01 -0.84269469921E+01  0.14225939215E+02  0.51100000000E-03 0. -1.
        -11    1    3    3    0    0 -0.45847476441E+01 -0.15322041324E+01  0.77663651645E+00  0.48959907070E+01  0.51100000000E-03 0.  1.
        -12    1    3    3    0    0  0.15701379365E+02  0.32751667115E+01 -0.27002496993E+02  0.31406923994E+02  0.00000000000E+00 0.  1.
</event>
<event>
 7    1  0.9953837E-014  0.5052886E+02  0.7816164E-02  0.1300439E+00
        -11   -1    0    0    0    0  0.00000000000E+00  0.00000000000E+00  0.45593999997E+02  0.45594000000E+02  0.51100000000E-03 0. -1.
         11   -1    0    0    0    0 -0.00000000000E+00 -0.00000000000E+00 -0.45593999997E+02  0.45594000000E+02  0.51100000000E-03 0.  1.
    9900012    2    1    2    0    0 -0.12229007786E+00  0.18155889386E+02  0.36380135682E+02  0.50528861464E+02  0.30000004906E+02 0.  0.
        -12    1    1    2    0    0  0.12229007786E+00 -0.18155889386E+02 -0.36380135682E+02  0.40659138536E+02  0.00000000000E+00 0.  1.
         11    1    3    3    0    0 -0.10775163570E+01  0.87712526255E+01  0.20560072681E+02  0.22378840520E+02  0.51100000000E-03 0. -1.
        -11    1    3    3    0    0  0.78678457760E+01  0.10394629940E+02  0.27401788453E+01  0.13321407925E+02  0.51100000000E-03 0.  1.
        -12    1    3    3    0    0 -0.69126194968E+01 -0.10099931795E+01  0.13079884156E+02  0.14828613019E+02  0.00000000000E+00 0.  1.
</event>
<event>
 7    1  0.9953837E-014  0.5052887E+02  0.7816164E-02  0.1300439E+00
        -11   -1    0    0    0    0  0.00000000000E+00  0.00000000000E+00  0.45593999997E+02  0.45594000000E+02  0.51100000000E-03 0. -1.
         11   -1    0    0    0    0 -0.00000000000E+00 -0.00000000000E+00 -0.45593999997E+02  0.45594000000E+02  0.51100000000E-03 0.  1.
    9900012    2    1    2    0    0 -0.87964457096E+01  0.38907625700E+01 -0.39505050531E+02  0.50528874235E+02  0.30000043726E+02 0.  0.
         12    1    1    2    0    0  0.87964457096E+01 -0.38907625700E+01  0.39505050531E+02  0.40659125765E+02  0.00000000000E+00 0. -1.
         11    1    3    3    0    0  0.31442831660E+01  0.98352264480E+01 -0.74036580475E+01  0.12705603042E+02  0.51100000000E-03 0. -1.
        -11    1    3    3    0    0 -0.12498291958E+02 -0.93343643069E-02 -0.27775122742E+02  0.30457590722E+02  0.51100000000E-03 0.  1.
         12    1    3    3    0    0  0.55756308241E+00 -0.59351295136E+01 -0.43262697414E+01  0.73656804716E+01  0.00000000000E+00 0. -1.
</event>
<event>
 7    1  0.9953837E-014  0.5052885E+02  0.7816164E-02  0.1300439E+00
        -11   -1    0    0    0    0  0.00000000000E+00  0.00000000000E+00  0.45593999997E+02  0.45594000000E+02  0.51100000000E-03 0.  1.
         11   -1    0    0    0    0 -0.00000000000E+00 -0.00000000000E+00 -0.45593999997E+02  0.45594000000E+02  0.51100000000E-03 0. -1.
    9900012    2    1    2    0    0 -0.15830855318E+02  0.29977795728E+02  0.22447323317E+02  0.50528849235E+02  0.29999967735E+02 0.  0.
        -12    1    1    2    0    0  0.15830855318E+02 -0.29977795728E+02 -0.22447323317E+02  0.40659150765E+02  0.00000000000E+00 0.  1.
         11    1    3    3    0    0 -0.10694853865E+02  0.19798962491E+02  0.29364698324E+00  0.22504778242E+02  0.51100000000E-03 0. -1.
        -11    1    3    3    0    0 -0.43833295946E+00  0.19794864129E+01  0.17266969272E+02  0.17385589733E+02  0.51100000000E-03 0.  1.
        -12    1    3    3    0    0 -0.46976684931E+01  0.81993468246E+01  0.48867070614E+01  0.10638481260E+02  0.00000000000E+00 0.  1.
</event>
<event>
 7    1  0.9953837E-014  0.5052900E+02  0.7816164E-02  0.1300438E+00
        -11   -1    0    0    0    0  0.00000000000E+00  0.00000000000E+00  0.45593999997E+02  0.45594000000E+02  0.51100000000E-03 0. -1.
         11   -1    0    0    0    0 -0.00000000000E+00 -0.00000000000E+00 -0.45593999997E+02  0.45594000000E+02  0.51100000000E-03 0.  1.
    9900012    2    1    2    0    0  0.25359415080E+02 -0.22730918085E+02  0.22211703503E+02  0.50528999242E+02  0.30000423692E+02 0.  0.
        -12    1    1    2    0    0 -0.25359415080E+02  0.22730918085E+02 -0.22211703503E+02  0.40659000758E+02  0.00000000000E+00 0.  1.
         11    1    3    3    0    0  0.23648937923E+01 -0.84421846144E+01 -0.21132996406E+01  0.90182725255E+01  0.51100000000E-03 0. -1.
        -11    1    3    3    0    0  0.13775786958E+02 -0.44833695049E+01  0.24017911338E+02  0.28048760645E+02  0.51100000000E-03 0.  1.
        -12    1    3    3    0    0  0.92187343293E+01 -0.98053639653E+01  0.30709180661E+00  0.13461966071E+02  0.00000000000E+00 0.  1.
</event>
<event>
 7    1  0.9953837E-014  0.5052886E+02  0.7816164E-02  0.1300439E+00
        -11   -1    0    0    0    0  0.00000000000E+00  0.00000000000E+00  0.45593999997E+02  0.45594000000E+02  0.51100000000E-03 0. -1.
         11   -1    0    0    0    0 -0.00000000000E+00 -0.00000000000E+00 -0.45593999997E+02  0.45594000000E+02  0.51100000000E-03 0.  1.
    9900012    2    1    2    0    0 -0.50628979823E+00 -0.29699236221E+02  0.27764445030E+02  0.50528863643E+02  0.30000011528E+02 0.  0.
        -12    1    1    2    0    0  0.50628979823E+00  0.29699236221E+02 -0.27764445030E+02  0.40659136357E+02  0.00000000000E+00 0.  1.
         11    1    3    3    0    0 -0.17907863807E+01 -0.17536191728E+02  0.35679777309E+01  0.17984865902E+02  0.51100000000E-03 0. -1.
        -11    1    3    3    0    0  0.27483744632E+00 -0.73653089821E+01  0.26222813250E+02  0.27238928889E+02  0.51100000000E-03 0.  1.
        -12    1    3    3    0    0  0.10096591362E+01 -0.47977355117E+01 -0.20263459503E+01  0.53050688517E+01  0.00000000000E+00 0.  1.
</event>
<event>
 7    1  0.9953837E-014  0.5052888E+02  0.7816164E-02  0.1300439E+00
        -11   -1    0    0    0    0  0.00000000000E+00  0.00000000000E+00  0.45593999997E+02  0.45594000000E+02  0.51100000000E-03 0.  1.
         11   -1    0    0    0    0 -0.00000000000E+00 -0.00000000000E+00 -0.45593999997E+02  0.45594000000E+02  0.51100000000E-03 0. -1.
    9900012    2    1    2    0    0 -0.43520357059E+01 -0.39026180603E+02  0.10544249509E+02  0.50528878207E+02  0.30000055799E+02 0.  0.
         12    1    1    2    0    0  0.43520357059E+01  0.39026180603E+02 -0.10544249509E+02  0.40659121793E+02  0.00000000000E+00 0. -1.
         11    1    3    3    0    0 -0.99187554217E+01 -0.95893611986E+01  0.11166763492E+02  0.17749201798E+02  0.51100000000E-03 0. -1.
        -11    1    3    3    0    0  0.68440708224E+01 -0.26354659996E+02  0.35257994544E+01  0.27456159072E+02  0.51100000000E-03 0.  1.
        -12    1    3    3    0    0 -0.12773511066E+01 -0.30821594084E+01 -0.41483134377E+01  0.53235173378E+01  0.00000000000E+00 0.  1.
</event>
<event>
 7    1  0.9953837E-014  0.5052886E+02  0.7816164E-02  0.1300439E+00
        -11   -1    0    0    0    0  0.00000000000E+00  0.00000000000E+00  0.45593999997E+02  0.45594000000E+02  0.51100000000E-03 0.  1.
         11   -1    0    0    0    0 -0.00000000000E+00 -0.00000000000E+00 -0.45593999997E+02  0.45594000000E+02  0.51100000000E-03 0. -1.
    9900012    2    1    2    0    0 -0.37482938656E+02 -0.13064149389E+02  0.88047072820E+01  0.50528861300E+02  0.30000004406E+02 0.  0.
         12    1    1    2    0    0  0.37482938656E+02  0.13064149389E+02 -0.88047072820E+01  0.40659138700E+02  0.00000000000E+00 0. -1.
         11    1    3    3    0    0 -0.18414730393E+01 -0.85884700718E+01 -0.24089147317E+01  0.91080026117E+01  0.51100000000E-03 0. -1.
        -11    1    3    3    0    0 -0.26151668600E+02  0.42094948782E+01  0.10635285654E+02  0.28543631845E+02  0.51100000000E-03 0.  1.
         12    1    3    3    0    0 -0.94897970166E+01 -0.86851741957E+01  0.57833636017E+00  0.12877226843E+02  0.00000000000E+00 0. -1.
</event>
<event>
 7    1  0.9953837E-014  0.5052886E+02  0.7816164E-02  0.1300439E+00
        -11   -1    0    0    0    0  0.00000000000E+00  0.00000000000E+00  0.45593999997E+02  0.45594000000E+02  0.51100000000E-03 0. -1.
         11   -1    0    0    0    0 -0.00000000000E+00 -0.00000000000E+00 -0.45593999997E+02  0.45594000000E+02  0.51100000000E-03 0.  1.
    9900012    2    1    2    0    0 -0.18576312248E+02 -0.24564430174E+01 -0.36083964381E+02  0.50528856201E+02  0.29999988909E+02 0.  0.
         12    1    1    2    0    0  0.18576312248E+02  0.24564430174E+01  0.36083964381E+02  0.40659143799E+02  0.00000000000E+00 0. -1.
         11    1    3    3    0    0  0.72284505274E+01  0.27551539770E+01 -0.35386606209E+01  0.85066732461E+01  0.51100000000E-03 0. -1.
        -11    1    3    3    0    0 -0.19902428350E+02 -0.26876796596E+01 -0.26015548341E+02  0.32865468686E+02  0.51100000000E-03 0.  1.
         12    1    3    3    0    0 -0.59023344252E+01 -0.25239173349E+01 -0.65297554182E+01  0.91567142689E+01  0.00000000000E+00 0. -1.
</event>
<event>
 7    1  0.9953837E-014  0.5052887E+02  0.7816164E-02  0.1300439E+00
        -11   -1    0    0    0    0  0.00000000000E+00  0.00000000000E+00  0.45593999997E+02  0.45594000000E+02  0.51100000000E-03 0. -1.
         11   -1    0    0    0    0 -0.00000000000E+00 -0.00000000000E+00 -0.45593999997E+02  0.45594000000E+02  0.51100000000E-03 0.  1.
    9900012    2    1    2    0    0  0.13998791012E+02 -0.18946393370E+02 -0.33139600417E+02  0.50528867110E+02  0.30000022069E+02 0.  0.
         12    1    1    2    0    0 -0.13998791012E+02  0.18946393370E+02  0.33139600417E+02  0.40659132890E+02  0.00000000000E+00 0. -1.
         11    1    3    3    0    0  0.82875802961E+00 -0.13357919130E+02 -0.66637240110E+01  0.14950787983E+02  0.51100000000E-03 0. -1.
        -11    1    3    3    0    0  0.16655798498E+02 -0.87140685098E+01 -0.23221628001E+02  0.29876322078E+02  0.51100000000E-03 0.  1.
        -12    1    3    3    0    0 -0.34857655157E+01  0.31255942700E+01 -0.32542484046E+01  0.57017570493E+01  0.00000000000E+00 0.  1.
</event>
<event>
 7    1  0.9953837E-014  0.5052886E+02  0.7816164E-02  0.1300439E+00
        -11   -1    0    0    0    0  0.00000000000E+00  0.00000000000E+00  0.45593999997E+02  0.45594000000E+02  0.51100000000E-03 0. -1.
         11   -1    0    0    0    0 -0.00000000000E+00 -0.00000000000E+00 -0.45593999997E+02  0.45594000000E+02  0.51100000000E-03 0.  1.
    9900012    2    1    2    0    0  0.11089708956E+02 -0.40589623845E+01 -0.38906412684E+02  0.50528858737E+02  0.29999996616E+02 0.  0.
         12    1    1    2    0    0 -0.11089708956E+02  0.40589623845E+01  0.38906412684E+02  0.40659141263E+02  0.00000000000E+00 0. -1.
         11    1    3    3    0    0  0.53708794951E+01 -0.10849516517E+02 -0.36720301081E+01  0.12650777074E+02  0.51100000000E-03 0. -1.
        -11    1    3    3    0    0  0.47393038205E+01  0.65580468351E+01 -0.35813843127E+02  0.36716485927E+02  0.51100000000E-03 0.  1.
        -12    1    3    3    0    0  0.97952564005E+00  0.23250729714E+00  0.57946055176E+00  0.11615957360E+01  0.00000000000E+00 0.  1.
</event>
<event>
 7    1  0.9953837E-014  0.5052886E+02  0.7816164E-02  0.1300439E+00
        -11   -1    0    0    0    0  0.00000000000E+00  0.00000000000E+00  0.45593999997E+02  0.45594000000E+02  0.51100000000E-03 0. -1.
         11   -1    0    0    0    0 -0.00000000000E+00 -0.00000000000E+00 -0.45593999997E+02  0.45594000000E+02  0.51100000000E-03 0.  1.
    9900012    2    1    2    0    0  0.59448015309E+01 -0.13153058917E+02 -0.38010813678E+02  0.50528861045E+02  0.30000003633E+02 0.  0.
         12    1    1    2    0    0 -0.59448015309E+01  0.13153058917E+02  0.38010813678E+02  0.40659138955E+02  0.00000000000E+00 0. -1.
         11    1    3    3    0    0 -0.17568069932E+01  0.48018431411E+01 -0.29521811314E+01  0.59041885181E+01  0.51100000000E-03 0. -1.
        -11    1    3    3    0    0  0.11686713729E+02 -0.16719583169E+02 -0.18466738501E+02  0.27516252838E+02  0.51100000000E-03 0.  1.
        -12    1    3    3    0    0 -0.39851052046E+01 -0.12353188891E+01 -0.16591894046E+02  0.17108419689E+02  0.00000000000E+00 0.  1.
</event>
<event>
 7    1  0.9953837E-014  0.5052888E+02  0.7816164E-02  0.1300439E+00
        -11   -1    0    0    0    0  0.00000000000E+00  0.00000000000E+00  0.45593999997E+02  0.45594000000E+02  0.51100000000E-03 0. -1.
         11   -1    0    0    0    0 -0.00000000000E+00 -0.00000000000E+00 -0.45593999997E+02  0.45594000000E+02  0.51100000000E-03 0.  1.
    9900012    2    1    2    0    0  0.20392240022E+02 -0.92415735540E+01 -0.33939860873E+02  0.50528876904E+02  0.30000051837E+02 0.  0.
         12    1    1    2    0    0 -0.20392240022E+02  0.92415735540E+01  0.33939860873E+02  0.40659123096E+02  0.00000000000E+00 0. -1.
         11    1    3    3    0    0  0.12434540837E+01  0.37737915332E+01 -0.17501883207E+02  0.17947244820E+02  0.51100000000E-03 0. -1.
        -11    1    3    3    0    0  0.98080157621E+01 -0.14619071934E+02 -0.14724598922E+02  0.22950561019E+02  0.51100000000E-03 0.  1.
         12    1    3    3    0    0  0.93407701760E+01  0.16037068467E+01 -0.17133787441E+01  0.96310710646E+01  0.00000000000E+00 0. -1.
</event>
<event>
 7    1  0.9953837E-014  0.5052885E+02  0.7816164E-02  0.1300439E+00
        -11   -1    0    0    0    0  0.00000000000E+00  0.00000000000E+00  0.45593999997E+02  0.45594000000E+02  0.51100000000E-03 0. -1.
         11   -1    0    0    0    0 -0.00000000000E+00 -0.00000000000E+00 -0.45593999997E+02  0.45594000000E+02  0.51100000000E-03 0.  1.
    9900012    2    1    2    0    0  0.40555039591E+02 -0.22088189981E+01  0.18910934823E+01  0.50528851556E+02  0.29999974790E+02 0.  0.
         12    1    1    2    0    0 -0.40555039591E+02  0.22088189981E+01 -0.18910934823E+01  0.40659148444E+02  0.00000000000E+00 0. -1.
         11    1    3    3    0    0  0.35882448742E+02  0.30694221583E+01  0.28436573339E+01  0.36125584665E+02  0.51100000000E-03 0. -1.
        -11    1    3    3    0    0  0.22652737198E+01 -0.89530284686E+01 -0.27810939991E+01  0.96448259641E+01  0.51100000000E-03 0.  1.
        -12    1    3    3    0    0  0.24073171293E+01  0.36747873122E+01  0.18285301474E+01  0.47584409265E+01  0.00000000000E+00 0.  1.
</event>
<event>
 7    1  0.9953837E-014  0.5052886E+02  0.7816164E-02  0.1300439E+00
        -11   -1    0    0    0    0  0.00000000000E+00  0.00000000000E+00  0.45593999997E+02  0.45594000000E+02  0.51100000000E-03 0. -1.
         11   -1    0    0    0    0 -0.00000000000E+00 -0.00000000000E+00 -0.45593999997E+02  0.45594000000E+02  0.51100000000E-03 0.  1.
    9900012    2    1    2    0    0  0.32814116538E+02  0.23673013692E+02  0.39984771411E+01  0.50528860303E+02  0.30000001378E+02 0.  0.
        -12    1    1    2    0    0 -0.32814116538E+02 -0.23673013692E+02 -0.39984771411E+01  0.40659139697E+02  0.00000000000E+00 0.  1.
         11    1    3    3    0    0  0.21737111562E+01 -0.53970458196E+01  0.18306309126E+01  0.60995355207E+01  0.51100000000E-03 0. -1.
        -11    1    3    3    0    0  0.26394040740E+01  0.87896975736E+01 -0.25746861755E+01  0.95317493917E+01  0.51100000000E-03 0.  1.
         12    1    3    3    0    0  0.28001001308E+02  0.20280361938E+02  0.47425324040E+01  0.34897575391E+02  0.00000000000E+00 0. -1.
</event>
<event>
 7    1  0.9953837E-014  0.5052886E+02  0.7816164E-02  0.1300439E+00
        -11   -1    0    0    0    0  0.00000000000E+00  0.00000000000E+00  0.45593999997E+02  0.45594000000E+02  0.51100000000E-03 0. -1.
         11   -1    0    0    0    0 -0.00000000000E+00 -0.00000000000E+00 -0.45593999997E+02  0.45594000000E+02  0.51100000000E-03 0.  1.
    9900012    2    1    2    0    0 -0.32530127799E+02  0.66765344793E+01 -0.23460181855E+02  0.50528862528E+02  0.30000008140E+02 0.  0.
         12    1    1    2    0    0  0.32530127799E+02 -0.66765344793E+01  0.23460181855E+02  0.40659137472E+02  0.00000000000E+00 0. -1.
         11    1    3    3    0    0 -0.59227559262E+01  0.94985070941E+01 -0.14904784111E+02  0.18640098295E+02  0.51100000000E-03 0. -1.
        -11    1    3    3    0    0 -0.15504996605E+02 -0.26788265863E+01 -0.12510493411E+02  0.20102076441E+02  0.51100000000E-03 0.  1.
         12    1    3    3    0    0 -0.11102375268E+02 -0.14314602844E+00  0.39550956668E+01  0.11786687792E+02  0.00000000000E+00 0. -1.
</event>
<event>
 7    1  0.9953837E-014  0.5052886E+02  0.7816164E-02  0.1300439E+00
        -11   -1    0    0    0    0  0.00000000000E+00  0.00000000000E+00  0.45593999997E+02  0.45594000000E+02  0.51100000000E-03 0. -1.
         11   -1    0    0    0    0 -0.00000000000E+00 -0.00000000000E+00 -0.45593999997E+02  0.45594000000E+02  0.51100000000E-03 0.  1.
    9900012    2    1    2    0    0  0.25202036236E+02  0.30494184306E+02 -0.93876237332E+01  0.50528863434E+02  0.30000010894E+02 0.  0.
         12    1    1    2    0    0 -0.25202036236E+02 -0.30494184306E+02  0.93876237332E+01  0.40659136566E+02  0.00000000000E+00 0. -1.
         11    1    3    3    0    0  0.14045582674E+02  0.75863168447E+01 -0.40737749131E+01  0.16475018610E+02  0.51100000000E-03 0. -1.
        -11    1    3    3    0    0 -0.44572874789E+01  0.29033703149E+01  0.43781154534E+01  0.68894750192E+01  0.51100000000E-03 0.  1.
        -12    1    3    3    0    0  0.15613741042E+02  0.20004497146E+02 -0.96919642735E+01  0.27164369804E+02  0.00000000000E+00 0.  1.
</event>
<event>
 7    1  0.9953837E-014  0.5052887E+02  0.7816164E-02  0.1300439E+00
        -11   -1    0    0    0    0  0.00000000000E+00  0.00000000000E+00  0.45593999997E+02  0.45594000000E+02  0.51100000000E-03 0. -1.
         11   -1    0    0    0    0 -0.00000000000E+00 -0.00000000000E+00 -0.45593999997E+02  0.45594000000E+02  0.51100000000E-03 0.  1.
    9900012    2    1    2    0    0 -0.16514871361E+02  0.36726487494E+02  0.56204433126E+01  0.50528865200E+02  0.30000016261E+02 0.  0.
        -12    1    1    2    0    0  0.16514871361E+02 -0.36726487494E+02 -0.56204433126E+01  0.40659134800E+02  0.00000000000E+00 0.  1.
         11    1    3    3    0    0 -0.10790117265E+02  0.18809388449E+02  0.87190979615E+01  0.23371829067E+02  0.51100000000E-03 0. -1.
        -11    1    3    3    0    0  0.62516802627E+01  0.99474415493E+01  0.19530614535E+01  0.11910060822E+02  0.51100000000E-03 0.  1.
        -12    1    3    3    0    0 -0.11976434359E+02  0.79696574947E+01 -0.50517161025E+01  0.15246975310E+02  0.00000000000E+00 0.  1.
</event>
<event>
 7    1  0.9953837E-014  0.5052886E+02  0.7816164E-02  0.1300439E+00
        -11   -1    0    0    0    0  0.00000000000E+00  0.00000000000E+00  0.45593999997E+02  0.45594000000E+02  0.51100000000E-03 0. -1.
         11   -1    0    0    0    0 -0.00000000000E+00 -0.00000000000E+00 -0.45593999997E+02  0.45594000000E+02  0.51100000000E-03 0.  1.
    9900012    2    1    2    0    0  0.16226475862E+02 -0.31929537912E+02 -0.19245039129E+02  0.50528862758E+02  0.30000008839E+02 0.  0.
         12    1    1    2    0    0 -0.16226475862E+02  0.31929537912E+02  0.19245039129E+02  0.40659137242E+02  0.00000000000E+00 0. -1.
         11    1    3    3    0    0  0.84510700358E+00 -0.77960035161E+01  0.17126879623E+01  0.80265295731E+01  0.51100000000E-03 0. -1.
        -11    1    3    3    0    0  0.37308131344E+01 -0.17166291489E+02 -0.22821940802E+02  0.28800026256E+02  0.51100000000E-03 0.  1.
        -12    1    3    3    0    0  0.11650555724E+02 -0.69672429070E+01  0.18642137111E+01  0.13702306929E+02  0.00000000000E+00 0.  1.
</event>
<event>
 7    1  0.9953837E-014  0.5052886E+02  0.7816164E-02  0.1300439E+00
        -11   -1    0    0    0    0  0.00000000000E+00  0.00000000000E+00  0.45593999997E+02  0.45594000000E+02  0.51100000000E-03 0. -1.
         11   -1    0    0    0    0 -0.00000000000E+00 -0.00000000000E+00 -0.45593999997E+02  0.45594000000E+02  0.51100000000E-03 0.  1.
    9900012    2    1    2    0    0  0.95887905681E+01  0.31631342765E+02 -0.23678657469E+02  0.50528861185E+02  0.30000004058E+02 0.  0.
         12    1    1    2    0    0 -0.95887905681E+01 -0.31631342765E+02  0.23678657469E+02  0.40659138815E+02  0.00000000000E+00 0. -1.
         11    1    3    3    0    0 -0.32997641727E+01  0.13922119915E+01  0.14637105000E+01  0.38689981279E+01  0.51100000000E-03 0. -1.
        -11    1    3    3    0    0  0.18392925742E+02  0.17752298279E+02 -0.17940023165E+02  0.31229605233E+02  0.51100000000E-03 0.  1.
        -12    1    3    3    0    0 -0.55043710015E+01  0.12486832494E+02 -0.72023448033E+01  0.15430257824E+02  0.00000000000E+00 0.  1.
</event>
<event>
 7    1  0.9953837E-014  0.5052883E+02  0.7816164E-02  0.1300439E+00
        -11   -1    0    0    0    0  0.00000000000E+00  0.00000000000E+00  0.45593999997E+02  0.45594000000E+02  0.51100000000E-03 0. -1.
         11   -1    0    0    0    0 -0.00000000000E+00 -0.00000000000E+00 -0.45593999997E+02  0.45594000000E+02  0.51100000000E-03 0.  1.
    9900012    2    1    2    0    0  0.60018723682E+01  0.14880623430E+02 -0.37359234165E+02  0.50528833715E+02  0.29999920561E+02 0.  0.
         12    1    1    2    0    0 -0.60018723682E+01 -0.14880623430E+02  0.37359234165E+02  0.40659166285E+02  0.00000000000E+00 0. -1.
         11    1    3    3    0    0 -0.42526966304E+01 -0.69475631972E+01 -0.61684245144E+01  0.10217804278E+02  0.51100000000E-03 0. -1.
        -11    1    3    3    0    0  0.11460191528E+02  0.16631174368E+02 -0.24375171556E+02  0.31655662043E+02  0.51100000000E-03 0.  1.
        -12    1    3    3    0    0 -0.12056225294E+01  0.51970122586E+01 -0.68156380941E+01  0.86553673943E+01  0.00000000000E+00 0.  1.
</event>
<event>
 7    1  0.9953837E-014  0.5052886E+02  0.7816164E-02  0.1300439E+00
        -11   -1    0    0    0    0  0.00000000000E+00  0.00000000000E+00  0.45593999997E+02  0.45594000000E+02  0.51100000000E-03 0. -1.
         11   -1    0    0    0    0 -0.00000000000E+00 -0.00000000000E+00 -0.45593999997E+02  0.45594000000E+02  0.51100000000E-03 0.  1.
    9900012    2    1    2    0    0  0.18352719742E+02  0.18684376704E+02 -0.31100442970E+02  0.50528858252E+02  0.29999995143E+02 0.  0.
         12    1    1    2    0    0 -0.18352719742E+02 -0.18684376704E+02  0.31100442970E+02  0.40659141748E+02  0.00000000000E+00 0. -1.
         11    1    3    3    0    0 -0.56213659596E+01 -0.33105217156E+01 -0.35338803027E+01  0.74194083009E+01  0.51100000000E-03 0. -1.
        -11    1    3    3    0    0  0.88070566126E+01  0.46631890258E+01 -0.10239769622E+02  0.14288542971E+02  0.51100000000E-03 0.  1.
         12    1    3    3    0    0  0.15167029089E+02  0.17331709394E+02 -0.17326793045E+02  0.28820906980E+02  0.00000000000E+00 0. -1.
</event>
<event>
 7    1  0.9953837E-014  0.5052889E+02  0.7816164E-02  0.1300439E+00
        -11   -1    0    0    0    0  0.00000000000E+00  0.00000000000E+00  0.45593999997E+02  0.45594000000E+02  0.51100000000E-03 0. -1.
         11   -1    0    0    0    0 -0.00000000000E+00 -0.00000000000E+00 -0.45593999997E+02  0.45594000000E+02  0.51100000000E-03 0.  1.
    9900012    2    1    2    0    0  0.33871298181E+02 -0.31068599003E+01 -0.22276578836E+02  0.50528888062E+02  0.30000085754E+02 0.  0.
         12    1    1    2    0    0 -0.33871298181E+02  0.31068599003E+01  0.22276578836E+02  0.40659111938E+02  0.00000000000E+00 0. -1.
         11    1    3    3    0    0  0.48299429788E+01 -0.45606120535E+01 -0.12901686423E+02  0.14511410831E+02  0.51100000000E-03 0. -1.
        -11    1    3    3    0    0  0.29023101455E+02  0.62949407697E+01 -0.65476203652E+01  0.30411149766E+02  0.51100000000E-03 0.  1.
        -12    1    3    3    0    0  0.18253747468E-01 -0.48411886165E+01 -0.28272720471E+01  0.56063274653E+01  0.00000000000E+00 0.  1.
</event>
<event>
 7    1  0.9953837E-014  0.5052886E+02  0.7816164E-02  0.1300439E+00
        -11   -1    0    0    0    0  0.00000000000E+00  0.00000000000E+00  0.45593999997E+02  0.45594000000E+02  0.51100000000E-03 0.  1.
         11   -1    0    0    0    0 -0.00000000000E+00 -0.00000000000E+00 -0.45593999997E+02  0.45594000000E+02  0.51100000000E-03 0. -1.
    9900012    2    1    2    0    0 -0.13314157452E+02  0.33913686240E+02  0.18048841473E+02  0.50528861032E+02  0.30000003593E+02 0.  0.
        -12    1    1    2    0    0  0.13314157452E+02 -0.33913686240E+02 -0.18048841473E+02  0.40659138968E+02  0.00000000000E+00 0.  1.
         11    1    3    3    0    0  0.83352792831E+00  0.23270978228E+02 -0.21248001875E+01  0.23382642550E+02  0.51100000000E-03 0. -1.
        -11    1    3    3    0    0 -0.10743203199E+02  0.74133859679E+01  0.17195763614E+02  0.21588631106E+02  0.51100000000E-03 0.  1.
         12    1    3    3    0    0 -0.34044821814E+01  0.32293220444E+01  0.29778780470E+01  0.55575873770E+01  0.00000000000E+00 0. -1.
</event>
<event>
 7    1  0.9953837E-014  0.5052887E+02  0.7816164E-02  0.1300439E+00
        -11   -1    0    0    0    0  0.00000000000E+00  0.00000000000E+00  0.45593999997E+02  0.45594000000E+02  0.51100000000E-03 0. -1.
         11   -1    0    0    0    0 -0.00000000000E+00 -0.00000000000E+00 -0.45593999997E+02  0.45594000000E+02  0.51100000000E-03 0.  1.
    9900012    2    1    2    0    0 -0.15169300891E+01 -0.39527213563E+00 -0.40628896791E+02  0.50528873454E+02  0.30000041352E+02 0.  0.
         12    1    1    2    0    0  0.15169300891E+01  0.39527213563E+00  0.40628896791E+02  0.40659126546E+02  0.00000000000E+00 0. -1.
         11    1    3    3    0    0 -0.27590706299E+01  0.14761836730E+00 -0.38988376823E+02  0.39086158541E+02  0.51100000000E-03 0.  1.
        -11    1    3    3    0    0  0.37999167070E+01  0.43538651277E+01 -0.11875751465E+01  0.58996477454E+01  0.51100000000E-03 0. -1.
         12    1    3    3    0    0 -0.25577761661E+01 -0.48967556307E+01 -0.45294482212E+00  0.55430671685E+01  0.00000000000E+00 0. -1.
</event>
<event>
 7    1  0.9953837E-014  0.5052884E+02  0.7816164E-02  0.1300439E+00
        -11   -1    0    0    0    0  0.00000000000E+00  0.00000000000E+00  0.45593999997E+02  0.45594000000E+02  0.51100000000E-03 0. -1.
         11   -1    0    0    0    0 -0.00000000000E+00 -0.00000000000E+00 -0.45593999997E+02  0.45594000000E+02  0.51100000000E-03 0.  1.
    9900012    2    1    2    0    0 -0.19185308170E+02 -0.19480957836E+02 -0.30092916572E+02  0.50528838724E+02  0.29999935786E+02 0.  0.
         12    1    1    2    0    0  0.19185308170E+02  0.19480957836E+02  0.30092916572E+02  0.40659161276E+02  0.00000000000E+00 0. -1.
         11    1    3    3    0    0 -0.18961114277E+01  0.56560227614E+00 -0.41992154859E+01  0.46420421626E+01  0.51100000000E-03 0. -1.
        -11    1    3    3    0    0 -0.88950917356E+01  0.15125844933E+01  0.24017459928E+01  0.93369670080E+01  0.51100000000E-03 0.  1.
        -12    1    3    3    0    0 -0.83941050071E+01 -0.21559144605E+02 -0.28295447079E+02  0.36549829554E+02  0.00000000000E+00 0.  1.
</event>
<event>
 7    1  0.9953837E-014  0.5052886E+02  0.7816164E-02  0.1300439E+00
        -11   -1    0    0    0    0  0.00000000000E+00  0.00000000000E+00  0.45593999997E+02  0.45594000000E+02  0.51100000000E-03 0. -1.
         11   -1    0    0    0    0 -0.00000000000E+00 -0.00000000000E+00 -0.45593999997E+02  0.45594000000E+02  0.51100000000E-03 0.  1.
    9900012    2    1    2    0    0  0.75336703424E+01  0.19118247698E+02  0.35084215521E+02  0.50528858806E+02  0.29999996828E+02 0.  0.
        -12    1    1    2    0    0 -0.75336703424E+01 -0.19118247698E+02 -0.35084215521E+02  0.40659141194E+02  0.00000000000E+00 0.  1.
         11    1    3    3    0    0 -0.32337125963E+01  0.21508461025E+02  0.22664770497E+02  0.31412777890E+02  0.51100000000E-03 0. -1.
        -11    1    3    3    0    0  0.78946063165E+01 -0.59483725535E+01  0.93660750261E+01  0.13617316424E+02  0.51100000000E-03 0.  1.
        -12    1    3    3    0    0  0.28727766222E+01  0.35581592259E+01  0.30533699986E+01  0.54987644927E+01  0.00000000000E+00 0.  1.
</event>
<event>
 7    1  0.9953837E-014  0.5052884E+02  0.7816164E-02  0.1300439E+00
        -11   -1    0    0    0    0  0.00000000000E+00  0.00000000000E+00  0.45593999997E+02  0.45594000000E+02  0.51100000000E-03 0. -1.
         11   -1    0    0    0    0 -0.00000000000E+00 -0.00000000000E+00 -0.45593999997E+02  0.45594000000E+02  0.51100000000E-03 0.  1.
    9900012    2    1    2    0    0 -0.20267276014E+02  0.21627984297E+02 -0.27832262400E+02  0.50528843441E+02  0.29999950125E+02 0.  0.
         12    1    1    2    0    0  0.20267276014E+02 -0.21627984297E+02  0.27832262400E+02  0.40659156559E+02  0.00000000000E+00 0. -1.
         11    1    3    3    0    0 -0.14840015351E+02  0.74410064453E+01  0.16541675243E+01  0.16683252171E+02  0.51100000000E-03 0. -1.
        -11    1    3    3    0    0 -0.50530774877E+01  0.41417758910E+01 -0.10637880742E+02  0.12484086133E+02  0.51100000000E-03 0.  1.
         12    1    3    3    0    0 -0.37418317487E+00  0.10045201960E+02 -0.18848549182E+02  0.21361505137E+02  0.00000000000E+00 0. -1.
</event>
<event>
 7    1  0.9953837E-014  0.5052885E+02  0.7816164E-02  0.1300439E+00
        -11   -1    0    0    0    0  0.00000000000E+00  0.00000000000E+00  0.45593999997E+02  0.45594000000E+02  0.51100000000E-03 0. -1.
         11   -1    0    0    0    0 -0.00000000000E+00 -0.00000000000E+00 -0.45593999997E+02  0.45594000000E+02  0.51100000000E-03 0.  1.
    9900012    2    1    2    0    0  0.17795135883E+02  0.76503832496E+01 -0.35748726832E+02  0.50528847340E+02  0.29999961974E+02 0.  0.
         12    1    1    2    0    0 -0.17795135883E+02 -0.76503832496E+01  0.35748726832E+02  0.40659152660E+02  0.00000000000E+00 0. -1.
         11    1    3    3    0    0  0.17474160734E+02 -0.54688176542E+01 -0.10838920717E+02  0.21277604716E+02  0.51100000000E-03 0. -1.
        -11    1    3    3    0    0 -0.33820164074E+01  0.86532735253E+01 -0.12723872237E+02  0.15754812047E+02  0.51100000000E-03 0.  1.
        -12    1    3    3    0    0  0.37029915561E+01  0.44659273786E+01 -0.12185933878E+02  0.13496430576E+02  0.00000000000E+00 0.  1.
</event>
<event>
 7    1  0.9953837E-014  0.5052886E+02  0.7816164E-02  0.1300439E+00
        -11   -1    0    0    0    0  0.00000000000E+00  0.00000000000E+00  0.45593999997E+02  0.45594000000E+02  0.51100000000E-03 0. -1.
         11   -1    0    0    0    0 -0.00000000000E+00 -0.00000000000E+00 -0.45593999997E+02  0.45594000000E+02  0.51100000000E-03 0.  1.
    9900012    2    1    2    0    0  0.79033883640E+01  0.29248934337E+02  0.27114610013E+02  0.50528858547E+02  0.29999996041E+02 0.  0.
        -12    1    1    2    0    0 -0.79033883640E+01 -0.29248934337E+02 -0.27114610013E+02  0.40659141453E+02  0.00000000000E+00 0.  1.
         11    1    3    3    0    0 -0.38785628505E+01  0.22570867802E+02  0.18256701039E+02  0.29288128247E+02  0.51100000000E-03 0. -1.
        -11    1    3    3    0    0  0.14592846370E+02  0.44220567975E+01  0.88622309232E+01  0.17636464745E+02  0.51100000000E-03 0.  1.
        -12    1    3    3    0    0 -0.28108951559E+01  0.22560097379E+01 -0.43219488650E-02  0.36042655555E+01  0.00000000000E+00 0.  1.
</event>
<event>
 7    1  0.9953837E-014  0.5052889E+02  0.7816164E-02  0.1300439E+00
        -11   -1    0    0    0    0  0.00000000000E+00  0.00000000000E+00  0.45593999997E+02  0.45594000000E+02  0.51100000000E-03 0. -1.
         11   -1    0    0    0    0 -0.00000000000E+00 -0.00000000000E+00 -0.45593999997E+02  0.45594000000E+02  0.51100000000E-03 0.  1.
    9900012    2    1    2    0    0  0.81136877102E+01 -0.29095681355E+02 -0.27217131652E+02  0.50528894536E+02  0.30000105431E+02 0.  0.
         12    1    1    2    0    0 -0.81136877102E+01  0.29095681355E+02  0.27217131652E+02  0.40659105464E+02  0.00000000000E+00 0. -1.
         11    1    3    3    0    0  0.56914854293E+01 -0.48173568843E+01 -0.10951614370E+02  0.13249067564E+02  0.51100000000E-03 0. -1.
        -11    1    3    3    0    0  0.58335823331E+01 -0.18334204208E+02  0.41698600049E+00  0.19244417485E+02  0.51100000000E-03 0.  1.
        -12    1    3    3    0    0 -0.34113800522E+01 -0.59441202630E+01 -0.16682503283E+02  0.18035409487E+02  0.00000000000E+00 0.  1.
</event>
<event>
 7    1  0.9953837E-014  0.5052885E+02  0.7816164E-02  0.1300439E+00
        -11   -1    0    0    0    0  0.00000000000E+00  0.00000000000E+00  0.45593999997E+02  0.45594000000E+02  0.51100000000E-03 0. -1.
         11   -1    0    0    0    0 -0.00000000000E+00 -0.00000000000E+00 -0.45593999997E+02  0.45594000000E+02  0.51100000000E-03 0.  1.
    9900012    2    1    2    0    0 -0.19058944277E+02  0.19872847391E+01 -0.35860478260E+02  0.50528849017E+02  0.29999967073E+02 0.  0.
         12    1    1    2    0    0  0.19058944277E+02 -0.19872847391E+01  0.35860478260E+02  0.40659150983E+02  0.00000000000E+00 0. -1.
         11    1    3    3    0    0 -0.17972831220E+02 -0.46285491448E+01 -0.58268016539E+01  0.19452448356E+02  0.51100000000E-03 0. -1.
        -11    1    3    3    0    0 -0.63661620095E+00  0.50993935308E+01 -0.13145064090E+02  0.14113886947E+02  0.51100000000E-03 0.  1.
         12    1    3    3    0    0 -0.44949685520E+00  0.15164403531E+01 -0.16888612516E+02  0.16962513714E+02  0.00000000000E+00 0. -1.
</event>
<event>
 7    1  0.9953837E-014  0.5052897E+02  0.7816164E-02  0.1300438E+00
        -11   -1    0    0    0    0  0.00000000000E+00  0.00000000000E+00  0.45593999997E+02  0.45594000000E+02  0.51100000000E-03 0. -1.
         11   -1    0    0    0    0 -0.00000000000E+00 -0.00000000000E+00 -0.45593999997E+02  0.45594000000E+02  0.51100000000E-03 0.  1.
    9900012    2    1    2    0    0 -0.32688079927E+01  0.30667416580E+02  0.26494931129E+02  0.50528967536E+02  0.30000327320E+02 0.  0.
        -12    1    1    2    0    0  0.32688079927E+01 -0.30667416580E+02 -0.26494931129E+02  0.40659032464E+02  0.00000000000E+00 0.  1.
         11    1    3    3    0    0  0.79725333378E+01  0.21906382486E+02  0.21200101665E+02  0.31510239484E+02  0.51100000000E-03 0. -1.
        -11    1    3    3    0    0 -0.66061501223E+01  0.76056156668E+01 -0.20273775098E+01  0.10276033716E+02  0.51100000000E-03 0.  1.
         12    1    3    3    0    0 -0.46351912082E+01  0.11554184272E+01  0.73222069740E+01  0.87426943358E+01  0.00000000000E+00 0. -1.
</event>
<event>
 7    1  0.9953837E-014  0.5052886E+02  0.7816164E-02  0.1300439E+00
        -11   -1    0    0    0    0  0.00000000000E+00  0.00000000000E+00  0.45593999997E+02  0.45594000000E+02  0.51100000000E-03 0. -1.
         11   -1    0    0    0    0 -0.00000000000E+00 -0.00000000000E+00 -0.45593999997E+02  0.45594000000E+02  0.51100000000E-03 0.  1.
    9900012    2    1    2    0    0 -0.23608450828E+02  0.28283939542E+02  0.17199574726E+02  0.50528861332E+02  0.30000004504E+02 0.  0.
        -12    1    1    2    0    0  0.23608450828E+02 -0.28283939542E+02 -0.17199574726E+02  0.40659138668E+02  0.00000000000E+00 0.  1.
         11    1    3    3    0    0 -0.24916815630E+02  0.18467342721E+02  0.18194911132E+02  0.35957547743E+02  0.51100000000E-03 0. -1.
        -11    1    3    3    0    0  0.23545089564E+01  0.47665529152E+01 -0.55538151219E+01  0.76882118720E+01  0.51100000000E-03 0.  1.
         12    1    3    3    0    0 -0.10461441541E+01  0.50500439055E+01  0.45584787165E+01  0.68831017171E+01  0.00000000000E+00 0. -1.
</event>
<event>
 7    1  0.9953837E-014  0.5052886E+02  0.7816164E-02  0.1300439E+00
        -11   -1    0    0    0    0  0.00000000000E+00  0.00000000000E+00  0.45593999997E+02  0.45594000000E+02  0.51100000000E-03 0.  1.
         11   -1    0    0    0    0 -0.00000000000E+00 -0.00000000000E+00 -0.45593999997E+02  0.45594000000E+02  0.51100000000E-03 0. -1.
    9900012    2    1    2    0    0 -0.21049880374E+02  0.34085966915E+02 -0.69437048094E+01  0.50528860305E+02  0.30000001384E+02 0.  0.
        -12    1    1    2    0    0  0.21049880374E+02 -0.34085966915E+02  0.69437048094E+01  0.40659139695E+02  0.00000000000E+00 0.  1.
         11    1    3    3    0    0 -0.11253275741E+02  0.86586519877E+01 -0.66701071956E+01  0.15687536436E+02  0.51100000000E-03 0. -1.
        -11    1    3    3    0    0  0.35017212089E+01  0.52548307230E+01  0.71747879653E+01  0.95578700536E+01  0.51100000000E-03 0.  1.
        -12    1    3    3    0    0 -0.13298325841E+02  0.20172484204E+02 -0.74483855791E+01  0.25283453816E+02  0.00000000000E+00 0.  1.
</event>
<event>
 7    1  0.9953837E-014  0.5052886E+02  0.7816164E-02  0.1300439E+00
        -11   -1    0    0    0    0  0.00000000000E+00  0.00000000000E+00  0.45593999997E+02  0.45594000000E+02  0.51100000000E-03 0. -1.
         11   -1    0    0    0    0 -0.00000000000E+00 -0.00000000000E+00 -0.45593999997E+02  0.45594000000E+02  0.51100000000E-03 0.  1.
    9900012    2    1    2    0    0  0.34098662942E+02 -0.10595448414E+02 -0.19446933505E+02  0.50528861245E+02  0.30000004240E+02 0.  0.
         12    1    1    2    0    0 -0.34098662942E+02  0.10595448414E+02  0.19446933505E+02  0.40659138755E+02  0.00000000000E+00 0. -1.
         11    1    3    3    0    0 -0.51183555243E+00  0.79196411234E+00 -0.25396034047E+01  0.27090161502E+01  0.51100000000E-03 0. -1.
        -11    1    3    3    0    0  0.11586915653E+02 -0.16791660397E+02 -0.11992863831E+02  0.23665275328E+02  0.51100000000E-03 0.  1.
        -12    1    3    3    0    0  0.23023582841E+02  0.54042478700E+01 -0.49144662692E+01  0.24154569766E+02  0.00000000000E+00 0.  1.
</event>
<event>
 7    1  0.9953837E-014  0.5052886E+02  0.7816164E-02  0.1300439E+00
        -11   -1    0    0    0    0  0.00000000000E+00  0.00000000000E+00  0.45593999997E+02  0.45594000000E+02  0.51100000000E-03 0. -1.
         11   -1    0    0    0    0 -0.00000000000E+00 -0.00000000000E+00 -0.45593999997E+02  0.45594000000E+02  0.51100000000E-03 0.  1.
    9900012    2    1    2    0    0 -0.25489268022E+02  0.21474114434E+02 -0.23287874273E+02  0.50528862488E+02  0.30000008020E+02 0.  0.
         12    1    1    2    0    0  0.25489268022E+02 -0.21474114434E+02  0.23287874273E+02  0.40659137512E+02  0.00000000000E+00 0. -1.
         11    1    3    3    0    0 -0.13331834569E+02 -0.29711898984E+01 -0.11412083518E+02  0.17798916620E+02  0.51100000000E-03 0. -1.
        -11    1    3    3    0    0 -0.50721236691E+01  0.22176763150E+02 -0.10902396766E+02  0.25226920498E+02  0.51100000000E-03 0.  1.
         12    1    3    3    0    0 -0.70853097846E+01  0.22685411823E+01 -0.97339398897E+00  0.75030253696E+01  0.00000000000E+00 0. -1.
</event>
<event>
 7    1  0.9953837E-014  0.5052886E+02  0.7816164E-02  0.1300439E+00
        -11   -1    0    0    0    0  0.00000000000E+00  0.00000000000E+00  0.45593999997E+02  0.45594000000E+02  0.51100000000E-03 0. -1.
         11   -1    0    0    0    0 -0.00000000000E+00 -0.00000000000E+00 -0.45593999997E+02  0.45594000000E+02  0.51100000000E-03 0.  1.
    9900012    2    1    2    0    0 -0.27712601242E+02  0.13318329032E+02 -0.26604507604E+02  0.50528856125E+02  0.29999988677E+02 0.  0.
         12    1    1    2    0    0  0.27712601242E+02 -0.13318329032E+02  0.26604507604E+02  0.40659143875E+02  0.00000000000E+00 0. -1.
         11    1    3    3    0    0 -0.73874429405E+01  0.94594031306E+01 -0.38474217646E+01  0.12603859539E+02  0.51100000000E-03 0. -1.
        -11    1    3    3    0    0 -0.10605377574E+02  0.57507958130E+01 -0.25011820552E+02  0.27769350974E+02  0.51100000000E-03 0.  1.
        -12    1    3    3    0    0 -0.97197807279E+01 -0.18918699113E+01  0.22547347125E+01  0.10155645611E+02  0.00000000000E+00 0.  1.
</event>
<event>
 7    1  0.9953837E-014  0.5052885E+02  0.7816164E-02  0.1300439E+00
        -11   -1    0    0    0    0  0.00000000000E+00  0.00000000000E+00  0.45593999997E+02  0.45594000000E+02  0.51100000000E-03 0. -1.
         11   -1    0    0    0    0 -0.00000000000E+00 -0.00000000000E+00 -0.45593999997E+02  0.45594000000E+02  0.51100000000E-03 0.  1.
    9900012    2    1    2    0    0  0.22110350002E+02 -0.21993306169E+02 -0.26088179713E+02  0.50528853253E+02  0.29999979947E+02 0.  0.
         12    1    1    2    0    0 -0.22110350002E+02  0.21993306169E+02  0.26088179713E+02  0.40659146747E+02  0.00000000000E+00 0. -1.
         11    1    3    3    0    0  0.47159206176E+01 -0.18118796249E+01  0.51208992445E+01  0.71934987579E+01  0.51100000000E-03 0. -1.
        -11    1    3    3    0    0  0.16803799995E+02 -0.18111854326E+02 -0.19622940143E+02  0.31551018074E+02  0.51100000000E-03 0.  1.
        -12    1    3    3    0    0  0.59062939000E+00 -0.20695722177E+01 -0.11586138815E+02  0.11784336421E+02  0.00000000000E+00 0.  1.
</event>
<event>
 7    1  0.9953837E-014  0.5052886E+02  0.7816164E-02  0.1300439E+00
        -11   -1    0    0    0    0  0.00000000000E+00  0.00000000000E+00  0.45593999997E+02  0.45594000000E+02  0.51100000000E-03 0. -1.
         11   -1    0    0    0    0 -0.00000000000E+00 -0.00000000000E+00 -0.45593999997E+02  0.45594000000E+02  0.51100000000E-03 0.  1.
    9900012    2    1    2    0    0 -0.97604029318E+01  0.26193402673E+02 -0.29526357305E+02  0.50528860995E+02  0.30000003479E+02 0.  0.
         12    1    1    2    0    0  0.97604029318E+01 -0.26193402673E+02  0.29526357305E+02  0.40659139005E+02  0.00000000000E+00 0. -1.
         11    1    3    3    0    0  0.71748589276E+01 -0.10415837711E+01 -0.22554455848E+01  0.75927947707E+01  0.51100000000E-03 0. -1.
        -11    1    3    3    0    0 -0.14125964692E+02  0.20074836979E+02 -0.24708559518E+02  0.34828937278E+02  0.51100000000E-03 0.  1.
        -12    1    3    3    0    0 -0.28092971670E+01  0.71601494650E+01 -0.25623522025E+01  0.81071289458E+01  0.00000000000E+00 0.  1.
</event>
<event>
 7    1  0.9953837E-014  0.5052885E+02  0.7816164E-02  0.1300439E+00
        -11   -1    0    0    0    0  0.00000000000E+00  0.00000000000E+00  0.45593999997E+02  0.45594000000E+02  0.51100000000E-03 0. -1.
         11   -1    0    0    0    0 -0.00000000000E+00 -0.00000000000E+00 -0.45593999997E+02  0.45594000000E+02  0.51100000000E-03 0.  1.
    9900012    2    1    2    0    0 -0.14710271645E+02  0.17296129483E+02  0.33728592694E+02  0.50528854017E+02  0.29999982269E+02 0.  0.
        -12    1    1    2    0    0  0.14710271645E+02 -0.17296129483E+02 -0.33728592694E+02  0.40659145983E+02  0.00000000000E+00 0.  1.
         11    1    3    3    0    0 -0.20558642572E+02  0.14425276806E+02  0.32077385330E+02  0.40739477724E+02  0.51100000000E-03 0. -1.
        -11    1    3    3    0    0  0.44849931077E+01  0.45358089798E+01  0.32015427932E+01  0.71371284699E+01  0.51100000000E-03 0.  1.
         12    1    3    3    0    0  0.13633778190E+01 -0.16649563031E+01 -0.15503354295E+01  0.26522478226E+01  0.00000000000E+00 0. -1.
</event>
<event>
 7    1  0.9953837E-014  0.5052886E+02  0.7816164E-02  0.1300439E+00
        -11   -1    0    0    0    0  0.00000000000E+00  0.00000000000E+00  0.45593999997E+02  0.45594000000E+02  0.51100000000E-03 0. -1.
         11   -1    0    0    0    0 -0.00000000000E+00 -0.00000000000E+00 -0.45593999997E+02  0.45594000000E+02  0.51100000000E-03 0.  1.
    9900012    2    1    2    0    0  0.25123664899E+02 -0.15629276682E+02  0.27887139635E+02  0.50528863455E+02  0.30000010959E+02 0.  0.
        -12    1    1    2    0    0 -0.25123664899E+02  0.15629276682E+02 -0.27887139635E+02  0.40659136545E+02  0.00000000000E+00 0.  1.
         11    1    3    3    0    0  0.15436931515E+02 -0.70245975179E-02  0.91898268880E+01  0.17965294944E+02  0.51100000000E-03 0. -1.
        -11    1    3    3    0    0  0.31501352623E+01 -0.19020399581E+02  0.13049083795E+02  0.23280411090E+02  0.51100000000E-03 0.  1.
        -12    1    3    3    0    0  0.65365981217E+01  0.33981474960E+01  0.56482289512E+01  0.92831574205E+01  0.00000000000E+00 0.  1.
</event>
<event>
 7    1  0.9953837E-014  0.5052886E+02  0.7816164E-02  0.1300439E+00
        -11   -1    0    0    0    0  0.00000000000E+00  0.00000000000E+00  0.45593999997E+02  0.45594000000E+02  0.51100000000E-03 0.  1.
         11   -1    0    0    0    0 -0.00000000000E+00 -0.00000000000E+00 -0.45593999997E+02  0.45594000000E+02  0.51100000000E-03 0. -1.
    9900012    2    1    2    0    0  0.29630080155E+02  0.28420025956E+01 -0.27697417258E+02  0.50528861402E+02  0.30000004718E+02 0.  0.
         12    1    1    2    0    0 -0.29630080155E+02 -0.28420025956E+01  0.27697417258E+02  0.40659138598E+02  0.00000000000E+00 0. -1.
         11    1    3    3    0    0  0.16767853818E+02 -0.48421269502E+01 -0.22591546258E+01  0.17598604915E+02  0.51100000000E-03 0.  1.
        -11    1    3    3    0    0  0.40575541398E+01 -0.17869152112E+01 -0.16809210760E+02  0.17384084049E+02  0.51100000000E-03 0. -1.
         12    1    3    3    0    0  0.88046721975E+01  0.94710447569E+01 -0.86290518718E+01  0.15546172439E+02  0.00000000000E+00 0. -1.
</event>
<event>
 7    1  0.9953837E-014  0.5052889E+02  0.7816164E-02  0.1300439E+00
        -11   -1    0    0    0    0  0.00000000000E+00  0.00000000000E+00  0.45593999997E+02  0.45594000000E+02  0.51100000000E-03 0. -1.
         11   -1    0    0    0    0 -0.00000000000E+00 -0.00000000000E+00 -0.45593999997E+02  0.45594000000E+02  0.51100000000E-03 0.  1.
    9900012    2    1    2    0    0  0.29280445173E+02 -0.19899412611E+02  0.19995807516E+02  0.50528887737E+02  0.30000084765E+02 0.  0.
        -12    1    1    2    0    0 -0.29280445173E+02  0.19899412611E+02 -0.19995807516E+02  0.40659112263E+02  0.00000000000E+00 0.  1.
         11    1    3    3    0    0  0.30318068681E+02 -0.18122133848E+02  0.12766681337E+02  0.37557757872E+02  0.51100000000E-03 0. -1.
        -11    1    3    3    0    0 -0.16882842452E+01 -0.61242952876E+01  0.46746173523E+01  0.78872900361E+01  0.51100000000E-03 0.  1.
         12    1    3    3    0    0  0.65066073724E+00  0.43470165243E+01  0.25545088265E+01  0.50838398285E+01  0.00000000000E+00 0. -1.
</event>
<event>
 7    1  0.9953837E-014  0.5052886E+02  0.7816164E-02  0.1300439E+00
        -11   -1    0    0    0    0  0.00000000000E+00  0.00000000000E+00  0.45593999997E+02  0.45594000000E+02  0.51100000000E-03 0. -1.
         11   -1    0    0    0    0 -0.00000000000E+00 -0.00000000000E+00 -0.45593999997E+02  0.45594000000E+02  0.51100000000E-03 0.  1.
    9900012    2    1    2    0    0  0.42899984145E+01 -0.31449855285E+02  0.25410004043E+02  0.50528858478E+02  0.29999995829E+02 0.  0.
        -12    1    1    2    0    0 -0.42899984145E+01  0.31449855285E+02 -0.25410004043E+02  0.40659141522E+02  0.00000000000E+00 0.  1.
         11    1    3    3    0    0 -0.15190135106E+01 -0.26691114555E+01  0.69992545533E+01  0.76433711522E+01  0.51100000000E-03 0. -1.
        -11    1    3    3    0    0 -0.38684561571E+01 -0.19879162444E+02 -0.11525394333E-01  0.20252066206E+02  0.51100000000E-03 0.  1.
        -12    1    3    3    0    0  0.96774680823E+01 -0.89015813853E+01  0.18422274884E+02  0.22633421119E+02  0.00000000000E+00 0.  1.
</event>
<event>
 7    1  0.9953837E-014  0.5052886E+02  0.7816164E-02  0.1300439E+00
        -11   -1    0    0    0    0  0.00000000000E+00  0.00000000000E+00  0.45593999997E+02  0.45594000000E+02  0.51100000000E-03 0. -1.
         11   -1    0    0    0    0 -0.00000000000E+00 -0.00000000000E+00 -0.45593999997E+02  0.45594000000E+02  0.51100000000E-03 0.  1.
    9900012    2    1    2    0    0  0.53484097486E+01 -0.28474315019E+02  0.28526711022E+02  0.50528863949E+02  0.30000012460E+02 0.  0.
        -12    1    1    2    0    0 -0.53484097486E+01  0.28474315019E+02 -0.28526711022E+02  0.40659136051E+02  0.00000000000E+00 0.  1.
         11    1    3    3    0    0  0.98348633436E+01 -0.22345220689E+02  0.31181985426E+02  0.39602394372E+02  0.51100000000E-03 0. -1.
        -11    1    3    3    0    0 -0.22099857112E+01  0.52413689532E+00 -0.31428634105E+01  0.38776728855E+01  0.51100000000E-03 0.  1.
         12    1    3    3    0    0 -0.22764678838E+01 -0.66532312255E+01  0.48758900672E+00  0.70487966920E+01  0.00000000000E+00 0. -1.
</event>
<event>
 7    1  0.9953837E-014  0.5052875E+02  0.7816164E-02  0.1300439E+00
        -11   -1    0    0    0    0  0.00000000000E+00  0.00000000000E+00  0.45593999997E+02  0.45594000000E+02  0.51100000000E-03 0. -1.
         11   -1    0    0    0    0 -0.00000000000E+00 -0.00000000000E+00 -0.45593999997E+02  0.45594000000E+02  0.51100000000E-03 0.  1.
    9900012    2    1    2    0    0 -0.10869210100E+02  0.79331681219E+01 -0.38367949495E+02  0.50528752182E+02  0.29999672732E+02 0.  0.
         12    1    1    2    0    0  0.10869210100E+02 -0.79331681219E+01  0.38367949495E+02  0.40659247818E+02  0.00000000000E+00 0. -1.
         11    1    3    3    0    0  0.69054771066E+01  0.25144307394E+00 -0.15920576592E+02  0.17355506244E+02  0.51100000000E-03 0. -1.
        -11    1    3    3    0    0 -0.92019879378E+01  0.52936427239E+01 -0.19042350931E+01  0.10785422887E+02  0.51100000000E-03 0.  1.
        -12    1    3    3    0    0 -0.85726992684E+01  0.23880823241E+01 -0.20543137810E+02  0.22387823052E+02  0.00000000000E+00 0.  1.
</event>
<event>
 7    1  0.9953837E-014  0.5052887E+02  0.7816164E-02  0.1300439E+00
        -11   -1    0    0    0    0  0.00000000000E+00  0.00000000000E+00  0.45593999997E+02  0.45594000000E+02  0.51100000000E-03 0. -1.
         11   -1    0    0    0    0 -0.00000000000E+00 -0.00000000000E+00 -0.45593999997E+02  0.45594000000E+02  0.51100000000E-03 0.  1.
    9900012    2    1    2    0    0  0.29167270449E+02 -0.13900057895E+02  0.24682456553E+02  0.50528868966E+02  0.30000027710E+02 0.  0.
        -12    1    1    2    0    0 -0.29167270449E+02  0.13900057895E+02 -0.24682456553E+02  0.40659131034E+02  0.00000000000E+00 0.  1.
         11    1    3    3    0    0  0.28435155119E+02 -0.17263991536E+02  0.17832674298E+02  0.37743975987E+02  0.51100000000E-03 0. -1.
        -11    1    3    3    0    0  0.35071017445E+01  0.60043086886E+01  0.41367304593E+01  0.80909841569E+01  0.51100000000E-03 0.  1.
         12    1    3    3    0    0 -0.27749864143E+01 -0.26403750474E+01  0.27130517947E+01  0.46939088222E+01  0.00000000000E+00 0. -1.
</event>
<event>
 7    1  0.9953837E-014  0.5052886E+02  0.7816164E-02  0.1300439E+00
        -11   -1    0    0    0    0  0.00000000000E+00  0.00000000000E+00  0.45593999997E+02  0.45594000000E+02  0.51100000000E-03 0. -1.
         11   -1    0    0    0    0 -0.00000000000E+00 -0.00000000000E+00 -0.45593999997E+02  0.45594000000E+02  0.51100000000E-03 0.  1.
    9900012    2    1    2    0    0 -0.91212503510E+01 -0.73117430256E+01 -0.38942354540E+02  0.50528858701E+02  0.29999996508E+02 0.  0.
         12    1    1    2    0    0  0.91212503510E+01  0.73117430256E+01  0.38942354540E+02  0.40659141299E+02  0.00000000000E+00 0. -1.
         11    1    3    3    0    0 -0.34535551015E+00 -0.78252934056E+01 -0.12794555376E+02  0.15001837716E+02  0.51100000000E-03 0. -1.
        -11    1    3    3    0    0  0.62224006559E+01  0.54082264516E+01 -0.81388504307E+01  0.11584820666E+02  0.51100000000E-03 0.  1.
        -12    1    3    3    0    0 -0.14998295497E+02 -0.48946760716E+01 -0.18008948733E+02  0.23942200319E+02  0.00000000000E+00 0.  1.
</event>
<event>
 7    1  0.9953837E-014  0.5052886E+02  0.7816164E-02  0.1300439E+00
        -11   -1    0    0    0    0  0.00000000000E+00  0.00000000000E+00  0.45593999997E+02  0.45594000000E+02  0.51100000000E-03 0. -1.
         11   -1    0    0    0    0 -0.00000000000E+00 -0.00000000000E+00 -0.45593999997E+02  0.45594000000E+02  0.51100000000E-03 0.  1.
    9900012    2    1    2    0    0  0.44759426800E+01 -0.39511641919E+02  0.84830250542E+01  0.50528860509E+02  0.30000002005E+02 0.  0.
        -12    1    1    2    0    0 -0.44759426800E+01  0.39511641919E+02 -0.84830250542E+01  0.40659139491E+02  0.00000000000E+00 0.  1.
         11    1    3    3    0    0 -0.52769960527E+01 -0.22103188357E+02  0.11076419541E+02  0.25280124466E+02  0.51100000000E-03 0. -1.
        -11    1    3    3    0    0  0.12679103059E+02 -0.15547494101E+02  0.12141139355E+01  0.20098713892E+02  0.51100000000E-03 0.  1.
        -12    1    3    3    0    0 -0.29261643259E+01 -0.18609594614E+01 -0.38075084226E+01  0.51500221521E+01  0.00000000000E+00 0.  1.
</event>
<event>
 7    1  0.9953837E-014  0.5052885E+02  0.7816164E-02  0.1300439E+00
        -11   -1    0    0    0    0  0.00000000000E+00  0.00000000000E+00  0.45593999997E+02  0.45594000000E+02  0.51100000000E-03 0.  1.
         11   -1    0    0    0    0 -0.00000000000E+00 -0.00000000000E+00 -0.45593999997E+02  0.45594000000E+02  0.51100000000E-03 0. -1.
    9900012    2    1    2    0    0  0.36488916815E+02  0.12093943088E+02 -0.13246194755E+02  0.50528853609E+02  0.29999981030E+02 0.  0.
         12    1    1    2    0    0 -0.36488916815E+02 -0.12093943088E+02  0.13246194755E+02  0.40659146391E+02  0.00000000000E+00 0. -1.
         11    1    3    3    0    0  0.73225000243E-01  0.58300192844E+01  0.94148314956E+00  0.59060035167E+01  0.51100000000E-03 0. -1.
        -11    1    3    3    0    0  0.37430351259E+02  0.51177087555E+01 -0.84869319033E+01  0.38720151752E+02  0.51100000000E-03 0.  1.
        -12    1    3    3    0    0 -0.10146594445E+01  0.11462150479E+01 -0.57007460014E+01  0.59026983403E+01  0.00000000000E+00 0.  1.
</event>
<event>
 7    1  0.9953837E-014  0.5052886E+02  0.7816164E-02  0.1300439E+00
        -11   -1    0    0    0    0  0.00000000000E+00  0.00000000000E+00  0.45593999997E+02  0.45594000000E+02  0.51100000000E-03 0. -1.
         11   -1    0    0    0    0 -0.00000000000E+00 -0.00000000000E+00 -0.45593999997E+02  0.45594000000E+02  0.51100000000E-03 0.  1.
    9900012    2    1    2    0    0 -0.36710936595E+01 -0.29002605213E+02  0.28258402987E+02  0.50528863546E+02  0.30000011235E+02 0.  0.
        -12    1    1    2    0    0  0.36710936595E+01  0.29002605213E+02 -0.28258402987E+02  0.40659136454E+02  0.00000000000E+00 0.  1.
         11    1    3    3    0    0 -0.66410625691E+01 -0.17855414462E+02  0.16314249773E+02  0.25081353304E+02  0.51100000000E-03 0. -1.
        -11    1    3    3    0    0  0.10749551531E+02 -0.68944063545E+01  0.10352656466E+02  0.16439683490E+02  0.51100000000E-03 0.  1.
        -12    1    3    3    0    0 -0.77795826215E+01 -0.42527843963E+01  0.15914967484E+01  0.90078267516E+01  0.00000000000E+00 0.  1.
</event>
<event>
 7    1  0.9953837E-014  0.5052886E+02  0.7816164E-02  0.1300439E+00
        -11   -1    0    0    0    0  0.00000000000E+00  0.00000000000E+00  0.45593999997E+02  0.45594000000E+02  0.51100000000E-03 0. -1.
         11   -1    0    0    0    0 -0.00000000000E+00 -0.00000000000E+00 -0.45593999997E+02  0.45594000000E+02  0.51100000000E-03 0.  1.
    9900012    2    1    2    0    0 -0.32815262998E+02  0.45405259142E+01 -0.23573453351E+02  0.50528861247E+02  0.30000004247E+02 0.  0.
         12    1    1    2    0    0  0.32815262998E+02 -0.45405259142E+01  0.23573453351E+02  0.40659138753E+02  0.00000000000E+00 0. -1.
         11    1    3    3    0    0 -0.95250384435E+01 -0.10417182934E+02 -0.54499083297E+01  0.15130947052E+02  0.51100000000E-03 0. -1.
        -11    1    3    3    0    0 -0.14722107056E+02  0.40247984326E+01 -0.44290494265E+01  0.15892007981E+02  0.51100000000E-03 0.  1.
         12    1    3    3    0    0 -0.85681174989E+01  0.10932910416E+02 -0.13694495595E+02  0.19505906214E+02  0.00000000000E+00 0. -1.
</event>
<event>
 7    1  0.9953837E-014  0.5052886E+02  0.7816164E-02  0.1300439E+00
        -11   -1    0    0    0    0  0.00000000000E+00  0.00000000000E+00  0.45593999997E+02  0.45594000000E+02  0.51100000000E-03 0. -1.
         11   -1    0    0    0    0 -0.00000000000E+00 -0.00000000000E+00 -0.45593999997E+02  0.45594000000E+02  0.51100000000E-03 0.  1.
    9900012    2    1    2    0    0 -0.40058426998E+01 -0.23849827483E+02  0.32684930000E+02  0.50528859628E+02  0.29999999325E+02 0.  0.
        -12    1    1    2    0    0  0.40058426998E+01  0.23849827483E+02 -0.32684930000E+02  0.40659140372E+02  0.00000000000E+00 0.  1.
         11    1    3    3    0    0 -0.14666998370E+01 -0.16422315519E+01 -0.40758088224E+01  0.46325317807E+01  0.51100000000E-03 0. -1.
        -11    1    3    3    0    0 -0.79294569598E+01 -0.18625422410E+02  0.22684180379E+02  0.30403201926E+02  0.51100000000E-03 0.  1.
         12    1    3    3    0    0  0.53903140971E+01 -0.35821735209E+01  0.14076558444E+02  0.15493125921E+02  0.00000000000E+00 0. -1.
</event>
<event>
 7    1  0.9953837E-014  0.5052885E+02  0.7816164E-02  0.1300439E+00
        -11   -1    0    0    0    0  0.00000000000E+00  0.00000000000E+00  0.45593999997E+02  0.45594000000E+02  0.51100000000E-03 0. -1.
         11   -1    0    0    0    0 -0.00000000000E+00 -0.00000000000E+00 -0.45593999997E+02  0.45594000000E+02  0.51100000000E-03 0.  1.
    9900012    2    1    2    0    0 -0.18806120904E+02  0.63151962781E+01 -0.35491045328E+02  0.50528853600E+02  0.29999981003E+02 0.  0.
         12    1    1    2    0    0  0.18806120904E+02 -0.63151962781E+01  0.35491045328E+02  0.40659146400E+02  0.00000000000E+00 0. -1.
         11    1    3    3    0    0  0.37929476452E+00  0.74140804983E+01 -0.14841085463E+02  0.16594284321E+02  0.51100000000E-03 0. -1.
        -11    1    3    3    0    0 -0.20806613145E+02 -0.35073803545E+01 -0.22213104002E+02  0.30637213600E+02  0.51100000000E-03 0.  1.
        -12    1    3    3    0    0  0.16211974760E+01  0.24084961343E+01  0.15631441363E+01  0.32973556793E+01  0.00000000000E+00 0.  1.
</event>
<event>
 7    1  0.9953837E-014  0.5052890E+02  0.7816164E-02  0.1300439E+00
        -11   -1    0    0    0    0  0.00000000000E+00  0.00000000000E+00  0.45593999997E+02  0.45594000000E+02  0.51100000000E-03 0. -1.
         11   -1    0    0    0    0 -0.00000000000E+00 -0.00000000000E+00 -0.45593999997E+02  0.45594000000E+02  0.51100000000E-03 0.  1.
    9900012    2    1    2    0    0 -0.26505324213E+01  0.95993406831E+00 -0.40561261928E+02  0.50528895672E+02  0.30000108886E+02 0.  0.
         12    1    1    2    0    0  0.26505324213E+01 -0.95993406831E+00  0.40561261928E+02  0.40659104328E+02  0.00000000000E+00 0. -1.
         11    1    3    3    0    0 -0.29839926815E+01 -0.31897790491E+01  0.12907263736E+01  0.45546544917E+01  0.51100000000E-03 0. -1.
        -11    1    3    3    0    0  0.55415448126E+01 -0.38550380413E+01 -0.30017321271E+02  0.30767021529E+02  0.51100000000E-03 0.  1.
         12    1    3    3    0    0 -0.52080845524E+01  0.80047511587E+01 -0.11834667031E+02  0.15207219652E+02  0.00000000000E+00 0. -1.
</event>
<event>
 7    1  0.9953837E-014  0.5052886E+02  0.7816164E-02  0.1300439E+00
        -11   -1    0    0    0    0  0.00000000000E+00  0.00000000000E+00  0.45593999997E+02  0.45594000000E+02  0.51100000000E-03 0. -1.
         11   -1    0    0    0    0 -0.00000000000E+00 -0.00000000000E+00 -0.45593999997E+02  0.45594000000E+02  0.51100000000E-03 0.  1.
    9900012    2    1    2    0    0  0.13963171974E+02 -0.15066718032E+02 -0.35088307303E+02  0.50528862365E+02  0.30000007644E+02 0.  0.
         12    1    1    2    0    0 -0.13963171974E+02  0.15066718032E+02  0.35088307303E+02  0.40659137635E+02  0.00000000000E+00 0. -1.
         11    1    3    3    0    0  0.14440123705E+02 -0.10931191330E+02 -0.11714211822E+02  0.21569211284E+02  0.51100000000E-03 0. -1.
        -11    1    3    3    0    0 -0.84872831051E+01 -0.16842804657E+01 -0.10590719931E+02  0.13676041975E+02  0.51100000000E-03 0.  1.
        -12    1    3    3    0    0  0.80103313742E+01 -0.24512462356E+01 -0.12783375551E+02  0.15283609106E+02  0.00000000000E+00 0.  1.
</event>
<event>
 7    1  0.9953837E-014  0.5052887E+02  0.7816164E-02  0.1300439E+00
        -11   -1    0    0    0    0  0.00000000000E+00  0.00000000000E+00  0.45593999997E+02  0.45594000000E+02  0.51100000000E-03 0. -1.
         11   -1    0    0    0    0 -0.00000000000E+00 -0.00000000000E+00 -0.45593999997E+02  0.45594000000E+02  0.51100000000E-03 0.  1.
    9900012    2    1    2    0    0 -0.91158215686E+01 -0.10126834945E+02  0.38308148070E+02  0.50528865756E+02  0.30000017953E+02 0.  0.
        -12    1    1    2    0    0  0.91158215686E+01  0.10126834945E+02 -0.38308148070E+02  0.40659134244E+02  0.00000000000E+00 0.  1.
         11    1    3    3    0    0 -0.61285138740E+01 -0.37920646120E+01  0.31159088631E+02  0.31981670390E+02  0.51100000000E-03 0. -1.
        -11    1    3    3    0    0  0.26005867792E+01 -0.94567194151E+01  0.13317418058E+01  0.98977841051E+01  0.51100000000E-03 0.  1.
        -12    1    3    3    0    0 -0.55878944738E+01  0.31219490823E+01  0.58173176332E+01  0.86494112614E+01  0.00000000000E+00 0.  1.
</event>
<event>
 7    1  0.9953837E-014  0.5052886E+02  0.7816164E-02  0.1300439E+00
        -11   -1    0    0    0    0  0.00000000000E+00  0.00000000000E+00  0.45593999997E+02  0.45594000000E+02  0.51100000000E-03 0. -1.
         11   -1    0    0    0    0 -0.00000000000E+00 -0.00000000000E+00 -0.45593999997E+02  0.45594000000E+02  0.51100000000E-03 0.  1.
    9900012    2    1    2    0    0 -0.18045618080E+02 -0.80009809236E+01  0.35545824123E+02  0.50528860312E+02  0.30000001404E+02 0.  0.
        -12    1    1    2    0    0  0.18045618080E+02  0.80009809236E+01 -0.35545824123E+02  0.40659139688E+02  0.00000000000E+00 0.  1.
         11    1    3    3    0    0 -0.15706017167E+02  0.43852036149E+01  0.10608669112E+02  0.19453864566E+02  0.51100000000E-03 0. -1.
        -11    1    3    3    0    0  0.53766341538E+01 -0.25682315490E+01  0.66241057640E+01  0.89097017653E+01  0.51100000000E-03 0.  1.
        -12    1    3    3    0    0 -0.77162350673E+01 -0.98179529895E+01  0.18313049247E+02  0.22165293980E+02  0.00000000000E+00 0.  1.
</event>
<event>
 7    1  0.9953837E-014  0.5052888E+02  0.7816164E-02  0.1300439E+00
        -11   -1    0    0    0    0  0.00000000000E+00  0.00000000000E+00  0.45593999997E+02  0.45594000000E+02  0.51100000000E-03 0. -1.
         11   -1    0    0    0    0 -0.00000000000E+00 -0.00000000000E+00 -0.45593999997E+02  0.45594000000E+02  0.51100000000E-03 0.  1.
    9900012    2    1    2    0    0  0.19348909158E+02  0.48309825649E+01 -0.35432266376E+02  0.50528878284E+02  0.30000056033E+02 0.  0.
         12    1    1    2    0    0 -0.19348909158E+02 -0.48309825649E+01  0.35432266376E+02  0.40659121716E+02  0.00000000000E+00 0. -1.
         11    1    3    3    0    0 -0.31592126141E+01  0.76250253451E+01 -0.17233242436E+02  0.19107754473E+02  0.51100000000E-03 0. -1.
        -11    1    3    3    0    0  0.12373991558E+02 -0.10962450481E+00 -0.16768832541E+02  0.20840379787E+02  0.51100000000E-03 0.  1.
         12    1    3    3    0    0  0.10134130214E+02 -0.26844182754E+01 -0.14301913983E+01  0.10580744024E+02  0.00000000000E+00 0. -1.
</event>
<event>
 7    1  0.9953837E-014  0.5052885E+02  0.7816164E-02  0.1300439E+00
        -11   -1    0    0    0    0  0.00000000000E+00  0.00000000000E+00  0.45593999997E+02  0.45594000000E+02  0.51100000000E-03 0. -1.
         11   -1    0    0    0    0 -0.00000000000E+00 -0.00000000000E+00 -0.45593999997E+02  0.45594000000E+02  0.51100000000E-03 0.  1.
    9900012    2    1    2    0    0  0.38379040402E+02 -0.96242539879E+01  0.93589158302E+01  0.50528852044E+02  0.29999976273E+02 0.  0.
        -12    1    1    2    0    0 -0.38379040402E+02  0.96242539879E+01 -0.93589158302E+01  0.40659147956E+02  0.00000000000E+00 0.  1.
         11    1    3    3    0    0  0.24515280184E+02  0.17397579944E+01  0.84791765877E+01  0.25998502962E+02  0.51100000000E-03 0. -1.
        -11    1    3    3    0    0  0.27346396114E+01 -0.12569789922E+02 -0.18812057376E+01  0.13000646437E+02  0.51100000000E-03 0.  1.
        -12    1    3    3    0    0  0.11129120606E+02  0.12057779399E+01  0.27609449802E+01  0.11529702645E+02  0.00000000000E+00 0.  1.
</event>
<event>
 7    1  0.9953837E-014  0.5052886E+02  0.7816164E-02  0.1300439E+00
        -11   -1    0    0    0    0  0.00000000000E+00  0.00000000000E+00  0.45593999997E+02  0.45594000000E+02  0.51100000000E-03 0. -1.
         11   -1    0    0    0    0 -0.00000000000E+00 -0.00000000000E+00 -0.45593999997E+02  0.45594000000E+02  0.51100000000E-03 0.  1.
    9900012    2    1    2    0    0 -0.35875339482E+02 -0.18403188672E+02  0.52390977050E+01  0.50528862269E+02  0.30000007352E+02 0.  0.
        -12    1    1    2    0    0  0.35875339482E+02  0.18403188672E+02 -0.52390977050E+01  0.40659137731E+02  0.00000000000E+00 0.  1.
         11    1    3    3    0    0 -0.15700893310E+01  0.46889071844E+01  0.35040887016E+01  0.60605007204E+01  0.51100000000E-03 0. -1.
        -11    1    3    3    0    0 -0.19080304367E+02 -0.19968460061E+02  0.61828127264E+01  0.28302377735E+02  0.51100000000E-03 0.  1.
        -12    1    3    3    0    0 -0.15224945784E+02 -0.31236357955E+01 -0.44478037231E+01  0.16165983814E+02  0.00000000000E+00 0.  1.
</event>
<event>
 7    1  0.9953837E-014  0.5052899E+02  0.7816164E-02  0.1300438E+00
        -11   -1    0    0    0    0  0.00000000000E+00  0.00000000000E+00  0.45593999997E+02  0.45594000000E+02  0.51100000000E-03 0. -1.
         11   -1    0    0    0    0 -0.00000000000E+00 -0.00000000000E+00 -0.45593999997E+02  0.45594000000E+02  0.51100000000E-03 0.  1.
    9900012    2    1    2    0    0  0.18140744970E+02 -0.13672316012E+02 -0.33721445594E+02  0.50528994280E+02  0.30000408610E+02 0.  0.
         12    1    1    2    0    0 -0.18140744970E+02  0.13672316012E+02  0.33721445594E+02  0.40659005720E+02  0.00000000000E+00 0. -1.
         11    1    3    3    0    0  0.34298595969E+01  0.48419238719E+01  0.31562190741E+01  0.67208543162E+01  0.51100000000E-03 0. -1.
        -11    1    3    3    0    0  0.95280052105E+01 -0.11997080067E+02 -0.23945774018E+02  0.28427326765E+02  0.51100000000E-03 0.  1.
         12    1    3    3    0    0  0.51828801626E+01 -0.65171598164E+01 -0.12931890651E+02  0.15380813199E+02  0.00000000000E+00 0. -1.
</event>
<event>
 7    1  0.9953837E-014  0.5052887E+02  0.7816164E-02  0.1300439E+00
        -11   -1    0    0    0    0  0.00000000000E+00  0.00000000000E+00  0.45593999997E+02  0.45594000000E+02  0.51100000000E-03 0. -1.
         11   -1    0    0    0    0 -0.00000000000E+00 -0.00000000000E+00 -0.45593999997E+02  0.45594000000E+02  0.51100000000E-03 0.  1.
    9900012    2    1    2    0    0  0.16681193126E+02 -0.16350491903E+02 -0.33280087446E+02  0.50528868061E+02  0.30000024959E+02 0.  0.
         12    1    1    2    0    0 -0.16681193126E+02  0.16350491903E+02  0.33280087446E+02  0.40659131939E+02  0.00000000000E+00 0. -1.
         11    1    3    3    0    0  0.15013929666E+01  0.11921288293E+01  0.10476125231E+00  0.19199810329E+01  0.51100000000E-03 0. -1.
        -11    1    3    3    0    0  0.12880323110E+02 -0.23398897589E+02 -0.32786320056E+02  0.42288933717E+02  0.51100000000E-03 0.  1.
        -12    1    3    3    0    0  0.22994770500E+01  0.58562768566E+01 -0.59852864210E+00  0.63199533115E+01  0.00000000000E+00 0.  1.
</event>
<event>
 7    1  0.9953837E-014  0.5052886E+02  0.7816164E-02  0.1300439E+00
        -11   -1    0    0    0    0  0.00000000000E+00  0.00000000000E+00  0.45593999997E+02  0.45594000000E+02  0.51100000000E-03 0. -1.
         11   -1    0    0    0    0 -0.00000000000E+00 -0.00000000000E+00 -0.45593999997E+02  0.45594000000E+02  0.51100000000E-03 0.  1.
    9900012    2    1    2    0    0 -0.21606956005E+02  0.77782866884E+01 -0.33552999308E+02  0.50528855221E+02  0.29999985930E+02 0.  0.
         12    1    1    2    0    0  0.21606956005E+02 -0.77782866884E+01  0.33552999308E+02  0.40659144779E+02  0.00000000000E+00 0. -1.
         11    1    3    3    0    0 -0.37386199013E+01 -0.41490513205E+01 -0.23857820824E+02  0.24502806377E+02  0.51100000000E-03 0.  1.
        -11    1    3    3    0    0 -0.16380187026E+02  0.91309803049E+01 -0.11860410599E+02  0.22189066410E+02  0.51100000000E-03 0. -1.
         12    1    3    3    0    0 -0.14881490778E+01  0.27963577040E+01  0.21652321146E+01  0.38369824337E+01  0.00000000000E+00 0. -1.
</event>
<event>
 7    1  0.9953837E-014  0.5052885E+02  0.7816164E-02  0.1300439E+00
        -11   -1    0    0    0    0  0.00000000000E+00  0.00000000000E+00  0.45593999997E+02  0.45594000000E+02  0.51100000000E-03 0. -1.
         11   -1    0    0    0    0 -0.00000000000E+00 -0.00000000000E+00 -0.45593999997E+02  0.45594000000E+02  0.51100000000E-03 0.  1.
    9900012    2    1    2    0    0 -0.36923737976E+02  0.11793768089E+02 -0.12276429646E+02  0.50528854452E+02  0.29999983592E+02 0.  0.
         12    1    1    2    0    0  0.36923737976E+02 -0.11793768089E+02  0.12276429646E+02  0.40659145548E+02  0.00000000000E+00 0. -1.
         11    1    3    3    0    0 -0.24894353628E+02  0.40922566493E+01  0.47849178467E+01  0.25678217346E+02  0.51100000000E-03 0. -1.
        -11    1    3    3    0    0 -0.81264427170E+01  0.33881737314E+01 -0.16871315760E+02  0.19030504150E+02  0.51100000000E-03 0.  1.
         12    1    3    3    0    0 -0.39029416310E+01  0.43133377085E+01 -0.19003173264E+00  0.58201329557E+01  0.00000000000E+00 0. -1.
</event>
<event>
 7    1  0.9953837E-014  0.5052884E+02  0.7816164E-02  0.1300439E+00
        -11   -1    0    0    0    0  0.00000000000E+00  0.00000000000E+00  0.45593999997E+02  0.45594000000E+02  0.51100000000E-03 0. -1.
         11   -1    0    0    0    0 -0.00000000000E+00 -0.00000000000E+00 -0.45593999997E+02  0.45594000000E+02  0.51100000000E-03 0.  1.
    9900012    2    1    2    0    0 -0.30228169011E+02  0.20089505123E+02  0.18325841776E+02  0.50528844885E+02  0.29999954513E+02 0.  0.
        -12    1    1    2    0    0  0.30228169011E+02 -0.20089505123E+02 -0.18325841776E+02  0.40659155115E+02  0.00000000000E+00 0.  1.
         11    1    3    3    0    0 -0.12457686937E+01  0.14581229165E+02  0.68315155411E+01  0.16150349484E+02  0.51100000000E-03 0. -1.
        -11    1    3    3    0    0 -0.20883851894E+02  0.42477511060E+01  0.13741931856E+01  0.21355726786E+02  0.51100000000E-03 0.  1.
        -12    1    3    3    0    0 -0.80985484233E+01  0.12605248519E+01  0.10120133049E+02  0.13022768615E+02  0.00000000000E+00 0.  1.
</event>
<event>
 7    1  0.9953837E-014  0.5052882E+02  0.7816164E-02  0.1300439E+00
        -11   -1    0    0    0    0  0.00000000000E+00  0.00000000000E+00  0.45593999997E+02  0.45594000000E+02  0.51100000000E-03 0. -1.
         11   -1    0    0    0    0 -0.00000000000E+00 -0.00000000000E+00 -0.45593999997E+02  0.45594000000E+02  0.51100000000E-03 0.  1.
    9900012    2    1    2    0    0 -0.66923784628E+01 -0.24508283429E+02  0.31744678873E+02  0.50528824862E+02  0.29999893650E+02 0.  0.
        -12    1    1    2    0    0  0.66923784628E+01  0.24508283429E+02 -0.31744678873E+02  0.40659175138E+02  0.00000000000E+00 0.  1.
         11    1    3    3    0    0 -0.40533539367E+01 -0.15928766716E+02  0.27486756225E+02  0.32026193268E+02  0.51100000000E-03 0. -1.
        -11    1    3    3    0    0  0.12086015462E+01 -0.88036208088E+01 -0.37270624500E+01  0.96361533721E+01  0.51100000000E-03 0.  1.
        -12    1    3    3    0    0 -0.38476260722E+01  0.22410409521E+00  0.79849850984E+01  0.88664782219E+01  0.00000000000E+00 0.  1.
</event>
<event>
 7    1  0.9953837E-014  0.5052886E+02  0.7816164E-02  0.1300439E+00
        -11   -1    0    0    0    0  0.00000000000E+00  0.00000000000E+00  0.45593999997E+02  0.45594000000E+02  0.51100000000E-03 0. -1.
         11   -1    0    0    0    0 -0.00000000000E+00 -0.00000000000E+00 -0.45593999997E+02  0.45594000000E+02  0.51100000000E-03 0.  1.
    9900012    2    1    2    0    0 -0.30214822991E+01  0.13666101702E+02 -0.38174253394E+02  0.50528864332E+02  0.30000013625E+02 0.  0.
         12    1    1    2    0    0  0.30214822991E+01 -0.13666101702E+02  0.38174253394E+02  0.40659135668E+02  0.00000000000E+00 0. -1.
         11    1    3    3    0    0  0.95810807267E+01  0.54530565823E+01 -0.78422887640E+01  0.13529021668E+02  0.51100000000E-03 0. -1.
        -11    1    3    3    0    0 -0.12269864788E+02  0.86438573182E+01 -0.13584785582E+02  0.20243820065E+02  0.51100000000E-03 0.  1.
         12    1    3    3    0    0 -0.33269823782E+00 -0.43081219818E+00 -0.16747179048E+02  0.16756022599E+02  0.00000000000E+00 0. -1.
</event>
<event>
 7    1  0.9953837E-014  0.5052885E+02  0.7816164E-02  0.1300439E+00
        -11   -1    0    0    0    0  0.00000000000E+00  0.00000000000E+00  0.45593999997E+02  0.45594000000E+02  0.51100000000E-03 0. -1.
         11   -1    0    0    0    0 -0.00000000000E+00 -0.00000000000E+00 -0.45593999997E+02  0.45594000000E+02  0.51100000000E-03 0.  1.
    9900012    2    1    2    0    0  0.20518884300E+02  0.24549662232E+02  0.25088953269E+02  0.50528854599E+02  0.29999984039E+02 0.  0.
        -12    1    1    2    0    0 -0.20518884300E+02 -0.24549662232E+02 -0.25088953269E+02  0.40659145401E+02  0.00000000000E+00 0.  1.
         11    1    3    3    0    0  0.11000876976E+02  0.22189765206E+01  0.87811502714E+00  0.11256741860E+02  0.51100000000E-03 0.  1.
        -11    1    3    3    0    0  0.53581643908E+01  0.57111473716E+01  0.20216698640E+02  0.21680452811E+02  0.51100000000E-03 0. -1.
        -12    1    3    3    0    0  0.41598429337E+01  0.16619538340E+02  0.39941396012E+01  0.17591659928E+02  0.00000000000E+00 0.  1.
</event>
<event>
 7    1  0.9953837E-014  0.5052887E+02  0.7816164E-02  0.1300439E+00
        -11   -1    0    0    0    0  0.00000000000E+00  0.00000000000E+00  0.45593999997E+02  0.45594000000E+02  0.51100000000E-03 0. -1.
         11   -1    0    0    0    0 -0.00000000000E+00 -0.00000000000E+00 -0.45593999997E+02  0.45594000000E+02  0.51100000000E-03 0.  1.
    9900012    2    1    2    0    0 -0.15459699523E+01 -0.23102822896E+02 -0.33422070571E+02  0.50528865108E+02  0.30000015983E+02 0.  0.
         12    1    1    2    0    0  0.15459699523E+01  0.23102822896E+02  0.33422070571E+02  0.40659134892E+02  0.00000000000E+00 0. -1.
         11    1    3    3    0    0  0.11223145321E+02 -0.21195028078E+01 -0.79427787891E+01  0.13911830153E+02  0.51100000000E-03 0. -1.
        -11    1    3    3    0    0 -0.97667124227E+01 -0.77667152668E+01 -0.96251184061E+01  0.15759233553E+02  0.51100000000E-03 0.  1.
         12    1    3    3    0    0 -0.30024028507E+01 -0.13216604822E+02 -0.15854173376E+02  0.20857801402E+02  0.00000000000E+00 0. -1.
</event>
<event>
 7    1  0.9953837E-014  0.5052886E+02  0.7816164E-02  0.1300439E+00
        -11   -1    0    0    0    0  0.00000000000E+00  0.00000000000E+00  0.45593999997E+02  0.45594000000E+02  0.51100000000E-03 0.  1.
         11   -1    0    0    0    0 -0.00000000000E+00 -0.00000000000E+00 -0.45593999997E+02  0.45594000000E+02  0.51100000000E-03 0. -1.
    9900012    2    1    2    0    0 -0.32537794168E+02  0.16754237127E+02 -0.17713084465E+02  0.50528857458E+02  0.29999992728E+02 0.  0.
        -12    1    1    2    0    0  0.32537794168E+02 -0.16754237127E+02  0.17713084465E+02  0.40659142542E+02  0.00000000000E+00 0.  1.
         11    1    3    3    0    0 -0.20456914944E+02  0.75921537141E+01 -0.53165595178E+01  0.22458672543E+02  0.51100000000E-03 0. -1.
        -11    1    3    3    0    0  0.14079891894E+01  0.66313111399E+01 -0.12640708009E+02  0.14343786816E+02  0.51100000000E-03 0.  1.
        -12    1    3    3    0    0 -0.13488868414E+02  0.25307722726E+01  0.24418306235E+00  0.13726398098E+02  0.00000000000E+00 0.  1.
</event>
<event>
 7    1  0.9953837E-014  0.5052887E+02  0.7816164E-02  0.1300439E+00
        -11   -1    0    0    0    0  0.00000000000E+00  0.00000000000E+00  0.45593999997E+02  0.45594000000E+02  0.51100000000E-03 0.  1.
         11   -1    0    0    0    0 -0.00000000000E+00 -0.00000000000E+00 -0.45593999997E+02  0.45594000000E+02  0.51100000000E-03 0. -1.
    9900012    2    1    2    0    0 -0.13412903164E+02 -0.31250675313E+01  0.38255629400E+02  0.50528865735E+02  0.30000017888E+02 0.  0.
        -12    1    1    2    0    0  0.13412903164E+02  0.31250675313E+01 -0.38255629400E+02  0.40659134265E+02  0.00000000000E+00 0.  1.
         11    1    3    3    0    0 -0.64804294758E+01  0.27774597264E+01  0.24899119605E+02  0.25878106694E+02  0.51100000000E-03 0. -1.
        -11    1    3    3    0    0  0.37264378763E+01  0.19012771407E+01 -0.17921608519E+01  0.45511575222E+01  0.51100000000E-03 0.  1.
        -12    1    3    3    0    0 -0.10658911565E+02 -0.78038043983E+01  0.15148670647E+02  0.20099601519E+02  0.00000000000E+00 0.  1.
</event>
<event>
 7    1  0.9953837E-014  0.5052886E+02  0.7816164E-02  0.1300439E+00
        -11   -1    0    0    0    0  0.00000000000E+00  0.00000000000E+00  0.45593999997E+02  0.45594000000E+02  0.51100000000E-03 0. -1.
         11   -1    0    0    0    0 -0.00000000000E+00 -0.00000000000E+00 -0.45593999997E+02  0.45594000000E+02  0.51100000000E-03 0.  1.
    9900012    2    1    2    0    0  0.16242430414E+02 -0.82219201086E+01  0.36355872365E+02  0.50528856238E+02  0.29999989020E+02 0.  0.
        -12    1    1    2    0    0 -0.16242430414E+02  0.82219201086E+01 -0.36355872365E+02  0.40659143762E+02  0.00000000000E+00 0.  1.
         11    1    3    3    0    0  0.10872429572E+01  0.88755713841E+01  0.26552624225E+01  0.93278230813E+01  0.51100000000E-03 0. -1.
        -11    1    3    3    0    0  0.24672887890E+01 -0.71040490419E+01  0.97419807565E+01  0.12306958035E+02  0.51100000000E-03 0.  1.
         12    1    3    3    0    0  0.12687898668E+02 -0.99934424508E+01  0.23958629187E+02  0.28894075121E+02  0.00000000000E+00 0. -1.
</event>
<event>
 7    1  0.9953837E-014  0.5052886E+02  0.7816164E-02  0.1300439E+00
        -11   -1    0    0    0    0  0.00000000000E+00  0.00000000000E+00  0.45593999997E+02  0.45594000000E+02  0.51100000000E-03 0. -1.
         11   -1    0    0    0    0 -0.00000000000E+00 -0.00000000000E+00 -0.45593999997E+02  0.45594000000E+02  0.51100000000E-03 0.  1.
    9900012    2    1    2    0    0 -0.26784301093E+02 -0.90445177848E+01 -0.29222657133E+02  0.50528858630E+02  0.29999996292E+02 0.  0.
         12    1    1    2    0    0  0.26784301093E+02  0.90445177848E+01  0.29222657133E+02  0.40659141370E+02  0.00000000000E+00 0. -1.
         11    1    3    3    0    0 -0.26131826999E+01  0.78572808410E+01 -0.13623526400E+02  0.15942586298E+02  0.51100000000E-03 0. -1.
        -11    1    3    3    0    0 -0.18127768908E+02 -0.14818314491E+02 -0.81995356945E+01  0.24807878502E+02  0.51100000000E-03 0.  1.
         12    1    3    3    0    0 -0.60433494857E+01 -0.20834841345E+01 -0.73995950385E+01  0.97783938292E+01  0.00000000000E+00 0. -1.
</event>
<event>
 7    1  0.9953837E-014  0.5052886E+02  0.7816164E-02  0.1300439E+00
        -11   -1    0    0    0    0  0.00000000000E+00  0.00000000000E+00  0.45593999997E+02  0.45594000000E+02  0.51100000000E-03 0.  1.
         11   -1    0    0    0    0 -0.00000000000E+00 -0.00000000000E+00 -0.45593999997E+02  0.45594000000E+02  0.51100000000E-03 0. -1.
    9900012    2    1    2    0    0 -0.31340212960E+02  0.24994354909E+02 -0.67999397014E+01  0.50528857047E+02  0.29999991480E+02 0.  0.
        -12    1    1    2    0    0  0.31340212960E+02 -0.24994354909E+02  0.67999397014E+01  0.40659142953E+02  0.00000000000E+00 0.  1.
         11    1    3    3    0    0 -0.17972960224E+02  0.13768256215E+00 -0.53234531526E+01  0.18745276990E+02  0.51100000000E-03 0. -1.
        -11    1    3    3    0    0 -0.49776209070E+01  0.15814990223E+02 -0.73333824417E+01  0.18129233959E+02  0.51100000000E-03 0.  1.
         12    1    3    3    0    0 -0.83896318298E+01  0.90416821240E+01  0.58568958929E+01  0.13654346098E+02  0.00000000000E+00 0. -1.
</event>
<event>
 7    1  0.9953837E-014  0.5052886E+02  0.7816164E-02  0.1300439E+00
        -11   -1    0    0    0    0  0.00000000000E+00  0.00000000000E+00  0.45593999997E+02  0.45594000000E+02  0.51100000000E-03 0. -1.
         11   -1    0    0    0    0 -0.00000000000E+00 -0.00000000000E+00 -0.45593999997E+02  0.45594000000E+02  0.51100000000E-03 0.  1.
    9900012    2    1    2    0    0  0.20800323511E+02 -0.22462155035E+02 -0.26757502110E+02  0.50528858517E+02  0.29999995948E+02 0.  0.
         12    1    1    2    0    0 -0.20800323511E+02  0.22462155035E+02  0.26757502110E+02  0.40659141483E+02  0.00000000000E+00 0. -1.
         11    1    3    3    0    0  0.79373966610E+01 -0.55039507833E+01  0.53890875970E+00  0.96739941540E+01  0.51100000000E-03 0. -1.
        -11    1    3    3    0    0  0.17343384585E+02 -0.10798113328E+02 -0.26098643787E+02  0.33144101256E+02  0.51100000000E-03 0.  1.
        -12    1    3    3    0    0 -0.44804577350E+01 -0.61600909233E+01 -0.11977670832E+01  0.77107631065E+01  0.00000000000E+00 0.  1.
</event>
<event>
 7    1  0.9953837E-014  0.5052886E+02  0.7816164E-02  0.1300439E+00
        -11   -1    0    0    0    0  0.00000000000E+00  0.00000000000E+00  0.45593999997E+02  0.45594000000E+02  0.51100000000E-03 0. -1.
         11   -1    0    0    0    0 -0.00000000000E+00 -0.00000000000E+00 -0.45593999997E+02  0.45594000000E+02  0.51100000000E-03 0.  1.
    9900012    2    1    2    0    0  0.23580541193E+00  0.36141648257E+02 -0.18625018201E+02  0.50528860242E+02  0.30000001190E+02 0.  0.
         12    1    1    2    0    0 -0.23580541193E+00 -0.36141648257E+02  0.18625018201E+02  0.40659139758E+02  0.00000000000E+00 0. -1.
         11    1    3    3    0    0 -0.74147185900E+01  0.54112082459E+01 -0.77841822959E+01  0.12035477586E+02  0.51100000000E-03 0. -1.
        -11    1    3    3    0    0  0.12628223147E+02  0.14690445353E+02 -0.18945678844E+01  0.19464598435E+02  0.51100000000E-03 0.  1.
        -12    1    3    3    0    0 -0.49776991447E+01  0.16039994657E+02 -0.89462680210E+01  0.19028784220E+02  0.00000000000E+00 0.  1.
</event>
<event>
 7    1  0.9953837E-014  0.5052886E+02  0.7816164E-02  0.1300439E+00
        -11   -1    0    0    0    0  0.00000000000E+00  0.00000000000E+00  0.45593999997E+02  0.45594000000E+02  0.51100000000E-03 0. -1.
         11   -1    0    0    0    0 -0.00000000000E+00 -0.00000000000E+00 -0.45593999997E+02  0.45594000000E+02  0.51100000000E-03 0.  1.
    9900012    2    1    2    0    0  0.26688386201E+02 -0.22594800742E+02  0.20745371688E+02  0.50528862958E+02  0.30000009446E+02 0.  0.
        -12    1    1    2    0    0 -0.26688386201E+02  0.22594800742E+02 -0.20745371688E+02  0.40659137042E+02  0.00000000000E+00 0.  1.
         11    1    3    3    0    0  0.25511874523E+02 -0.21689096929E+02  0.25229804635E+02  0.41926312853E+02  0.51100000000E-03 0. -1.
        -11    1    3    3    0    0 -0.22891739896E+01 -0.20269701725E+01 -0.38314441944E+01  0.49019272241E+01  0.51100000000E-03 0.  1.
         12    1    3    3    0    0  0.34656856671E+01  0.11212663597E+01 -0.65298875267E+00  0.37006228805E+01  0.00000000000E+00 0. -1.
</event>
<event>
 7    1  0.9953837E-014  0.5052885E+02  0.7816164E-02  0.1300439E+00
        -11   -1    0    0    0    0  0.00000000000E+00  0.00000000000E+00  0.45593999997E+02  0.45594000000E+02  0.51100000000E-03 0.  1.
         11   -1    0    0    0    0 -0.00000000000E+00 -0.00000000000E+00 -0.45593999997E+02  0.45594000000E+02  0.51100000000E-03 0. -1.
    9900012    2    1    2    0    0 -0.96387843057E+01 -0.37501933375E+02  0.12404231265E+02  0.50528854374E+02  0.29999983355E+02 0.  0.
        -12    1    1    2    0    0  0.96387843057E+01  0.37501933375E+02 -0.12404231265E+02  0.40659145626E+02  0.00000000000E+00 0.  1.
         11    1    3    3    0    0 -0.40995756048E+01 -0.36863401079E+02  0.93992959134E+01  0.38263084340E+02  0.51100000000E-03 0. -1.
        -11    1    3    3    0    0  0.17540632356E+01  0.29299012407E+01 -0.44514102848E+00  0.34437203590E+01  0.51100000000E-03 0.  1.
         12    1    3    3    0    0 -0.72932719365E+01 -0.35684335367E+01  0.34500763797E+01  0.88220496752E+01  0.00000000000E+00 0. -1.
</event>
<event>
 7    1  0.9953837E-014  0.5052885E+02  0.7816164E-02  0.1300439E+00
        -11   -1    0    0    0    0  0.00000000000E+00  0.00000000000E+00  0.45593999997E+02  0.45594000000E+02  0.51100000000E-03 0. -1.
         11   -1    0    0    0    0 -0.00000000000E+00 -0.00000000000E+00 -0.45593999997E+02  0.45594000000E+02  0.51100000000E-03 0.  1.
    9900012    2    1    2    0    0 -0.16293089212E+02 -0.37257479694E+00 -0.37250004955E+02  0.50528850511E+02  0.29999971612E+02 0.  0.
         12    1    1    2    0    0  0.16293089212E+02  0.37257479694E+00  0.37250004955E+02  0.40659149489E+02  0.00000000000E+00 0. -1.
         11    1    3    3    0    0  0.41624479389E+01 -0.39974420309E+01 -0.27791426651E+01  0.64054000537E+01  0.51100000000E-03 0. -1.
        -11    1    3    3    0    0 -0.19222373252E+02  0.78850722966E+01 -0.19444831502E+02  0.28456554095E+02  0.51100000000E-03 0.  1.
        -12    1    3    3    0    0 -0.12331638993E+01 -0.42602050627E+01 -0.15026030788E+02  0.15666896362E+02  0.00000000000E+00 0.  1.
</event>
<event>
 7    1  0.9953837E-014  0.5052881E+02  0.7816164E-02  0.1300439E+00
        -11   -1    0    0    0    0  0.00000000000E+00  0.00000000000E+00  0.45593999997E+02  0.45594000000E+02  0.51100000000E-03 0. -1.
         11   -1    0    0    0    0 -0.00000000000E+00 -0.00000000000E+00 -0.45593999997E+02  0.45594000000E+02  0.51100000000E-03 0.  1.
    9900012    2    1    2    0    0  0.12607526880E+02 -0.23838733688E+02  0.30429177142E+02  0.50528809411E+02  0.29999846684E+02 0.  0.
        -12    1    1    2    0    0 -0.12607526880E+02  0.23838733688E+02 -0.30429177142E+02  0.40659190589E+02  0.00000000000E+00 0.  1.
         11    1    3    3    0    0  0.74176932286E+01  0.33552241568E+01  0.56457908298E+01  0.99073031815E+01  0.51100000000E-03 0.  1.
        -11    1    3    3    0    0  0.65573061658E+00 -0.13409876783E+02  0.22109321721E+02  0.25866520547E+02  0.51100000000E-03 0. -1.
        -12    1    3    3    0    0  0.45341030350E+01 -0.13784081062E+02  0.26740645907E+01  0.14754985682E+02  0.00000000000E+00 0.  1.
</event>
<event>
 7    1  0.9953837E-014  0.5052885E+02  0.7816164E-02  0.1300439E+00
        -11   -1    0    0    0    0  0.00000000000E+00  0.00000000000E+00  0.45593999997E+02  0.45594000000E+02  0.51100000000E-03 0. -1.
         11   -1    0    0    0    0 -0.00000000000E+00 -0.00000000000E+00 -0.45593999997E+02  0.45594000000E+02  0.51100000000E-03 0.  1.
    9900012    2    1    2    0    0 -0.11461185970E+02  0.56099559030E+01 -0.38604873795E+02  0.50528847651E+02  0.29999962919E+02 0.  0.
         12    1    1    2    0    0  0.11461185970E+02 -0.56099559030E+01  0.38604873795E+02  0.40659152349E+02  0.00000000000E+00 0. -1.
         11    1    3    3    0    0  0.98965842856E+00  0.68470820883E+01 -0.32430093060E+01  0.76406195135E+01  0.51100000000E-03 0. -1.
        -11    1    3    3    0    0 -0.37911197800E+01 -0.43979657373E+01 -0.32814408416E+02  0.33324166783E+02  0.51100000000E-03 0.  1.
        -12    1    3    3    0    0 -0.86597246187E+01  0.31608395520E+01 -0.25474560722E+01  0.95640613541E+01  0.00000000000E+00 0.  1.
</event>
<event>
 7    1  0.9953837E-014  0.5052884E+02  0.7816164E-02  0.1300439E+00
        -11   -1    0    0    0    0  0.00000000000E+00  0.00000000000E+00  0.45593999997E+02  0.45594000000E+02  0.51100000000E-03 0. -1.
         11   -1    0    0    0    0 -0.00000000000E+00 -0.00000000000E+00 -0.45593999997E+02  0.45594000000E+02  0.51100000000E-03 0.  1.
    9900012    2    1    2    0    0 -0.67209972681E+01  0.54850356725E+00  0.40096063277E+02  0.50528844195E+02  0.29999952415E+02 0.  0.
        -12    1    1    2    0    0  0.67209972681E+01 -0.54850356725E+00 -0.40096063277E+02  0.40659155805E+02  0.00000000000E+00 0.  1.
         11    1    3    3    0    0 -0.76281971311E+01 -0.79036870947E+01  0.24942427972E+02  0.27254034097E+02  0.51100000000E-03 0. -1.
        -11    1    3    3    0    0  0.74084351818E+01  0.24136596851E+01  0.32844848935E+01  0.84556789317E+01  0.51100000000E-03 0.  1.
        -12    1    3    3    0    0 -0.65012353188E+01  0.60385309768E+01  0.11869150412E+02  0.14819131166E+02  0.00000000000E+00 0.  1.
</event>
<event>
 7    1  0.1103259E-013  0.5052886E+02  0.7816164E-02  0.1300439E+00
        -11   -1    0    0    0    0  0.00000000000E+00  0.00000000000E+00  0.45593999997E+02  0.45594000000E+02  0.51100000000E-03 0. -1.
         11   -1    0    0    0    0 -0.00000000000E+00 -0.00000000000E+00 -0.45593999997E+02  0.45594000000E+02  0.51100000000E-03 0.  1.
    9900012    2    1    2    0    0 -0.15505198487E+02  0.50106295457E+01  0.37251148209E+02  0.50528860419E+02  0.30000001729E+02 0.  0.
        -12    1    1    2    0    0  0.15505198487E+02 -0.50106295457E+01 -0.37251148209E+02  0.40659139581E+02  0.00000000000E+00 0.  1.
         11    1    3    3    0    0 -0.11391278133E+02 -0.87827258448E+01  0.26129559948E+02  0.29827024560E+02  0.51100000000E-03 0. -1.
        -11    1    3    3    0    0  0.24399891468E+01  0.61039921316E+01  0.74899064003E+01  0.99654887047E+01  0.51100000000E-03 0.  1.
         12    1    3    3    0    0 -0.65539095014E+01  0.76893632590E+01  0.36316818614E+01  0.10736347155E+02  0.00000000000E+00 0. -1.
</event>
<event>
 7    1  0.9953837E-014  0.5052886E+02  0.7816164E-02  0.1300439E+00
        -11   -1    0    0    0    0  0.00000000000E+00  0.00000000000E+00  0.45593999997E+02  0.45594000000E+02  0.51100000000E-03 0. -1.
         11   -1    0    0    0    0 -0.00000000000E+00 -0.00000000000E+00 -0.45593999997E+02  0.45594000000E+02  0.51100000000E-03 0.  1.
    9900012    2    1    2    0    0  0.17875442556E+02 -0.60305427682E+01 -0.36017585326E+02  0.50528863937E+02  0.30000012423E+02 0.  0.
         12    1    1    2    0    0 -0.17875442556E+02  0.60305427682E+01  0.36017585326E+02  0.40659136063E+02  0.00000000000E+00 0. -1.
         11    1    3    3    0    0  0.86625869385E+01 -0.85276159182E+01 -0.78606560017E+01  0.14475861244E+02  0.51100000000E-03 0. -1.
        -11    1    3    3    0    0  0.13345664767E+02  0.78654272098E+01 -0.21941658786E+02  0.26859041379E+02  0.51100000000E-03 0.  1.
        -12    1    3    3    0    0 -0.41328091496E+01 -0.53683540597E+01 -0.62152705387E+01  0.91939613142E+01  0.00000000000E+00 0.  1.
</event>
<event>
 7    1  0.9953837E-014  0.5052890E+02  0.7816164E-02  0.1300439E+00
        -11   -1    0    0    0    0  0.00000000000E+00  0.00000000000E+00  0.45593999997E+02  0.45594000000E+02  0.51100000000E-03 0. -1.
         11   -1    0    0    0    0 -0.00000000000E+00 -0.00000000000E+00 -0.45593999997E+02  0.45594000000E+02  0.51100000000E-03 0.  1.
    9900012    2    1    2    0    0 -0.11718473458E+02 -0.21176736694E+02 -0.32670869194E+02  0.50528899037E+02  0.30000119113E+02 0.  0.
         12    1    1    2    0    0  0.11718473458E+02  0.21176736694E+02  0.32670869194E+02  0.40659100963E+02  0.00000000000E+00 0. -1.
         11    1    3    3    0    0  0.16301501716E+01 -0.39018691988E+01 -0.85712461647E+01  0.95576270017E+01  0.51100000000E-03 0. -1.
        -11    1    3    3    0    0 -0.13968174190E+02 -0.53423298550E+01 -0.10292878383E+01  0.14990323952E+02  0.51100000000E-03 0.  1.
        -12    1    3    3    0    0  0.61955056075E+00 -0.11932537641E+02 -0.23070335191E+02  0.25980948083E+02  0.00000000000E+00 0.  1.
</event>
<event>
 7    1  0.9953837E-014  0.5052887E+02  0.7816164E-02  0.1300439E+00
        -11   -1    0    0    0    0  0.00000000000E+00  0.00000000000E+00  0.45593999997E+02  0.45594000000E+02  0.51100000000E-03 0. -1.
         11   -1    0    0    0    0 -0.00000000000E+00 -0.00000000000E+00 -0.45593999997E+02  0.45594000000E+02  0.51100000000E-03 0.  1.
    9900012    2    1    2    0    0  0.26663917197E+02 -0.26874491086E+02  0.14831131982E+02  0.50528865389E+02  0.30000016838E+02 0.  0.
        -12    1    1    2    0    0 -0.26663917197E+02  0.26874491086E+02 -0.14831131982E+02  0.40659134611E+02  0.00000000000E+00 0.  1.
         11    1    3    3    0    0  0.92616115050E+01 -0.27298303225E+02  0.95265892291E+01  0.30360018268E+02  0.51100000000E-03 0. -1.
        -11    1    3    3    0    0  0.14202492059E+02  0.27475542577E+00  0.77102993761E+01  0.16162765480E+02  0.51100000000E-03 0.  1.
         12    1    3    3    0    0  0.31998136330E+01  0.14905671359E+00 -0.24057566228E+01  0.40060816415E+01  0.00000000000E+00 0. -1.
</event>
<event>
 7    1  0.9953837E-014  0.5052880E+02  0.7816164E-02  0.1300439E+00
        -11   -1    0    0    0    0  0.00000000000E+00  0.00000000000E+00  0.45593999997E+02  0.45594000000E+02  0.51100000000E-03 0. -1.
         11   -1    0    0    0    0 -0.00000000000E+00 -0.00000000000E+00 -0.45593999997E+02  0.45594000000E+02  0.51100000000E-03 0.  1.
    9900012    2    1    2    0    0 -0.17735532358E+02  0.29197367881E+02 -0.22048468830E+02  0.50528802062E+02  0.29999824348E+02 0.  0.
         12    1    1    2    0    0  0.17735532358E+02 -0.29197367881E+02  0.22048468830E+02  0.40659197938E+02  0.00000000000E+00 0. -1.
         11    1    3    3    0    0 -0.19027852923E+02  0.12104858168E+02 -0.17487409304E+02  0.28537628888E+02  0.51100000000E-03 0. -1.
        -11    1    3    3    0    0  0.24250306678E+01  0.17491178499E+02 -0.72170261198E+01  0.19076361427E+02  0.51100000000E-03 0.  1.
         12    1    3    3    0    0 -0.11327101029E+01 -0.39866878643E+00  0.26559665931E+01  0.29148117473E+01  0.00000000000E+00 0. -1.
</event>
<event>
 7    1  0.9953837E-014  0.5052884E+02  0.7816164E-02  0.1300439E+00
        -11   -1    0    0    0    0  0.00000000000E+00  0.00000000000E+00  0.45593999997E+02  0.45594000000E+02  0.51100000000E-03 0. -1.
         11   -1    0    0    0    0 -0.00000000000E+00 -0.00000000000E+00 -0.45593999997E+02  0.45594000000E+02  0.51100000000E-03 0.  1.
    9900012    2    1    2    0    0  0.24065285254E+02 -0.18872399921E+02  0.26792942637E+02  0.50528841028E+02  0.29999942787E+02 0.  0.
        -12    1    1    2    0    0 -0.24065285254E+02  0.18872399921E+02 -0.26792942637E+02  0.40659158972E+02  0.00000000000E+00 0.  1.
         11    1    3    3    0    0  0.26980154892E+02 -0.75205688607E+01  0.24001632621E+02  0.36885852067E+02  0.51100000000E-03 0. -1.
        -11    1    3    3    0    0 -0.33927041450E+01 -0.20317345336E+01  0.20941510028E+00  0.39600810062E+01  0.51100000000E-03 0.  1.
         12    1    3    3    0    0  0.47783450735E+00 -0.93200965272E+01  0.25818949159E+01  0.96829079542E+01  0.00000000000E+00 0. -1.
</event>
<event>
 7    1  0.9953837E-014  0.5052889E+02  0.7816164E-02  0.1300439E+00
        -11   -1    0    0    0    0  0.00000000000E+00  0.00000000000E+00  0.45593999997E+02  0.45594000000E+02  0.51100000000E-03 0. -1.
         11   -1    0    0    0    0 -0.00000000000E+00 -0.00000000000E+00 -0.45593999997E+02  0.45594000000E+02  0.51100000000E-03 0.  1.
    9900012    2    1    2    0    0 -0.20052056183E+01 -0.19816598052E+02  0.35446360026E+02  0.50528894660E+02  0.30000105809E+02 0.  0.
        -12    1    1    2    0    0  0.20052056183E+01  0.19816598052E+02 -0.35446360026E+02  0.40659105340E+02  0.00000000000E+00 0.  1.
         11    1    3    3    0    0  0.39010274789E+01 -0.13707134606E+02  0.59843942409E+01  0.15456924959E+02  0.51100000000E-03 0.  1.
        -11    1    3    3    0    0 -0.85259895100E+01 -0.87065578935E+01  0.28869229184E+02  0.31335747022E+02  0.51100000000E-03 0. -1.
        -12    1    3    3    0    0  0.26197564128E+01  0.25970944478E+01  0.59273660167E+00  0.37362226797E+01  0.00000000000E+00 0.  1.
</event>
<event>
 7    1  0.9953837E-014  0.5052887E+02  0.7816164E-02  0.1300439E+00
        -11   -1    0    0    0    0  0.00000000000E+00  0.00000000000E+00  0.45593999997E+02  0.45594000000E+02  0.51100000000E-03 0. -1.
         11   -1    0    0    0    0 -0.00000000000E+00 -0.00000000000E+00 -0.45593999997E+02  0.45594000000E+02  0.51100000000E-03 0.  1.
    9900012    2    1    2    0    0  0.13111527931E+02 -0.10921529730E+02 -0.36904915105E+02  0.50528871440E+02  0.30000035230E+02 0.  0.
         12    1    1    2    0    0 -0.13111527931E+02  0.10921529730E+02  0.36904915105E+02  0.40659128560E+02  0.00000000000E+00 0. -1.
         11    1    3    3    0    0  0.26930086650E+01  0.47212830829E+01 -0.14435317926E+01  0.56237526542E+01  0.51100000000E-03 0. -1.
        -11    1    3    3    0    0 -0.23923276257E+01 -0.14001899721E+02 -0.14605359403E+02  0.20373830048E+02  0.51100000000E-03 0.  1.
        -12    1    3    3    0    0  0.12810846891E+02 -0.16409130918E+01 -0.20856023910E+02  0.24531288738E+02  0.00000000000E+00 0.  1.
</event>
<event>
 7    1  0.9953837E-014  0.5052886E+02  0.7816164E-02  0.1300439E+00
        -11   -1    0    0    0    0  0.00000000000E+00  0.00000000000E+00  0.45593999997E+02  0.45594000000E+02  0.51100000000E-03 0. -1.
         11   -1    0    0    0    0 -0.00000000000E+00 -0.00000000000E+00 -0.45593999997E+02  0.45594000000E+02  0.51100000000E-03 0.  1.
    9900012    2    1    2    0    0 -0.20902138863E+02 -0.24515229862E+02  0.24804636828E+02  0.50528856964E+02  0.29999991228E+02 0.  0.
        -12    1    1    2    0    0  0.20902138863E+02  0.24515229862E+02 -0.24804636828E+02  0.40659143036E+02  0.00000000000E+00 0.  1.
         11    1    3    3    0    0 -0.19297093100E+02 -0.70905984982E+00  0.14687887677E+02  0.24261381095E+02  0.51100000000E-03 0. -1.
        -11    1    3    3    0    0  0.58322978822E+00 -0.72715340904E+01  0.13280620443E+01  0.74147902242E+01  0.51100000000E-03 0.  1.
         12    1    3    3    0    0 -0.21882755512E+01 -0.16534635922E+02  0.87886871076E+01  0.18852685645E+02  0.00000000000E+00 0. -1.
</event>
<event>
 7    1  0.9953837E-014  0.5052885E+02  0.7816164E-02  0.1300439E+00
        -11   -1    0    0    0    0  0.00000000000E+00  0.00000000000E+00  0.45593999997E+02  0.45594000000E+02  0.51100000000E-03 0. -1.
         11   -1    0    0    0    0 -0.00000000000E+00 -0.00000000000E+00 -0.45593999997E+02  0.45594000000E+02  0.51100000000E-03 0.  1.
    9900012    2    1    2    0    0  0.37915067178E+02  0.54192285458E+01 -0.13647194013E+02  0.50528852670E+02  0.29999978177E+02 0.  0.
         12    1    1    2    0    0 -0.37915067178E+02 -0.54192285458E+01  0.13647194013E+02  0.40659147330E+02  0.00000000000E+00 0. -1.
         11    1    3    3    0    0  0.60510780459E+01  0.58028199231E+00 -0.16687366968E+02  0.17760081342E+02  0.51100000000E-03 0. -1.
        -11    1    3    3    0    0  0.41106138118E+01  0.14945227729E+00  0.20710958847E+01  0.46053143561E+01  0.51100000000E-03 0.  1.
         12    1    3    3    0    0  0.27753375320E+02  0.46894942762E+01  0.96907707051E+00  0.28163456972E+02  0.00000000000E+00 0. -1.
</event>
<event>
 7    1  0.9953837E-014  0.5052893E+02  0.7816164E-02  0.1300439E+00
        -11   -1    0    0    0    0  0.00000000000E+00  0.00000000000E+00  0.45593999997E+02  0.45594000000E+02  0.51100000000E-03 0.  1.
         11   -1    0    0    0    0 -0.00000000000E+00 -0.00000000000E+00 -0.45593999997E+02  0.45594000000E+02  0.51100000000E-03 0. -1.
    9900012    2    1    2    0    0 -0.17076263103E+02 -0.30410507161E+02  0.20898851466E+02  0.50528933362E+02  0.30000223445E+02 0.  0.
        -12    1    1    2    0    0  0.17076263103E+02  0.30410507161E+02 -0.20898851466E+02  0.40659066638E+02  0.00000000000E+00 0.  1.
         11    1    3    3    0    0 -0.18465331926E+00 -0.16010079454E+02  0.20192380001E+01  0.16137969616E+02  0.51100000000E-03 0. -1.
        -11    1    3    3    0    0 -0.12661180224E+02 -0.55015330028E+01  0.20182313290E+02  0.24451955342E+02  0.51100000000E-03 0.  1.
         12    1    3    3    0    0 -0.42304295593E+01 -0.88988947041E+01 -0.13026998244E+01  0.99390084034E+01  0.00000000000E+00 0. -1.
</event>
<event>
 7    1  0.9953837E-014  0.5052885E+02  0.7816164E-02  0.1300439E+00
        -11   -1    0    0    0    0  0.00000000000E+00  0.00000000000E+00  0.45593999997E+02  0.45594000000E+02  0.51100000000E-03 0. -1.
         11   -1    0    0    0    0 -0.00000000000E+00 -0.00000000000E+00 -0.45593999997E+02  0.45594000000E+02  0.51100000000E-03 0.  1.
    9900012    2    1    2    0    0  0.13491301769E+02  0.21582934702E+02  0.31706914273E+02  0.50528847199E+02  0.29999961547E+02 0.  0.
        -12    1    1    2    0    0 -0.13491301769E+02 -0.21582934702E+02 -0.31706914273E+02  0.40659152801E+02  0.00000000000E+00 0.  1.
         11    1    3    3    0    0  0.19629237768E+02  0.16488704443E+02  0.11265194979E+02  0.28001588664E+02  0.51100000000E-03 0. -1.
        -11    1    3    3    0    0 -0.21895986700E+00  0.67917390143E+00 -0.79408334136E-01  0.71800178021E+00  0.51100000000E-03 0.  1.
         12    1    3    3    0    0 -0.59189761317E+01  0.44150563577E+01  0.20521127628E+02  0.21809256755E+02  0.00000000000E+00 0. -1.
</event>
<event>
 7    1  0.9953837E-014  0.5052885E+02  0.7816164E-02  0.1300439E+00
        -11   -1    0    0    0    0  0.00000000000E+00  0.00000000000E+00  0.45593999997E+02  0.45594000000E+02  0.51100000000E-03 0. -1.
         11   -1    0    0    0    0 -0.00000000000E+00 -0.00000000000E+00 -0.45593999997E+02  0.45594000000E+02  0.51100000000E-03 0.  1.
    9900012    2    1    2    0    0 -0.16602871903E+02 -0.25820768617E+02 -0.26660811497E+02  0.50528851987E+02  0.29999976101E+02 0.  0.
         12    1    1    2    0    0  0.16602871903E+02  0.25820768617E+02  0.26660811497E+02  0.40659148013E+02  0.00000000000E+00 0. -1.
         11    1    3    3    0    0 -0.22615718924E+02 -0.19017647630E+02 -0.23443140278E+02  0.37718993759E+02  0.51100000000E-03 0. -1.
        -11    1    3    3    0    0  0.18063710933E+01 -0.23973256088E+01 -0.55317592379E+01  0.62936878799E+01  0.51100000000E-03 0.  1.
         12    1    3    3    0    0  0.42064759281E+01 -0.44057953790E+01  0.23140880187E+01  0.65161703487E+01  0.00000000000E+00 0. -1.
</event>
<event>
 7    1  0.9953837E-014  0.5052886E+02  0.7816164E-02  0.1300439E+00
        -11   -1    0    0    0    0  0.00000000000E+00  0.00000000000E+00  0.45593999997E+02  0.45594000000E+02  0.51100000000E-03 0. -1.
         11   -1    0    0    0    0 -0.00000000000E+00 -0.00000000000E+00 -0.45593999997E+02  0.45594000000E+02  0.51100000000E-03 0.  1.
    9900012    2    1    2    0    0  0.13777069705E+02  0.11473263558E+02 -0.36492775073E+02  0.50528855163E+02  0.29999985754E+02 0.  0.
         12    1    1    2    0    0 -0.13777069705E+02 -0.11473263558E+02  0.36492775073E+02  0.40659144837E+02  0.00000000000E+00 0. -1.
         11    1    3    3    0    0  0.44429206266E+01  0.70142583236E+01  0.13559472011E+01  0.84129636037E+01  0.51100000000E-03 0. -1.
        -11    1    3    3    0    0  0.51726487362E+01 -0.36911451140E+01 -0.27832599984E+02  0.28548808545E+02  0.51100000000E-03 0.  1.
         12    1    3    3    0    0  0.41615003417E+01  0.81501503480E+01 -0.10016122291E+02  0.13567083015E+02  0.00000000000E+00 0. -1.
</event>
<event>
 7    1  0.9953837E-014  0.5052886E+02  0.7816164E-02  0.1300439E+00
        -11   -1    0    0    0    0  0.00000000000E+00  0.00000000000E+00  0.45593999997E+02  0.45594000000E+02  0.51100000000E-03 0. -1.
         11   -1    0    0    0    0 -0.00000000000E+00 -0.00000000000E+00 -0.45593999997E+02  0.45594000000E+02  0.51100000000E-03 0.  1.
    9900012    2    1    2    0    0 -0.22487361495E+01 -0.35216312334E+02 -0.20197028918E+02  0.50528862702E+02  0.30000008669E+02 0.  0.
         12    1    1    2    0    0  0.22487361495E+01  0.35216312334E+02  0.20197028918E+02  0.40659137298E+02  0.00000000000E+00 0. -1.
         11    1    3    3    0    0  0.19341121413E+01 -0.34961742063E+01  0.67395335819E+01  0.78348795153E+01  0.51100000000E-03 0. -1.
        -11    1    3    3    0    0 -0.57041009403E+01 -0.27180933962E+02 -0.25478739039E+02  0.37689601774E+02  0.51100000000E-03 0.  1.
         12    1    3    3    0    0  0.15212526496E+01 -0.45392041660E+01 -0.14578234611E+01  0.50043814132E+01  0.00000000000E+00 0. -1.
</event>
<event>
 7    1  0.9953837E-014  0.5052886E+02  0.7816164E-02  0.1300439E+00
        -11   -1    0    0    0    0  0.00000000000E+00  0.00000000000E+00  0.45593999997E+02  0.45594000000E+02  0.51100000000E-03 0. -1.
         11   -1    0    0    0    0 -0.00000000000E+00 -0.00000000000E+00 -0.45593999997E+02  0.45594000000E+02  0.51100000000E-03 0.  1.
    9900012    2    1    2    0    0 -0.79328198652E+01 -0.34920937210E+02 -0.19255237200E+02  0.50528860237E+02  0.30000001176E+02 0.  0.
         12    1    1    2    0    0  0.79328198652E+01  0.34920937210E+02  0.19255237200E+02  0.40659139763E+02  0.00000000000E+00 0. -1.
         11    1    3    3    0    0  0.29670782699E+01 -0.22702425181E+02 -0.80982420075E+01  0.24285493333E+02  0.51100000000E-03 0. -1.
        -11    1    3    3    0    0 -0.11793118297E+02 -0.10290431609E+02 -0.15110233199E+02  0.21755223958E+02  0.51100000000E-03 0.  1.
        -12    1    3    3    0    0  0.89322016219E+00 -0.19280804203E+01  0.39532380064E+01  0.44881429457E+01  0.00000000000E+00 0.  1.
</event>
<event>
 7    1  0.9953837E-014  0.5052885E+02  0.7816164E-02  0.1300439E+00
        -11   -1    0    0    0    0  0.00000000000E+00  0.00000000000E+00  0.45593999997E+02  0.45594000000E+02  0.51100000000E-03 0.  1.
         11   -1    0    0    0    0 -0.00000000000E+00 -0.00000000000E+00 -0.45593999997E+02  0.45594000000E+02  0.51100000000E-03 0. -1.
    9900012    2    1    2    0    0  0.36126442847E+02  0.47035587438E+01 -0.18053338407E+02  0.50528851395E+02  0.29999974300E+02 0.  0.
         12    1    1    2    0    0 -0.36126442847E+02 -0.47035587438E+01  0.18053338407E+02  0.40659148605E+02  0.00000000000E+00 0. -1.
         11    1    3    3    0    0  0.48699682135E+01 -0.68890876535E+01 -0.10410531236E+02  0.13399823879E+02  0.51100000000E-03 0. -1.
        -11    1    3    3    0    0  0.32011865845E+02  0.10363865906E+02 -0.93222131964E+01  0.34915224911E+02  0.51100000000E-03 0.  1.
        -12    1    3    3    0    0 -0.75539121197E+00  0.12287804915E+01  0.16794060252E+01  0.22138026057E+01  0.00000000000E+00 0.  1.
</event>
<event>
 7    1  0.9953837E-014  0.5052888E+02  0.7816164E-02  0.1300439E+00
        -11   -1    0    0    0    0  0.00000000000E+00  0.00000000000E+00  0.45593999997E+02  0.45594000000E+02  0.51100000000E-03 0. -1.
         11   -1    0    0    0    0 -0.00000000000E+00 -0.00000000000E+00 -0.45593999997E+02  0.45594000000E+02  0.51100000000E-03 0.  1.
    9900012    2    1    2    0    0 -0.18823607580E+02 -0.29406233581E+02  0.20835283216E+02  0.50528882912E+02  0.30000070098E+02 0.  0.
        -12    1    1    2    0    0  0.18823607580E+02  0.29406233581E+02 -0.20835283216E+02  0.40659117088E+02  0.00000000000E+00 0.  1.
         11    1    3    3    0    0  0.14088019198E+01  0.24035717667E+01  0.70652529172E+00  0.28742056879E+01  0.51100000000E-03 0.  1.
        -11    1    3    3    0    0 -0.19723639030E+02 -0.19286929080E+02  0.50457760704E+01  0.28044026572E+02  0.51100000000E-03 0. -1.
        -12    1    3    3    0    0 -0.50877046962E+00 -0.12522876267E+02  0.15082981854E+02  0.19610650652E+02  0.00000000000E+00 0.  1.
</event>
<event>
 7    1  0.9953837E-014  0.5052888E+02  0.7816164E-02  0.1300439E+00
        -11   -1    0    0    0    0  0.00000000000E+00  0.00000000000E+00  0.45593999997E+02  0.45594000000E+02  0.51100000000E-03 0. -1.
         11   -1    0    0    0    0 -0.00000000000E+00 -0.00000000000E+00 -0.45593999997E+02  0.45594000000E+02  0.51100000000E-03 0.  1.
    9900012    2    1    2    0    0 -0.64501832032E+01  0.13998563036E+02 -0.37624454247E+02  0.50528878172E+02  0.30000055693E+02 0.  0.
         12    1    1    2    0    0  0.64501832032E+01 -0.13998563036E+02  0.37624454247E+02  0.40659121828E+02  0.00000000000E+00 0. -1.
         11    1    3    3    0    0 -0.86302250929E+01  0.23197312774E+01 -0.15444030658E+02  0.17843206595E+02  0.51100000000E-03 0. -1.
        -11    1    3    3    0    0 -0.72727724231E+01 -0.17661465467E+01 -0.56704807048E+01  0.93897201251E+01  0.51100000000E-03 0.  1.
        -12    1    3    3    0    0  0.94528143128E+01  0.13444978305E+02 -0.16509942884E+02  0.23295951453E+02  0.00000000000E+00 0.  1.
</event>
<event>
 7    1  0.9953837E-014  0.5052886E+02  0.7816164E-02  0.1300439E+00
        -11   -1    0    0    0    0  0.00000000000E+00  0.00000000000E+00  0.45593999997E+02  0.45594000000E+02  0.51100000000E-03 0. -1.
         11   -1    0    0    0    0 -0.00000000000E+00 -0.00000000000E+00 -0.45593999997E+02  0.45594000000E+02  0.51100000000E-03 0.  1.
    9900012    2    1    2    0    0  0.13985110693E+01 -0.39981070754E+02 -0.72611295722E+01  0.50528857676E+02  0.29999993393E+02 0.  0.
         12    1    1    2    0    0 -0.13985110693E+01  0.39981070754E+02  0.72611295722E+01  0.40659142324E+02  0.00000000000E+00 0. -1.
         11    1    3    3    0    0 -0.28124337144E+01 -0.11965737024E+01  0.67097669267E+00  0.31291823223E+01  0.51100000000E-03 0. -1.
        -11    1    3    3    0    0  0.26822828175E+01 -0.32935337209E+02  0.47176864884E+01  0.33379449430E+02  0.51100000000E-03 0.  1.
        -12    1    3    3    0    0  0.15286619662E+01 -0.58491598426E+01 -0.12649792753E+02  0.14020225924E+02  0.00000000000E+00 0.  1.
</event>
<event>
 7    1  0.9953837E-014  0.5052886E+02  0.7816164E-02  0.1300439E+00
        -11   -1    0    0    0    0  0.00000000000E+00  0.00000000000E+00  0.45593999997E+02  0.45594000000E+02  0.51100000000E-03 0. -1.
         11   -1    0    0    0    0 -0.00000000000E+00 -0.00000000000E+00 -0.45593999997E+02  0.45594000000E+02  0.51100000000E-03 0.  1.
    9900012    2    1    2    0    0  0.26644307399E+02  0.25640437991E+02  0.16906046046E+02  0.50528861174E+02  0.30000004026E+02 0.  0.
        -12    1    1    2    0    0 -0.26644307399E+02 -0.25640437991E+02 -0.16906046046E+02  0.40659138826E+02  0.00000000000E+00 0.  1.
         11    1    3    3    0    0  0.11859655992E+02  0.25970616203E+02  0.28064403686E+01  0.28687984489E+02  0.51100000000E-03 0. -1.
        -11    1    3    3    0    0  0.95758948163E+01  0.83401126640E+00  0.13351212354E+02  0.16451389240E+02  0.51100000000E-03 0.  1.
         12    1    3    3    0    0  0.52087565906E+01 -0.11641894787E+01  0.74839332307E+00  0.53894874458E+01  0.00000000000E+00 0. -1.
</event>
<event>
 7    1  0.9953837E-014  0.5052886E+02  0.7816164E-02  0.1300439E+00
        -11   -1    0    0    0    0  0.00000000000E+00  0.00000000000E+00  0.45593999997E+02  0.45594000000E+02  0.51100000000E-03 0. -1.
         11   -1    0    0    0    0 -0.00000000000E+00 -0.00000000000E+00 -0.45593999997E+02  0.45594000000E+02  0.51100000000E-03 0.  1.
    9900012    2    1    2    0    0 -0.86921645093E+01 -0.31422965506E+02  0.24294220459E+02  0.50528860403E+02  0.30000001681E+02 0.  0.
        -12    1    1    2    0    0  0.86921645093E+01  0.31422965506E+02 -0.24294220459E+02  0.40659139597E+02  0.00000000000E+00 0.  1.
         11    1    3    3    0    0 -0.42750901720E+01 -0.11462183569E+02  0.29999712107E+01  0.12595946795E+02  0.51100000000E-03 0. -1.
        -11    1    3    3    0    0  0.82964696749E+01 -0.61516150097E+01  0.14847076475E+02  0.18086167543E+02  0.51100000000E-03 0.  1.
        -12    1    3    3    0    0 -0.12713544012E+02 -0.13809166927E+02  0.64471727741E+01  0.19846746065E+02  0.00000000000E+00 0.  1.
</event>
<event>
 7    1  0.9953837E-014  0.5052886E+02  0.7816164E-02  0.1300439E+00
        -11   -1    0    0    0    0  0.00000000000E+00  0.00000000000E+00  0.45593999997E+02  0.45594000000E+02  0.51100000000E-03 0. -1.
         11   -1    0    0    0    0 -0.00000000000E+00 -0.00000000000E+00 -0.45593999997E+02  0.45594000000E+02  0.51100000000E-03 0.  1.
    9900012    2    1    2    0    0  0.70404577541E+01  0.37981775156E+02  0.12687885052E+02  0.50528859373E+02  0.29999998551E+02 0.  0.
        -12    1    1    2    0    0 -0.70404577541E+01 -0.37981775156E+02 -0.12687885052E+02  0.40659140627E+02  0.00000000000E+00 0.  1.
         11    1    3    3    0    0  0.13469851096E+02  0.32030844081E+02  0.11804664316E+02  0.36698255558E+02  0.51100000000E-03 0. -1.
        -11    1    3    3    0    0 -0.15448966262E+01 -0.30710711350E+01  0.96596513840E+00  0.35708923830E+01  0.51100000000E-03 0.  1.
        -12    1    3    3    0    0 -0.48844967160E+01  0.90220022101E+01 -0.82744402159E-01  0.10259711433E+02  0.00000000000E+00 0.  1.
</event>
<event>
 7    1  0.9953837E-014  0.5052887E+02  0.7816164E-02  0.1300439E+00
        -11   -1    0    0    0    0  0.00000000000E+00  0.00000000000E+00  0.45593999997E+02  0.45594000000E+02  0.51100000000E-03 0. -1.
         11   -1    0    0    0    0 -0.00000000000E+00 -0.00000000000E+00 -0.45593999997E+02  0.45594000000E+02  0.51100000000E-03 0.  1.
    9900012    2    1    2    0    0 -0.35445169944E+02 -0.84773727565E+01 -0.18026070645E+02  0.50528866412E+02  0.30000019946E+02 0.  0.
         12    1    1    2    0    0  0.35445169944E+02  0.84773727565E+01  0.18026070645E+02  0.40659133588E+02  0.00000000000E+00 0. -1.
         11    1    3    3    0    0 -0.31763380582E+02  0.43835833933E+01 -0.13197469078E+02  0.34674217218E+02  0.51100000000E-03 0.  1.
        -11    1    3    3    0    0 -0.29167803298E+01 -0.13661848141E+02 -0.42323308410E+01  0.14596791658E+02  0.51100000000E-03 0. -1.
        -12    1    3    3    0    0 -0.76500903218E+00  0.80089199081E+00 -0.59627072595E+00  0.12578575352E+01  0.00000000000E+00 0.  1.
</event>
<event>
 7    1  0.9953837E-014  0.5052887E+02  0.7816164E-02  0.1300439E+00
        -11   -1    0    0    0    0  0.00000000000E+00  0.00000000000E+00  0.45593999997E+02  0.45594000000E+02  0.51100000000E-03 0. -1.
         11   -1    0    0    0    0 -0.00000000000E+00 -0.00000000000E+00 -0.45593999997E+02  0.45594000000E+02  0.51100000000E-03 0.  1.
    9900012    2    1    2    0    0 -0.16067931067E+02  0.78038584790E+01 -0.36525141785E+02  0.50528873124E+02  0.30000040346E+02 0.  0.
         12    1    1    2    0    0  0.16067931067E+02 -0.78038584790E+01  0.36525141785E+02  0.40659126876E+02  0.00000000000E+00 0. -1.
         11    1    3    3    0    0 -0.63068863455E+01  0.12539075225E+01  0.87519542671E+00  0.64896122185E+01  0.51100000000E-03 0. -1.
        -11    1    3    3    0    0  0.15403945842E+01  0.45810045418E+01 -0.30002061106E+02  0.30388848102E+02  0.51100000000E-03 0.  1.
        -12    1    3    3    0    0 -0.11301439305E+02  0.19689464147E+01 -0.73982761059E+01  0.13650412803E+02  0.00000000000E+00 0.  1.
</event>
<event>
 7    1  0.9953837E-014  0.5052886E+02  0.7816164E-02  0.1300439E+00
        -11   -1    0    0    0    0  0.00000000000E+00  0.00000000000E+00  0.45593999997E+02  0.45594000000E+02  0.51100000000E-03 0. -1.
         11   -1    0    0    0    0 -0.00000000000E+00 -0.00000000000E+00 -0.45593999997E+02  0.45594000000E+02  0.51100000000E-03 0.  1.
    9900012    2    1    2    0    0  0.21493575626E+02 -0.21658004609E+02  0.26872342110E+02  0.50528859241E+02  0.29999998148E+02 0.  0.
        -12    1    1    2    0    0 -0.21493575626E+02  0.21658004609E+02 -0.26872342110E+02  0.40659140759E+02  0.00000000000E+00 0.  1.
         11    1    3    3    0    0  0.20442710642E+02 -0.16652552347E+02  0.50808840617E+01  0.26851951534E+02  0.51100000000E-03 0. -1.
        -11    1    3    3    0    0  0.38028413307E+01 -0.59841957400E+00  0.11849707223E+02  0.12459344674E+02  0.51100000000E-03 0.  1.
         12    1    3    3    0    0 -0.27519763470E+01 -0.44070326873E+01  0.99417508253E+01  0.11217563033E+02  0.00000000000E+00 0. -1.
</event>
<event>
 7    1  0.9953837E-014  0.5052886E+02  0.7816164E-02  0.1300439E+00
        -11   -1    0    0    0    0  0.00000000000E+00  0.00000000000E+00  0.45593999997E+02  0.45594000000E+02  0.51100000000E-03 0. -1.
         11   -1    0    0    0    0 -0.00000000000E+00 -0.00000000000E+00 -0.45593999997E+02  0.45594000000E+02  0.51100000000E-03 0.  1.
    9900012    2    1    2    0    0  0.50290600012E+00 -0.33378621493E+02 -0.23211640453E+02  0.50528861547E+02  0.30000005158E+02 0.  0.
         12    1    1    2    0    0 -0.50290600012E+00  0.33378621493E+02  0.23211640453E+02  0.40659138453E+02  0.00000000000E+00 0. -1.
         11    1    3    3    0    0 -0.12022179633E+02 -0.18606885738E+02 -0.19517871409E+02  0.29524503460E+02  0.51100000000E-03 0. -1.
        -11    1    3    3    0    0  0.69573995792E+01 -0.87885562715E+01 -0.57196233375E+01  0.12584046314E+02  0.51100000000E-03 0.  1.
         12    1    3    3    0    0  0.55676860539E+01 -0.59831794840E+01  0.20258542932E+01  0.84203117727E+01  0.00000000000E+00 0. -1.
</event>
<event>
 7    1  0.9953837E-014  0.5052886E+02  0.7816164E-02  0.1300439E+00
        -11   -1    0    0    0    0  0.00000000000E+00  0.00000000000E+00  0.45593999997E+02  0.45594000000E+02  0.51100000000E-03 0. -1.
         11   -1    0    0    0    0 -0.00000000000E+00 -0.00000000000E+00 -0.45593999997E+02  0.45594000000E+02  0.51100000000E-03 0.  1.
    9900012    2    1    2    0    0 -0.28443624556E+02  0.11710851593E+02 -0.26589123512E+02  0.50528864347E+02  0.30000013669E+02 0.  0.
         12    1    1    2    0    0  0.28443624556E+02 -0.11710851593E+02  0.26589123512E+02  0.40659135653E+02  0.00000000000E+00 0. -1.
         11    1    3    3    0    0  0.28318721521E+01  0.28734234320E+01 -0.57090171342E+01  0.69906322321E+01  0.51100000000E-03 0. -1.
        -11    1    3    3    0    0 -0.24271196887E+02  0.14145760572E+02 -0.20434328520E+02  0.34738383998E+02  0.51100000000E-03 0.  1.
        -12    1    3    3    0    0 -0.70042998214E+01 -0.53083324114E+01 -0.44577785790E+00  0.87998481167E+01  0.00000000000E+00 0.  1.
</event>
<event>
 7    1  0.9953837E-014  0.5052888E+02  0.7816164E-02  0.1300439E+00
        -11   -1    0    0    0    0  0.00000000000E+00  0.00000000000E+00  0.45593999997E+02  0.45594000000E+02  0.51100000000E-03 0.  1.
         11   -1    0    0    0    0 -0.00000000000E+00 -0.00000000000E+00 -0.45593999997E+02  0.45594000000E+02  0.51100000000E-03 0. -1.
    9900012    2    1    2    0    0  0.34624717220E+02 -0.19658624585E+02  0.82359865805E+01  0.50528880013E+02  0.30000061289E+02 0.  0.
        -12    1    1    2    0    0 -0.34624717220E+02  0.19658624585E+02 -0.82359865805E+01  0.40659119987E+02  0.00000000000E+00 0.  1.
         11    1    3    3    0    0  0.30473877146E+01 -0.17260531174E+01 -0.32799528051E+01  0.47983249069E+01  0.51100000000E-03 0. -1.
        -11    1    3    3    0    0  0.35389490029E+02 -0.15848836967E+02  0.68887097729E+01  0.39383447796E+02  0.51100000000E-03 0.  1.
        -12    1    3    3    0    0 -0.38121605235E+01 -0.20837345002E+01  0.46272296126E+01  0.63471073106E+01  0.00000000000E+00 0.  1.
</event>
<event>
 7    1  0.9953837E-014  0.5052890E+02  0.7816164E-02  0.1300439E+00
        -11   -1    0    0    0    0  0.00000000000E+00  0.00000000000E+00  0.45593999997E+02  0.45594000000E+02  0.51100000000E-03 0. -1.
         11   -1    0    0    0    0 -0.00000000000E+00 -0.00000000000E+00 -0.45593999997E+02  0.45594000000E+02  0.51100000000E-03 0.  1.
    9900012    2    1    2    0    0  0.26504705509E+01 -0.18129673068E+02  0.36296726142E+02  0.50528900547E+02  0.30000123702E+02 0.  0.
        -12    1    1    2    0    0 -0.26504705509E+01  0.18129673068E+02 -0.36296726142E+02  0.40659099453E+02  0.00000000000E+00 0.  1.
         11    1    3    3    0    0 -0.57423848767E+01 -0.82522179011E+01  0.60720959129E+01  0.11744974815E+02  0.51100000000E-03 0. -1.
        -11    1    3    3    0    0  0.11926077562E+02 -0.14149611278E+02  0.25455047392E+02  0.31470657179E+02  0.51100000000E-03 0.  1.
        -12    1    3    3    0    0 -0.35332221340E+01  0.42721561107E+01  0.47695828373E+01  0.73132685528E+01  0.00000000000E+00 0.  1.
</event>
<event>
 7    1  0.9953837E-014  0.5052886E+02  0.7816164E-02  0.1300439E+00
        -11   -1    0    0    0    0  0.00000000000E+00  0.00000000000E+00  0.45593999997E+02  0.45594000000E+02  0.51100000000E-03 0. -1.
         11   -1    0    0    0    0 -0.00000000000E+00 -0.00000000000E+00 -0.45593999997E+02  0.45594000000E+02  0.51100000000E-03 0.  1.
    9900012    2    1    2    0    0 -0.11617188400E+02  0.34546253202E+01  0.38810726051E+02  0.50528856391E+02  0.29999989485E+02 0.  0.
        -12    1    1    2    0    0  0.11617188400E+02 -0.34546253202E+01 -0.38810726051E+02  0.40659143609E+02  0.00000000000E+00 0.  1.
         11    1    3    3    0    0 -0.88458522392E+01  0.67009538191E+01  0.27557748260E+02  0.29708271127E+02  0.51100000000E-03 0. -1.
        -11    1    3    3    0    0 -0.76329220063E+01 -0.72818162741E+01  0.42083643084E+01  0.11357670404E+02  0.51100000000E-03 0.  1.
        -12    1    3    3    0    0  0.48615858451E+01  0.40354877751E+01  0.70446134831E+01  0.94629148596E+01  0.00000000000E+00 0.  1.
</event>
<event>
 7    1  0.9953837E-014  0.5052886E+02  0.7816164E-02  0.1300439E+00
        -11   -1    0    0    0    0  0.00000000000E+00  0.00000000000E+00  0.45593999997E+02  0.45594000000E+02  0.51100000000E-03 0.  1.
         11   -1    0    0    0    0 -0.00000000000E+00 -0.00000000000E+00 -0.45593999997E+02  0.45594000000E+02  0.51100000000E-03 0. -1.
    9900012    2    1    2    0    0 -0.29118911504E+02 -0.23835903505E+02 -0.15398180784E+02  0.50528864808E+02  0.30000015071E+02 0.  0.
        -12    1    1    2    0    0  0.29118911504E+02  0.23835903505E+02  0.15398180784E+02  0.40659135192E+02  0.00000000000E+00 0.  1.
         11    1    3    3    0    0 -0.12534502817E+02 -0.10396296814E+02 -0.18882389809E+02  0.24934742699E+02  0.51100000000E-03 0. -1.
        -11    1    3    3    0    0 -0.18469005859E+01 -0.88281377045E+01  0.45754944264E+01  0.10113466597E+02  0.51100000000E-03 0.  1.
         12    1    3    3    0    0 -0.14737508101E+02 -0.46114689870E+01 -0.10912854010E+01  0.15480655512E+02  0.00000000000E+00 0. -1.
</event>
<event>
 7    1  0.9953837E-014  0.5052887E+02  0.7816164E-02  0.1300439E+00
        -11   -1    0    0    0    0  0.00000000000E+00  0.00000000000E+00  0.45593999997E+02  0.45594000000E+02  0.51100000000E-03 0. -1.
         11   -1    0    0    0    0 -0.00000000000E+00 -0.00000000000E+00 -0.45593999997E+02  0.45594000000E+02  0.51100000000E-03 0.  1.
    9900012    2    1    2    0    0 -0.30380528330E+02  0.22035661496E+02 -0.15640266479E+02  0.50528870463E+02  0.30000032261E+02 0.  0.
        -12    1    1    2    0    0  0.30380528330E+02 -0.22035661496E+02  0.15640266479E+02  0.40659129537E+02  0.00000000000E+00 0.  1.
         11    1    3    3    0    0 -0.17079057871E+02 -0.15883947380E+01 -0.45581158970E+01  0.17748060074E+02  0.51100000000E-03 0. -1.
        -11    1    3    3    0    0 -0.52120388236E+01  0.16822299949E+02 -0.13190919521E+02  0.22003533406E+02  0.51100000000E-03 0.  1.
        -12    1    3    3    0    0 -0.80894316351E+01  0.68017562846E+01  0.21087689393E+01  0.10777276983E+02  0.00000000000E+00 0.  1.
</event>
<event>
 7    1  0.9953837E-014  0.5052887E+02  0.7816164E-02  0.1300439E+00
        -11   -1    0    0    0    0  0.00000000000E+00  0.00000000000E+00  0.45593999997E+02  0.45594000000E+02  0.51100000000E-03 0. -1.
         11   -1    0    0    0    0 -0.00000000000E+00 -0.00000000000E+00 -0.45593999997E+02  0.45594000000E+02  0.51100000000E-03 0.  1.
    9900012    2    1    2    0    0  0.10695472801E+01 -0.19362036912E+02 -0.35736989721E+02  0.50528870163E+02  0.30000031348E+02 0.  0.
         12    1    1    2    0    0 -0.10695472801E+01  0.19362036912E+02  0.35736989721E+02  0.40659129837E+02  0.00000000000E+00 0. -1.
         11    1    3    3    0    0 -0.12601276842E+02 -0.10060492571E+02 -0.16567923685E+02  0.23119294633E+02  0.51100000000E-03 0. -1.
        -11    1    3    3    0    0  0.35163163391E+01 -0.86212355576E+01 -0.77567334767E+01  0.12118461025E+02  0.51100000000E-03 0.  1.
         12    1    3    3    0    0  0.10154507783E+02 -0.68030878316E+00 -0.11412332559E+02  0.15291114505E+02  0.00000000000E+00 0. -1.
</event>
<event>
 7    1  0.9953837E-014  0.5052886E+02  0.7816164E-02  0.1300439E+00
        -11   -1    0    0    0    0  0.00000000000E+00  0.00000000000E+00  0.45593999997E+02  0.45594000000E+02  0.51100000000E-03 0. -1.
         11   -1    0    0    0    0 -0.00000000000E+00 -0.00000000000E+00 -0.45593999997E+02  0.45594000000E+02  0.51100000000E-03 0.  1.
    9900012    2    1    2    0    0 -0.57324650030E+01 -0.28484941555E+02  0.28441387178E+02  0.50528861359E+02  0.30000004588E+02 0.  0.
        -12    1    1    2    0    0  0.57324650030E+01  0.28484941555E+02 -0.28441387178E+02  0.40659138641E+02  0.00000000000E+00 0.  1.
         11    1    3    3    0    0 -0.31038513218E+01 -0.26976910197E+02  0.14911066592E+02  0.30979468749E+02  0.51100000000E-03 0. -1.
        -11    1    3    3    0    0  0.51967393299E+01 -0.15673556354E+01  0.89914130719E+01  0.10502771665E+02  0.51100000000E-03 0.  1.
         12    1    3    3    0    0 -0.78253530110E+01  0.59324277248E-01  0.45389075144E+01  0.90466209461E+01  0.00000000000E+00 0. -1.
</event>
<event>
 7    1  0.9953837E-014  0.5052886E+02  0.7816164E-02  0.1300439E+00
        -11   -1    0    0    0    0  0.00000000000E+00  0.00000000000E+00  0.45593999997E+02  0.45594000000E+02  0.51100000000E-03 0. -1.
         11   -1    0    0    0    0 -0.00000000000E+00 -0.00000000000E+00 -0.45593999997E+02  0.45594000000E+02  0.51100000000E-03 0.  1.
    9900012    2    1    2    0    0 -0.18785995042E+02 -0.13379212422E+02  0.33485053840E+02  0.50528858772E+02  0.29999996722E+02 0.  0.
        -12    1    1    2    0    0  0.18785995042E+02  0.13379212422E+02 -0.33485053840E+02  0.40659141228E+02  0.00000000000E+00 0.  1.
         11    1    3    3    0    0 -0.44850810625E+01 -0.14208411575E+02  0.11974886472E+01  0.14947537956E+02  0.51100000000E-03 0. -1.
        -11    1    3    3    0    0 -0.10693533170E+02  0.24720905282E+01  0.24336478894E+02  0.26696949048E+02  0.51100000000E-03 0.  1.
         12    1    3    3    0    0 -0.36073808091E+01 -0.16428913749E+01  0.79510862992E+01  0.88843717679E+01  0.00000000000E+00 0. -1.
</event>
<event>
 7    1  0.9953837E-014  0.5052886E+02  0.7816164E-02  0.1300439E+00
        -11   -1    0    0    0    0  0.00000000000E+00  0.00000000000E+00  0.45593999997E+02  0.45594000000E+02  0.51100000000E-03 0. -1.
         11   -1    0    0    0    0 -0.00000000000E+00 -0.00000000000E+00 -0.45593999997E+02  0.45594000000E+02  0.51100000000E-03 0.  1.
    9900012    2    1    2    0    0 -0.96876812036E+01  0.21878151858E+02  0.32873405887E+02  0.50528861907E+02  0.30000006253E+02 0.  0.
        -12    1    1    2    0    0  0.96876812036E+01 -0.21878151858E+02 -0.32873405887E+02  0.40659138093E+02  0.00000000000E+00 0.  1.
         11    1    3    3    0    0  0.31715478055E+01  0.98264717494E+01  0.15711446736E+02  0.18800739914E+02  0.51100000000E-03 0. -1.
        -11    1    3    3    0    0 -0.16798107317E+02  0.45299691196E+01  0.14987427143E+02  0.22963449268E+02  0.51100000000E-03 0.  1.
        -12    1    3    3    0    0  0.39388783075E+01  0.75217109889E+01  0.21745320084E+01  0.87646727251E+01  0.00000000000E+00 0.  1.
</event>
<event>
 7    1  0.9953837E-014  0.5052886E+02  0.7816164E-02  0.1300439E+00
        -11   -1    0    0    0    0  0.00000000000E+00  0.00000000000E+00  0.45593999997E+02  0.45594000000E+02  0.51100000000E-03 0. -1.
         11   -1    0    0    0    0 -0.00000000000E+00 -0.00000000000E+00 -0.45593999997E+02  0.45594000000E+02  0.51100000000E-03 0.  1.
    9900012    2    1    2    0    0 -0.15288930762E+02 -0.95087978771E+01 -0.36455411125E+02  0.50528860299E+02  0.30000001365E+02 0.  0.
         12    1    1    2    0    0  0.15288930762E+02  0.95087978771E+01  0.36455411125E+02  0.40659139701E+02  0.00000000000E+00 0. -1.
         11    1    3    3    0    0 -0.10707895366E+02 -0.10436402874E+02 -0.31582560334E+01  0.15282411771E+02  0.51100000000E-03 0. -1.
        -11    1    3    3    0    0 -0.50594626602E+01  0.48940371302E+01 -0.15769677747E+02  0.17269409323E+02  0.51100000000E-03 0.  1.
         12    1    3    3    0    0  0.47842726368E+00 -0.39664321332E+01 -0.17527477345E+02  0.17977039205E+02  0.00000000000E+00 0. -1.
</event>
<event>
 7    1  0.9953837E-014  0.5052886E+02  0.7816164E-02  0.1300439E+00
        -11   -1    0    0    0    0  0.00000000000E+00  0.00000000000E+00  0.45593999997E+02  0.45594000000E+02  0.51100000000E-03 0. -1.
         11   -1    0    0    0    0 -0.00000000000E+00 -0.00000000000E+00 -0.45593999997E+02  0.45594000000E+02  0.51100000000E-03 0.  1.
    9900012    2    1    2    0    0  0.86806993499E+01  0.31181869529E+02  0.24606953173E+02  0.50528859909E+02  0.30000000179E+02 0.  0.
        -12    1    1    2    0    0 -0.86806993499E+01 -0.31181869529E+02 -0.24606953173E+02  0.40659140091E+02  0.00000000000E+00 0.  1.
         11    1    3    3    0    0 -0.52862631923E+01  0.21092842549E+02  0.16193952115E+02  0.27112666241E+02  0.51100000000E-03 0. -1.
        -11    1    3    3    0    0  0.92646756593E+01 -0.23419729858E+00 -0.42675300594E-01  0.92677335357E+01  0.51100000000E-03 0.  1.
        -12    1    3    3    0    0  0.47022868829E+01  0.10323224278E+02  0.84556763587E+01  0.14148460132E+02  0.00000000000E+00 0.  1.
</event>
<event>
 7    1  0.9953837E-014  0.5052885E+02  0.7816164E-02  0.1300439E+00
        -11   -1    0    0    0    0  0.00000000000E+00  0.00000000000E+00  0.45593999997E+02  0.45594000000E+02  0.51100000000E-03 0. -1.
         11   -1    0    0    0    0 -0.00000000000E+00 -0.00000000000E+00 -0.45593999997E+02  0.45594000000E+02  0.51100000000E-03 0.  1.
    9900012    2    1    2    0    0 -0.31226727403E+02  0.28422898045E+01 -0.25883958374E+02  0.50528850762E+02  0.29999972377E+02 0.  0.
         12    1    1    2    0    0  0.31226727403E+02 -0.28422898045E+01  0.25883958374E+02  0.40659149238E+02  0.00000000000E+00 0. -1.
         11    1    3    3    0    0  0.26351197124E+01 -0.48205084873E+01 -0.71748445876E+01  0.90365675504E+01  0.51100000000E-03 0. -1.
        -11    1    3    3    0    0 -0.25017582930E+02 -0.11568987980E+00 -0.14873802643E+02  0.29105374849E+02  0.51100000000E-03 0.  1.
        -12    1    3    3    0    0 -0.88442641854E+01  0.77784881717E+01 -0.38353111431E+01  0.12386908363E+02  0.00000000000E+00 0.  1.
</event>
<event>
 7    1  0.9953837E-014  0.5052891E+02  0.7816164E-02  0.1300439E+00
        -11   -1    0    0    0    0  0.00000000000E+00  0.00000000000E+00  0.45593999997E+02  0.45594000000E+02  0.51100000000E-03 0. -1.
         11   -1    0    0    0    0 -0.00000000000E+00 -0.00000000000E+00 -0.45593999997E+02  0.45594000000E+02  0.51100000000E-03 0.  1.
    9900012    2    1    2    0    0  0.26585341029E+01  0.40661690073E+01  0.40367810735E+02  0.50528909042E+02  0.30000149524E+02 0.  0.
        -12    1    1    2    0    0 -0.26585341029E+01 -0.40661690073E+01 -0.40367810735E+02  0.40659090958E+02  0.00000000000E+00 0.  1.
         11    1    3    3    0    0  0.14787593514E+02  0.68013290502E+01  0.26221704098E+02  0.30862740721E+02  0.51100000000E-03 0. -1.
        -11    1    3    3    0    0 -0.92659436675E+01 -0.84824658054E+00  0.66921475159E+01  0.11461329458E+02  0.51100000000E-03 0.  1.
        -12    1    3    3    0    0 -0.28631157436E+01 -0.18869134623E+01  0.74539591217E+01  0.82048388627E+01  0.00000000000E+00 0.  1.
</event>
<event>
 7    1  0.9953837E-014  0.5052885E+02  0.7816164E-02  0.1300439E+00
        -11   -1    0    0    0    0  0.00000000000E+00  0.00000000000E+00  0.45593999997E+02  0.45594000000E+02  0.51100000000E-03 0. -1.
         11   -1    0    0    0    0 -0.00000000000E+00 -0.00000000000E+00 -0.45593999997E+02  0.45594000000E+02  0.51100000000E-03 0.  1.
    9900012    2    1    2    0    0 -0.57430599504E+01 -0.16488332060E+02  0.36719456840E+02  0.50528851677E+02  0.29999975157E+02 0.  0.
        -12    1    1    2    0    0  0.57430599504E+01  0.16488332060E+02 -0.36719456840E+02  0.40659148323E+02  0.00000000000E+00 0.  1.
         11    1    3    3    0    0  0.10657274590E+01  0.32252199224E+01  0.16492434746E+02  0.16838593251E+02  0.51100000000E-03 0. -1.
        -11    1    3    3    0    0  0.16133498536E+01 -0.12247722314E+02  0.23646370654E+01  0.12577802206E+02  0.51100000000E-03 0.  1.
        -12    1    3    3    0    0 -0.84221372631E+01 -0.74658296689E+01  0.17862385029E+02  0.21112456220E+02  0.00000000000E+00 0.  1.
</event>
<event>
 7    1  0.9953837E-014  0.5052886E+02  0.7816164E-02  0.1300439E+00
        -11   -1    0    0    0    0  0.00000000000E+00  0.00000000000E+00  0.45593999997E+02  0.45594000000E+02  0.51100000000E-03 0. -1.
         11   -1    0    0    0    0 -0.00000000000E+00 -0.00000000000E+00 -0.45593999997E+02  0.45594000000E+02  0.51100000000E-03 0.  1.
    9900012    2    1    2    0    0 -0.36991742751E+02  0.16386080373E+02 -0.40339809719E+01  0.50528860016E+02  0.30000000504E+02 0.  0.
         12    1    1    2    0    0  0.36991742751E+02 -0.16386080373E+02  0.40339809719E+01  0.40659139984E+02  0.00000000000E+00 0. -1.
         11    1    3    3    0    0 -0.37859709644E+02  0.12156827662E+02 -0.40527845840E+01  0.39969627673E+02  0.51100000000E-03 0.  1.
        -11    1    3    3    0    0 -0.49978404135E+00  0.70437267778E+01  0.12960447786E+01  0.71793873929E+01  0.51100000000E-03 0. -1.
         12    1    3    3    0    0  0.13677509347E+01 -0.28144740664E+01 -0.12772411664E+01  0.33798449501E+01  0.00000000000E+00 0. -1.
</event>
<event>
 7    1  0.9953837E-014  0.5052885E+02  0.7816164E-02  0.1300439E+00
        -11   -1    0    0    0    0  0.00000000000E+00  0.00000000000E+00  0.45593999997E+02  0.45594000000E+02  0.51100000000E-03 0. -1.
         11   -1    0    0    0    0 -0.00000000000E+00 -0.00000000000E+00 -0.45593999997E+02  0.45594000000E+02  0.51100000000E-03 0.  1.
    9900012    2    1    2    0    0  0.21238169117E+02  0.97005240466E+01 -0.33286725369E+02  0.50528854904E+02  0.29999984965E+02 0.  0.
         12    1    1    2    0    0 -0.21238169117E+02 -0.97005240466E+01  0.33286725369E+02  0.40659145096E+02  0.00000000000E+00 0. -1.
         11    1    3    3    0    0  0.82271198895E+01 -0.10709781487E+01 -0.16048486353E+02  0.18066167562E+02  0.51100000000E-03 0.  1.
        -11    1    3    3    0    0  0.13885214264E+02  0.27471309988E+01 -0.83260422413E+00  0.14178826959E+02  0.51100000000E-03 0. -1.
        -12    1    3    3    0    0 -0.87416503640E+00  0.80243711965E+01 -0.16405634791E+02  0.18283860383E+02  0.00000000000E+00 0.  1.
</event>
<event>
 7    1  0.9953837E-014  0.5052887E+02  0.7816164E-02  0.1300439E+00
        -11   -1    0    0    0    0  0.00000000000E+00  0.00000000000E+00  0.45593999997E+02  0.45594000000E+02  0.51100000000E-03 0. -1.
         11   -1    0    0    0    0 -0.00000000000E+00 -0.00000000000E+00 -0.45593999997E+02  0.45594000000E+02  0.51100000000E-03 0.  1.
    9900012    2    1    2    0    0 -0.16514970748E+02 -0.34242775241E+02  0.14417101653E+02  0.50528871442E+02  0.30000035236E+02 0.  0.
        -12    1    1    2    0    0  0.16514970748E+02  0.34242775241E+02 -0.14417101653E+02  0.40659128558E+02  0.00000000000E+00 0.  1.
         11    1    3    3    0    0 -0.11941395166E+01 -0.26874126529E+02  0.53219178434E+01  0.27422025011E+02  0.51100000000E-03 0. -1.
        -11    1    3    3    0    0 -0.32498262730E+01  0.24133213159E+01 -0.14826924162E+01  0.43109010242E+01  0.51100000000E-03 0.  1.
         12    1    3    3    0    0 -0.12071004958E+02 -0.97819700273E+01  0.10577876226E+02  0.18795945407E+02  0.00000000000E+00 0. -1.
</event>
<event>
 7    1  0.9953837E-014  0.5052886E+02  0.7816164E-02  0.1300439E+00
        -11   -1    0    0    0    0  0.00000000000E+00  0.00000000000E+00  0.45593999997E+02  0.45594000000E+02  0.51100000000E-03 0. -1.
         11   -1    0    0    0    0 -0.00000000000E+00 -0.00000000000E+00 -0.45593999997E+02  0.45594000000E+02  0.51100000000E-03 0.  1.
    9900012    2    1    2    0    0  0.37154893869E+01  0.25393111366E+02 -0.31536498035E+02  0.50528859889E+02  0.30000000119E+02 0.  0.
         12    1    1    2    0    0 -0.37154893869E+01 -0.25393111366E+02  0.31536498035E+02  0.40659140111E+02  0.00000000000E+00 0. -1.
         11    1    3    3    0    0  0.12681658893E+02  0.13732577646E+02 -0.51244895451E+01  0.19382171045E+02  0.51100000000E-03 0. -1.
        -11    1    3    3    0    0 -0.28554281872E+01 -0.27982859635E+00 -0.29107789101E+01  0.40871026780E+01  0.51100000000E-03 0.  1.
         12    1    3    3    0    0 -0.61107413187E+01  0.11940362317E+02 -0.23501229580E+02  0.27059586166E+02  0.00000000000E+00 0. -1.
</event>
<event>
 7    1  0.9953837E-014  0.5052885E+02  0.7816164E-02  0.1300439E+00
        -11   -1    0    0    0    0  0.00000000000E+00  0.00000000000E+00  0.45593999997E+02  0.45594000000E+02  0.51100000000E-03 0. -1.
         11   -1    0    0    0    0 -0.00000000000E+00 -0.00000000000E+00 -0.45593999997E+02  0.45594000000E+02  0.51100000000E-03 0.  1.
    9900012    2    1    2    0    0 -0.25979545741E+02  0.23037841841E+02  0.21153901208E+02  0.50528849862E+02  0.29999969640E+02 0.  0.
        -12    1    1    2    0    0  0.25979545741E+02 -0.23037841841E+02 -0.21153901208E+02  0.40659150138E+02  0.00000000000E+00 0.  1.
         11    1    3    3    0    0 -0.35536889972E+00  0.41963392527E+01 -0.65556799808E+01  0.77918220237E+01  0.51100000000E-03 0.  1.
        -11    1    3    3    0    0 -0.79522931129E+01  0.91761672253E+01  0.13046311690E+02  0.17822661408E+02  0.51100000000E-03 0. -1.
         12    1    3    3    0    0 -0.17671883729E+02  0.96653353633E+01  0.14663269499E+02  0.24914366430E+02  0.00000000000E+00 0. -1.
</event>
<event>
 7    1  0.1031955E-013  0.5052884E+02  0.7816164E-02  0.1300439E+00
        -11   -1    0    0    0    0  0.00000000000E+00  0.00000000000E+00  0.45593999997E+02  0.45594000000E+02  0.51100000000E-03 0. -1.
         11   -1    0    0    0    0 -0.00000000000E+00 -0.00000000000E+00 -0.45593999997E+02  0.45594000000E+02  0.51100000000E-03 0.  1.
    9900012    2    1    2    0    0 -0.25303496734E+02  0.19987649196E+02  0.24766791817E+02  0.50528843045E+02  0.29999948921E+02 0.  0.
        -12    1    1    2    0    0  0.25303496734E+02 -0.19987649196E+02 -0.24766791817E+02  0.40659156955E+02  0.00000000000E+00 0.  1.
         11    1    3    3    0    0 -0.19946919530E+02  0.93233152033E+01  0.23882881612E+01  0.22147409007E+02  0.51100000000E-03 0. -1.
        -11    1    3    3    0    0  0.13316850821E+01  0.94436126035E+01  0.78923393191E+01  0.12379185125E+02  0.51100000000E-03 0.  1.
         12    1    3    3    0    0 -0.66882622864E+01  0.12207213892E+01  0.14486164337E+02  0.16002248914E+02  0.00000000000E+00 0. -1.
</event>
<event>
 7    1  0.9953837E-014  0.5052886E+02  0.7816164E-02  0.1300439E+00
        -11   -1    0    0    0    0  0.00000000000E+00  0.00000000000E+00  0.45593999997E+02  0.45594000000E+02  0.51100000000E-03 0. -1.
         11   -1    0    0    0    0 -0.00000000000E+00 -0.00000000000E+00 -0.45593999997E+02  0.45594000000E+02  0.51100000000E-03 0.  1.
    9900012    2    1    2    0    0 -0.58732437253E+00 -0.24893051149E+02  0.32142750038E+02  0.50528864182E+02  0.30000013169E+02 0.  0.
        -12    1    1    2    0    0  0.58732437253E+00  0.24893051149E+02 -0.32142750038E+02  0.40659135818E+02  0.00000000000E+00 0.  1.
         11    1    3    3    0    0 -0.16548142264E+01 -0.68265248861E+01  0.14801994282E+02  0.16384104710E+02  0.51100000000E-03 0. -1.
        -11    1    3    3    0    0  0.12037022314E+02 -0.83377333781E+01  0.10131593583E+02  0.17806091454E+02  0.51100000000E-03 0.  1.
        -12    1    3    3    0    0 -0.10969532460E+02 -0.97287928847E+01  0.72091621724E+01  0.16338668018E+02  0.00000000000E+00 0.  1.
</event>
<event>
 7    1  0.9953837E-014  0.5052886E+02  0.7816164E-02  0.1300439E+00
        -11   -1    0    0    0    0  0.00000000000E+00  0.00000000000E+00  0.45593999997E+02  0.45594000000E+02  0.51100000000E-03 0. -1.
         11   -1    0    0    0    0 -0.00000000000E+00 -0.00000000000E+00 -0.45593999997E+02  0.45594000000E+02  0.51100000000E-03 0.  1.
    9900012    2    1    2    0    0  0.22549765985E+02 -0.22024017113E+02 -0.25682990187E+02  0.50528864978E+02  0.30000015587E+02 0.  0.
         12    1    1    2    0    0 -0.22549765985E+02  0.22024017113E+02  0.25682990187E+02  0.40659135022E+02  0.00000000000E+00 0. -1.
         11    1    3    3    0    0  0.94271953839E+01 -0.81764792095E+01  0.36189186932E+01  0.12993205834E+02  0.51100000000E-03 0. -1.
        -11    1    3    3    0    0  0.47254728325E+01 -0.14286997940E+02 -0.18551280650E+02  0.23887201964E+02  0.51100000000E-03 0.  1.
        -12    1    3    3    0    0  0.83970977690E+01  0.43946003700E+00 -0.10750628230E+02  0.13648457180E+02  0.00000000000E+00 0.  1.
</event>
<event>
 7    1  0.9953837E-014  0.5052886E+02  0.7816164E-02  0.1300439E+00
        -11   -1    0    0    0    0  0.00000000000E+00  0.00000000000E+00  0.45593999997E+02  0.45594000000E+02  0.51100000000E-03 0. -1.
         11   -1    0    0    0    0 -0.00000000000E+00 -0.00000000000E+00 -0.45593999997E+02  0.45594000000E+02  0.51100000000E-03 0.  1.
    9900012    2    1    2    0    0  0.22334590890E+02 -0.10535159763E+02  0.32300811037E+02  0.50528856685E+02  0.29999990380E+02 0.  0.
        -12    1    1    2    0    0 -0.22334590890E+02  0.10535159763E+02 -0.32300811037E+02  0.40659143315E+02  0.00000000000E+00 0.  1.
         11    1    3    3    0    0  0.23022795045E+02  0.23579562318E+01  0.15887940363E+02  0.28071973541E+02  0.51100000000E-03 0. -1.
        -11    1    3    3    0    0 -0.42562557165E+01 -0.70512823899E+01  0.69445482857E+01  0.10773256110E+02  0.51100000000E-03 0.  1.
         12    1    3    3    0    0  0.35680515616E+01 -0.58418336047E+01  0.94683223881E+01  0.11683627033E+02  0.00000000000E+00 0. -1.
</event>
<event>
 7    1  0.9953837E-014  0.5052886E+02  0.7816164E-02  0.1300439E+00
        -11   -1    0    0    0    0  0.00000000000E+00  0.00000000000E+00  0.45593999997E+02  0.45594000000E+02  0.51100000000E-03 0. -1.
         11   -1    0    0    0    0 -0.00000000000E+00 -0.00000000000E+00 -0.45593999997E+02  0.45594000000E+02  0.51100000000E-03 0.  1.
    9900012    2    1    2    0    0 -0.13805782795E+02  0.38431425195E+01  0.38049917943E+02  0.50528860333E+02  0.30000001469E+02 0.  0.
        -12    1    1    2    0    0  0.13805782795E+02 -0.38431425195E+01 -0.38049917943E+02  0.40659139667E+02  0.00000000000E+00 0.  1.
         11    1    3    3    0    0 -0.21673393938E+02 -0.23069364934E+00  0.34659030905E+02  0.40878327362E+02  0.51100000000E-03 0. -1.
        -11    1    3    3    0    0  0.75799577123E+01  0.34303270443E+01  0.32466676766E+01  0.89310555823E+01  0.51100000000E-03 0.  1.
         12    1    3    3    0    0  0.28765343087E+00  0.64350912451E+00  0.14421936106E+00  0.71947738931E+00  0.00000000000E+00 0. -1.
</event>
<event>
 7    1  0.9953837E-014  0.5052881E+02  0.7816164E-02  0.1300439E+00
        -11   -1    0    0    0    0  0.00000000000E+00  0.00000000000E+00  0.45593999997E+02  0.45594000000E+02  0.51100000000E-03 0. -1.
         11   -1    0    0    0    0 -0.00000000000E+00 -0.00000000000E+00 -0.45593999997E+02  0.45594000000E+02  0.51100000000E-03 0.  1.
    9900012    2    1    2    0    0 -0.19943018156E+02  0.11497525455E+02  0.33514965852E+02  0.50528806688E+02  0.29999838407E+02 0.  0.
        -12    1    1    2    0    0  0.19943018156E+02 -0.11497525455E+02 -0.33514965852E+02  0.40659193312E+02  0.00000000000E+00 0.  1.
         11    1    3    3    0    0 -0.23154172756E+02  0.39768774933E+01  0.16904927292E+02  0.28943182922E+02  0.51100000000E-03 0. -1.
        -11    1    3    3    0    0  0.10695336045E+01  0.28016998644E+01  0.16101677723E+02  0.16378566788E+02  0.51100000000E-03 0.  1.
         12    1    3    3    0    0  0.21416209959E+01  0.47189480969E+01  0.50836083667E+00  0.52070569780E+01  0.00000000000E+00 0. -1.
</event>
<event>
 7    1  0.9953837E-014  0.5052889E+02  0.7816164E-02  0.1300439E+00
        -11   -1    0    0    0    0  0.00000000000E+00  0.00000000000E+00  0.45593999997E+02  0.45594000000E+02  0.51100000000E-03 0. -1.
         11   -1    0    0    0    0 -0.00000000000E+00 -0.00000000000E+00 -0.45593999997E+02  0.45594000000E+02  0.51100000000E-03 0.  1.
    9900012    2    1    2    0    0 -0.17214272428E+02  0.24997408876E+02  0.27054791658E+02  0.50528888139E+02  0.30000085986E+02 0.  0.
        -12    1    1    2    0    0  0.17214272428E+02 -0.24997408876E+02 -0.27054791658E+02  0.40659111861E+02  0.00000000000E+00 0.  1.
         11    1    3    3    0    0  0.65718339824E+01  0.89694298905E+01  0.69750646063E+01  0.13125974287E+02  0.51100000000E-03 0. -1.
        -11    1    3    3    0    0 -0.17713460418E+02  0.15974893609E+02  0.10502857548E+02  0.26062884006E+02  0.51100000000E-03 0.  1.
         12    1    3    3    0    0 -0.60726459927E+01  0.53085376285E-01  0.95768695040E+01  0.11340029846E+02  0.00000000000E+00 0. -1.
</event>
<event>
 7    1  0.9953837E-014  0.5052884E+02  0.7816164E-02  0.1300439E+00
        -11   -1    0    0    0    0  0.00000000000E+00  0.00000000000E+00  0.45593999997E+02  0.45594000000E+02  0.51100000000E-03 0. -1.
         11   -1    0    0    0    0 -0.00000000000E+00 -0.00000000000E+00 -0.45593999997E+02  0.45594000000E+02  0.51100000000E-03 0.  1.
    9900012    2    1    2    0    0 -0.19017075265E+02  0.16289123954E+02  0.32034090328E+02  0.50528835547E+02  0.29999926129E+02 0.  0.
        -12    1    1    2    0    0  0.19017075265E+02 -0.16289123954E+02 -0.32034090328E+02  0.40659164453E+02  0.00000000000E+00 0.  1.
         11    1    3    3    0    0 -0.10117988887E+02 -0.26998832491E+01  0.15583339601E+02  0.18775077685E+02  0.51100000000E-03 0. -1.
        -11    1    3    3    0    0 -0.13857305330E+02  0.15533713258E+02  0.10673944773E+02  0.23393466093E+02  0.51100000000E-03 0.  1.
         12    1    3    3    0    0  0.49582189523E+01  0.34552939451E+01  0.57768059545E+01  0.83602917689E+01  0.00000000000E+00 0. -1.
</event>
<event>
 7    1  0.9953837E-014  0.5052889E+02  0.7816164E-02  0.1300439E+00
        -11   -1    0    0    0    0  0.00000000000E+00  0.00000000000E+00  0.45593999997E+02  0.45594000000E+02  0.51100000000E-03 0. -1.
         11   -1    0    0    0    0 -0.00000000000E+00 -0.00000000000E+00 -0.45593999997E+02  0.45594000000E+02  0.51100000000E-03 0.  1.
    9900012    2    1    2    0    0  0.23152043026E+01  0.24177124299E+02 -0.32607821929E+02  0.50528885876E+02  0.30000079110E+02 0.  0.
         12    1    1    2    0    0 -0.23152043026E+01 -0.24177124299E+02  0.32607821929E+02  0.40659114124E+02  0.00000000000E+00 0. -1.
         11    1    3    3    0    0  0.36779588809E+01  0.39296394629E+01 -0.22900501387E+01  0.58492544599E+01  0.51100000000E-03 0. -1.
        -11    1    3    3    0    0  0.39233219123E+01  0.84750179843E+01  0.22860440803E+01  0.96148001779E+01  0.51100000000E-03 0.  1.
        -12    1    3    3    0    0 -0.52860764906E+01  0.11772466852E+02 -0.32603815871E+02  0.35064831239E+02  0.00000000000E+00 0.  1.
</event>
<event>
 7    1  0.9953837E-014  0.5052886E+02  0.7816164E-02  0.1300439E+00
        -11   -1    0    0    0    0  0.00000000000E+00  0.00000000000E+00  0.45593999997E+02  0.45594000000E+02  0.51100000000E-03 0. -1.
         11   -1    0    0    0    0 -0.00000000000E+00 -0.00000000000E+00 -0.45593999997E+02  0.45594000000E+02  0.51100000000E-03 0.  1.
    9900012    2    1    2    0    0 -0.15242254988E+02  0.12662626151E+01  0.37672750383E+02  0.50528857368E+02  0.29999992456E+02 0.  0.
        -12    1    1    2    0    0  0.15242254988E+02 -0.12662626151E+01 -0.37672750383E+02  0.40659142632E+02  0.00000000000E+00 0.  1.
         11    1    3    3    0    0 -0.67167860648E+01  0.38665325763E+01 -0.26480432727E+01  0.81900807468E+01  0.51100000000E-03 0. -1.
        -11    1    3    3    0    0 -0.41613601274E+01 -0.55985710109E+01  0.16104337798E+02  0.17550231100E+02  0.51100000000E-03 0.  1.
         12    1    3    3    0    0 -0.43641087962E+01  0.29983010496E+01  0.24216455858E+02  0.24788545522E+02  0.00000000000E+00 0. -1.
</event>
<event>
 7    1  0.9953837E-014  0.5052886E+02  0.7816164E-02  0.1300439E+00
        -11   -1    0    0    0    0  0.00000000000E+00  0.00000000000E+00  0.45593999997E+02  0.45594000000E+02  0.51100000000E-03 0. -1.
         11   -1    0    0    0    0 -0.00000000000E+00 -0.00000000000E+00 -0.45593999997E+02  0.45594000000E+02  0.51100000000E-03 0.  1.
    9900012    2    1    2    0    0 -0.17790537237E+02  0.10285887690E+02  0.35083655015E+02  0.50528861422E+02  0.30000004777E+02 0.  0.
        -12    1    1    2    0    0  0.17790537237E+02 -0.10285887690E+02 -0.35083655015E+02  0.40659138578E+02  0.00000000000E+00 0.  1.
         11    1    3    3    0    0 -0.77521692998E+01  0.36870255477E+01  0.26536115585E+02  0.27890064842E+02  0.51100000000E-03 0. -1.
        -11    1    3    3    0    0 -0.11508419527E+02 -0.78421636715E+00  0.39454960101E+00  0.11541853619E+02  0.51100000000E-03 0.  1.
        -12    1    3    3    0    0  0.14700515895E+01  0.73830785090E+01  0.81529898283E+01  0.11096942961E+02  0.00000000000E+00 0.  1.
</event>
<event>
 7    1  0.9953837E-014  0.5052886E+02  0.7816164E-02  0.1300439E+00
        -11   -1    0    0    0    0  0.00000000000E+00  0.00000000000E+00  0.45593999997E+02  0.45594000000E+02  0.51100000000E-03 0. -1.
         11   -1    0    0    0    0 -0.00000000000E+00 -0.00000000000E+00 -0.45593999997E+02  0.45594000000E+02  0.51100000000E-03 0.  1.
    9900012    2    1    2    0    0 -0.25223785445E+02 -0.28154674011E+02 -0.14974675814E+02  0.50528856667E+02  0.29999990324E+02 0.  0.
         12    1    1    2    0    0  0.25223785445E+02  0.28154674011E+02  0.14974675814E+02  0.40659143333E+02  0.00000000000E+00 0. -1.
         11    1    3    3    0    0  0.38272442131E+01 -0.10891975969E+02  0.31178902548E+01  0.11958435461E+02  0.51100000000E-03 0. -1.
        -11    1    3    3    0    0 -0.13133531716E+02 -0.54562843262E+01 -0.82713038607E+01  0.16452208417E+02  0.51100000000E-03 0.  1.
         12    1    3    3    0    0 -0.15917497942E+02 -0.11806413715E+02 -0.98212622085E+01  0.22118212788E+02  0.00000000000E+00 0. -1.
</event>
<event>
 7    1  0.9953837E-014  0.5052886E+02  0.7816164E-02  0.1300439E+00
        -11   -1    0    0    0    0  0.00000000000E+00  0.00000000000E+00  0.45593999997E+02  0.45594000000E+02  0.51100000000E-03 0. -1.
         11   -1    0    0    0    0 -0.00000000000E+00 -0.00000000000E+00 -0.45593999997E+02  0.45594000000E+02  0.51100000000E-03 0.  1.
    9900012    2    1    2    0    0 -0.24166346812E+02 -0.10346179238E+02  0.31017890864E+02  0.50528864536E+02  0.30000014242E+02 0.  0.
        -12    1    1    2    0    0  0.24166346812E+02  0.10346179238E+02 -0.31017890864E+02  0.40659135464E+02  0.00000000000E+00 0.  1.
         11    1    3    3    0    0 -0.20047334889E+02 -0.96935847522E+00  0.60599079090E+01  0.20965633215E+02  0.51100000000E-03 0. -1.
        -11    1    3    3    0    0 -0.42031848589E+01 -0.12221998996E+02  0.21484374908E+02  0.25072343087E+02  0.51100000000E-03 0.  1.
         12    1    3    3    0    0  0.84172935313E-01  0.28451782331E+01  0.34736080467E+01  0.44908882332E+01  0.00000000000E+00 0. -1.
</event>
<event>
 7    1  0.9953837E-014  0.5052887E+02  0.7816164E-02  0.1300439E+00
        -11   -1    0    0    0    0  0.00000000000E+00  0.00000000000E+00  0.45593999997E+02  0.45594000000E+02  0.51100000000E-03 0. -1.
         11   -1    0    0    0    0 -0.00000000000E+00 -0.00000000000E+00 -0.45593999997E+02  0.45594000000E+02  0.51100000000E-03 0.  1.
    9900012    2    1    2    0    0 -0.38590587548E+02 -0.11835354611E+02  0.48842288182E+01  0.50528871170E+02  0.30000034409E+02 0.  0.
         12    1    1    2    0    0  0.38590587548E+02  0.11835354611E+02 -0.48842288182E+01  0.40659128830E+02  0.00000000000E+00 0. -1.
         11    1    3    3    0    0 -0.27307222914E+02 -0.64293894317E+01 -0.84427123791E+01  0.29296772251E+02  0.51100000000E-03 0. -1.
        -11    1    3    3    0    0 -0.57588123336E+01 -0.75946763508E+01  0.11661126990E+02  0.15060707530E+02  0.51100000000E-03 0.  1.
        -12    1    3    3    0    0 -0.55245522999E+01  0.21887111713E+01  0.16658142077E+01  0.61713913893E+01  0.00000000000E+00 0.  1.
</event>
<event>
 7    1  0.9953837E-014  0.5052887E+02  0.7816164E-02  0.1300439E+00
        -11   -1    0    0    0    0  0.00000000000E+00  0.00000000000E+00  0.45593999997E+02  0.45594000000E+02  0.51100000000E-03 0. -1.
         11   -1    0    0    0    0 -0.00000000000E+00 -0.00000000000E+00 -0.45593999997E+02  0.45594000000E+02  0.51100000000E-03 0.  1.
    9900012    2    1    2    0    0  0.39317336689E+02  0.97401759899E+01  0.35272034728E+01  0.50528866254E+02  0.30000019464E+02 0.  0.
         12    1    1    2    0    0 -0.39317336689E+02 -0.97401759899E+01 -0.35272034728E+01  0.40659133746E+02  0.00000000000E+00 0. -1.
         11    1    3    3    0    0  0.21735250576E+02 -0.61447914225E+01  0.40147668749E+01  0.22941184201E+02  0.51100000000E-03 0. -1.
        -11    1    3    3    0    0  0.72783407183E+01  0.70940086338E+01 -0.72154591521E+01  0.12464431521E+02  0.51100000000E-03 0.  1.
         12    1    3    3    0    0  0.10303745396E+02  0.87909587786E+01  0.67278957499E+01  0.15123250532E+02  0.00000000000E+00 0. -1.
</event>
<event>
 7    1  0.9953837E-014  0.5052886E+02  0.7816164E-02  0.1300439E+00
        -11   -1    0    0    0    0  0.00000000000E+00  0.00000000000E+00  0.45593999997E+02  0.45594000000E+02  0.51100000000E-03 0. -1.
         11   -1    0    0    0    0 -0.00000000000E+00 -0.00000000000E+00 -0.45593999997E+02  0.45594000000E+02  0.51100000000E-03 0.  1.
    9900012    2    1    2    0    0  0.28743026513E+02  0.53315934410E+00  0.28752732897E+02  0.50528862268E+02  0.30000007351E+02 0.  0.
        -12    1    1    2    0    0 -0.28743026513E+02 -0.53315934410E+00 -0.28752732897E+02  0.40659137732E+02  0.00000000000E+00 0.  1.
         11    1    3    3    0    0  0.61527491428E+01 -0.77876265341E+01  0.13558068520E+02  0.16802519790E+02  0.51100000000E-03 0. -1.
        -11    1    3    3    0    0  0.19435118072E+02  0.10812167933E+02  0.18174862428E+02  0.28721984862E+02  0.51100000000E-03 0.  1.
        -12    1    3    3    0    0  0.31551592981E+01 -0.24913820544E+01 -0.29801980499E+01  0.50043576165E+01  0.00000000000E+00 0.  1.
</event>
<event>
 7    1  0.9953837E-014  0.5052888E+02  0.7816164E-02  0.1300439E+00
        -11   -1    0    0    0    0  0.00000000000E+00  0.00000000000E+00  0.45593999997E+02  0.45594000000E+02  0.51100000000E-03 0. -1.
         11   -1    0    0    0    0 -0.00000000000E+00 -0.00000000000E+00 -0.45593999997E+02  0.45594000000E+02  0.51100000000E-03 0.  1.
    9900012    2    1    2    0    0  0.29958509654E+02 -0.13462367521E+02  0.23966989802E+02  0.50528877529E+02  0.30000053737E+02 0.  0.
        -12    1    1    2    0    0 -0.29958509654E+02  0.13462367521E+02 -0.23966989802E+02  0.40659122471E+02  0.00000000000E+00 0.  1.
         11    1    3    3    0    0  0.25035987564E+02 -0.10132129676E+02  0.79674842199E+01  0.28159217498E+02  0.51100000000E-03 0.  1.
        -11    1    3    3    0    0  0.38554352842E+01  0.40378226245E+01  0.10666865676E+01  0.56838554936E+01  0.51100000000E-03 0. -1.
         12    1    3    3    0    0  0.10670868061E+01 -0.73680604695E+01  0.14932819014E+02  0.16685804537E+02  0.00000000000E+00 0. -1.
</event>
<event>
 7    1  0.9953837E-014  0.5052886E+02  0.7816164E-02  0.1300439E+00
        -11   -1    0    0    0    0  0.00000000000E+00  0.00000000000E+00  0.45593999997E+02  0.45594000000E+02  0.51100000000E-03 0. -1.
         11   -1    0    0    0    0 -0.00000000000E+00 -0.00000000000E+00 -0.45593999997E+02  0.45594000000E+02  0.51100000000E-03 0.  1.
    9900012    2    1    2    0    0 -0.11224638300E+02 -0.22332950609E+02  0.32068866638E+02  0.50528863323E+02  0.30000010556E+02 0.  0.
        -12    1    1    2    0    0  0.11224638300E+02  0.22332950609E+02 -0.32068866638E+02  0.40659136677E+02  0.00000000000E+00 0.  1.
         11    1    3    3    0    0 -0.11202370255E+01 -0.81838541945E+01  0.18213530039E+02  0.19999076909E+02  0.51100000000E-03 0. -1.
        -11    1    3    3    0    0  0.20517979942E+01 -0.18444831596E+01 -0.45192380925E+01  0.52948565923E+01  0.51100000000E-03 0.  1.
        -12    1    3    3    0    0 -0.12156199268E+02 -0.12304613255E+02  0.18374574692E+02  0.25234929822E+02  0.00000000000E+00 0.  1.
</event>
<event>
 7    1  0.9953837E-014  0.5052887E+02  0.7816164E-02  0.1300439E+00
        -11   -1    0    0    0    0  0.00000000000E+00  0.00000000000E+00  0.45593999997E+02  0.45594000000E+02  0.51100000000E-03 0. -1.
         11   -1    0    0    0    0 -0.00000000000E+00 -0.00000000000E+00 -0.45593999997E+02  0.45594000000E+02  0.51100000000E-03 0.  1.
    9900012    2    1    2    0    0 -0.28836580106E+02 -0.30531238926E+01  0.28500782195E+02  0.50528874291E+02  0.30000043894E+02 0.  0.
        -12    1    1    2    0    0  0.28836580106E+02  0.30531238926E+01 -0.28500782195E+02  0.40659125709E+02  0.00000000000E+00 0.  1.
         11    1    3    3    0    0 -0.94240308780E+01 -0.28315847018E+01  0.52064285029E+01  0.11132705328E+02  0.51100000000E-03 0. -1.
        -11    1    3    3    0    0 -0.33351207594E+01  0.10116641320E+02  0.15378595302E+02  0.18707502661E+02  0.51100000000E-03 0.  1.
        -12    1    3    3    0    0 -0.16077428469E+02 -0.10338180511E+02  0.79157583898E+01  0.20688666302E+02  0.00000000000E+00 0.  1.
</event>
<event>
 7    1  0.9953837E-014  0.5052882E+02  0.7816164E-02  0.1300439E+00
        -11   -1    0    0    0    0  0.00000000000E+00  0.00000000000E+00  0.45593999997E+02  0.45594000000E+02  0.51100000000E-03 0. -1.
         11   -1    0    0    0    0 -0.00000000000E+00 -0.00000000000E+00 -0.45593999997E+02  0.45594000000E+02  0.51100000000E-03 0.  1.
    9900012    2    1    2    0    0 -0.80994242154E+01  0.70559525426E+01  0.39214558905E+02  0.50528821836E+02  0.29999884451E+02 0.  0.
        -12    1    1    2    0    0  0.80994242154E+01 -0.70559525426E+01 -0.39214558905E+02  0.40659178164E+02  0.00000000000E+00 0.  1.
         11    1    3    3    0    0 -0.11494434023E+02  0.14179680895E+02  0.37688064507E+02  0.41875715759E+02  0.51100000000E-03 0. -1.
        -11    1    3    3    0    0  0.18658350174E+01 -0.52737789054E+01  0.24158706229E+01  0.60934813845E+01  0.51100000000E-03 0.  1.
         12    1    3    3    0    0  0.15291747901E+01 -0.18499494474E+01 -0.88937622465E+00  0.25596246923E+01  0.00000000000E+00 0. -1.
</event>
<event>
 7    1  0.1433773E-013  0.5052886E+02  0.7816164E-02  0.1300439E+00
        -11   -1    0    0    0    0  0.00000000000E+00  0.00000000000E+00  0.45593999997E+02  0.45594000000E+02  0.51100000000E-03 0. -1.
         11   -1    0    0    0    0 -0.00000000000E+00 -0.00000000000E+00 -0.45593999997E+02  0.45594000000E+02  0.51100000000E-03 0.  1.
    9900012    2    1    2    0    0  0.35438327496E+01 -0.68858391467E+01  0.39914809332E+02  0.50528861601E+02  0.30000005323E+02 0.  0.
        -12    1    1    2    0    0 -0.35438327496E+01  0.68858391467E+01 -0.39914809332E+02  0.40659138399E+02  0.00000000000E+00 0.  1.
         11    1    3    3    0    0  0.36146327003E+01 -0.19165031447E+01  0.38879963294E+02  0.39094630064E+02  0.51100000000E-03 0. -1.
        -11    1    3    3    0    0 -0.80355426450E-01  0.29537020883E+01 -0.12197351441E+01  0.31966493558E+01  0.51100000000E-03 0.  1.
         12    1    3    3    0    0  0.95554756956E-02 -0.79230380903E+01  0.22545811827E+01  0.82375821815E+01  0.00000000000E+00 0. -1.
</event>
<event>
 7    1  0.9953837E-014  0.5052886E+02  0.7816164E-02  0.1300439E+00
        -11   -1    0    0    0    0  0.00000000000E+00  0.00000000000E+00  0.45593999997E+02  0.45594000000E+02  0.51100000000E-03 0. -1.
         11   -1    0    0    0    0 -0.00000000000E+00 -0.00000000000E+00 -0.45593999997E+02  0.45594000000E+02  0.51100000000E-03 0.  1.
    9900012    2    1    2    0    0 -0.34651182426E+01  0.20734353504E+02 -0.34802949578E+02  0.50528858851E+02  0.29999996963E+02 0.  0.
         12    1    1    2    0    0  0.34651182426E+01 -0.20734353504E+02  0.34802949578E+02  0.40659141149E+02  0.00000000000E+00 0. -1.
         11    1    3    3    0    0 -0.10725163325E+02  0.38297322369E+01 -0.17166211695E+02  0.20600359259E+02  0.51100000000E-03 0. -1.
        -11    1    3    3    0    0  0.87829370577E+01  0.12939849319E+02 -0.19743900071E+02  0.25187323677E+02  0.51100000000E-03 0.  1.
         12    1    3    3    0    0 -0.15228919747E+01  0.39647719479E+01  0.21071621883E+01  0.47411759146E+01  0.00000000000E+00 0. -1.
</event>
<event>
 7    1  0.9953837E-014  0.5052885E+02  0.7816164E-02  0.1300439E+00
        -11   -1    0    0    0    0  0.00000000000E+00  0.00000000000E+00  0.45593999997E+02  0.45594000000E+02  0.51100000000E-03 0. -1.
         11   -1    0    0    0    0 -0.00000000000E+00 -0.00000000000E+00 -0.45593999997E+02  0.45594000000E+02  0.51100000000E-03 0.  1.
    9900012    2    1    2    0    0 -0.76467423484E+01  0.34087059269E+02 -0.20803031594E+02  0.50528850948E+02  0.29999972941E+02 0.  0.
         12    1    1    2    0    0  0.76467423484E+01 -0.34087059269E+02  0.20803031594E+02  0.40659149052E+02  0.00000000000E+00 0. -1.
         11    1    3    3    0    0 -0.40129221206E+00  0.75477393872E+01 -0.11429358342E+02  0.13702541285E+02  0.51100000000E-03 0. -1.
        -11    1    3    3    0    0 -0.15270537881E+02  0.14907841372E+02 -0.40278057382E+01  0.21717649064E+02  0.51100000000E-03 0.  1.
        -12    1    3    3    0    0  0.80250877444E+01  0.11631478509E+02 -0.53458675140E+01  0.15108660599E+02  0.00000000000E+00 0.  1.
</event>
<event>
 7    1  0.9953837E-014  0.5052886E+02  0.7816164E-02  0.1300439E+00
        -11   -1    0    0    0    0  0.00000000000E+00  0.00000000000E+00  0.45593999997E+02  0.45594000000E+02  0.51100000000E-03 0. -1.
         11   -1    0    0    0    0 -0.00000000000E+00 -0.00000000000E+00 -0.45593999997E+02  0.45594000000E+02  0.51100000000E-03 0.  1.
    9900012    2    1    2    0    0  0.19053688427E+02  0.89630435202E+01  0.34781981359E+02  0.50528863031E+02  0.30000009668E+02 0.  0.
        -12    1    1    2    0    0 -0.19053688427E+02 -0.89630435202E+01 -0.34781981359E+02  0.40659136969E+02  0.00000000000E+00 0.  1.
         11    1    3    3    0    0  0.81740911622E+01 -0.14836218321E+01  0.17636499867E+02  0.19495205254E+02  0.51100000000E-03 0. -1.
        -11    1    3    3    0    0  0.51985428621E+01  0.13494247697E+02  0.20325477807E+01  0.14603109927E+02  0.51100000000E-03 0.  1.
        -12    1    3    3    0    0  0.56810544025E+01 -0.30475823450E+01  0.15112933711E+02  0.16430547850E+02  0.00000000000E+00 0.  1.
</event>
<event>
 7    1  0.9953837E-014  0.5052885E+02  0.7816164E-02  0.1300439E+00
        -11   -1    0    0    0    0  0.00000000000E+00  0.00000000000E+00  0.45593999997E+02  0.45594000000E+02  0.51100000000E-03 0. -1.
         11   -1    0    0    0    0 -0.00000000000E+00 -0.00000000000E+00 -0.45593999997E+02  0.45594000000E+02  0.51100000000E-03 0.  1.
    9900012    2    1    2    0    0  0.29406630968E+02  0.58568154772E+00  0.28072641803E+02  0.50528853605E+02  0.29999981018E+02 0.  0.
        -12    1    1    2    0    0 -0.29406630968E+02 -0.58568154772E+00 -0.28072641803E+02  0.40659146395E+02  0.00000000000E+00 0.  1.
         11    1    3    3    0    0  0.20587606640E+02  0.22148568054E+01  0.98409877303E+01  0.22925971682E+02  0.51100000000E-03 0. -1.
        -11    1    3    3    0    0  0.36707107470E+01 -0.89925828252E+01  0.15354601898E+02  0.18168777145E+02  0.51100000000E-03 0.  1.
        -12    1    3    3    0    0  0.51483135811E+01  0.73634075675E+01  0.28770521750E+01  0.94341047774E+01  0.00000000000E+00 0.  1.
</event>
<event>
 7    1  0.9953837E-014  0.5052886E+02  0.7816164E-02  0.1300439E+00
        -11   -1    0    0    0    0  0.00000000000E+00  0.00000000000E+00  0.45593999997E+02  0.45594000000E+02  0.51100000000E-03 0. -1.
         11   -1    0    0    0    0 -0.00000000000E+00 -0.00000000000E+00 -0.45593999997E+02  0.45594000000E+02  0.51100000000E-03 0.  1.
    9900012    2    1    2    0    0 -0.25702934132E+01 -0.37997238968E+02  0.14239692501E+02  0.50528863020E+02  0.30000009637E+02 0.  0.
        -12    1    1    2    0    0  0.25702934132E+01  0.37997238968E+02 -0.14239692501E+02  0.40659136980E+02  0.00000000000E+00 0.  1.
         11    1    3    3    0    0  0.72797009736E+01 -0.14387581817E+02  0.80845594771E+01  0.18037645606E+02  0.51100000000E-03 0. -1.
        -11    1    3    3    0    0 -0.11044224658E+02 -0.32624998305E+01  0.19551243494E+01  0.11680809686E+02  0.51100000000E-03 0.  1.
        -12    1    3    3    0    0  0.11942302712E+01 -0.20347157320E+02  0.42000086743E+01  0.20810407728E+02  0.00000000000E+00 0.  1.
</event>
<event>
 7    1  0.9953837E-014  0.5052886E+02  0.7816164E-02  0.1300439E+00
        -11   -1    0    0    0    0  0.00000000000E+00  0.00000000000E+00  0.45593999997E+02  0.45594000000E+02  0.51100000000E-03 0. -1.
         11   -1    0    0    0    0 -0.00000000000E+00 -0.00000000000E+00 -0.45593999997E+02  0.45594000000E+02  0.51100000000E-03 0.  1.
    9900012    2    1    2    0    0  0.23308333724E+02 -0.26503689530E+02 -0.20185176334E+02  0.50528864208E+02  0.30000013247E+02 0.  0.
         12    1    1    2    0    0 -0.23308333724E+02  0.26503689530E+02  0.20185176334E+02  0.40659135792E+02  0.00000000000E+00 0. -1.
         11    1    3    3    0    0 -0.41621590750E+01  0.16452265969E+01 -0.38264211799E+01  0.58882797172E+01  0.51100000000E-03 0. -1.
        -11    1    3    3    0    0  0.20173078562E+02 -0.18235238053E+02 -0.45289809147E+01  0.27567892083E+02  0.51100000000E-03 0.  1.
         12    1    3    3    0    0  0.72974142373E+01 -0.99136780741E+01 -0.11829774240E+02  0.17072692408E+02  0.00000000000E+00 0. -1.
</event>
<event>
 7    1  0.9953837E-014  0.5052886E+02  0.7816164E-02  0.1300439E+00
        -11   -1    0    0    0    0  0.00000000000E+00  0.00000000000E+00  0.45593999997E+02  0.45594000000E+02  0.51100000000E-03 0. -1.
         11   -1    0    0    0    0 -0.00000000000E+00 -0.00000000000E+00 -0.45593999997E+02  0.45594000000E+02  0.51100000000E-03 0.  1.
    9900012    2    1    2    0    0 -0.44188929924E+01 -0.19879120091E+02  0.35191752465E+02  0.50528862375E+02  0.30000007676E+02 0.  0.
        -12    1    1    2    0    0  0.44188929924E+01  0.19879120091E+02 -0.35191752465E+02  0.40659137625E+02  0.00000000000E+00 0.  1.
         11    1    3    3    0    0 -0.70687867278E+01 -0.21260306975E+02  0.38762245911E+02  0.44771420648E+02  0.51100000000E-03 0. -1.
        -11    1    3    3    0    0  0.29680072602E+01  0.70718221339E+00 -0.12103163162E+01  0.32823832235E+01  0.51100000000E-03 0.  1.
         12    1    3    3    0    0 -0.31811352474E+00  0.67400467055E+00 -0.23601771305E+01  0.24750585040E+01  0.00000000000E+00 0. -1.
</event>
<event>
 7    1  0.9953837E-014  0.5052886E+02  0.7816164E-02  0.1300439E+00
        -11   -1    0    0    0    0  0.00000000000E+00  0.00000000000E+00  0.45593999997E+02  0.45594000000E+02  0.51100000000E-03 0. -1.
         11   -1    0    0    0    0 -0.00000000000E+00 -0.00000000000E+00 -0.45593999997E+02  0.45594000000E+02  0.51100000000E-03 0.  1.
    9900012    2    1    2    0    0  0.26112753928E+02  0.38221617229E+01  0.30930261058E+02  0.50528857276E+02  0.29999992175E+02 0.  0.
        -12    1    1    2    0    0 -0.26112753928E+02 -0.38221617229E+01 -0.30930261058E+02  0.40659142724E+02  0.00000000000E+00 0.  1.
         11    1    3    3    0    0  0.39377430099E+01 -0.17369231413E+01  0.18365753884E+02  0.18863288102E+02  0.51100000000E-03 0. -1.
        -11    1    3    3    0    0  0.14319490777E+02  0.12163620983E+02  0.76405581625E+01  0.20282495428E+02  0.51100000000E-03 0.  1.
        -12    1    3    3    0    0  0.78555201414E+01 -0.66045361184E+01  0.49239490117E+01  0.11383073746E+02  0.00000000000E+00 0.  1.
</event>
<event>
 7    1  0.9953837E-014  0.5052882E+02  0.7816164E-02  0.1300439E+00
        -11   -1    0    0    0    0  0.00000000000E+00  0.00000000000E+00  0.45593999997E+02  0.45594000000E+02  0.51100000000E-03 0. -1.
         11   -1    0    0    0    0 -0.00000000000E+00 -0.00000000000E+00 -0.45593999997E+02  0.45594000000E+02  0.51100000000E-03 0.  1.
    9900012    2    1    2    0    0  0.38632997503E+02 -0.47222645721E+01  0.11762690149E+02  0.50528817049E+02  0.29999869901E+02 0.  0.
        -12    1    1    2    0    0 -0.38632997503E+02  0.47222645721E+01 -0.11762690149E+02  0.40659182951E+02  0.00000000000E+00 0.  1.
         11    1    3    3    0    0  0.14250685490E+02 -0.29494663160E+01  0.16431171814E+02  0.21949141120E+02  0.51100000000E-03 0. -1.
        -11    1    3    3    0    0  0.10228733304E+02 -0.46900602323E+01 -0.79286030742E+01  0.13765405804E+02  0.51100000000E-03 0.  1.
         12    1    3    3    0    0  0.14153578709E+02  0.29172619762E+01  0.32601214095E+01  0.14814270125E+02  0.00000000000E+00 0. -1.
</event>
<event>
 7    1  0.9953837E-014  0.5052884E+02  0.7816164E-02  0.1300439E+00
        -11   -1    0    0    0    0  0.00000000000E+00  0.00000000000E+00  0.45593999997E+02  0.45594000000E+02  0.51100000000E-03 0. -1.
         11   -1    0    0    0    0 -0.00000000000E+00 -0.00000000000E+00 -0.45593999997E+02  0.45594000000E+02  0.51100000000E-03 0.  1.
    9900012    2    1    2    0    0 -0.20152628839E+02 -0.13442536223E+02 -0.32654815155E+02  0.50528841351E+02  0.29999943771E+02 0.  0.
         12    1    1    2    0    0  0.20152628839E+02  0.13442536223E+02  0.32654815155E+02  0.40659158649E+02  0.00000000000E+00 0. -1.
         11    1    3    3    0    0 -0.12960226369E+02 -0.12122972880E+02 -0.12565120281E+01  0.17790805539E+02  0.51100000000E-03 0. -1.
        -11    1    3    3    0    0 -0.68829213150E+01 -0.13712242798E+01 -0.17763948968E+02  0.19100071860E+02  0.51100000000E-03 0.  1.
         12    1    3    3    0    0 -0.30948115589E+00  0.51660937232E-01 -0.13634354158E+02  0.13637963952E+02  0.00000000000E+00 0. -1.
</event>
<event>
 7    1  0.9953837E-014  0.5052886E+02  0.7816164E-02  0.1300439E+00
        -11   -1    0    0    0    0  0.00000000000E+00  0.00000000000E+00  0.45593999997E+02  0.45594000000E+02  0.51100000000E-03 0. -1.
         11   -1    0    0    0    0 -0.00000000000E+00 -0.00000000000E+00 -0.45593999997E+02  0.45594000000E+02  0.51100000000E-03 0.  1.
    9900012    2    1    2    0    0 -0.31875028501E+01 -0.36880258397E+02 -0.16818201541E+02  0.50528861582E+02  0.30000005264E+02 0.  0.
         12    1    1    2    0    0  0.31875028501E+01  0.36880258397E+02  0.16818201541E+02  0.40659138418E+02  0.00000000000E+00 0. -1.
         11    1    3    3    0    0 -0.12089983837E+00 -0.27209839478E+02 -0.24494144911E+02  0.36610833320E+02  0.51100000000E-03 0.  1.
        -11    1    3    3    0    0  0.97799691484E+00 -0.21634973953E+00  0.18387175998E+01  0.20938404543E+01  0.51100000000E-03 0. -1.
         12    1    3    3    0    0 -0.40445999266E+01 -0.94540691793E+01  0.58372257701E+01  0.11824187807E+02  0.00000000000E+00 0. -1.
</event>
<event>
 7    1  0.9953837E-014  0.5052886E+02  0.7816164E-02  0.1300439E+00
        -11   -1    0    0    0    0  0.00000000000E+00  0.00000000000E+00  0.45593999997E+02  0.45594000000E+02  0.51100000000E-03 0.  1.
         11   -1    0    0    0    0 -0.00000000000E+00 -0.00000000000E+00 -0.45593999997E+02  0.45594000000E+02  0.51100000000E-03 0. -1.
    9900012    2    1    2    0    0 -0.37447627388E+02 -0.15593075319E+02 -0.27743291888E+01  0.50528859609E+02  0.29999999268E+02 0.  0.
         12    1    1    2    0    0  0.37447627388E+02  0.15593075319E+02  0.27743291888E+01  0.40659140391E+02  0.00000000000E+00 0. -1.
         11    1    3    3    0    0 -0.15035061979E+02 -0.15946818988E+02  0.59367143854E+00  0.21925021565E+02  0.51100000000E-03 0. -1.
        -11    1    3    3    0    0 -0.23515782056E+02  0.17914552612E+01  0.12763669959E+01  0.23618434128E+02  0.51100000000E-03 0.  1.
         12    1    3    3    0    0  0.11032166478E+01 -0.14377115922E+01 -0.46443676233E+01  0.49854039169E+01  0.00000000000E+00 0. -1.
</event>
<event>
 7    1  0.9953837E-014  0.5052885E+02  0.7816164E-02  0.1300439E+00
        -11   -1    0    0    0    0  0.00000000000E+00  0.00000000000E+00  0.45593999997E+02  0.45594000000E+02  0.51100000000E-03 0. -1.
         11   -1    0    0    0    0 -0.00000000000E+00 -0.00000000000E+00 -0.45593999997E+02  0.45594000000E+02  0.51100000000E-03 0.  1.
    9900012    2    1    2    0    0 -0.46363837821E+01  0.22989394086E+02 -0.33213822225E+02  0.50528852422E+02  0.29999977421E+02 0.  0.
         12    1    1    2    0    0  0.46363837821E+01 -0.22989394086E+02  0.33213822225E+02  0.40659147578E+02  0.00000000000E+00 0. -1.
         11    1    3    3    0    0  0.23234692892E+00 -0.98761178886E+00  0.46687114118E+01  0.47776802581E+01  0.51100000000E-03 0. -1.
        -11    1    3    3    0    0 -0.14641730154E+01  0.10031859675E+02 -0.92593635628E+01  0.13730179351E+02  0.51100000000E-03 0.  1.
         12    1    3    3    0    0 -0.34045576956E+01  0.13945146200E+02 -0.28623170074E+02  0.32020992813E+02  0.00000000000E+00 0. -1.
</event>
<event>
 7    1  0.9953837E-014  0.5052884E+02  0.7816164E-02  0.1300439E+00
        -11   -1    0    0    0    0  0.00000000000E+00  0.00000000000E+00  0.45593999997E+02  0.45594000000E+02  0.51100000000E-03 0. -1.
         11   -1    0    0    0    0 -0.00000000000E+00 -0.00000000000E+00 -0.45593999997E+02  0.45594000000E+02  0.51100000000E-03 0.  1.
    9900012    2    1    2    0    0  0.25937483011E+01  0.92766259250E+01 -0.39501694008E+02  0.50528841766E+02  0.29999945032E+02 0.  0.
         12    1    1    2    0    0 -0.25937483011E+01 -0.92766259250E+01  0.39501694008E+02  0.40659158234E+02  0.00000000000E+00 0. -1.
         11    1    3    3    0    0 -0.11291034428E+02  0.87565712298E+01 -0.15262458578E+02  0.20907119368E+02  0.51100000000E-03 0. -1.
        -11    1    3    3    0    0  0.12484018165E+02  0.31591853068E+01 -0.14302882681E+02  0.19245872664E+02  0.51100000000E-03 0.  1.
        -12    1    3    3    0    0  0.14007645641E+01 -0.26391306116E+01 -0.99363527488E+01  0.10375849734E+02  0.00000000000E+00 0.  1.
</event>
<event>
 7    1  0.9953837E-014  0.5052885E+02  0.7816164E-02  0.1300439E+00
        -11   -1    0    0    0    0  0.00000000000E+00  0.00000000000E+00  0.45593999997E+02  0.45594000000E+02  0.51100000000E-03 0. -1.
         11   -1    0    0    0    0 -0.00000000000E+00 -0.00000000000E+00 -0.45593999997E+02  0.45594000000E+02  0.51100000000E-03 0.  1.
    9900012    2    1    2    0    0  0.31274986045E+02  0.22639541946E+02  0.12747268139E+02  0.50528850271E+02  0.29999970885E+02 0.  0.
        -12    1    1    2    0    0 -0.31274986045E+02 -0.22639541946E+02 -0.12747268139E+02  0.40659149729E+02  0.00000000000E+00 0.  1.
         11    1    3    3    0    0  0.22882931794E+02  0.16793200677E+02  0.18138736509E+02  0.33684624369E+02  0.51100000000E-03 0. -1.
        -11    1    3    3    0    0  0.11447322779E+02  0.31485427528E+01 -0.42690115182E+01  0.12616615230E+02  0.51100000000E-03 0.  1.
        -12    1    3    3    0    0 -0.30552685277E+01  0.26977985169E+01 -0.11224568519E+01  0.42276106725E+01  0.00000000000E+00 0.  1.
</event>
<event>
 7    1  0.9953837E-014  0.5052886E+02  0.7816164E-02  0.1300439E+00
        -11   -1    0    0    0    0  0.00000000000E+00  0.00000000000E+00  0.45593999997E+02  0.45594000000E+02  0.51100000000E-03 0. -1.
         11   -1    0    0    0    0 -0.00000000000E+00 -0.00000000000E+00 -0.45593999997E+02  0.45594000000E+02  0.51100000000E-03 0.  1.
    9900012    2    1    2    0    0 -0.10492219715E+02 -0.37652093273E+02 -0.11198156453E+02  0.50528861908E+02  0.30000006257E+02 0.  0.
         12    1    1    2    0    0  0.10492219715E+02  0.37652093273E+02  0.11198156453E+02  0.40659138092E+02  0.00000000000E+00 0. -1.
         11    1    3    3    0    0 -0.67872937384E+01 -0.80921122897E+01  0.82843115985E+01  0.13423094149E+02  0.51100000000E-03 0. -1.
        -11    1    3    3    0    0 -0.72156562366E+00 -0.22775974780E+02 -0.95367818680E+01  0.24702548305E+02  0.51100000000E-03 0.  1.
        -12    1    3    3    0    0 -0.29833603533E+01 -0.67840062035E+01 -0.99456861838E+01  0.12403219454E+02  0.00000000000E+00 0.  1.
</event>
<event>
 7    1  0.9953837E-014  0.5052887E+02  0.7816164E-02  0.1300439E+00
        -11   -1    0    0    0    0  0.00000000000E+00  0.00000000000E+00  0.45593999997E+02  0.45594000000E+02  0.51100000000E-03 0. -1.
         11   -1    0    0    0    0 -0.00000000000E+00 -0.00000000000E+00 -0.45593999997E+02  0.45594000000E+02  0.51100000000E-03 0.  1.
    9900012    2    1    2    0    0  0.28727895148E+02 -0.24501064359E+02 -0.15085445226E+02  0.50528870987E+02  0.30000033853E+02 0.  0.
         12    1    1    2    0    0 -0.28727895148E+02  0.24501064359E+02  0.15085445226E+02  0.40659129013E+02  0.00000000000E+00 0. -1.
         11    1    3    3    0    0  0.61931403339E+01  0.59445934212E+01 -0.50299386280E+01  0.99495457686E+01  0.51100000000E-03 0. -1.
        -11    1    3    3    0    0  0.12366834967E+02 -0.15367891482E+02 -0.10583625284E+02  0.22385795052E+02  0.51100000000E-03 0.  1.
         12    1    3    3    0    0  0.10167919848E+02 -0.15077766299E+02  0.52811868517E+00  0.18193530167E+02  0.00000000000E+00 0. -1.
</event>
<event>
 7    1  0.9953837E-014  0.5052886E+02  0.7816164E-02  0.1300439E+00
        -11   -1    0    0    0    0  0.00000000000E+00  0.00000000000E+00  0.45593999997E+02  0.45594000000E+02  0.51100000000E-03 0. -1.
         11   -1    0    0    0    0 -0.00000000000E+00 -0.00000000000E+00 -0.45593999997E+02  0.45594000000E+02  0.51100000000E-03 0.  1.
    9900012    2    1    2    0    0 -0.28816052786E+02 -0.16554518528E+02 -0.23425376902E+02  0.50528864928E+02  0.30000015434E+02 0.  0.
         12    1    1    2    0    0  0.28816052786E+02  0.16554518528E+02  0.23425376902E+02  0.40659135072E+02  0.00000000000E+00 0. -1.
         11    1    3    3    0    0  0.76530486104E+00  0.60521313604E+00 -0.10650650001E+02  0.10695247551E+02  0.51100000000E-03 0. -1.
        -11    1    3    3    0    0 -0.29919904298E+02 -0.11524984216E+02 -0.10373197428E+02  0.33699097310E+02  0.51100000000E-03 0.  1.
        -12    1    3    3    0    0  0.33854665085E+00 -0.56347474483E+01 -0.24015294731E+01  0.61345200669E+01  0.00000000000E+00 0.  1.
</event>
<event>
 7    1  0.9953837E-014  0.5052885E+02  0.7816164E-02  0.1300439E+00
        -11   -1    0    0    0    0  0.00000000000E+00  0.00000000000E+00  0.45593999997E+02  0.45594000000E+02  0.51100000000E-03 0. -1.
         11   -1    0    0    0    0 -0.00000000000E+00 -0.00000000000E+00 -0.45593999997E+02  0.45594000000E+02  0.51100000000E-03 0.  1.
    9900012    2    1    2    0    0 -0.11074747727E+02  0.11884289966E-01  0.39121818549E+02  0.50528845249E+02  0.29999955620E+02 0.  0.
        -12    1    1    2    0    0  0.11074747727E+02 -0.11884289966E-01 -0.39121818549E+02  0.40659154751E+02  0.00000000000E+00 0.  1.
         11    1    3    3    0    0 -0.98600563664E+01 -0.84713480337E+01  0.20467241436E+02  0.24246492969E+02  0.51100000000E-03 0. -1.
        -11    1    3    3    0    0 -0.85171617066E+01  0.57605910640E+01  0.77352096548E+01  0.12867009039E+02  0.51100000000E-03 0.  1.
         12    1    3    3    0    0  0.73024703463E+01  0.27226412597E+01  0.10919367458E+02  0.13415343241E+02  0.00000000000E+00 0. -1.
</event>
<event>
 7    1  0.9953837E-014  0.5052887E+02  0.7816164E-02  0.1300439E+00
        -11   -1    0    0    0    0  0.00000000000E+00  0.00000000000E+00  0.45593999997E+02  0.45594000000E+02  0.51100000000E-03 0. -1.
         11   -1    0    0    0    0 -0.00000000000E+00 -0.00000000000E+00 -0.45593999997E+02  0.45594000000E+02  0.51100000000E-03 0.  1.
    9900012    2    1    2    0    0 -0.67252436507E+01  0.96357514376E+01  0.38924129929E+02  0.50528874350E+02  0.30000044073E+02 0.  0.
        -12    1    1    2    0    0  0.67252436507E+01 -0.96357514376E+01 -0.38924129929E+02  0.40659125650E+02  0.00000000000E+00 0.  1.
         11    1    3    3    0    0 -0.43763163071E+01 -0.30157445496E+01  0.18836961998E+02  0.19572378424E+02  0.51100000000E-03 0. -1.
        -11    1    3    3    0    0  0.25359294149E+01  0.14790289385E+02  0.20723527891E+02  0.25586094008E+02  0.51100000000E-03 0.  1.
        -12    1    3    3    0    0 -0.48848567585E+01 -0.21387933981E+01 -0.63635995996E+00  0.53704019169E+01  0.00000000000E+00 0.  1.
</event>
<event>
 7    1  0.9953837E-014  0.5052885E+02  0.7816164E-02  0.1300439E+00
        -11   -1    0    0    0    0  0.00000000000E+00  0.00000000000E+00  0.45593999997E+02  0.45594000000E+02  0.51100000000E-03 0.  1.
         11   -1    0    0    0    0 -0.00000000000E+00 -0.00000000000E+00 -0.45593999997E+02  0.45594000000E+02  0.51100000000E-03 0. -1.
    9900012    2    1    2    0    0  0.37028247679E+02 -0.11807222656E+02  0.11944235487E+02  0.50528851037E+02  0.29999973211E+02 0.  0.
        -12    1    1    2    0    0 -0.37028247679E+02  0.11807222656E+02 -0.11944235487E+02  0.40659148963E+02  0.00000000000E+00 0.  1.
         11    1    3    3    0    0  0.27537732083E+02 -0.24012708744E+01  0.20060058302E+01  0.27714921067E+02  0.51100000000E-03 0. -1.
        -11    1    3    3    0    0 -0.32188429183E+01  0.37750091916E+00  0.51334271496E+01  0.60708756566E+01  0.51100000000E-03 0.  1.
        -12    1    3    3    0    0  0.12709358514E+02 -0.97834527011E+01  0.48048025074E+01  0.16743054313E+02  0.00000000000E+00 0.  1.
</event>
<event>
 7    1  0.9953837E-014  0.5052886E+02  0.7816164E-02  0.1300439E+00
        -11   -1    0    0    0    0  0.00000000000E+00  0.00000000000E+00  0.45593999997E+02  0.45594000000E+02  0.51100000000E-03 0. -1.
         11   -1    0    0    0    0 -0.00000000000E+00 -0.00000000000E+00 -0.45593999997E+02  0.45594000000E+02  0.51100000000E-03 0.  1.
    9900012    2    1    2    0    0 -0.47542096079E+01 -0.29873734793E+02  0.27168417602E+02  0.50528862595E+02  0.30000008344E+02 0.  0.
        -12    1    1    2    0    0  0.47542096079E+01  0.29873734793E+02 -0.27168417602E+02  0.40659137405E+02  0.00000000000E+00 0.  1.
         11    1    3    3    0    0 -0.11602809147E+02 -0.10709335573E+02  0.23594159513E+02  0.28390128776E+02  0.51100000000E-03 0. -1.
        -11    1    3    3    0    0  0.39318824204E+01 -0.22790824492E+01  0.18857583292E+01  0.49203659331E+01  0.51100000000E-03 0.  1.
         12    1    3    3    0    0  0.29167171189E+01 -0.16885316772E+02  0.16884997597E+01  0.17218367886E+02  0.00000000000E+00 0. -1.
</event>
<event>
 7    1  0.9953837E-014  0.5052886E+02  0.7816164E-02  0.1300439E+00
        -11   -1    0    0    0    0  0.00000000000E+00  0.00000000000E+00  0.45593999997E+02  0.45594000000E+02  0.51100000000E-03 0. -1.
         11   -1    0    0    0    0 -0.00000000000E+00 -0.00000000000E+00 -0.45593999997E+02  0.45594000000E+02  0.51100000000E-03 0.  1.
    9900012    2    1    2    0    0  0.21034557455E+01 -0.14252738239E+02 -0.38021052721E+02  0.50528861748E+02  0.30000005768E+02 0.  0.
         12    1    1    2    0    0 -0.21034557455E+01  0.14252738239E+02  0.38021052721E+02  0.40659138252E+02  0.00000000000E+00 0. -1.
         11    1    3    3    0    0  0.57856705629E+01 -0.72125708516E+01 -0.69780894318E+00  0.92726533276E+01  0.51100000000E-03 0. -1.
        -11    1    3    3    0    0  0.18623475633E+01 -0.73716516202E+01 -0.33876437131E+02  0.34719196117E+02  0.51100000000E-03 0.  1.
        -12    1    3    3    0    0 -0.55445623806E+01  0.33148423301E+00 -0.34468066476E+01  0.65370123034E+01  0.00000000000E+00 0.  1.
</event>
<event>
 7    1  0.9953837E-014  0.5052886E+02  0.7816164E-02  0.1300439E+00
        -11   -1    0    0    0    0  0.00000000000E+00  0.00000000000E+00  0.45593999997E+02  0.45594000000E+02  0.51100000000E-03 0. -1.
         11   -1    0    0    0    0 -0.00000000000E+00 -0.00000000000E+00 -0.45593999997E+02  0.45594000000E+02  0.51100000000E-03 0.  1.
    9900012    2    1    2    0    0  0.20606746071E+02 -0.80172755266E+01 -0.34121127349E+02  0.50528855616E+02  0.29999987130E+02 0.  0.
         12    1    1    2    0    0 -0.20606746071E+02  0.80172755266E+01  0.34121127349E+02  0.40659144384E+02  0.00000000000E+00 0. -1.
         11    1    3    3    0    0  0.10571486154E+02  0.21367248277E+01 -0.75634975060E+01  0.13173018154E+02  0.51100000000E-03 0. -1.
        -11    1    3    3    0    0  0.44941294275E+01 -0.92089572417E+01 -0.29344208799E+02  0.31081902822E+02  0.51100000000E-03 0.  1.
        -12    1    3    3    0    0  0.55411304891E+01 -0.94504311263E+00  0.27865789557E+01  0.62739346393E+01  0.00000000000E+00 0.  1.
</event>
<event>
 7    1  0.9953837E-014  0.5052886E+02  0.7816164E-02  0.1300439E+00
        -11   -1    0    0    0    0  0.00000000000E+00  0.00000000000E+00  0.45593999997E+02  0.45594000000E+02  0.51100000000E-03 0. -1.
         11   -1    0    0    0    0 -0.00000000000E+00 -0.00000000000E+00 -0.45593999997E+02  0.45594000000E+02  0.51100000000E-03 0.  1.
    9900012    2    1    2    0    0 -0.12153038488E+02 -0.17216461896E+02 -0.34771584432E+02  0.50528856027E+02  0.29999988381E+02 0.  0.
         12    1    1    2    0    0  0.12153038488E+02  0.17216461896E+02  0.34771584432E+02  0.40659143973E+02  0.00000000000E+00 0. -1.
         11    1    3    3    0    0 -0.18424466070E+02 -0.14069527862E+02 -0.21565155208E+02  0.31661782698E+02  0.51100000000E-03 0. -1.
        -11    1    3    3    0    0  0.78484339357E+01  0.12096583532E+01 -0.11402047574E+02  0.13894886747E+02  0.51100000000E-03 0.  1.
        -12    1    3    3    0    0 -0.15770063535E+01 -0.43565923872E+01 -0.18043816497E+01  0.49721865819E+01  0.00000000000E+00 0.  1.
</event>
<event>
 7    1  0.9953837E-014  0.5052886E+02  0.7816164E-02  0.1300439E+00
        -11   -1    0    0    0    0  0.00000000000E+00  0.00000000000E+00  0.45593999997E+02  0.45594000000E+02  0.51100000000E-03 0. -1.
         11   -1    0    0    0    0 -0.00000000000E+00 -0.00000000000E+00 -0.45593999997E+02  0.45594000000E+02  0.51100000000E-03 0.  1.
    9900012    2    1    2    0    0 -0.15962566519E+02  0.14671711110E+02 -0.34396263592E+02  0.50528860980E+02  0.30000003435E+02 0.  0.
         12    1    1    2    0    0  0.15962566519E+02 -0.14671711110E+02  0.34396263592E+02  0.40659139020E+02  0.00000000000E+00 0. -1.
         11    1    3    3    0    0 -0.50707585547E+00  0.15714508795E+00 -0.24579601656E+02  0.24585333805E+02  0.51100000000E-03 0. -1.
        -11    1    3    3    0    0 -0.15000539415E+02  0.14746482841E+02 -0.56977784054E+01  0.21793109414E+02  0.51100000000E-03 0.  1.
        -12    1    3    3    0    0 -0.45495124854E+00 -0.23191681889E+00 -0.41188835305E+01  0.41504177605E+01  0.00000000000E+00 0.  1.
</event>
<event>
 7    1  0.9953837E-014  0.5052886E+02  0.7816164E-02  0.1300439E+00
        -11   -1    0    0    0    0  0.00000000000E+00  0.00000000000E+00  0.45593999997E+02  0.45594000000E+02  0.51100000000E-03 0. -1.
         11   -1    0    0    0    0 -0.00000000000E+00 -0.00000000000E+00 -0.45593999997E+02  0.45594000000E+02  0.51100000000E-03 0.  1.
    9900012    2    1    2    0    0  0.16744976870E+02  0.27185007698E+01 -0.36951059049E+02  0.50528864967E+02  0.30000015553E+02 0.  0.
         12    1    1    2    0    0 -0.16744976870E+02 -0.27185007698E+01  0.36951059049E+02  0.40659135033E+02  0.00000000000E+00 0. -1.
         11    1    3    3    0    0 -0.18735122718E+01  0.82375851405E+01 -0.44880475152E+01  0.95661082965E+01  0.51100000000E-03 0. -1.
        -11    1    3    3    0    0  0.21118826398E+02 -0.51267766226E+01 -0.25227569470E+02  0.33297431262E+02  0.51100000000E-03 0.  1.
        -12    1    3    3    0    0 -0.25003372566E+01 -0.39230774808E+00 -0.72354420635E+01  0.76653254087E+01  0.00000000000E+00 0.  1.
</event>
<event>
 7    1  0.9953837E-014  0.5052885E+02  0.7816164E-02  0.1300439E+00
        -11   -1    0    0    0    0  0.00000000000E+00  0.00000000000E+00  0.45593999997E+02  0.45594000000E+02  0.51100000000E-03 0. -1.
         11   -1    0    0    0    0 -0.00000000000E+00 -0.00000000000E+00 -0.45593999997E+02  0.45594000000E+02  0.51100000000E-03 0.  1.
    9900012    2    1    2    0    0 -0.13948071316E+02 -0.35591599168E+02 -0.13851201133E+02  0.50528850997E+02  0.29999973092E+02 0.  0.
         12    1    1    2    0    0  0.13948071316E+02  0.35591599168E+02  0.13851201133E+02  0.40659149003E+02  0.00000000000E+00 0. -1.
         11    1    3    3    0    0  0.65350577048E+01 -0.58405301682E+01  0.24551035540E+01  0.91019945931E+01  0.51100000000E-03 0. -1.
        -11    1    3    3    0    0 -0.13027392753E+02 -0.21950801116E+02 -0.16911654552E+02  0.30619514881E+02  0.51100000000E-03 0.  1.
         12    1    3    3    0    0 -0.74557362676E+01 -0.78002678839E+01  0.60534986471E+00  0.10807341524E+02  0.00000000000E+00 0. -1.
</event>
<event>
 7    1  0.9953837E-014  0.5052888E+02  0.7816164E-02  0.1300439E+00
        -11   -1    0    0    0    0  0.00000000000E+00  0.00000000000E+00  0.45593999997E+02  0.45594000000E+02  0.51100000000E-03 0. -1.
         11   -1    0    0    0    0 -0.00000000000E+00 -0.00000000000E+00 -0.45593999997E+02  0.45594000000E+02  0.51100000000E-03 0.  1.
    9900012    2    1    2    0    0  0.16208363520E+02 -0.22596442793E+01 -0.37220254870E+02  0.50528875405E+02  0.30000047281E+02 0.  0.
         12    1    1    2    0    0 -0.16208363520E+02  0.22596442793E+01  0.37220254870E+02  0.40659124595E+02  0.00000000000E+00 0. -1.
         11    1    3    3    0    0 -0.59638268714E+01  0.22691015406E+01 -0.25983083280E+01  0.68896486980E+01  0.51100000000E-03 0. -1.
        -11    1    3    3    0    0  0.17763216529E+02  0.21118599783E+01 -0.28236751300E+02  0.33426126582E+02  0.51100000000E-03 0.  1.
         12    1    3    3    0    0  0.44089738626E+01 -0.66406057982E+01 -0.63851952419E+01  0.10213100125E+02  0.00000000000E+00 0. -1.
</event>
<event>
 7    1  0.9953837E-014  0.5052887E+02  0.7816164E-02  0.1300439E+00
        -11   -1    0    0    0    0  0.00000000000E+00  0.00000000000E+00  0.45593999997E+02  0.45594000000E+02  0.51100000000E-03 0. -1.
         11   -1    0    0    0    0 -0.00000000000E+00 -0.00000000000E+00 -0.45593999997E+02  0.45594000000E+02  0.51100000000E-03 0.  1.
    9900012    2    1    2    0    0  0.90070985318E+01  0.26620500186E+02 -0.29383437475E+02  0.50528865086E+02  0.30000015914E+02 0.  0.
         12    1    1    2    0    0 -0.90070985318E+01 -0.26620500186E+02  0.29383437475E+02  0.40659134914E+02  0.00000000000E+00 0. -1.
         11    1    3    3    0    0 -0.18074090250E+01  0.60816825375E+01 -0.66687463134E+01  0.92046600982E+01  0.51100000000E-03 0. -1.
        -11    1    3    3    0    0  0.13424955969E+02  0.10657574574E+02 -0.25505127843E+02  0.30729869591E+02  0.51100000000E-03 0.  1.
        -12    1    3    3    0    0 -0.26104484122E+01  0.98812430748E+01  0.27904366808E+01  0.10594335396E+02  0.00000000000E+00 0.  1.
</event>
<event>
 7    1  0.9953837E-014  0.5052886E+02  0.7816164E-02  0.1300439E+00
        -11   -1    0    0    0    0  0.00000000000E+00  0.00000000000E+00  0.45593999997E+02  0.45594000000E+02  0.51100000000E-03 0. -1.
         11   -1    0    0    0    0 -0.00000000000E+00 -0.00000000000E+00 -0.45593999997E+02  0.45594000000E+02  0.51100000000E-03 0.  1.
    9900012    2    1    2    0    0  0.11023361080E+02 -0.84362890405E+01 -0.38216230876E+02  0.50528858782E+02  0.29999996753E+02 0.  0.
         12    1    1    2    0    0 -0.11023361080E+02  0.84362890405E+01  0.38216230876E+02  0.40659141218E+02  0.00000000000E+00 0. -1.
         11    1    3    3    0    0 -0.62277094198E+01  0.14939531339E+01 -0.26764121264E+02  0.27519710171E+02  0.51100000000E-03 0. -1.
        -11    1    3    3    0    0  0.57022415739E+01 -0.29146026291E+01 -0.43707825369E+01  0.77533352628E+01  0.51100000000E-03 0.  1.
         12    1    3    3    0    0  0.11548828925E+02 -0.70156395453E+01 -0.70813270745E+01  0.15255813348E+02  0.00000000000E+00 0. -1.
</event>
<event>
 7    1  0.9953837E-014  0.5052893E+02  0.7816164E-02  0.1300439E+00
        -11   -1    0    0    0    0  0.00000000000E+00  0.00000000000E+00  0.45593999997E+02  0.45594000000E+02  0.51100000000E-03 0. -1.
         11   -1    0    0    0    0 -0.00000000000E+00 -0.00000000000E+00 -0.45593999997E+02  0.45594000000E+02  0.51100000000E-03 0.  1.
    9900012    2    1    2    0    0 -0.27285091815E+02  0.16782692058E+02 -0.25040466015E+02  0.50528930578E+02  0.30000214983E+02 0.  0.
         12    1    1    2    0    0  0.27285091815E+02 -0.16782692058E+02  0.25040466015E+02  0.40659069422E+02  0.00000000000E+00 0. -1.
         11    1    3    3    0    0  0.34668061671E+01  0.30902833754E+01  0.97671659208E+00  0.47457951813E+01  0.51100000000E-03 0. -1.
        -11    1    3    3    0    0 -0.24266893916E+02  0.15285837449E+02 -0.26552004313E+02  0.39083857283E+02  0.51100000000E-03 0.  1.
        -12    1    3    3    0    0 -0.64850040662E+01 -0.15934287671E+01  0.53482170599E+00  0.66992781128E+01  0.00000000000E+00 0.  1.
</event>
<event>
 7    1  0.9953837E-014  0.5052894E+02  0.7816164E-02  0.1300439E+00
        -11   -1    0    0    0    0  0.00000000000E+00  0.00000000000E+00  0.45593999997E+02  0.45594000000E+02  0.51100000000E-03 0.  1.
         11   -1    0    0    0    0 -0.00000000000E+00 -0.00000000000E+00 -0.45593999997E+02  0.45594000000E+02  0.51100000000E-03 0. -1.
    9900012    2    1    2    0    0  0.12127583315E+02 -0.38718204119E+02 -0.26423079834E+01  0.50528937065E+02  0.30000234702E+02 0.  0.
        -12    1    1    2    0    0 -0.12127583315E+02  0.38718204119E+02  0.26423079834E+01  0.40659062935E+02  0.00000000000E+00 0.  1.
         11    1    3    3    0    0 -0.15668964896E+01 -0.26734182866E+02 -0.42555644113E+01  0.27116075064E+02  0.51100000000E-03 0. -1.
        -11    1    3    3    0    0  0.12445255627E+02 -0.13855525699E+02  0.50575831979E+01  0.19298682030E+02  0.51100000000E-03 0.  1.
        -12    1    3    3    0    0  0.12492241773E+01  0.18715044465E+01 -0.34443267700E+01  0.41141799714E+01  0.00000000000E+00 0.  1.
</event>
<event>
 7    1  0.9953837E-014  0.5052886E+02  0.7816164E-02  0.1300439E+00
        -11   -1    0    0    0    0  0.00000000000E+00  0.00000000000E+00  0.45593999997E+02  0.45594000000E+02  0.51100000000E-03 0. -1.
         11   -1    0    0    0    0 -0.00000000000E+00 -0.00000000000E+00 -0.45593999997E+02  0.45594000000E+02  0.51100000000E-03 0.  1.
    9900012    2    1    2    0    0  0.84214638041E+01 -0.14960582779E+02 -0.36856829602E+02  0.50528856158E+02  0.29999988777E+02 0.  0.
         12    1    1    2    0    0 -0.84214638041E+01  0.14960582779E+02  0.36856829602E+02  0.40659143842E+02  0.00000000000E+00 0. -1.
         11    1    3    3    0    0 -0.26261624291E+01  0.58789770892E+01 -0.15608379084E+01  0.66253540250E+01  0.51100000000E-03 0. -1.
        -11    1    3    3    0    0  0.47541869716E+01 -0.10559162532E+02 -0.80295747896E+01  0.14091567645E+02  0.51100000000E-03 0.  1.
         12    1    3    3    0    0  0.62934392617E+01 -0.10280397336E+02 -0.27266416904E+02  0.29811934488E+02  0.00000000000E+00 0. -1.
</event>
<event>
 7    1  0.9953837E-014  0.5052886E+02  0.7816164E-02  0.1300439E+00
        -11   -1    0    0    0    0  0.00000000000E+00  0.00000000000E+00  0.45593999997E+02  0.45594000000E+02  0.51100000000E-03 0.  1.
         11   -1    0    0    0    0 -0.00000000000E+00 -0.00000000000E+00 -0.45593999997E+02  0.45594000000E+02  0.51100000000E-03 0. -1.
    9900012    2    1    2    0    0 -0.11674337821E+02 -0.35481329637E+02 -0.16060841451E+02  0.50528861488E+02  0.30000004979E+02 0.  0.
         12    1    1    2    0    0  0.11674337821E+02  0.35481329637E+02  0.16060841451E+02  0.40659138512E+02  0.00000000000E+00 0. -1.
         11    1    3    3    0    0  0.17718752048E+01 -0.64881171731E+01 -0.16598681772E+02  0.17909534975E+02  0.51100000000E-03 0. -1.
        -11    1    3    3    0    0 -0.28969259489E+00 -0.57369564838E+01  0.12965079498E+01  0.58887625713E+01  0.51100000000E-03 0.  1.
         12    1    3    3    0    0 -0.13156520431E+02 -0.23256255981E+02 -0.75866762927E+00  0.26730563942E+02  0.00000000000E+00 0. -1.
</event>
<event>
 7    1  0.1634048E-013  0.5052890E+02  0.7816164E-02  0.1300439E+00
        -11   -1    0    0    0    0  0.00000000000E+00  0.00000000000E+00  0.45593999997E+02  0.45594000000E+02  0.51100000000E-03 0. -1.
         11   -1    0    0    0    0 -0.00000000000E+00 -0.00000000000E+00 -0.45593999997E+02  0.45594000000E+02  0.51100000000E-03 0.  1.
    9900012    2    1    2    0    0 -0.16755066409E+02  0.16555695505E+02  0.33141200925E+02  0.50528898894E+02  0.30000118677E+02 0.  0.
        -12    1    1    2    0    0  0.16755066409E+02 -0.16555695505E+02 -0.33141200925E+02  0.40659101106E+02  0.00000000000E+00 0.  1.
         11    1    3    3    0    0 -0.12098944758E+02  0.16311327957E+02  0.97050258916E+01  0.22508474222E+02  0.51100000000E-03 0. -1.
        -11    1    3    3    0    0  0.20039248079E+01 -0.29407843644E+01  0.11701233900E+00  0.35605644864E+01  0.51100000000E-03 0.  1.
         12    1    3    3    0    0 -0.66600464589E+01  0.31851519133E+01  0.23319162694E+02  0.24459860186E+02  0.00000000000E+00 0. -1.
</event>
<event>
 7    1  0.9953837E-014  0.5052894E+02  0.7816164E-02  0.1300439E+00
        -11   -1    0    0    0    0  0.00000000000E+00  0.00000000000E+00  0.45593999997E+02  0.45594000000E+02  0.51100000000E-03 0. -1.
         11   -1    0    0    0    0 -0.00000000000E+00 -0.00000000000E+00 -0.45593999997E+02  0.45594000000E+02  0.51100000000E-03 0.  1.
    9900012    2    1    2    0    0 -0.14322455887E+02  0.17126520460E+02 -0.33981007239E+02  0.50528938295E+02  0.30000238442E+02 0.  0.
         12    1    1    2    0    0  0.14322455887E+02 -0.17126520460E+02  0.33981007239E+02  0.40659061705E+02  0.00000000000E+00 0. -1.
         11    1    3    3    0    0 -0.59842404021E+00  0.83852397967E+01  0.23896277599E+01  0.87396040455E+01  0.51100000000E-03 0. -1.
        -11    1    3    3    0    0 -0.79236508036E+01 -0.10160740580E-01 -0.25387152056E+02  0.26594958828E+02  0.51100000000E-03 0.  1.
        -12    1    3    3    0    0 -0.58003810427E+01  0.87514414041E+01 -0.10983482944E+02  0.15194375422E+02  0.00000000000E+00 0.  1.
</event>
<event>
 7    1  0.9953837E-014  0.5052885E+02  0.7816164E-02  0.1300439E+00
        -11   -1    0    0    0    0  0.00000000000E+00  0.00000000000E+00  0.45593999997E+02  0.45594000000E+02  0.51100000000E-03 0. -1.
         11   -1    0    0    0    0 -0.00000000000E+00 -0.00000000000E+00 -0.45593999997E+02  0.45594000000E+02  0.51100000000E-03 0.  1.
    9900012    2    1    2    0    0  0.93229195796E+01 -0.36749635726E+02 -0.14687191538E+02  0.50528854033E+02  0.29999982320E+02 0.  0.
         12    1    1    2    0    0 -0.93229195796E+01  0.36749635726E+02  0.14687191538E+02  0.40659145967E+02  0.00000000000E+00 0. -1.
         11    1    3    3    0    0  0.22102422525E+00 -0.17839351836E+02  0.31727284545E+01  0.18120638282E+02  0.51100000000E-03 0. -1.
        -11    1    3    3    0    0  0.10949347671E+02 -0.54853060132E+01 -0.13372978346E+02  0.18133211150E+02  0.51100000000E-03 0.  1.
         12    1    3    3    0    0 -0.18474523170E+01 -0.13424977877E+02 -0.44869416459E+01  0.14275004602E+02  0.00000000000E+00 0. -1.
</event>
<event>
 7    1  0.9953837E-014  0.5052886E+02  0.7816164E-02  0.1300439E+00
        -11   -1    0    0    0    0  0.00000000000E+00  0.00000000000E+00  0.45593999997E+02  0.45594000000E+02  0.51100000000E-03 0. -1.
         11   -1    0    0    0    0 -0.00000000000E+00 -0.00000000000E+00 -0.45593999997E+02  0.45594000000E+02  0.51100000000E-03 0.  1.
    9900012    2    1    2    0    0 -0.43615353287E+01  0.12372815478E+02 -0.38484493133E+02  0.50528858777E+02  0.29999996738E+02 0.  0.
         12    1    1    2    0    0  0.43615353287E+01 -0.12372815478E+02  0.38484493133E+02  0.40659141223E+02  0.00000000000E+00 0. -1.
         11    1    3    3    0    0  0.43195703889E+01  0.17024718415E+02 -0.31411854070E+02  0.35988946940E+02  0.51100000000E-03 0. -1.
        -11    1    3    3    0    0 -0.48384509410E+01 -0.21708306691E+00  0.60024188904E+00  0.48803712106E+01  0.51100000000E-03 0.  1.
         12    1    3    3    0    0 -0.38426547766E+01 -0.44348198696E+01 -0.76728809521E+01  0.96595406264E+01  0.00000000000E+00 0. -1.
</event>
<event>
 7    1  0.9953837E-014  0.5052882E+02  0.7816164E-02  0.1300439E+00
        -11   -1    0    0    0    0  0.00000000000E+00  0.00000000000E+00  0.45593999997E+02  0.45594000000E+02  0.51100000000E-03 0.  1.
         11   -1    0    0    0    0 -0.00000000000E+00 -0.00000000000E+00 -0.45593999997E+02  0.45594000000E+02  0.51100000000E-03 0. -1.
    9900012    2    1    2    0    0  0.35279836367E+02  0.49211499696E+01  0.19603162443E+02  0.50528824543E+02  0.29999892679E+02 0.  0.
         12    1    1    2    0    0 -0.35279836367E+02 -0.49211499696E+01 -0.19603162443E+02  0.40659175457E+02  0.00000000000E+00 0. -1.
         11    1    3    3    0    0 -0.19844543954E+01  0.73533146253E+01 -0.11150607512E+01  0.76975746808E+01  0.51100000000E-03 0. -1.
        -11    1    3    3    0    0  0.30007715558E+02 -0.26257088004E+01  0.15387465334E+02  0.33825011890E+02  0.51100000000E-03 0.  1.
         12    1    3    3    0    0  0.72565752046E+01  0.19354414471E+00  0.53307578600E+01  0.90062379715E+01  0.00000000000E+00 0. -1.
</event>
<event>
 7    1  0.9953837E-014  0.5052886E+02  0.7816164E-02  0.1300439E+00
        -11   -1    0    0    0    0  0.00000000000E+00  0.00000000000E+00  0.45593999997E+02  0.45594000000E+02  0.51100000000E-03 0. -1.
         11   -1    0    0    0    0 -0.00000000000E+00 -0.00000000000E+00 -0.45593999997E+02  0.45594000000E+02  0.51100000000E-03 0.  1.
    9900012    2    1    2    0    0  0.11916880900E+02 -0.91965905418E+01 -0.37770047085E+02  0.50528858533E+02  0.29999995998E+02 0.  0.
         12    1    1    2    0    0 -0.11916880900E+02  0.91965905418E+01  0.37770047085E+02  0.40659141467E+02  0.00000000000E+00 0. -1.
         11    1    3    3    0    0  0.10309184138E+02  0.21923902215E+01 -0.11914159466E+02  0.15907012558E+02  0.51100000000E-03 0. -1.
        -11    1    3    3    0    0  0.32293456138E+01 -0.16583030298E+02 -0.22812534503E+02  0.28387273516E+02  0.51100000000E-03 0.  1.
        -12    1    3    3    0    0 -0.16216488516E+01  0.51940495345E+01 -0.30433531164E+01  0.62345724598E+01  0.00000000000E+00 0.  1.
</event>
<event>
 7    1  0.9953837E-014  0.5052885E+02  0.7816164E-02  0.1300439E+00
        -11   -1    0    0    0    0  0.00000000000E+00  0.00000000000E+00  0.45593999997E+02  0.45594000000E+02  0.51100000000E-03 0. -1.
         11   -1    0    0    0    0 -0.00000000000E+00 -0.00000000000E+00 -0.45593999997E+02  0.45594000000E+02  0.51100000000E-03 0.  1.
    9900012    2    1    2    0    0  0.99263966243E+01  0.92386628141E+01  0.38331189242E+02  0.50528852085E+02  0.29999976396E+02 0.  0.
        -12    1    1    2    0    0 -0.99263966243E+01 -0.92386628141E+01 -0.38331189242E+02  0.40659147915E+02  0.00000000000E+00 0.  1.
         11    1    3    3    0    0  0.74579002094E+01  0.17665085958E+01  0.73842347385E+01  0.10642732313E+02  0.51100000000E-03 0.  1.
        -11    1    3    3    0    0 -0.43541187125E+01  0.13456647483E+02  0.25878613083E+02  0.29491394111E+02  0.51100000000E-03 0. -1.
        -12    1    3    3    0    0  0.68226151274E+01 -0.59844932645E+01  0.50683414197E+01  0.10394725660E+02  0.00000000000E+00 0.  1.
</event>
<event>
 7    1  0.9953837E-014  0.5052885E+02  0.7816164E-02  0.1300439E+00
        -11   -1    0    0    0    0  0.00000000000E+00  0.00000000000E+00  0.45593999997E+02  0.45594000000E+02  0.51100000000E-03 0. -1.
         11   -1    0    0    0    0 -0.00000000000E+00 -0.00000000000E+00 -0.45593999997E+02  0.45594000000E+02  0.51100000000E-03 0.  1.
    9900012    2    1    2    0    0 -0.19954936389E+02 -0.14358601015E+02 -0.32385149046E+02  0.50528846195E+02  0.29999958495E+02 0.  0.
         12    1    1    2    0    0  0.19954936389E+02  0.14358601015E+02  0.32385149046E+02  0.40659153805E+02  0.00000000000E+00 0. -1.
         11    1    3    3    0    0 -0.87936762379E+01 -0.49437448398E+01 -0.58243691902E+01  0.11648718021E+02  0.51100000000E-03 0. -1.
        -11    1    3    3    0    0 -0.61705296919E+01 -0.97688703218E+01 -0.30433532363E+02  0.32553128212E+02  0.51100000000E-03 0.  1.
        -12    1    3    3    0    0 -0.49907304591E+01  0.35401414656E+00  0.38727525072E+01  0.63269999615E+01  0.00000000000E+00 0.  1.
</event>
<event>
 7    1  0.9953837E-014  0.5052874E+02  0.7816164E-02  0.1300439E+00
        -11   -1    0    0    0    0  0.00000000000E+00  0.00000000000E+00  0.45593999997E+02  0.45594000000E+02  0.51100000000E-03 0.  1.
         11   -1    0    0    0    0 -0.00000000000E+00 -0.00000000000E+00 -0.45593999997E+02  0.45594000000E+02  0.51100000000E-03 0. -1.
    9900012    2    1    2    0    0  0.14968309786E+02  0.32856277536E+02 -0.18697340223E+02  0.50528735339E+02  0.29999621535E+02 0.  0.
         12    1    1    2    0    0 -0.14968309786E+02 -0.32856277536E+02  0.18697340223E+02  0.40659264661E+02  0.00000000000E+00 0. -1.
         11    1    3    3    0    0  0.46584455031E+01  0.20106351183E+02  0.52432832564E-01  0.20639021824E+02  0.51100000000E-03 0.  1.
        -11    1    3    3    0    0  0.10878623050E+02  0.89552969629E+01 -0.21113183289E+02  0.25383228558E+02  0.51100000000E-03 0. -1.
         12    1    3    3    0    0 -0.56875876722E+00  0.37946293897E+01  0.23634102336E+01  0.45064849575E+01  0.00000000000E+00 0. -1.
</event>
<event>
 7    1  0.9953837E-014  0.5052884E+02  0.7816164E-02  0.1300439E+00
        -11   -1    0    0    0    0  0.00000000000E+00  0.00000000000E+00  0.45593999997E+02  0.45594000000E+02  0.51100000000E-03 0. -1.
         11   -1    0    0    0    0 -0.00000000000E+00 -0.00000000000E+00 -0.45593999997E+02  0.45594000000E+02  0.51100000000E-03 0.  1.
    9900012    2    1    2    0    0  0.15380385892E+02 -0.13592984422E+02 -0.35097603974E+02  0.50528839896E+02  0.29999939347E+02 0.  0.
         12    1    1    2    0    0 -0.15380385892E+02  0.13592984422E+02  0.35097603974E+02  0.40659160104E+02  0.00000000000E+00 0. -1.
         11    1    3    3    0    0 -0.19386170687E+01  0.22022529475E+01 -0.22465853279E+02  0.22656626360E+02  0.51100000000E-03 0. -1.
        -11    1    3    3    0    0  0.36222362064E+01 -0.83493961577E+01 -0.31791065552E+01  0.96405254049E+01  0.51100000000E-03 0.  1.
         12    1    3    3    0    0  0.13696766754E+02 -0.74458412116E+01 -0.94526441397E+01  0.18231688131E+02  0.00000000000E+00 0. -1.
</event>
<event>
 7    1  0.9953837E-014  0.5052888E+02  0.7816164E-02  0.1300439E+00
        -11   -1    0    0    0    0  0.00000000000E+00  0.00000000000E+00  0.45593999997E+02  0.45594000000E+02  0.51100000000E-03 0. -1.
         11   -1    0    0    0    0 -0.00000000000E+00 -0.00000000000E+00 -0.45593999997E+02  0.45594000000E+02  0.51100000000E-03 0.  1.
    9900012    2    1    2    0    0  0.17854349817E+02 -0.12568432259E+02 -0.34298986721E+02  0.50528883102E+02  0.30000070677E+02 0.  0.
         12    1    1    2    0    0 -0.17854349817E+02  0.12568432259E+02  0.34298986721E+02  0.40659116898E+02  0.00000000000E+00 0. -1.
         11    1    3    3    0    0  0.13120709155E+02 -0.18704328848E+02 -0.11077871537E+02  0.25391419111E+02  0.51100000000E-03 0. -1.
        -11    1    3    3    0    0  0.57931255594E+01  0.39796074158E+01 -0.14864637239E+02  0.16442476074E+02  0.51100000000E-03 0.  1.
         12    1    3    3    0    0 -0.10594848972E+01  0.21562891732E+01 -0.83564779448E+01  0.86949879176E+01  0.00000000000E+00 0. -1.
</event>
<event>
 7    1  0.9953837E-014  0.5052886E+02  0.7816164E-02  0.1300439E+00
        -11   -1    0    0    0    0  0.00000000000E+00  0.00000000000E+00  0.45593999997E+02  0.45594000000E+02  0.51100000000E-03 0. -1.
         11   -1    0    0    0    0 -0.00000000000E+00 -0.00000000000E+00 -0.45593999997E+02  0.45594000000E+02  0.51100000000E-03 0.  1.
    9900012    2    1    2    0    0 -0.20843360380E+02  0.58067855906E+01 -0.34423844961E+02  0.50528861633E+02  0.30000005420E+02 0.  0.
         12    1    1    2    0    0  0.20843360380E+02 -0.58067855906E+01  0.34423844961E+02  0.40659138367E+02  0.00000000000E+00 0. -1.
         11    1    3    3    0    0 -0.15993093316E+02  0.67453938424E+00 -0.79780256842E+01  0.17885271350E+02  0.51100000000E-03 0. -1.
        -11    1    3    3    0    0  0.29127470286E+01  0.37503717215E+01  0.30155262363E+00  0.47581842701E+01  0.51100000000E-03 0.  1.
        -12    1    3    3    0    0 -0.77630140928E+01  0.13818744849E+01 -0.26747371901E+02  0.27885406013E+02  0.00000000000E+00 0.  1.
</event>
<event>
 7    1  0.9953837E-014  0.5052885E+02  0.7816164E-02  0.1300439E+00
        -11   -1    0    0    0    0  0.00000000000E+00  0.00000000000E+00  0.45593999997E+02  0.45594000000E+02  0.51100000000E-03 0. -1.
         11   -1    0    0    0    0 -0.00000000000E+00 -0.00000000000E+00 -0.45593999997E+02  0.45594000000E+02  0.51100000000E-03 0.  1.
    9900012    2    1    2    0    0 -0.20345148268E+02  0.15311703409E+02 -0.31698467151E+02  0.50528854177E+02  0.29999982757E+02 0.  0.
         12    1    1    2    0    0  0.20345148268E+02 -0.15311703409E+02  0.31698467151E+02  0.40659145823E+02  0.00000000000E+00 0. -1.
         11    1    3    3    0    0  0.28306667631E+00  0.97338555903E+01 -0.24402761146E+01  0.10039074617E+02  0.51100000000E-03 0. -1.
        -11    1    3    3    0    0 -0.10656102425E+02  0.10309458732E+01 -0.17100737947E+01  0.10841573730E+02  0.51100000000E-03 0.  1.
        -12    1    3    3    0    0 -0.99721125192E+01  0.45469019451E+01 -0.27548117242E+02  0.29648205830E+02  0.00000000000E+00 0.  1.
</event>
<event>
 7    1  0.9953837E-014  0.5052886E+02  0.7816164E-02  0.1300439E+00
        -11   -1    0    0    0    0  0.00000000000E+00  0.00000000000E+00  0.45593999997E+02  0.45594000000E+02  0.51100000000E-03 0. -1.
         11   -1    0    0    0    0 -0.00000000000E+00 -0.00000000000E+00 -0.45593999997E+02  0.45594000000E+02  0.51100000000E-03 0.  1.
    9900012    2    1    2    0    0 -0.10840195714E+02 -0.15270054149E+02 -0.36089900799E+02  0.50528864047E+02  0.30000012756E+02 0.  0.
         12    1    1    2    0    0  0.10840195714E+02  0.15270054149E+02  0.36089900799E+02  0.40659135953E+02  0.00000000000E+00 0. -1.
         11    1    3    3    0    0  0.12093947295E+00 -0.44602015548E+01 -0.31421984509E+02  0.31737188518E+02  0.51100000000E-03 0. -1.
        -11    1    3    3    0    0 -0.96063879377E+01 -0.12512721776E+02 -0.50884564120E+01  0.16575381877E+02  0.51100000000E-03 0.  1.
         12    1    3    3    0    0 -0.13547472488E+01  0.17028691816E+01  0.42054012218E+00  0.22162936521E+01  0.00000000000E+00 0. -1.
</event>
<event>
 7    1  0.9953837E-014  0.5052886E+02  0.7816164E-02  0.1300439E+00
        -11   -1    0    0    0    0  0.00000000000E+00  0.00000000000E+00  0.45593999997E+02  0.45594000000E+02  0.51100000000E-03 0. -1.
         11   -1    0    0    0    0 -0.00000000000E+00 -0.00000000000E+00 -0.45593999997E+02  0.45594000000E+02  0.51100000000E-03 0.  1.
    9900012    2    1    2    0    0 -0.10543219953E+02  0.50119704157E+01 -0.38947224715E+02  0.50528860222E+02  0.30000001132E+02 0.  0.
         12    1    1    2    0    0  0.10543219953E+02 -0.50119704157E+01  0.38947224715E+02  0.40659139778E+02  0.00000000000E+00 0. -1.
         11    1    3    3    0    0 -0.83961528080E+01 -0.64177452513E+01 -0.25785490872E+01  0.10878039885E+02  0.51100000000E-03 0. -1.
        -11    1    3    3    0    0 -0.46854264955E+01  0.11061034511E+01 -0.15497686460E+02  0.16228215310E+02  0.51100000000E-03 0.  1.
         12    1    3    3    0    0  0.25383593506E+01  0.10323612216E+02 -0.20870989168E+02  0.23422605027E+02  0.00000000000E+00 0. -1.
</event>
<event>
 7    1  0.9953837E-014  0.5052888E+02  0.7816164E-02  0.1300439E+00
        -11   -1    0    0    0    0  0.00000000000E+00  0.00000000000E+00  0.45593999997E+02  0.45594000000E+02  0.51100000000E-03 0. -1.
         11   -1    0    0    0    0 -0.00000000000E+00 -0.00000000000E+00 -0.45593999997E+02  0.45594000000E+02  0.51100000000E-03 0.  1.
    9900012    2    1    2    0    0  0.34304367190E+02 -0.13259734768E+02  0.17336492268E+02  0.50528878778E+02  0.30000057532E+02 0.  0.
        -12    1    1    2    0    0 -0.34304367190E+02  0.13259734768E+02 -0.17336492268E+02  0.40659121222E+02  0.00000000000E+00 0.  1.
         11    1    3    3    0    0  0.73253912634E+01  0.30712307050E+01  0.16507362166E+02  0.18319028936E+02  0.51100000000E-03 0. -1.
        -11    1    3    3    0    0 -0.30440382592E+00 -0.57008076272E+00  0.25877321397E+00  0.69614481442E+00  0.51100000000E-03 0.  1.
         12    1    3    3    0    0  0.27283379753E+02 -0.15760884710E+02  0.57035688765E+00  0.31513705027E+02  0.00000000000E+00 0. -1.
</event>
<event>
 7    1  0.9953837E-014  0.5052886E+02  0.7816164E-02  0.1300439E+00
        -11   -1    0    0    0    0  0.00000000000E+00  0.00000000000E+00  0.45593999997E+02  0.45594000000E+02  0.51100000000E-03 0. -1.
         11   -1    0    0    0    0 -0.00000000000E+00 -0.00000000000E+00 -0.45593999997E+02  0.45594000000E+02  0.51100000000E-03 0.  1.
    9900012    2    1    2    0    0  0.34835247302E+02 -0.11818157950E+02 -0.17320579435E+02  0.50528858544E+02  0.29999996031E+02 0.  0.
         12    1    1    2    0    0 -0.34835247302E+02  0.11818157950E+02  0.17320579435E+02  0.40659141456E+02  0.00000000000E+00 0. -1.
         11    1    3    3    0    0 -0.87535384640E+00  0.42650173893E+01 -0.85533578017E+00  0.44371406610E+01  0.51100000000E-03 0.  1.
        -11    1    3    3    0    0  0.17426044664E+02 -0.12930554295E+02 -0.64596102479E+00  0.21709065685E+02  0.51100000000E-03 0. -1.
        -12    1    3    3    0    0  0.18284556484E+02 -0.31526210448E+01 -0.15819282630E+02  0.24382652198E+02  0.00000000000E+00 0.  1.
</event>
<event>
 7    1  0.9953837E-014  0.5052887E+02  0.7816164E-02  0.1300439E+00
        -11   -1    0    0    0    0  0.00000000000E+00  0.00000000000E+00  0.45593999997E+02  0.45594000000E+02  0.51100000000E-03 0. -1.
         11   -1    0    0    0    0 -0.00000000000E+00 -0.00000000000E+00 -0.45593999997E+02  0.45594000000E+02  0.51100000000E-03 0.  1.
    9900012    2    1    2    0    0  0.18072061866E+02 -0.17145825124E+02 -0.32133884263E+02  0.50528865022E+02  0.30000015722E+02 0.  0.
         12    1    1    2    0    0 -0.18072061866E+02  0.17145825124E+02  0.32133884263E+02  0.40659134978E+02  0.00000000000E+00 0. -1.
         11    1    3    3    0    0  0.42327464014E+01  0.22598990972E+01 -0.21387760468E+02  0.21919388316E+02  0.51100000000E-03 0.  1.
        -11    1    3    3    0    0  0.14464190124E+02 -0.11252387158E+02 -0.70362085950E+01  0.19630008771E+02  0.51100000000E-03 0. -1.
        -12    1    3    3    0    0 -0.62487465944E+00 -0.81533370639E+01 -0.37099152002E+01  0.89794679358E+01  0.00000000000E+00 0.  1.
</event>
<event>
 7    1  0.9953837E-014  0.5052886E+02  0.7816164E-02  0.1300439E+00
        -11   -1    0    0    0    0  0.00000000000E+00  0.00000000000E+00  0.45593999997E+02  0.45594000000E+02  0.51100000000E-03 0. -1.
         11   -1    0    0    0    0 -0.00000000000E+00 -0.00000000000E+00 -0.45593999997E+02  0.45594000000E+02  0.51100000000E-03 0.  1.
    9900012    2    1    2    0    0  0.10015615499E+02  0.10830997251E+02  0.37888551936E+02  0.50528862981E+02  0.30000009518E+02 0.  0.
        -12    1    1    2    0    0 -0.10015615499E+02 -0.10830997251E+02 -0.37888551936E+02  0.40659137019E+02  0.00000000000E+00 0.  1.
         11    1    3    3    0    0  0.14436570509E+02  0.85410166503E+01  0.40540039596E+02  0.43873207589E+02  0.51100000000E-03 0. -1.
        -11    1    3    3    0    0 -0.20198023539E+01  0.27381095351E+01 -0.57712461000E+00  0.34510749705E+01  0.51100000000E-03 0.  1.
         12    1    3    3    0    0 -0.24011526559E+01 -0.44812893414E+00 -0.20743630492E+01  0.32045804216E+01  0.00000000000E+00 0. -1.
</event>
<event>
 7    1  0.9953837E-014  0.5052886E+02  0.7816164E-02  0.1300439E+00
        -11   -1    0    0    0    0  0.00000000000E+00  0.00000000000E+00  0.45593999997E+02  0.45594000000E+02  0.51100000000E-03 0.  1.
         11   -1    0    0    0    0 -0.00000000000E+00 -0.00000000000E+00 -0.45593999997E+02  0.45594000000E+02  0.51100000000E-03 0. -1.
    9900012    2    1    2    0    0 -0.24393649881E+02 -0.24027871374E+01  0.32439819298E+02  0.50528863061E+02  0.30000009761E+02 0.  0.
        -12    1    1    2    0    0  0.24393649881E+02  0.24027871374E+01 -0.32439819298E+02  0.40659136939E+02  0.00000000000E+00 0.  1.
         11    1    3    3    0    0 -0.17740383553E+02 -0.58334260353E+01  0.34169370604E+02  0.38939645037E+02  0.51100000000E-03 0. -1.
        -11    1    3    3    0    0  0.38511391230E+00  0.43389206716E+01 -0.85061165899E+00  0.44382525588E+01  0.51100000000E-03 0.  1.
         12    1    3    3    0    0 -0.70383802398E+01 -0.90828177373E+00 -0.87893964703E+00  0.71509654652E+01  0.00000000000E+00 0. -1.
</event>
<event>
 7    1  0.9953837E-014  0.5052886E+02  0.7816164E-02  0.1300439E+00
        -11   -1    0    0    0    0  0.00000000000E+00  0.00000000000E+00  0.45593999997E+02  0.45594000000E+02  0.51100000000E-03 0. -1.
         11   -1    0    0    0    0 -0.00000000000E+00 -0.00000000000E+00 -0.45593999997E+02  0.45594000000E+02  0.51100000000E-03 0.  1.
    9900012    2    1    2    0    0 -0.48511067735E+01  0.16834767664E+01 -0.40333586132E+02  0.50528862020E+02  0.30000006597E+02 0.  0.
         12    1    1    2    0    0  0.48511067735E+01 -0.16834767664E+01  0.40333586132E+02  0.40659137980E+02  0.00000000000E+00 0. -1.
         11    1    3    3    0    0 -0.18134165016E+01 -0.11964050731E+02 -0.82065578025E+01  0.14621032130E+02  0.51100000000E-03 0. -1.
        -11    1    3    3    0    0 -0.37956136049E+01  0.81712957222E+01 -0.26624821524E+02  0.28107968227E+02  0.51100000000E-03 0.  1.
         12    1    3    3    0    0  0.75792333304E+00  0.54762317754E+01 -0.55022068060E+01  0.77998616637E+01  0.00000000000E+00 0. -1.
</event>
<event>
 7    1  0.9953837E-014  0.5052886E+02  0.7816164E-02  0.1300439E+00
        -11   -1    0    0    0    0  0.00000000000E+00  0.00000000000E+00  0.45593999997E+02  0.45594000000E+02  0.51100000000E-03 0. -1.
         11   -1    0    0    0    0 -0.00000000000E+00 -0.00000000000E+00 -0.45593999997E+02  0.45594000000E+02  0.51100000000E-03 0.  1.
    9900012    2    1    2    0    0 -0.10362226795E+02 -0.21293988648E+02  0.33050805217E+02  0.50528862992E+02  0.30000009550E+02 0.  0.
        -12    1    1    2    0    0  0.10362226795E+02  0.21293988648E+02 -0.33050805217E+02  0.40659137008E+02  0.00000000000E+00 0.  1.
         11    1    3    3    0    0  0.58511396359E+01  0.65468528935E+00  0.12675270268E+02  0.13975940916E+02  0.51100000000E-03 0. -1.
        -11    1    3    3    0    0 -0.13295557770E+02 -0.20004412213E+02  0.10763055969E+02  0.26320937264E+02  0.51100000000E-03 0.  1.
        -12    1    3    3    0    0 -0.29178086609E+01 -0.19442617252E+01  0.96124789807E+01  0.10231984812E+02  0.00000000000E+00 0.  1.
</event>
<event>
 7    1  0.9953837E-014  0.5052886E+02  0.7816164E-02  0.1300439E+00
        -11   -1    0    0    0    0  0.00000000000E+00  0.00000000000E+00  0.45593999997E+02  0.45594000000E+02  0.51100000000E-03 0. -1.
         11   -1    0    0    0    0 -0.00000000000E+00 -0.00000000000E+00 -0.45593999997E+02  0.45594000000E+02  0.51100000000E-03 0.  1.
    9900012    2    1    2    0    0 -0.44126209132E+01 -0.15606918394E+02  0.37284295257E+02  0.50528858372E+02  0.29999995508E+02 0.  0.
        -12    1    1    2    0    0  0.44126209132E+01  0.15606918394E+02 -0.37284295257E+02  0.40659141628E+02  0.00000000000E+00 0.  1.
         11    1    3    3    0    0 -0.25517388819E+01 -0.19032747904E+02  0.27301427986E+02  0.33378508571E+02  0.51100000000E-03 0. -1.
        -11    1    3    3    0    0 -0.16531784573E+01  0.12802055719E+01  0.13152217016E+02  0.13317384804E+02  0.51100000000E-03 0.  1.
         12    1    3    3    0    0 -0.20770357391E+00  0.21456239381E+01 -0.31693497450E+01  0.38329649965E+01  0.00000000000E+00 0. -1.
</event>
<event>
 7    1  0.9953837E-014  0.5052887E+02  0.7816164E-02  0.1300439E+00
        -11   -1    0    0    0    0  0.00000000000E+00  0.00000000000E+00  0.45593999997E+02  0.45594000000E+02  0.51100000000E-03 0.  1.
         11   -1    0    0    0    0 -0.00000000000E+00 -0.00000000000E+00 -0.45593999997E+02  0.45594000000E+02  0.51100000000E-03 0. -1.
    9900012    2    1    2    0    0  0.28047959664E+02  0.23133870617E+02  0.18201667893E+02  0.50528871564E+02  0.30000035607E+02 0.  0.
        -12    1    1    2    0    0 -0.28047959664E+02 -0.23133870617E+02 -0.18201667893E+02  0.40659128436E+02  0.00000000000E+00 0.  1.
         11    1    3    3    0    0  0.19831791022E+02  0.22275005971E+02 -0.54518166351E+00  0.29829063838E+02  0.51100000000E-03 0. -1.
        -11    1    3    3    0    0  0.71067058475E+01  0.94480539828E+00  0.17956864163E+02  0.19335120793E+02  0.51100000000E-03 0.  1.
         12    1    3    3    0    0  0.11094627942E+01 -0.85940751519E-01  0.78998539367E+00  0.13646869336E+01  0.00000000000E+00 0. -1.
</event>
<event>
 7    1  0.9953837E-014  0.5052885E+02  0.7816164E-02  0.1300439E+00
        -11   -1    0    0    0    0  0.00000000000E+00  0.00000000000E+00  0.45593999997E+02  0.45594000000E+02  0.51100000000E-03 0. -1.
         11   -1    0    0    0    0 -0.00000000000E+00 -0.00000000000E+00 -0.45593999997E+02  0.45594000000E+02  0.51100000000E-03 0.  1.
    9900012    2    1    2    0    0 -0.16029065324E+02 -0.78018548892E+01  0.36542668244E+02  0.50528850018E+02  0.29999970116E+02 0.  0.
        -12    1    1    2    0    0  0.16029065324E+02  0.78018548892E+01 -0.36542668244E+02  0.40659149982E+02  0.00000000000E+00 0.  1.
         11    1    3    3    0    0  0.64853295530E+01 -0.27031813750E+00  0.84323597747E+01  0.10641299871E+02  0.51100000000E-03 0. -1.
        -11    1    3    3    0    0 -0.15789709870E+02 -0.11752828580E+02  0.15807797525E+02  0.25245403151E+02  0.51100000000E-03 0.  1.
        -12    1    3    3    0    0 -0.67246850071E+01  0.42212918284E+01  0.12302510944E+02  0.14642146997E+02  0.00000000000E+00 0.  1.
</event>
<event>
 7    1  0.9953837E-014  0.5052884E+02  0.7816164E-02  0.1300439E+00
        -11   -1    0    0    0    0  0.00000000000E+00  0.00000000000E+00  0.45593999997E+02  0.45594000000E+02  0.51100000000E-03 0. -1.
         11   -1    0    0    0    0 -0.00000000000E+00 -0.00000000000E+00 -0.45593999997E+02  0.45594000000E+02  0.51100000000E-03 0.  1.
    9900012    2    1    2    0    0  0.30831751932E+02  0.21642983978E+01  0.26417539733E+02  0.50528837191E+02  0.29999931126E+02 0.  0.
        -12    1    1    2    0    0 -0.30831751932E+02 -0.21642983978E+01 -0.26417539733E+02  0.40659162809E+02  0.00000000000E+00 0.  1.
         11    1    3    3    0    0  0.85945003814E+01 -0.68536249740E+01  0.16541233917E+02  0.19860766145E+02  0.51100000000E-03 0. -1.
        -11    1    3    3    0    0  0.18018081540E+02  0.74584115912E+00  0.13875289569E+01  0.18086812275E+02  0.51100000000E-03 0.  1.
        -12    1    3    3    0    0  0.42191700112E+01  0.82720822126E+01  0.84887768588E+01  0.12581258771E+02  0.00000000000E+00 0.  1.
</event>
<event>
 7    1  0.9953837E-014  0.5052888E+02  0.7816164E-02  0.1300439E+00
        -11   -1    0    0    0    0  0.00000000000E+00  0.00000000000E+00  0.45593999997E+02  0.45594000000E+02  0.51100000000E-03 0. -1.
         11   -1    0    0    0    0 -0.00000000000E+00 -0.00000000000E+00 -0.45593999997E+02  0.45594000000E+02  0.51100000000E-03 0.  1.
    9900012    2    1    2    0    0  0.26671381437E+02 -0.69172068859E+01  0.29899063470E+02  0.50528876359E+02  0.30000050182E+02 0.  0.
        -12    1    1    2    0    0 -0.26671381437E+02  0.69172068859E+01 -0.29899063470E+02  0.40659123641E+02  0.00000000000E+00 0.  1.
         11    1    3    3    0    0  0.17360573000E+02 -0.10884859209E+02  0.15599270244E+02  0.25752803484E+02  0.51100000000E-03 0. -1.
        -11    1    3    3    0    0  0.74320207323E+01  0.76522038559E+01  0.16831268776E+02  0.19926935663E+02  0.51100000000E-03 0.  1.
        -12    1    3    3    0    0  0.18787877047E+01 -0.36845515331E+01 -0.25314755510E+01  0.48491372124E+01  0.00000000000E+00 0.  1.
</event>
<event>
 7    1  0.9953837E-014  0.5052885E+02  0.7816164E-02  0.1300439E+00
        -11   -1    0    0    0    0  0.00000000000E+00  0.00000000000E+00  0.45593999997E+02  0.45594000000E+02  0.51100000000E-03 0. -1.
         11   -1    0    0    0    0 -0.00000000000E+00 -0.00000000000E+00 -0.45593999997E+02  0.45594000000E+02  0.51100000000E-03 0.  1.
    9900012    2    1    2    0    0 -0.23210447687E+02  0.14471613042E+01 -0.33351871889E+02  0.50528849540E+02  0.29999968661E+02 0.  0.
         12    1    1    2    0    0  0.23210447687E+02 -0.14471613042E+01  0.33351871889E+02  0.40659150460E+02  0.00000000000E+00 0. -1.
         11    1    3    3    0    0  0.40067776400E+01 -0.38544123055E+00 -0.71467886235E+00  0.40882267716E+01  0.51100000000E-03 0. -1.
        -11    1    3    3    0    0 -0.19484930120E+02 -0.71412667913E+01 -0.17019710791E+02  0.26838978163E+02  0.51100000000E-03 0.  1.
        -12    1    3    3    0    0 -0.77322952061E+01  0.89738693260E+01 -0.15617482236E+02  0.19601644605E+02  0.00000000000E+00 0.  1.
</event>
<event>
 7    1  0.9953837E-014  0.5052886E+02  0.7816164E-02  0.1300439E+00
        -11   -1    0    0    0    0  0.00000000000E+00  0.00000000000E+00  0.45593999997E+02  0.45594000000E+02  0.51100000000E-03 0. -1.
         11   -1    0    0    0    0 -0.00000000000E+00 -0.00000000000E+00 -0.45593999997E+02  0.45594000000E+02  0.51100000000E-03 0.  1.
    9900012    2    1    2    0    0 -0.40163775747E+02 -0.10980263123E+01  0.62314689876E+01  0.50528858964E+02  0.29999997308E+02 0.  0.
        -12    1    1    2    0    0  0.40163775747E+02  0.10980263123E+01 -0.62314689876E+01  0.40659141036E+02  0.00000000000E+00 0.  1.
         11    1    3    3    0    0 -0.22081639442E+02 -0.34051690489E+01  0.15080480009E+02  0.26955794447E+02  0.51100000000E-03 0. -1.
        -11    1    3    3    0    0 -0.59737215372E+01 -0.48557091176E+01 -0.41179690445E+01  0.87304598591E+01  0.51100000000E-03 0.  1.
         12    1    3    3    0    0 -0.12108414768E+02  0.71628518542E+01 -0.47310419768E+01  0.14842604659E+02  0.00000000000E+00 0. -1.
</event>
<event>
 7    1  0.1005759E-013  0.5052884E+02  0.7816164E-02  0.1300439E+00
        -11   -1    0    0    0    0  0.00000000000E+00  0.00000000000E+00  0.45593999997E+02  0.45594000000E+02  0.51100000000E-03 0. -1.
         11   -1    0    0    0    0 -0.00000000000E+00 -0.00000000000E+00 -0.45593999997E+02  0.45594000000E+02  0.51100000000E-03 0.  1.
    9900012    2    1    2    0    0  0.21536685185E+02 -0.17492071361E+01  0.34442392065E+02  0.50528844751E+02  0.29999954106E+02 0.  0.
        -12    1    1    2    0    0 -0.21536685185E+02  0.17492071361E+01 -0.34442392065E+02  0.40659155249E+02  0.00000000000E+00 0.  1.
         11    1    3    3    0    0 -0.68165256788E+00  0.58142708026E+01 -0.89093320259E-01  0.58547701125E+01  0.51100000000E-03 0. -1.
        -11    1    3    3    0    0  0.12892056684E+02 -0.10668477725E+02  0.13651057324E+02  0.21595668752E+02  0.51100000000E-03 0.  1.
         12    1    3    3    0    0  0.93262810693E+01  0.31049997861E+01  0.20880428061E+02  0.23078405887E+02  0.00000000000E+00 0. -1.
</event>
<event>
 7    1  0.9953837E-014  0.5052884E+02  0.7816164E-02  0.1300439E+00
        -11   -1    0    0    0    0  0.00000000000E+00  0.00000000000E+00  0.45593999997E+02  0.45594000000E+02  0.51100000000E-03 0. -1.
         11   -1    0    0    0    0 -0.00000000000E+00 -0.00000000000E+00 -0.45593999997E+02  0.45594000000E+02  0.51100000000E-03 0.  1.
    9900012    2    1    2    0    0 -0.87129229479E+01  0.88753444708E+01  0.38710214350E+02  0.50528837923E+02  0.29999933351E+02 0.  0.
        -12    1    1    2    0    0  0.87129229479E+01 -0.88753444708E+01 -0.38710214350E+02  0.40659162077E+02  0.00000000000E+00 0.  1.
         11    1    3    3    0    0 -0.11919539398E+02  0.17449589866E+02  0.19350140033E+02  0.28652949683E+02  0.51100000000E-03 0. -1.
        -11    1    3    3    0    0 -0.95314762683E+00 -0.27465037053E+01  0.71944897913E+01  0.77596685896E+01  0.51100000000E-03 0.  1.
         12    1    3    3    0    0  0.41597640770E+01 -0.58277416901E+01  0.12165584525E+02  0.14116219651E+02  0.00000000000E+00 0. -1.
</event>
<event>
 7    1  0.9953837E-014  0.5052884E+02  0.7816164E-02  0.1300439E+00
        -11   -1    0    0    0    0  0.00000000000E+00  0.00000000000E+00  0.45593999997E+02  0.45594000000E+02  0.51100000000E-03 0. -1.
         11   -1    0    0    0    0 -0.00000000000E+00 -0.00000000000E+00 -0.45593999997E+02  0.45594000000E+02  0.51100000000E-03 0.  1.
    9900012    2    1    2    0    0 -0.18900564347E+02 -0.38695573774E+01 -0.35790537990E+02  0.50528838467E+02  0.29999935005E+02 0.  0.
         12    1    1    2    0    0  0.18900564347E+02  0.38695573774E+01  0.35790537990E+02  0.40659161533E+02  0.00000000000E+00 0. -1.
         11    1    3    3    0    0  0.21627662074E+01 -0.57806016251E+01  0.25960613974E+01  0.66957036864E+01  0.51100000000E-03 0. -1.
        -11    1    3    3    0    0 -0.19255123104E+02  0.15809526982E+01 -0.34819299108E+02  0.39820130184E+02  0.51100000000E-03 0.  1.
         12    1    3    3    0    0 -0.18082074505E+01  0.33009154946E+00 -0.35673002791E+01  0.40130045971E+01  0.00000000000E+00 0. -1.
</event>
<event>
 7    1  0.1606377E-013  0.5052886E+02  0.7816164E-02  0.1300439E+00
        -11   -1    0    0    0    0  0.00000000000E+00  0.00000000000E+00  0.45593999997E+02  0.45594000000E+02  0.51100000000E-03 0. -1.
         11   -1    0    0    0    0 -0.00000000000E+00 -0.00000000000E+00 -0.45593999997E+02  0.45594000000E+02  0.51100000000E-03 0.  1.
    9900012    2    1    2    0    0 -0.69647843407E+01 -0.19316966960E+02  0.35092903563E+02  0.50528864323E+02  0.30000013598E+02 0.  0.
        -12    1    1    2    0    0  0.69647843407E+01  0.19316966960E+02 -0.35092903563E+02  0.40659135677E+02  0.00000000000E+00 0.  1.
         11    1    3    3    0    0  0.17047661279E+01 -0.13301084055E+02  0.28619295882E+02  0.31605207825E+02  0.51100000000E-03 0. -1.
        -11    1    3    3    0    0  0.23616954774E+01  0.17380002938E+01 -0.14635879253E+01  0.32772458598E+01  0.51100000000E-03 0.  1.
         12    1    3    3    0    0 -0.11031245946E+02 -0.77538831994E+01  0.79371956065E+01  0.15646410639E+02  0.00000000000E+00 0. -1.
</event>
<event>
 7    1  0.9953837E-014  0.5052886E+02  0.7816164E-02  0.1300439E+00
        -11   -1    0    0    0    0  0.00000000000E+00  0.00000000000E+00  0.45593999997E+02  0.45594000000E+02  0.51100000000E-03 0. -1.
         11   -1    0    0    0    0 -0.00000000000E+00 -0.00000000000E+00 -0.45593999997E+02  0.45594000000E+02  0.51100000000E-03 0.  1.
    9900012    2    1    2    0    0 -0.24089233293E+02 -0.11899019133E+02  0.30517003422E+02  0.50528864313E+02  0.30000013567E+02 0.  0.
        -12    1    1    2    0    0  0.24089233293E+02  0.11899019133E+02 -0.30517003422E+02  0.40659135687E+02  0.00000000000E+00 0.  1.
         11    1    3    3    0    0 -0.11127599841E+02 -0.67518466336E+01 -0.96872179559E+00  0.13051794258E+02  0.51100000000E-03 0.  1.
        -11    1    3    3    0    0 -0.15469758711E+02 -0.67924428243E+01  0.23471813629E+02  0.28920178931E+02  0.51100000000E-03 0. -1.
         12    1    3    3    0    0  0.25081252597E+01  0.16452703253E+01  0.80139115882E+01  0.85568911238E+01  0.00000000000E+00 0. -1.
</event>
<event>
 7    1  0.9953837E-014  0.5052886E+02  0.7816164E-02  0.1300439E+00
        -11   -1    0    0    0    0  0.00000000000E+00  0.00000000000E+00  0.45593999997E+02  0.45594000000E+02  0.51100000000E-03 0. -1.
         11   -1    0    0    0    0 -0.00000000000E+00 -0.00000000000E+00 -0.45593999997E+02  0.45594000000E+02  0.51100000000E-03 0.  1.
    9900012    2    1    2    0    0  0.17098649799E+02 -0.37104551157E+01 -0.36701964359E+02  0.50528862160E+02  0.30000007020E+02 0.  0.
         12    1    1    2    0    0 -0.17098649799E+02  0.37104551157E+01  0.36701964359E+02  0.40659137840E+02  0.00000000000E+00 0. -1.
         11    1    3    3    0    0  0.51536614288E+00 -0.32763604867E+01 -0.35427312478E-02  0.33166478728E+01  0.51100000000E-03 0. -1.
        -11    1    3    3    0    0  0.19776232653E+02  0.38529754691E+01 -0.15696369742E+02  0.25540572062E+02  0.51100000000E-03 0.  1.
        -12    1    3    3    0    0 -0.31929489965E+01 -0.42870700981E+01 -0.21002051886E+02  0.21671642225E+02  0.00000000000E+00 0.  1.
</event>
<event>
 7    1  0.9953837E-014  0.5052886E+02  0.7816164E-02  0.1300439E+00
        -11   -1    0    0    0    0  0.00000000000E+00  0.00000000000E+00  0.45593999997E+02  0.45594000000E+02  0.51100000000E-03 0.  1.
         11   -1    0    0    0    0 -0.00000000000E+00 -0.00000000000E+00 -0.45593999997E+02  0.45594000000E+02  0.51100000000E-03 0. -1.
    9900012    2    1    2    0    0 -0.27045306529E+02  0.25280749048E+02 -0.16810724877E+02  0.50528863898E+02  0.30000012305E+02 0.  0.
         12    1    1    2    0    0  0.27045306529E+02 -0.25280749048E+02  0.16810724877E+02  0.40659136102E+02  0.00000000000E+00 0. -1.
         11    1    3    3    0    0 -0.38396904154E+00  0.11039799606E+02 -0.50657312233E+01  0.12152622789E+02  0.51100000000E-03 0. -1.
        -11    1    3    3    0    0 -0.36967633096E+01 -0.52417263615E+01 -0.23063183820E+01  0.68162202838E+01  0.51100000000E-03 0.  1.
        -12    1    3    3    0    0 -0.22964574178E+02  0.19482675803E+02 -0.94386752716E+01  0.31560020825E+02  0.00000000000E+00 0.  1.
</event>
<event>
 7    1  0.9953837E-014  0.5052886E+02  0.7816164E-02  0.1300439E+00
        -11   -1    0    0    0    0  0.00000000000E+00  0.00000000000E+00  0.45593999997E+02  0.45594000000E+02  0.51100000000E-03 0. -1.
         11   -1    0    0    0    0 -0.00000000000E+00 -0.00000000000E+00 -0.45593999997E+02  0.45594000000E+02  0.51100000000E-03 0.  1.
    9900012    2    1    2    0    0 -0.58711945019E+01  0.34814321680E+02  0.20165750140E+02  0.50528863295E+02  0.30000010471E+02 0.  0.
        -12    1    1    2    0    0  0.58711945019E+01 -0.34814321680E+02 -0.20165750140E+02  0.40659136705E+02  0.00000000000E+00 0.  1.
         11    1    3    3    0    0 -0.15933886147E+01  0.25153926501E+02  0.24623378171E+02  0.35235914328E+02  0.51100000000E-03 0. -1.
        -11    1    3    3    0    0 -0.35129937894E+01  0.67373513750E+00 -0.51242077236E+01  0.62492039057E+01  0.51100000000E-03 0.  1.
         12    1    3    3    0    0 -0.76481209782E+00  0.89866600411E+01  0.66657969221E+00  0.90437450609E+01  0.00000000000E+00 0. -1.
</event>
<event>
 7    1  0.9953837E-014  0.5052887E+02  0.7816164E-02  0.1300439E+00
        -11   -1    0    0    0    0  0.00000000000E+00  0.00000000000E+00  0.45593999997E+02  0.45594000000E+02  0.51100000000E-03 0. -1.
         11   -1    0    0    0    0 -0.00000000000E+00 -0.00000000000E+00 -0.45593999997E+02  0.45594000000E+02  0.51100000000E-03 0.  1.
    9900012    2    1    2    0    0 -0.39610133679E+02  0.76923266170E+01 -0.50030500465E+01  0.50528867094E+02  0.30000022020E+02 0.  0.
         12    1    1    2    0    0  0.39610133679E+02 -0.76923266170E+01  0.50030500465E+01  0.40659132906E+02  0.00000000000E+00 0. -1.
         11    1    3    3    0    0 -0.55774521985E+01 -0.65766252857E+01  0.24042297653E+00  0.86265738648E+01  0.51100000000E-03 0. -1.
        -11    1    3    3    0    0 -0.26587604772E+02  0.17103576644E+02 -0.93124418455E+01  0.32956860210E+02  0.51100000000E-03 0.  1.
        -12    1    3    3    0    0 -0.74450767089E+01 -0.28346247415E+01  0.40689688225E+01  0.89454330194E+01  0.00000000000E+00 0.  1.
</event>
<event>
 7    1  0.9953837E-014  0.5052887E+02  0.7816164E-02  0.1300439E+00
        -11   -1    0    0    0    0  0.00000000000E+00  0.00000000000E+00  0.45593999997E+02  0.45594000000E+02  0.51100000000E-03 0. -1.
         11   -1    0    0    0    0 -0.00000000000E+00 -0.00000000000E+00 -0.45593999997E+02  0.45594000000E+02  0.51100000000E-03 0.  1.
    9900012    2    1    2    0    0  0.49294397861E+01 -0.30694851503E+02  0.26204807173E+02  0.50528865671E+02  0.30000017694E+02 0.  0.
        -12    1    1    2    0    0 -0.49294397861E+01  0.30694851503E+02 -0.26204807173E+02  0.40659134329E+02  0.00000000000E+00 0.  1.
         11    1    3    3    0    0 -0.41242136519E+01 -0.17912663173E+02  0.50633970577E+01  0.19065954742E+02  0.51100000000E-03 0. -1.
        -11    1    3    3    0    0  0.18816850811E+00  0.27247000726E+01 -0.10933917215E+01  0.29419217513E+01  0.51100000000E-03 0.  1.
         12    1    3    3    0    0  0.88654849299E+01 -0.15506888403E+02  0.22234801837E+02  0.28520989178E+02  0.00000000000E+00 0. -1.
</event>
<event>
 7    1  0.9953837E-014  0.5052886E+02  0.7816164E-02  0.1300439E+00
        -11   -1    0    0    0    0  0.00000000000E+00  0.00000000000E+00  0.45593999997E+02  0.45594000000E+02  0.51100000000E-03 0. -1.
         11   -1    0    0    0    0 -0.00000000000E+00 -0.00000000000E+00 -0.45593999997E+02  0.45594000000E+02  0.51100000000E-03 0.  1.
    9900012    2    1    2    0    0 -0.29008965961E+02 -0.38156798232E+01  0.28232717593E+02  0.50528857592E+02  0.29999993136E+02 0.  0.
        -12    1    1    2    0    0  0.29008965961E+02  0.38156798232E+01 -0.28232717593E+02  0.40659142408E+02  0.00000000000E+00 0.  1.
         11    1    3    3    0    0  0.32098504697E+01 -0.20785638067E+01  0.34336835026E+01  0.51394309212E+01  0.51100000000E-03 0. -1.
        -11    1    3    3    0    0 -0.14135651080E+02  0.18082286829E+01 -0.29773532250E+00  0.14253945734E+02  0.51100000000E-03 0.  1.
        -12    1    3    3    0    0 -0.18083165351E+02 -0.35453446994E+01  0.25096769413E+02  0.31135480936E+02  0.00000000000E+00 0.  1.
</event>
<event>
 7    1  0.9953837E-014  0.5052885E+02  0.7816164E-02  0.1300439E+00
        -11   -1    0    0    0    0  0.00000000000E+00  0.00000000000E+00  0.45593999997E+02  0.45594000000E+02  0.51100000000E-03 0. -1.
         11   -1    0    0    0    0 -0.00000000000E+00 -0.00000000000E+00 -0.45593999997E+02  0.45594000000E+02  0.51100000000E-03 0.  1.
    9900012    2    1    2    0    0 -0.19331985661E+02  0.12883229574E+02  0.33368596535E+02  0.50528849633E+02  0.29999968945E+02 0.  0.
        -12    1    1    2    0    0  0.19331985661E+02 -0.12883229574E+02 -0.33368596535E+02  0.40659150367E+02  0.00000000000E+00 0.  1.
         11    1    3    3    0    0 -0.72437245640E+01  0.74145761378E+01 -0.23373158065E+01  0.10625936679E+02  0.51100000000E-03 0. -1.
        -11    1    3    3    0    0 -0.96832589082E+01 -0.18784612230E+01  0.23062642919E+02  0.25083453078E+02  0.51100000000E-03 0.  1.
        -12    1    3    3    0    0 -0.24050021886E+01  0.73471146588E+01  0.12643269422E+02  0.14819459876E+02  0.00000000000E+00 0.  1.
</event>
<event>
 7    1  0.9953837E-014  0.5052887E+02  0.7816164E-02  0.1300439E+00
        -11   -1    0    0    0    0  0.00000000000E+00  0.00000000000E+00  0.45593999997E+02  0.45594000000E+02  0.51100000000E-03 0. -1.
         11   -1    0    0    0    0 -0.00000000000E+00 -0.00000000000E+00 -0.45593999997E+02  0.45594000000E+02  0.51100000000E-03 0.  1.
    9900012    2    1    2    0    0  0.55177054743E+00  0.16170259848E+01 -0.40623218959E+02  0.50528866434E+02  0.30000020013E+02 0.  0.
         12    1    1    2    0    0 -0.55177054743E+00 -0.16170259848E+01  0.40623218959E+02  0.40659133566E+02  0.00000000000E+00 0. -1.
         11    1    3    3    0    0 -0.37322125061E+01  0.20638978894E+01 -0.58469977334E+00  0.43047600136E+01  0.51100000000E-03 0. -1.
        -11    1    3    3    0    0  0.19425393660E+01  0.77893601330E+00 -0.42536232044E+02  0.42587688799E+02  0.51100000000E-03 0.  1.
        -12    1    3    3    0    0  0.23414436876E+01 -0.12258079179E+01  0.24977128585E+01  0.36364176214E+01  0.00000000000E+00 0.  1.
</event>
<event>
 7    1  0.9953837E-014  0.5052886E+02  0.7816164E-02  0.1300439E+00
        -11   -1    0    0    0    0  0.00000000000E+00  0.00000000000E+00  0.45593999997E+02  0.45594000000E+02  0.51100000000E-03 0.  1.
         11   -1    0    0    0    0 -0.00000000000E+00 -0.00000000000E+00 -0.45593999997E+02  0.45594000000E+02  0.51100000000E-03 0. -1.
    9900012    2    1    2    0    0  0.43539199260E+01  0.39746403564E+02  0.73778376126E+01  0.50528859542E+02  0.29999999063E+02 0.  0.
        -12    1    1    2    0    0 -0.43539199260E+01 -0.39746403564E+02 -0.73778376126E+01  0.40659140458E+02  0.00000000000E+00 0.  1.
         11    1    3    3    0    0  0.14991010272E+01 -0.21441983416E+01 -0.28974363662E+01  0.39038478678E+01  0.51100000000E-03 0. -1.
        -11    1    3    3    0    0  0.59697230996E+01  0.28344517786E+02 -0.60615397013E+00  0.28972688955E+02  0.51100000000E-03 0.  1.
        -12    1    3    3    0    0 -0.31149042008E+01  0.13546084119E+02  0.10881427949E+02  0.17652322718E+02  0.00000000000E+00 0.  1.
</event>
<event>
 7    1  0.9953837E-014  0.5052885E+02  0.7816164E-02  0.1300439E+00
        -11   -1    0    0    0    0  0.00000000000E+00  0.00000000000E+00  0.45593999997E+02  0.45594000000E+02  0.51100000000E-03 0.  1.
         11   -1    0    0    0    0 -0.00000000000E+00 -0.00000000000E+00 -0.45593999997E+02  0.45594000000E+02  0.51100000000E-03 0. -1.
    9900012    2    1    2    0    0  0.28403623906E+02 -0.25362442460E+02  0.14252955719E+02  0.50528854838E+02  0.29999984766E+02 0.  0.
        -12    1    1    2    0    0 -0.28403623906E+02  0.25362442460E+02 -0.14252955719E+02  0.40659145162E+02  0.00000000000E+00 0.  1.
         11    1    3    3    0    0  0.51497311359E+00 -0.13294625840E+02  0.64020512439E+01  0.14764773413E+02  0.51100000000E-03 0. -1.
        -11    1    3    3    0    0  0.20913052963E+02 -0.79072176477E+01  0.13270546238E+02  0.25999755247E+02  0.51100000000E-03 0.  1.
        -12    1    3    3    0    0  0.69755978291E+01 -0.41605989725E+01 -0.54196417630E+01  0.97643261787E+01  0.00000000000E+00 0.  1.
</event>
<event>
 7    1  0.9953837E-014  0.5052887E+02  0.7816164E-02  0.1300439E+00
        -11   -1    0    0    0    0  0.00000000000E+00  0.00000000000E+00  0.45593999997E+02  0.45594000000E+02  0.51100000000E-03 0. -1.
         11   -1    0    0    0    0 -0.00000000000E+00 -0.00000000000E+00 -0.45593999997E+02  0.45594000000E+02  0.51100000000E-03 0.  1.
    9900012    2    1    2    0    0 -0.31031626570E+02 -0.19991416888E+02 -0.17045421452E+02  0.50528868317E+02  0.30000025735E+02 0.  0.
         12    1    1    2    0    0  0.31031626570E+02  0.19991416888E+02  0.17045421452E+02  0.40659131683E+02  0.00000000000E+00 0. -1.
         11    1    3    3    0    0 -0.22428256639E+02 -0.13961834599E+02 -0.67279975002E+01  0.27262161908E+02  0.51100000000E-03 0. -1.
        -11    1    3    3    0    0 -0.19261642003E+01 -0.17219117604E+01 -0.14192709430E+02  0.14425951957E+02  0.51100000000E-03 0.  1.
        -12    1    3    3    0    0 -0.66772057304E+01 -0.43076705277E+01  0.38752854779E+01  0.88407544518E+01  0.00000000000E+00 0.  1.
</event>
<event>
 7    1  0.9953837E-014  0.5052885E+02  0.7816164E-02  0.1300439E+00
        -11   -1    0    0    0    0  0.00000000000E+00  0.00000000000E+00  0.45593999997E+02  0.45594000000E+02  0.51100000000E-03 0. -1.
         11   -1    0    0    0    0 -0.00000000000E+00 -0.00000000000E+00 -0.45593999997E+02  0.45594000000E+02  0.51100000000E-03 0.  1.
    9900012    2    1    2    0    0 -0.76619047013E+01  0.21608231452E+02 -0.33578950625E+02  0.50528851273E+02  0.29999973928E+02 0.  0.
         12    1    1    2    0    0  0.76619047013E+01 -0.21608231452E+02  0.33578950625E+02  0.40659148727E+02  0.00000000000E+00 0. -1.
         11    1    3    3    0    0 -0.15867417700E+02  0.20078653932E+02 -0.15473450633E+02  0.29905768055E+02  0.51100000000E-03 0. -1.
        -11    1    3    3    0    0  0.87889427262E+01  0.75041418705E+00 -0.15393856910E+02  0.17742025435E+02  0.51100000000E-03 0.  1.
        -12    1    3    3    0    0 -0.58342972735E+00  0.77916333367E+00 -0.27116430816E+01  0.28810577830E+01  0.00000000000E+00 0.  1.
</event>
<event>
 7    1  0.9953837E-014  0.5052899E+02  0.7816164E-02  0.1300438E+00
        -11   -1    0    0    0    0  0.00000000000E+00  0.00000000000E+00  0.45593999997E+02  0.45594000000E+02  0.51100000000E-03 0. -1.
         11   -1    0    0    0    0 -0.00000000000E+00 -0.00000000000E+00 -0.45593999997E+02  0.45594000000E+02  0.51100000000E-03 0.  1.
    9900012    2    1    2    0    0 -0.27538533267E+01 -0.32978649542E+02 -0.23621603471E+02  0.50528988892E+02  0.30000392232E+02 0.  0.
         12    1    1    2    0    0  0.27538533267E+01  0.32978649542E+02  0.23621603471E+02  0.40659011108E+02  0.00000000000E+00 0. -1.
         11    1    3    3    0    0 -0.12040598858E+01 -0.22262989293E+02  0.10905219492E+01  0.22322179348E+02  0.51100000000E-03 0. -1.
        -11    1    3    3    0    0 -0.38220404535E+01 -0.52949710750E+01 -0.18662596622E+02  0.19772132532E+02  0.51100000000E-03 0.  1.
         12    1    3    3    0    0  0.22722470126E+01 -0.54206891744E+01 -0.60495287983E+01  0.84346770118E+01  0.00000000000E+00 0. -1.
</event>
<event>
 7    1  0.9953837E-014  0.5052886E+02  0.7816164E-02  0.1300439E+00
        -11   -1    0    0    0    0  0.00000000000E+00  0.00000000000E+00  0.45593999997E+02  0.45594000000E+02  0.51100000000E-03 0. -1.
         11   -1    0    0    0    0 -0.00000000000E+00 -0.00000000000E+00 -0.45593999997E+02  0.45594000000E+02  0.51100000000E-03 0.  1.
    9900012    2    1    2    0    0 -0.54535849718E+01  0.12399279994E+02  0.38336431475E+02  0.50528859433E+02  0.29999998731E+02 0.  0.
        -12    1    1    2    0    0  0.54535849718E+01 -0.12399279994E+02 -0.38336431475E+02  0.40659140567E+02  0.00000000000E+00 0.  1.
         11    1    3    3    0    0  0.29437056022E+01 -0.71292545508E+01  0.20723767294E+02  0.22112580226E+02  0.51100000000E-03 0. -1.
        -11    1    3    3    0    0 -0.11867784150E+01  0.99164410926E+01  0.10315712888E+02  0.14358209484E+02  0.51100000000E-03 0.  1.
         12    1    3    3    0    0 -0.72105121590E+01  0.96120934527E+01  0.72969512934E+01  0.14058069722E+02  0.00000000000E+00 0. -1.
</event>
<event>
 7    1  0.9953837E-014  0.5052886E+02  0.7816164E-02  0.1300439E+00
        -11   -1    0    0    0    0  0.00000000000E+00  0.00000000000E+00  0.45593999997E+02  0.45594000000E+02  0.51100000000E-03 0. -1.
         11   -1    0    0    0    0 -0.00000000000E+00 -0.00000000000E+00 -0.45593999997E+02  0.45594000000E+02  0.51100000000E-03 0.  1.
    9900012    2    1    2    0    0  0.11130571566E+01 -0.15986957182E+02 -0.37367689927E+02  0.50528856543E+02  0.29999989947E+02 0.  0.
         12    1    1    2    0    0 -0.11130571566E+01  0.15986957182E+02  0.37367689927E+02  0.40659143457E+02  0.00000000000E+00 0. -1.
         11    1    3    3    0    0  0.41005806131E+01  0.12121900330E+01 -0.71806004968E+01  0.83573434652E+01  0.51100000000E-03 0. -1.
        -11    1    3    3    0    0 -0.12731015386E+02 -0.63765496881E+01 -0.10536516816E+02  0.17713196367E+02  0.51100000000E-03 0.  1.
        -12    1    3    3    0    0  0.97434919292E+01 -0.10822597527E+02 -0.19650572615E+02  0.24458316710E+02  0.00000000000E+00 0.  1.
</event>
<event>
 7    1  0.9953837E-014  0.5052884E+02  0.7816164E-02  0.1300439E+00
        -11   -1    0    0    0    0  0.00000000000E+00  0.00000000000E+00  0.45593999997E+02  0.45594000000E+02  0.51100000000E-03 0. -1.
         11   -1    0    0    0    0 -0.00000000000E+00 -0.00000000000E+00 -0.45593999997E+02  0.45594000000E+02  0.51100000000E-03 0.  1.
    9900012    2    1    2    0    0  0.24140312566E+02 -0.32243578680E+02  0.55465251783E+01  0.50528843609E+02  0.29999950633E+02 0.  0.
        -12    1    1    2    0    0 -0.24140312566E+02  0.32243578680E+02 -0.55465251783E+01  0.40659156391E+02  0.00000000000E+00 0.  1.
         11    1    3    3    0    0  0.15772266341E+02 -0.11943293653E+02  0.15048073602E+02  0.24856612163E+02  0.51100000000E-03 0. -1.
        -11    1    3    3    0    0  0.49701726292E+01 -0.15647947220E+02 -0.25038253823E+01  0.16608130839E+02  0.51100000000E-03 0.  1.
         12    1    3    3    0    0  0.33978735953E+01 -0.46523378075E+01 -0.69977230415E+01  0.90641006068E+01  0.00000000000E+00 0. -1.
</event>
<event>
 7    1  0.9953837E-014  0.5052885E+02  0.7816164E-02  0.1300439E+00
        -11   -1    0    0    0    0  0.00000000000E+00  0.00000000000E+00  0.45593999997E+02  0.45594000000E+02  0.51100000000E-03 0. -1.
         11   -1    0    0    0    0 -0.00000000000E+00 -0.00000000000E+00 -0.45593999997E+02  0.45594000000E+02  0.51100000000E-03 0.  1.
    9900012    2    1    2    0    0 -0.13334262104E+02 -0.14738089159E+02  0.35470446236E+02  0.50528851287E+02  0.29999973970E+02 0.  0.
        -12    1    1    2    0    0  0.13334262104E+02  0.14738089159E+02 -0.35470446236E+02  0.40659148713E+02  0.00000000000E+00 0.  1.
         11    1    3    3    0    0  0.13837325929E+01  0.14386310027E+01  0.96624078587E+01  0.98664330403E+01  0.51100000000E-03 0. -1.
        -11    1    3    3    0    0 -0.12232298388E+02 -0.29900059911E+01  0.12205031666E+01  0.12651438176E+02  0.51100000000E-03 0.  1.
        -12    1    3    3    0    0 -0.24856963091E+01 -0.13186714171E+02  0.24587535211E+02  0.28010980070E+02  0.00000000000E+00 0.  1.
</event>
<event>
 7    1  0.9953837E-014  0.5052885E+02  0.7816164E-02  0.1300439E+00
        -11   -1    0    0    0    0  0.00000000000E+00  0.00000000000E+00  0.45593999997E+02  0.45594000000E+02  0.51100000000E-03 0. -1.
         11   -1    0    0    0    0 -0.00000000000E+00 -0.00000000000E+00 -0.45593999997E+02  0.45594000000E+02  0.51100000000E-03 0.  1.
    9900012    2    1    2    0    0  0.43445075263E+01  0.11931787118E+02 -0.38625434600E+02  0.50528849892E+02  0.29999969732E+02 0.  0.
         12    1    1    2    0    0 -0.43445075263E+01 -0.11931787118E+02  0.38625434600E+02  0.40659150108E+02  0.00000000000E+00 0. -1.
         11    1    3    3    0    0 -0.37400971872E+00 -0.34911177293E+01  0.32693736035E+01  0.47975608688E+01  0.51100000000E-03 0. -1.
        -11    1    3    3    0    0  0.58830543636E+01  0.70800360501E+01 -0.28084485515E+02  0.29554620045E+02  0.51100000000E-03 0.  1.
         12    1    3    3    0    0 -0.11645371185E+01  0.83428687971E+01 -0.13810322688E+02  0.16176668978E+02  0.00000000000E+00 0. -1.
</event>
<event>
 7    1  0.1527761E-013  0.5052881E+02  0.7816164E-02  0.1300439E+00
        -11   -1    0    0    0    0  0.00000000000E+00  0.00000000000E+00  0.45593999997E+02  0.45594000000E+02  0.51100000000E-03 0. -1.
         11   -1    0    0    0    0 -0.00000000000E+00 -0.00000000000E+00 -0.45593999997E+02  0.45594000000E+02  0.51100000000E-03 0.  1.
    9900012    2    1    2    0    0  0.23631787896E+02 -0.16969674026E+02  0.28403143863E+02  0.50528808948E+02  0.29999845279E+02 0.  0.
        -12    1    1    2    0    0 -0.23631787896E+02  0.16969674026E+02 -0.28403143863E+02  0.40659191052E+02  0.00000000000E+00 0.  1.
         11    1    3    3    0    0  0.24957485955E+02 -0.17273212646E+02  0.26689396540E+02  0.40417370872E+02  0.51100000000E-03 0. -1.
        -11    1    3    3    0    0  0.15743919650E+01  0.19471935562E+01 -0.32681418699E+01  0.41171621717E+01  0.51100000000E-03 0.  1.
         12    1    3    3    0    0 -0.29000900236E+01 -0.16436549358E+01  0.49818891925E+01  0.59942759045E+01  0.00000000000E+00 0. -1.
</event>
<event>
 7    1  0.9953837E-014  0.5052886E+02  0.7816164E-02  0.1300439E+00
        -11   -1    0    0    0    0  0.00000000000E+00  0.00000000000E+00  0.45593999997E+02  0.45594000000E+02  0.51100000000E-03 0. -1.
         11   -1    0    0    0    0 -0.00000000000E+00 -0.00000000000E+00 -0.45593999997E+02  0.45594000000E+02  0.51100000000E-03 0.  1.
    9900012    2    1    2    0    0  0.20561136421E+02  0.25640605692E+02  0.23936675625E+02  0.50528862882E+02  0.30000009217E+02 0.  0.
        -12    1    1    2    0    0 -0.20561136421E+02 -0.25640605692E+02 -0.23936675625E+02  0.40659137118E+02  0.00000000000E+00 0.  1.
         11    1    3    3    0    0  0.20806925896E+02  0.17833648534E+02  0.11922655575E+02  0.29885061511E+02  0.51100000000E-03 0. -1.
        -11    1    3    3    0    0 -0.65285389774E+01  0.18178013827E+01  0.13782222674E+01  0.69156142118E+01  0.51100000000E-03 0.  1.
         12    1    3    3    0    0  0.62827495020E+01  0.59891557752E+01  0.10635797783E+02  0.13728187160E+02  0.00000000000E+00 0. -1.
</event>
<event>
 7    1  0.9953837E-014  0.5052886E+02  0.7816164E-02  0.1300439E+00
        -11   -1    0    0    0    0  0.00000000000E+00  0.00000000000E+00  0.45593999997E+02  0.45594000000E+02  0.51100000000E-03 0. -1.
         11   -1    0    0    0    0 -0.00000000000E+00 -0.00000000000E+00 -0.45593999997E+02  0.45594000000E+02  0.51100000000E-03 0.  1.
    9900012    2    1    2    0    0 -0.55237160651E+01 -0.16195199675E+01 -0.40249609173E+02  0.50528864216E+02  0.30000013271E+02 0.  0.
         12    1    1    2    0    0  0.55237160651E+01  0.16195199675E+01  0.40249609173E+02  0.40659135784E+02  0.00000000000E+00 0. -1.
         11    1    3    3    0    0  0.40274282832E+01 -0.80532394150E+00 -0.40792062985E+01  0.57886656073E+01  0.51100000000E-03 0. -1.
        -11    1    3    3    0    0 -0.11429211831E+02 -0.10886041370E+02 -0.25152698581E+02  0.29694966340E+02  0.51100000000E-03 0.  1.
        -12    1    3    3    0    0  0.18780674825E+01  0.10071845344E+02 -0.11017704294E+02  0.15045232269E+02  0.00000000000E+00 0.  1.
</event>
<event>
 7    1  0.9953837E-014  0.5052886E+02  0.7816164E-02  0.1300439E+00
        -11   -1    0    0    0    0  0.00000000000E+00  0.00000000000E+00  0.45593999997E+02  0.45594000000E+02  0.51100000000E-03 0. -1.
         11   -1    0    0    0    0 -0.00000000000E+00 -0.00000000000E+00 -0.45593999997E+02  0.45594000000E+02  0.51100000000E-03 0.  1.
    9900012    2    1    2    0    0 -0.29407300090E+02 -0.17807979777E+02 -0.21708336398E+02  0.50528864354E+02  0.30000013690E+02 0.  0.
         12    1    1    2    0    0  0.29407300090E+02  0.17807979777E+02  0.21708336398E+02  0.40659135646E+02  0.00000000000E+00 0. -1.
         11    1    3    3    0    0 -0.21247661395E+02  0.41364202550E+01 -0.90688925989E+01  0.23469510019E+02  0.51100000000E-03 0. -1.
        -11    1    3    3    0    0 -0.39775403955E+01 -0.15834291597E+02 -0.70555802329E+01  0.17785579289E+02  0.51100000000E-03 0.  1.
         12    1    3    3    0    0 -0.41820982993E+01 -0.61101084355E+01 -0.55838635665E+01  0.92737750462E+01  0.00000000000E+00 0. -1.
</event>
<event>
 7    1  0.9953837E-014  0.5052889E+02  0.7816164E-02  0.1300439E+00
        -11   -1    0    0    0    0  0.00000000000E+00  0.00000000000E+00  0.45593999997E+02  0.45594000000E+02  0.51100000000E-03 0. -1.
         11   -1    0    0    0    0 -0.00000000000E+00 -0.00000000000E+00 -0.45593999997E+02  0.45594000000E+02  0.51100000000E-03 0.  1.
    9900012    2    1    2    0    0 -0.23538572962E+02  0.14124681352E+02 -0.29993204799E+02  0.50528888174E+02  0.30000086094E+02 0.  0.
         12    1    1    2    0    0  0.23538572962E+02 -0.14124681352E+02  0.29993204799E+02  0.40659111826E+02  0.00000000000E+00 0. -1.
         11    1    3    3    0    0 -0.10224827397E+02  0.98770875456E+01  0.20105428059E+01  0.14357793574E+02  0.51100000000E-03 0. -1.
        -11    1    3    3    0    0 -0.11844219996E+02 -0.40637007310E+00 -0.20578373945E+02  0.23747003146E+02  0.51100000000E-03 0.  1.
         12    1    3    3    0    0 -0.14695255685E+01  0.46539638796E+01 -0.11425373660E+02  0.12424091454E+02  0.00000000000E+00 0. -1.
</event>
<event>
 7    1  0.9953837E-014  0.5052886E+02  0.7816164E-02  0.1300439E+00
        -11   -1    0    0    0    0  0.00000000000E+00  0.00000000000E+00  0.45593999997E+02  0.45594000000E+02  0.51100000000E-03 0. -1.
         11   -1    0    0    0    0 -0.00000000000E+00 -0.00000000000E+00 -0.45593999997E+02  0.45594000000E+02  0.51100000000E-03 0.  1.
    9900012    2    1    2    0    0 -0.36281834895E+02 -0.17692221260E+00  0.18351103509E+02  0.50528857796E+02  0.29999993756E+02 0.  0.
        -12    1    1    2    0    0  0.36281834895E+02  0.17692221260E+00 -0.18351103509E+02  0.40659142204E+02  0.00000000000E+00 0.  1.
         11    1    3    3    0    0 -0.66286297252E+01 -0.76085447013E+01  0.49549194795E+01  0.11241882041E+02  0.51100000000E-03 0. -1.
        -11    1    3    3    0    0 -0.14633510533E+02  0.91944470632E+01  0.16449258302E+02  0.23859077649E+02  0.51100000000E-03 0.  1.
        -12    1    3    3    0    0 -0.15019694636E+02 -0.17628245745E+01 -0.30530742727E+01  0.15427898106E+02  0.00000000000E+00 0.  1.
</event>
<event>
 7    1  0.9953837E-014  0.5052885E+02  0.7816164E-02  0.1300439E+00
        -11   -1    0    0    0    0  0.00000000000E+00  0.00000000000E+00  0.45593999997E+02  0.45594000000E+02  0.51100000000E-03 0. -1.
         11   -1    0    0    0    0 -0.00000000000E+00 -0.00000000000E+00 -0.45593999997E+02  0.45594000000E+02  0.51100000000E-03 0.  1.
    9900012    2    1    2    0    0 -0.39140674581E+02 -0.43528554414E+01  0.10110717632E+02  0.50528851359E+02  0.29999974191E+02 0.  0.
        -12    1    1    2    0    0  0.39140674581E+02  0.43528554414E+01 -0.10110717632E+02  0.40659148641E+02  0.00000000000E+00 0.  1.
         11    1    3    3    0    0 -0.12806959637E+02  0.50938674198E+01 -0.42173622843E+01  0.14413599319E+02  0.51100000000E-03 0. -1.
        -11    1    3    3    0    0 -0.16662913545E+02 -0.13370000665E+02  0.14247192804E+02  0.25678631363E+02  0.51100000000E-03 0.  1.
        -12    1    3    3    0    0 -0.96708013989E+01  0.39232778040E+01  0.80887111590E-01  0.10436620677E+02  0.00000000000E+00 0.  1.
</event>
<event>
 7    1  0.9953837E-014  0.5052887E+02  0.7816164E-02  0.1300439E+00
        -11   -1    0    0    0    0  0.00000000000E+00  0.00000000000E+00  0.45593999997E+02  0.45594000000E+02  0.51100000000E-03 0. -1.
         11   -1    0    0    0    0 -0.00000000000E+00 -0.00000000000E+00 -0.45593999997E+02  0.45594000000E+02  0.51100000000E-03 0.  1.
    9900012    2    1    2    0    0  0.13434304183E+02 -0.82131915500E+01 -0.37486369182E+02  0.50528869183E+02  0.30000028370E+02 0.  0.
         12    1    1    2    0    0 -0.13434304183E+02  0.82131915500E+01  0.37486369182E+02  0.40659130817E+02  0.00000000000E+00 0. -1.
         11    1    3    3    0    0 -0.80397146304E+00  0.51256132201E+01 -0.14160552482E+02  0.15081098364E+02  0.51100000000E-03 0. -1.
        -11    1    3    3    0    0  0.63132513572E+01 -0.12860125517E+02 -0.23481541078E+02  0.27506776305E+02  0.51100000000E-03 0.  1.
        -12    1    3    3    0    0  0.79250242885E+01 -0.47867925360E+00  0.15572437856E+00  0.79409945148E+01  0.00000000000E+00 0.  1.
</event>
<event>
 7    1  0.9953837E-014  0.5052885E+02  0.7816164E-02  0.1300439E+00
        -11   -1    0    0    0    0  0.00000000000E+00  0.00000000000E+00  0.45593999997E+02  0.45594000000E+02  0.51100000000E-03 0. -1.
         11   -1    0    0    0    0 -0.00000000000E+00 -0.00000000000E+00 -0.45593999997E+02  0.45594000000E+02  0.51100000000E-03 0.  1.
    9900012    2    1    2    0    0 -0.54853046387E+01  0.17939602305E+02  0.36072819155E+02  0.50528853678E+02  0.29999981240E+02 0.  0.
        -12    1    1    2    0    0  0.54853046387E+01 -0.17939602305E+02 -0.36072819155E+02  0.40659146322E+02  0.00000000000E+00 0.  1.
         11    1    3    3    0    0 -0.20982138891E+01 -0.17001038280E+01  0.49822965351E+01  0.56671098079E+01  0.51100000000E-03 0. -1.
        -11    1    3    3    0    0 -0.52479427649E+01  0.17534998283E+02  0.54921961386E+01  0.19109717077E+02  0.51100000000E-03 0.  1.
        -12    1    3    3    0    0  0.18608520153E+01  0.21047078496E+01  0.25598326481E+02  0.25752026794E+02  0.00000000000E+00 0.  1.
</event>
<event>
 7    1  0.9953837E-014  0.5052885E+02  0.7816164E-02  0.1300439E+00
        -11   -1    0    0    0    0  0.00000000000E+00  0.00000000000E+00  0.45593999997E+02  0.45594000000E+02  0.51100000000E-03 0. -1.
         11   -1    0    0    0    0 -0.00000000000E+00 -0.00000000000E+00 -0.45593999997E+02  0.45594000000E+02  0.51100000000E-03 0.  1.
    9900012    2    1    2    0    0  0.27904644780E+01  0.20602167643E+02 -0.34941820456E+02  0.50528845799E+02  0.29999957291E+02 0.  0.
         12    1    1    2    0    0 -0.27904644780E+01 -0.20602167643E+02  0.34941820456E+02  0.40659154201E+02  0.00000000000E+00 0. -1.
         11    1    3    3    0    0  0.62237506132E+01  0.39822287627E+01 -0.15761853864E+02  0.17407735496E+02  0.51100000000E-03 0. -1.
        -11    1    3    3    0    0  0.51667362689E+01  0.54991715326E+01  0.19021549547E+01  0.77816608092E+01  0.51100000000E-03 0.  1.
        -12    1    3    3    0    0 -0.86000224042E+01  0.11120767347E+02 -0.21082121547E+02  0.25339449494E+02  0.00000000000E+00 0.  1.
</event>
<event>
 7    1  0.9953837E-014  0.5052886E+02  0.7816164E-02  0.1300439E+00
        -11   -1    0    0    0    0  0.00000000000E+00  0.00000000000E+00  0.45593999997E+02  0.45594000000E+02  0.51100000000E-03 0.  1.
         11   -1    0    0    0    0 -0.00000000000E+00 -0.00000000000E+00 -0.45593999997E+02  0.45594000000E+02  0.51100000000E-03 0. -1.
    9900012    2    1    2    0    0  0.32409248581E+02 -0.24540012285E+02  0.77067610212E+00  0.50528861566E+02  0.30000005217E+02 0.  0.
         12    1    1    2    0    0 -0.32409248581E+02  0.24540012285E+02 -0.77067610212E+00  0.40659138434E+02  0.00000000000E+00 0. -1.
         11    1    3    3    0    0  0.25898518899E+02 -0.11836872050E+02 -0.42925792013E+01  0.28797066822E+02  0.51100000000E-03 0.  1.
        -11    1    3    3    0    0  0.50040233503E+01 -0.10943920472E+02 -0.37616981460E+01  0.12607934732E+02  0.51100000000E-03 0. -1.
         12    1    3    3    0    0  0.15067063313E+01 -0.17592197625E+01  0.88249534493E+01  0.91238600123E+01  0.00000000000E+00 0. -1.
</event>
<event>
 7    1  0.9953837E-014  0.5052884E+02  0.7816164E-02  0.1300439E+00
        -11   -1    0    0    0    0  0.00000000000E+00  0.00000000000E+00  0.45593999997E+02  0.45594000000E+02  0.51100000000E-03 0. -1.
         11   -1    0    0    0    0 -0.00000000000E+00 -0.00000000000E+00 -0.45593999997E+02  0.45594000000E+02  0.51100000000E-03 0.  1.
    9900012    2    1    2    0    0 -0.28463057553E+02  0.78248581781E+01  0.27960570204E+02  0.50528836987E+02  0.29999930506E+02 0.  0.
        -12    1    1    2    0    0  0.28463057553E+02 -0.78248581781E+01 -0.27960570204E+02  0.40659163013E+02  0.00000000000E+00 0.  1.
         11    1    3    3    0    0 -0.71456446359E+01 -0.20682879720E+01  0.14240010902E+02  0.16065987774E+02  0.51100000000E-03 0. -1.
        -11    1    3    3    0    0 -0.13423591482E+02 -0.41225082346E+00 -0.25277209426E+01  0.13665728390E+02  0.51100000000E-03 0.  1.
        -12    1    3    3    0    0 -0.78938214355E+01  0.10305396974E+02  0.16248280244E+02  0.20797120823E+02  0.00000000000E+00 0.  1.
</event>
<event>
 7    1  0.9953837E-014  0.5052884E+02  0.7816164E-02  0.1300439E+00
        -11   -1    0    0    0    0  0.00000000000E+00  0.00000000000E+00  0.45593999997E+02  0.45594000000E+02  0.51100000000E-03 0. -1.
         11   -1    0    0    0    0 -0.00000000000E+00 -0.00000000000E+00 -0.45593999997E+02  0.45594000000E+02  0.51100000000E-03 0.  1.
    9900012    2    1    2    0    0  0.12745325862E+01  0.27243298467E+02  0.30155354157E+02  0.50528842003E+02  0.29999945752E+02 0.  0.
        -12    1    1    2    0    0 -0.12745325862E+01 -0.27243298467E+02 -0.30155354157E+02  0.40659157997E+02  0.00000000000E+00 0.  1.
         11    1    3    3    0    0 -0.48736804625E+01  0.21015673569E+01  0.17574787691E+02  0.18358717528E+02  0.51100000000E-03 0. -1.
        -11    1    3    3    0    0  0.50131039576E+01  0.26238337223E+02  0.88852947401E+01  0.28151909605E+02  0.51100000000E-03 0.  1.
        -12    1    3    3    0    0  0.11351090912E+01 -0.10966061127E+01  0.36952717257E+01  0.40182148701E+01  0.00000000000E+00 0.  1.
</event>
<event>
 7    1  0.9953837E-014  0.5052885E+02  0.7816164E-02  0.1300439E+00
        -11   -1    0    0    0    0  0.00000000000E+00  0.00000000000E+00  0.45593999997E+02  0.45594000000E+02  0.51100000000E-03 0. -1.
         11   -1    0    0    0    0 -0.00000000000E+00 -0.00000000000E+00 -0.45593999997E+02  0.45594000000E+02  0.51100000000E-03 0.  1.
    9900012    2    1    2    0    0  0.14146393384E+01  0.33464818339E+02  0.23049312759E+02  0.50528854785E+02  0.29999984604E+02 0.  0.
        -12    1    1    2    0    0 -0.14146393384E+01 -0.33464818339E+02 -0.23049312759E+02  0.40659145215E+02  0.00000000000E+00 0.  1.
         11    1    3    3    0    0 -0.20863178820E+01 -0.47261539230E+01  0.19853490925E+01  0.55345157411E+01  0.51100000000E-03 0. -1.
        -11    1    3    3    0    0  0.67231093595E+01  0.30072234627E+02  0.14429949005E+02  0.34025915468E+02  0.51100000000E-03 0.  1.
        -12    1    3    3    0    0 -0.32221521391E+01  0.81187376355E+01  0.66340146615E+01  0.10968423575E+02  0.00000000000E+00 0.  1.
</event>
<event>
 7    1  0.9953837E-014  0.5052886E+02  0.7816164E-02  0.1300439E+00
        -11   -1    0    0    0    0  0.00000000000E+00  0.00000000000E+00  0.45593999997E+02  0.45594000000E+02  0.51100000000E-03 0.  1.
         11   -1    0    0    0    0 -0.00000000000E+00 -0.00000000000E+00 -0.45593999997E+02  0.45594000000E+02  0.51100000000E-03 0. -1.
    9900012    2    1    2    0    0 -0.39379244381E+02 -0.83026199146E+01 -0.57885816930E+01  0.50528855106E+02  0.29999985580E+02 0.  0.
         12    1    1    2    0    0  0.39379244381E+02  0.83026199146E+01  0.57885816930E+01  0.40659144894E+02  0.00000000000E+00 0. -1.
         11    1    3    3    0    0 -0.13277814998E+02 -0.10202507110E+02  0.81458159562E+01  0.18621112757E+02  0.51100000000E-03 0. -1.
        -11    1    3    3    0    0 -0.15117617811E+02  0.13926940343E+01 -0.14182245615E+01  0.15247731835E+02  0.51100000000E-03 0.  1.
         12    1    3    3    0    0 -0.10983811573E+02  0.50719316121E+00 -0.12516173088E+02  0.16660010514E+02  0.00000000000E+00 0. -1.
</event>
<event>
 7    1  0.9953837E-014  0.5052886E+02  0.7816164E-02  0.1300439E+00
        -11   -1    0    0    0    0  0.00000000000E+00  0.00000000000E+00  0.45593999997E+02  0.45594000000E+02  0.51100000000E-03 0. -1.
         11   -1    0    0    0    0 -0.00000000000E+00 -0.00000000000E+00 -0.45593999997E+02  0.45594000000E+02  0.51100000000E-03 0.  1.
    9900012    2    1    2    0    0  0.36210775515E+02  0.51476324896E+01  0.17760824459E+02  0.50528864875E+02  0.30000015274E+02 0.  0.
        -12    1    1    2    0    0 -0.36210775515E+02 -0.51476324896E+01 -0.17760824459E+02  0.40659135125E+02  0.00000000000E+00 0.  1.
         11    1    3    3    0    0  0.18067624890E+02  0.14637963926E+02  0.54517156866E+01  0.23883681903E+02  0.51100000000E-03 0. -1.
        -11    1    3    3    0    0  0.12572403542E+02 -0.89130810186E+01  0.28798362551E+01  0.15678067520E+02  0.51100000000E-03 0.  1.
        -12    1    3    3    0    0  0.55707470835E+01 -0.57725041794E+00  0.94292725172E+01  0.10967115451E+02  0.00000000000E+00 0.  1.
</event>
<event>
 7    1  0.9953837E-014  0.5052883E+02  0.7816164E-02  0.1300439E+00
        -11   -1    0    0    0    0  0.00000000000E+00  0.00000000000E+00  0.45593999997E+02  0.45594000000E+02  0.51100000000E-03 0. -1.
         11   -1    0    0    0    0 -0.00000000000E+00 -0.00000000000E+00 -0.45593999997E+02  0.45594000000E+02  0.51100000000E-03 0.  1.
    9900012    2    1    2    0    0 -0.20919411877E+02 -0.11790696602E+02 -0.32810446242E+02  0.50528834954E+02  0.29999924326E+02 0.  0.
         12    1    1    2    0    0  0.20919411877E+02  0.11790696602E+02  0.32810446242E+02  0.40659165046E+02  0.00000000000E+00 0. -1.
         11    1    3    3    0    0 -0.58802226820E+01 -0.15933832035E+02 -0.18113642248E+02  0.24830788506E+02  0.51100000000E-03 0. -1.
        -11    1    3    3    0    0 -0.15931712465E+01  0.55304756140E+01 -0.97150263914E+01  0.11291859598E+02  0.51100000000E-03 0.  1.
         12    1    3    3    0    0 -0.13446017948E+02 -0.13873401804E+01 -0.49817776035E+01  0.14406186849E+02  0.00000000000E+00 0. -1.
</event>
<event>
 7    1  0.9953837E-014  0.5052887E+02  0.7816164E-02  0.1300439E+00
        -11   -1    0    0    0    0  0.00000000000E+00  0.00000000000E+00  0.45593999997E+02  0.45594000000E+02  0.51100000000E-03 0. -1.
         11   -1    0    0    0    0 -0.00000000000E+00 -0.00000000000E+00 -0.45593999997E+02  0.45594000000E+02  0.51100000000E-03 0.  1.
    9900012    2    1    2    0    0  0.14316668552E+02 -0.17272297445E+02 -0.33909667659E+02  0.50528870420E+02  0.30000032128E+02 0.  0.
         12    1    1    2    0    0 -0.14316668552E+02  0.17272297445E+02  0.33909667659E+02  0.40659129580E+02  0.00000000000E+00 0. -1.
         11    1    3    3    0    0  0.40487945184E+01  0.40645032711E+01  0.18312316167E+01  0.60221535507E+01  0.51100000000E-03 0. -1.
        -11    1    3    3    0    0  0.12517557134E+02 -0.14857324506E+02 -0.28871573727E+02  0.34799383584E+02  0.51100000000E-03 0.  1.
         12    1    3    3    0    0 -0.22496831007E+01 -0.64794762097E+01 -0.68693255489E+01  0.97073332849E+01  0.00000000000E+00 0. -1.
</event>
<event>
 7    1  0.9953837E-014  0.5052887E+02  0.7816164E-02  0.1300439E+00
        -11   -1    0    0    0    0  0.00000000000E+00  0.00000000000E+00  0.45593999997E+02  0.45594000000E+02  0.51100000000E-03 0. -1.
         11   -1    0    0    0    0 -0.00000000000E+00 -0.00000000000E+00 -0.45593999997E+02  0.45594000000E+02  0.51100000000E-03 0.  1.
    9900012    2    1    2    0    0 -0.35181322046E+02  0.13956848996E+02 -0.14854153533E+02  0.50528869021E+02  0.30000027875E+02 0.  0.
         12    1    1    2    0    0  0.35181322046E+02 -0.13956848996E+02  0.14854153533E+02  0.40659130979E+02  0.00000000000E+00 0. -1.
         11    1    3    3    0    0 -0.15930098273E+02 -0.61873986497E+00 -0.18766462115E+02  0.24623788713E+02  0.51100000000E-03 0. -1.
        -11    1    3    3    0    0 -0.15373674637E+02  0.14439973971E+02  0.11137030489E+01  0.21121151836E+02  0.51100000000E-03 0.  1.
         12    1    3    3    0    0 -0.38775491355E+01  0.13561488983E+00  0.27986055325E+01  0.47839284718E+01  0.00000000000E+00 0. -1.
</event>
<event>
 7    1  0.9953837E-014  0.5052886E+02  0.7816164E-02  0.1300439E+00
        -11   -1    0    0    0    0  0.00000000000E+00  0.00000000000E+00  0.45593999997E+02  0.45594000000E+02  0.51100000000E-03 0. -1.
         11   -1    0    0    0    0 -0.00000000000E+00 -0.00000000000E+00 -0.45593999997E+02  0.45594000000E+02  0.51100000000E-03 0.  1.
    9900012    2    1    2    0    0 -0.15575178188E+02  0.11352740372E+02  0.35800767134E+02  0.50528858138E+02  0.29999994798E+02 0.  0.
        -12    1    1    2    0    0  0.15575178188E+02 -0.11352740372E+02 -0.35800767134E+02  0.40659141862E+02  0.00000000000E+00 0.  1.
         11    1    3    3    0    0 -0.13314423472E+02  0.13672500317E+02  0.16855268733E+02  0.25461956359E+02  0.51100000000E-03 0. -1.
        -11    1    3    3    0    0 -0.33538976673E+01  0.30921688244E+00  0.21180902217E+02  0.21447024587E+02  0.51100000000E-03 0.  1.
        -12    1    3    3    0    0  0.10931429508E+01 -0.26289768277E+01 -0.22354038158E+01  0.36198771929E+01  0.00000000000E+00 0.  1.
</event>
<event>
 7    1  0.9953837E-014  0.5052886E+02  0.7816164E-02  0.1300439E+00
        -11   -1    0    0    0    0  0.00000000000E+00  0.00000000000E+00  0.45593999997E+02  0.45594000000E+02  0.51100000000E-03 0. -1.
         11   -1    0    0    0    0 -0.00000000000E+00 -0.00000000000E+00 -0.45593999997E+02  0.45594000000E+02  0.51100000000E-03 0.  1.
    9900012    2    1    2    0    0  0.12013164332E+02  0.37881884761E+02  0.85914002684E+01  0.50528862419E+02  0.30000007808E+02 0.  0.
        -12    1    1    2    0    0 -0.12013164332E+02 -0.37881884761E+02 -0.85914002684E+01  0.40659137581E+02  0.00000000000E+00 0.  1.
         11    1    3    3    0    0  0.81077583762E+01  0.23292134345E+02  0.13610231115E+02  0.28169090499E+02  0.51100000000E-03 0. -1.
        -11    1    3    3    0    0  0.51206117971E+01  0.12836093285E-02 -0.57537333821E+01  0.77023447676E+01  0.51100000000E-03 0.  1.
        -12    1    3    3    0    0 -0.12152058416E+01  0.14588466806E+02  0.73490253526E+00  0.14657427152E+02  0.00000000000E+00 0.  1.
</event>
<event>
 7    1  0.9953837E-014  0.5052886E+02  0.7816164E-02  0.1300439E+00
        -11   -1    0    0    0    0  0.00000000000E+00  0.00000000000E+00  0.45593999997E+02  0.45594000000E+02  0.51100000000E-03 0. -1.
         11   -1    0    0    0    0 -0.00000000000E+00 -0.00000000000E+00 -0.45593999997E+02  0.45594000000E+02  0.51100000000E-03 0.  1.
    9900012    2    1    2    0    0 -0.31525464883E+01 -0.14263258138E+02 -0.37944517496E+02  0.50528862158E+02  0.30000007015E+02 0.  0.
         12    1    1    2    0    0  0.31525464883E+01  0.14263258138E+02  0.37944517496E+02  0.40659137842E+02  0.00000000000E+00 0. -1.
         11    1    3    3    0    0  0.27657711464E+01 -0.11321093345E+02 -0.10806669439E+02  0.15893418424E+02  0.51100000000E-03 0. -1.
        -11    1    3    3    0    0 -0.12571462108E+02 -0.38099164790E+01 -0.23698746539E+02  0.27095898415E+02  0.51100000000E-03 0.  1.
         12    1    3    3    0    0  0.66531444733E+01  0.86775168602E+00 -0.34391015176E+01  0.75395453192E+01  0.00000000000E+00 0. -1.
</event>
<event>
 7    1  0.9953837E-014  0.5052888E+02  0.7816164E-02  0.1300439E+00
        -11   -1    0    0    0    0  0.00000000000E+00  0.00000000000E+00  0.45593999997E+02  0.45594000000E+02  0.51100000000E-03 0. -1.
         11   -1    0    0    0    0 -0.00000000000E+00 -0.00000000000E+00 -0.45593999997E+02  0.45594000000E+02  0.51100000000E-03 0.  1.
    9900012    2    1    2    0    0  0.23750733026E+02  0.16662866326E+02  0.28485350814E+02  0.50528884854E+02  0.30000076002E+02 0.  0.
        -12    1    1    2    0    0 -0.23750733026E+02 -0.16662866326E+02 -0.28485350814E+02  0.40659115146E+02  0.00000000000E+00 0.  1.
         11    1    3    3    0    0  0.26683283329E+01  0.17304630507E+02  0.56588128231E+01  0.18400879759E+02  0.51100000000E-03 0.  1.
        -11    1    3    3    0    0  0.21747238932E+02 -0.63801936583E+00  0.21229226224E+02  0.30397853809E+02  0.51100000000E-03 0. -1.
        -12    1    3    3    0    0 -0.66483423950E+00 -0.37448151180E-02  0.15973117676E+01  0.17301512861E+01  0.00000000000E+00 0.  1.
</event>
<event>
 7    1  0.9953837E-014  0.5052885E+02  0.7816164E-02  0.1300439E+00
        -11   -1    0    0    0    0  0.00000000000E+00  0.00000000000E+00  0.45593999997E+02  0.45594000000E+02  0.51100000000E-03 0. -1.
         11   -1    0    0    0    0 -0.00000000000E+00 -0.00000000000E+00 -0.45593999997E+02  0.45594000000E+02  0.51100000000E-03 0.  1.
    9900012    2    1    2    0    0 -0.34240215779E+02  0.10262132901E+02 -0.19376851618E+02  0.50528854327E+02  0.29999983212E+02 0.  0.
         12    1    1    2    0    0  0.34240215779E+02 -0.10262132901E+02  0.19376851618E+02  0.40659145673E+02  0.00000000000E+00 0. -1.
         11    1    3    3    0    0 -0.95947903969E+01 -0.86013970856E+00 -0.63981013427E+00  0.96544912009E+01  0.51100000000E-03 0. -1.
        -11    1    3    3    0    0 -0.50736854812E+01  0.14491506142E+02 -0.32604083436E+01  0.15696378482E+02  0.51100000000E-03 0.  1.
        -12    1    3    3    0    0 -0.19571739901E+02 -0.33692335333E+01 -0.15476633140E+02  0.25177984643E+02  0.00000000000E+00 0.  1.
</event>
<event>
 7    1  0.9953837E-014  0.5052886E+02  0.7816164E-02  0.1300439E+00
        -11   -1    0    0    0    0  0.00000000000E+00  0.00000000000E+00  0.45593999997E+02  0.45594000000E+02  0.51100000000E-03 0. -1.
         11   -1    0    0    0    0 -0.00000000000E+00 -0.00000000000E+00 -0.45593999997E+02  0.45594000000E+02  0.51100000000E-03 0.  1.
    9900012    2    1    2    0    0  0.95710533554E+01 -0.12654576192E+02  0.37435573718E+02  0.50528861538E+02  0.30000005130E+02 0.  0.
        -12    1    1    2    0    0 -0.95710533554E+01  0.12654576192E+02 -0.37435573718E+02  0.40659138462E+02  0.00000000000E+00 0.  1.
         11    1    3    3    0    0  0.14766488788E+02 -0.10384517888E+02  0.20102685247E+02  0.27018611314E+02  0.51100000000E-03 0. -1.
        -11    1    3    3    0    0 -0.73117085132E+01  0.23666822051E+01  0.16688226746E+02  0.18372783627E+02  0.51100000000E-03 0.  1.
        -12    1    3    3    0    0  0.21162730804E+01 -0.46367405085E+01  0.64466172461E+00  0.51374665968E+01  0.00000000000E+00 0.  1.
</event>
<event>
 7    1  0.1014886E-013  0.5052884E+02  0.7816164E-02  0.1300439E+00
        -11   -1    0    0    0    0  0.00000000000E+00  0.00000000000E+00  0.45593999997E+02  0.45594000000E+02  0.51100000000E-03 0. -1.
         11   -1    0    0    0    0 -0.00000000000E+00 -0.00000000000E+00 -0.45593999997E+02  0.45594000000E+02  0.51100000000E-03 0.  1.
    9900012    2    1    2    0    0 -0.14226044247E+02  0.11775375626E+02  0.36223297503E+02  0.50528842507E+02  0.29999947285E+02 0.  0.
        -12    1    1    2    0    0  0.14226044247E+02 -0.11775375626E+02 -0.36223297503E+02  0.40659157493E+02  0.00000000000E+00 0.  1.
         11    1    3    3    0    0 -0.32748886476E+01  0.17911809659E+02  0.23724395415E+02  0.29906600593E+02  0.51100000000E-03 0. -1.
        -11    1    3    3    0    0 -0.27403266376E+01 -0.68654015023E+01  0.90536507197E+01  0.11688101620E+02  0.51100000000E-03 0.  1.
         12    1    3    3    0    0 -0.82108289620E+01  0.72896746874E+00  0.34452513675E+01  0.89341402944E+01  0.00000000000E+00 0. -1.
</event>
<event>
 7    1  0.9953837E-014  0.5052886E+02  0.7816164E-02  0.1300439E+00
        -11   -1    0    0    0    0  0.00000000000E+00  0.00000000000E+00  0.45593999997E+02  0.45594000000E+02  0.51100000000E-03 0. -1.
         11   -1    0    0    0    0 -0.00000000000E+00 -0.00000000000E+00 -0.45593999997E+02  0.45594000000E+02  0.51100000000E-03 0.  1.
    9900012    2    1    2    0    0 -0.17282183361E+02  0.22395908509E+02 -0.29204711427E+02  0.50528858971E+02  0.29999997329E+02 0.  0.
         12    1    1    2    0    0  0.17282183361E+02 -0.22395908509E+02  0.29204711427E+02  0.40659141029E+02  0.00000000000E+00 0. -1.
         11    1    3    3    0    0 -0.14426823774E+02  0.17921882173E+01 -0.20559439736E+02  0.25180066428E+02  0.51100000000E-03 0. -1.
        -11    1    3    3    0    0  0.32929357511E+01  0.94909653925E+01 -0.10930012706E+00  0.10046581345E+02  0.51100000000E-03 0.  1.
         12    1    3    3    0    0 -0.61482953379E+01  0.11112754899E+02 -0.85359715634E+01  0.15302211198E+02  0.00000000000E+00 0. -1.
</event>
<event>
 7    1  0.9953837E-014  0.5052885E+02  0.7816164E-02  0.1300439E+00
        -11   -1    0    0    0    0  0.00000000000E+00  0.00000000000E+00  0.45593999997E+02  0.45594000000E+02  0.51100000000E-03 0. -1.
         11   -1    0    0    0    0 -0.00000000000E+00 -0.00000000000E+00 -0.45593999997E+02  0.45594000000E+02  0.51100000000E-03 0.  1.
    9900012    2    1    2    0    0 -0.28606326802E+02 -0.18718913297E+00  0.28893066128E+02  0.50528852897E+02  0.29999978864E+02 0.  0.
        -12    1    1    2    0    0  0.28606326802E+02  0.18718913297E+00 -0.28893066128E+02  0.40659147103E+02  0.00000000000E+00 0.  1.
         11    1    3    3    0    0 -0.53940099028E+01  0.75239268955E+01 -0.24730940606E+01  0.95823281750E+01  0.51100000000E-03 0.  1.
        -11    1    3    3    0    0 -0.19827704689E+02 -0.69682675069E+01  0.31013104238E+02  0.37463412285E+02  0.51100000000E-03 0. -1.
        -12    1    3    3    0    0 -0.33846122106E+01 -0.74284852156E+00  0.35305595064E+00  0.34831124366E+01  0.00000000000E+00 0.  1.
</event>
<event>
 7    1  0.9953837E-014  0.5052886E+02  0.7816164E-02  0.1300439E+00
        -11   -1    0    0    0    0  0.00000000000E+00  0.00000000000E+00  0.45593999997E+02  0.45594000000E+02  0.51100000000E-03 0. -1.
         11   -1    0    0    0    0 -0.00000000000E+00 -0.00000000000E+00 -0.45593999997E+02  0.45594000000E+02  0.51100000000E-03 0.  1.
    9900012    2    1    2    0    0 -0.13364638523E+02  0.16241786745E+02  0.34795922701E+02  0.50528862821E+02  0.30000009030E+02 0.  0.
        -12    1    1    2    0    0  0.13364638523E+02 -0.16241786745E+02 -0.34795922701E+02  0.40659137179E+02  0.00000000000E+00 0.  1.
         11    1    3    3    0    0 -0.15182540522E+01  0.42377675609E+01  0.27537647299E+02  0.27903150150E+02  0.51100000000E-03 0. -1.
        -11    1    3    3    0    0 -0.95618534279E+01  0.30311850512E+01  0.86714687629E+01  0.13259392692E+02  0.51100000000E-03 0.  1.
         12    1    3    3    0    0 -0.22845310431E+01  0.89728341330E+01 -0.14131933612E+01  0.93663199786E+01  0.00000000000E+00 0. -1.
</event>
<event>
 7    1  0.9953837E-014  0.5052887E+02  0.7816164E-02  0.1300439E+00
        -11   -1    0    0    0    0  0.00000000000E+00  0.00000000000E+00  0.45593999997E+02  0.45594000000E+02  0.51100000000E-03 0.  1.
         11   -1    0    0    0    0 -0.00000000000E+00 -0.00000000000E+00 -0.45593999997E+02  0.45594000000E+02  0.51100000000E-03 0. -1.
    9900012    2    1    2    0    0 -0.28539632410E+02  0.20057170529E+02 -0.20889330184E+02  0.50528870358E+02  0.30000031941E+02 0.  0.
         12    1    1    2    0    0  0.28539632410E+02 -0.20057170529E+02  0.20889330184E+02  0.40659129642E+02  0.00000000000E+00 0. -1.
         11    1    3    3    0    0  0.16302445046E+01  0.95287228218E+01 -0.30129788694E+01  0.10125823309E+02  0.51100000000E-03 0. -1.
        -11    1    3    3    0    0 -0.12119121203E+02 -0.18571892392E+01 -0.13204059732E+02  0.18018586079E+02  0.51100000000E-03 0.  1.
        -12    1    3    3    0    0 -0.18050755711E+02  0.12385636946E+02 -0.46722915816E+01  0.22384460970E+02  0.00000000000E+00 0.  1.
</event>
<event>
 7    1  0.9953837E-014  0.5052886E+02  0.7816164E-02  0.1300439E+00
        -11   -1    0    0    0    0  0.00000000000E+00  0.00000000000E+00  0.45593999997E+02  0.45594000000E+02  0.51100000000E-03 0. -1.
         11   -1    0    0    0    0 -0.00000000000E+00 -0.00000000000E+00 -0.45593999997E+02  0.45594000000E+02  0.51100000000E-03 0.  1.
    9900012    2    1    2    0    0 -0.28592708906E+02 -0.68585981488E+00 -0.28899003726E+02  0.50528858068E+02  0.29999994585E+02 0.  0.
         12    1    1    2    0    0  0.28592708906E+02  0.68585981488E+00  0.28899003726E+02  0.40659141932E+02  0.00000000000E+00 0. -1.
         11    1    3    3    0    0 -0.37087343812E+01  0.84990131107E+01  0.12808930840E+00  0.92738525812E+01  0.51100000000E-03 0. -1.
        -11    1    3    3    0    0 -0.16387564793E+02 -0.11804298432E+02 -0.17697099292E+02  0.26852952630E+02  0.51100000000E-03 0.  1.
        -12    1    3    3    0    0 -0.84964097322E+01  0.26194255066E+01 -0.11329993742E+02  0.14402052858E+02  0.00000000000E+00 0.  1.
</event>
<event>
 7    1  0.1035400E-013  0.5052890E+02  0.7816164E-02  0.1300439E+00
        -11   -1    0    0    0    0  0.00000000000E+00  0.00000000000E+00  0.45593999997E+02  0.45594000000E+02  0.51100000000E-03 0. -1.
         11   -1    0    0    0    0 -0.00000000000E+00 -0.00000000000E+00 -0.45593999997E+02  0.45594000000E+02  0.51100000000E-03 0.  1.
    9900012    2    1    2    0    0  0.26927698884E+01 -0.12956798526E+02  0.38445192401E+02  0.50528899463E+02  0.30000120407E+02 0.  0.
        -12    1    1    2    0    0 -0.26927698884E+01  0.12956798526E+02 -0.38445192401E+02  0.40659100537E+02  0.00000000000E+00 0.  1.
         11    1    3    3    0    0  0.84204812670E+00 -0.16740995202E+02  0.19911786637E+02  0.26027854555E+02  0.51100000000E-03 0. -1.
        -11    1    3    3    0    0  0.76290679800E+01  0.40600807702E+01  0.16001887021E+02  0.18186459870E+02  0.51100000000E-03 0.  1.
         12    1    3    3    0    0 -0.57783462183E+01 -0.27588409397E+00  0.25315187434E+01  0.63145850379E+01  0.00000000000E+00 0. -1.
</event>
<event>
 7    1  0.9953837E-014  0.5052886E+02  0.7816164E-02  0.1300439E+00
        -11   -1    0    0    0    0  0.00000000000E+00  0.00000000000E+00  0.45593999997E+02  0.45594000000E+02  0.51100000000E-03 0. -1.
         11   -1    0    0    0    0 -0.00000000000E+00 -0.00000000000E+00 -0.45593999997E+02  0.45594000000E+02  0.51100000000E-03 0.  1.
    9900012    2    1    2    0    0 -0.19844694338E+01  0.11419495293E+02  0.38972071593E+02  0.50528863808E+02  0.30000012030E+02 0.  0.
        -12    1    1    2    0    0  0.19844694338E+01 -0.11419495293E+02 -0.38972071593E+02  0.40659136192E+02  0.00000000000E+00 0.  1.
         11    1    3    3    0    0 -0.73038796194E+01  0.24098620335E+00  0.35891026505E+02  0.36627455763E+02  0.51100000000E-03 0. -1.
        -11    1    3    3    0    0  0.34987290900E+01  0.96555313883E+01  0.34009387513E+00  0.10275507566E+02  0.51100000000E-03 0.  1.
         12    1    3    3    0    0  0.18206810956E+01  0.15229777015E+01  0.27409512125E+01  0.36259004785E+01  0.00000000000E+00 0. -1.
</event>
<event>
 7    1  0.9953837E-014  0.5052886E+02  0.7816164E-02  0.1300439E+00
        -11   -1    0    0    0    0  0.00000000000E+00  0.00000000000E+00  0.45593999997E+02  0.45594000000E+02  0.51100000000E-03 0. -1.
         11   -1    0    0    0    0 -0.00000000000E+00 -0.00000000000E+00 -0.45593999997E+02  0.45594000000E+02  0.51100000000E-03 0.  1.
    9900012    2    1    2    0    0  0.19164216972E+02  0.17738199088E+02 -0.31164957339E+02  0.50528862220E+02  0.30000007204E+02 0.  0.
         12    1    1    2    0    0 -0.19164216972E+02 -0.17738199088E+02  0.31164957339E+02  0.40659137780E+02  0.00000000000E+00 0. -1.
         11    1    3    3    0    0  0.15956249374E+02 -0.21016151010E+00 -0.57440362422E+01  0.16959953259E+02  0.51100000000E-03 0. -1.
        -11    1    3    3    0    0  0.73920087102E+01  0.83665745593E+01 -0.15899391340E+02  0.19427609422E+02  0.51100000000E-03 0.  1.
         12    1    3    3    0    0 -0.41840411120E+01  0.95817860388E+01 -0.95215297572E+01  0.14141299538E+02  0.00000000000E+00 0. -1.
</event>
<event>
 7    1  0.9953837E-014  0.5052886E+02  0.7816164E-02  0.1300439E+00
        -11   -1    0    0    0    0  0.00000000000E+00  0.00000000000E+00  0.45593999997E+02  0.45594000000E+02  0.51100000000E-03 0. -1.
         11   -1    0    0    0    0 -0.00000000000E+00 -0.00000000000E+00 -0.45593999997E+02  0.45594000000E+02  0.51100000000E-03 0.  1.
    9900012    2    1    2    0    0  0.20504273230E+01 -0.35639234492E+02  0.19462951637E+02  0.50528858668E+02  0.29999996408E+02 0.  0.
        -12    1    1    2    0    0 -0.20504273230E+01  0.35639234492E+02 -0.19462951637E+02  0.40659141332E+02  0.00000000000E+00 0.  1.
         11    1    3    3    0    0 -0.57604605508E+01 -0.59030218864E+01  0.17789518532E+02  0.19608557902E+02  0.51100000000E-03 0. -1.
        -11    1    3    3    0    0  0.32996227920E+01 -0.11273478900E+02 -0.69729833938E+00  0.11767117842E+02  0.51100000000E-03 0.  1.
         12    1    3    3    0    0  0.45112650819E+01 -0.18462733706E+02  0.23707314445E+01  0.19153182924E+02  0.00000000000E+00 0. -1.
</event>
<event>
 7    1  0.9953837E-014  0.5052884E+02  0.7816164E-02  0.1300439E+00
        -11   -1    0    0    0    0  0.00000000000E+00  0.00000000000E+00  0.45593999997E+02  0.45594000000E+02  0.51100000000E-03 0. -1.
         11   -1    0    0    0    0 -0.00000000000E+00 -0.00000000000E+00 -0.45593999997E+02  0.45594000000E+02  0.51100000000E-03 0.  1.
    9900012    2    1    2    0    0 -0.23661178698E+02  0.23255512458E+02 -0.23505254840E+02  0.50528840612E+02  0.29999941524E+02 0.  0.
         12    1    1    2    0    0  0.23661178698E+02 -0.23255512458E+02  0.23505254840E+02  0.40659159388E+02  0.00000000000E+00 0. -1.
         11    1    3    3    0    0  0.16108686966E+01 -0.56467460017E-01 -0.54923644432E+01  0.57239980756E+01  0.51100000000E-03 0. -1.
        -11    1    3    3    0    0 -0.13696273749E+02  0.71897895643E+01  0.31554017558E+01  0.15787259075E+02  0.51100000000E-03 0.  1.
        -12    1    3    3    0    0 -0.11575773645E+02  0.16122190354E+02 -0.21168292153E+02  0.29017583461E+02  0.00000000000E+00 0.  1.
</event>
<event>
 7    1  0.9953837E-014  0.5052886E+02  0.7816164E-02  0.1300439E+00
        -11   -1    0    0    0    0  0.00000000000E+00  0.00000000000E+00  0.45593999997E+02  0.45594000000E+02  0.51100000000E-03 0.  1.
         11   -1    0    0    0    0 -0.00000000000E+00 -0.00000000000E+00 -0.45593999997E+02  0.45594000000E+02  0.51100000000E-03 0. -1.
    9900012    2    1    2    0    0 -0.28438532537E+02 -0.28968550103E+02 -0.22887982798E+01  0.50528860492E+02  0.30000001953E+02 0.  0.
         12    1    1    2    0    0  0.28438532537E+02  0.28968550103E+02  0.22887982798E+01  0.40659139508E+02  0.00000000000E+00 0. -1.
         11    1    3    3    0    0 -0.26959476811E+02 -0.29689060264E+02  0.77791827094E+00  0.40110582723E+02  0.51100000000E-03 0.  1.
        -11    1    3    3    0    0 -0.40410093220E+01  0.21927933355E+01  0.16226752352E+01  0.48755691086E+01  0.51100000000E-03 0. -1.
        -12    1    3    3    0    0  0.25619535959E+01 -0.14722831740E+01 -0.46893917859E+01  0.55427086604E+01  0.00000000000E+00 0.  1.
</event>
<event>
 7    1  0.9953837E-014  0.5052886E+02  0.7816164E-02  0.1300439E+00
        -11   -1    0    0    0    0  0.00000000000E+00  0.00000000000E+00  0.45593999997E+02  0.45594000000E+02  0.51100000000E-03 0. -1.
         11   -1    0    0    0    0 -0.00000000000E+00 -0.00000000000E+00 -0.45593999997E+02  0.45594000000E+02  0.51100000000E-03 0.  1.
    9900012    2    1    2    0    0  0.94144327698E+01  0.33119914431E+01 -0.39415286985E+02  0.50528859825E+02  0.29999999923E+02 0.  0.
         12    1    1    2    0    0 -0.94144327698E+01 -0.33119914431E+01  0.39415286985E+02  0.40659140175E+02  0.00000000000E+00 0. -1.
         11    1    3    3    0    0 -0.17333200832E+01  0.57680349460E+01  0.19315483847E+01  0.63249905196E+01  0.51100000000E-03 0. -1.
        -11    1    3    3    0    0  0.12395363413E+02 -0.14165831096E+01 -0.26742638352E+02  0.29509667028E+02  0.51100000000E-03 0.  1.
         12    1    3    3    0    0 -0.12476105600E+01 -0.10394603934E+01 -0.14604197018E+02  0.14694202277E+02  0.00000000000E+00 0. -1.
</event>
<event>
 7    1  0.9953837E-014  0.5052887E+02  0.7816164E-02  0.1300439E+00
        -11   -1    0    0    0    0  0.00000000000E+00  0.00000000000E+00  0.45593999997E+02  0.45594000000E+02  0.51100000000E-03 0. -1.
         11   -1    0    0    0    0 -0.00000000000E+00 -0.00000000000E+00 -0.45593999997E+02  0.45594000000E+02  0.51100000000E-03 0.  1.
    9900012    2    1    2    0    0 -0.25193266520E+02 -0.31476730925E+02 -0.52611664014E+01  0.50528866468E+02  0.30000020116E+02 0.  0.
         12    1    1    2    0    0  0.25193266520E+02  0.31476730925E+02  0.52611664014E+01  0.40659133532E+02  0.00000000000E+00 0. -1.
         11    1    3    3    0    0  0.54495365810E+00  0.42292881985E+01 -0.22252074699E+01  0.48099274112E+01  0.51100000000E-03 0. -1.
        -11    1    3    3    0    0 -0.24285414380E+02 -0.29746322150E+02 -0.60662809663E+01  0.38877047188E+02  0.51100000000E-03 0.  1.
         12    1    3    3    0    0 -0.14528057978E+01 -0.59596969739E+01  0.30303220347E+01  0.68418918686E+01  0.00000000000E+00 0. -1.
</event>
<event>
 7    1  0.9953837E-014  0.5052885E+02  0.7816164E-02  0.1300439E+00
        -11   -1    0    0    0    0  0.00000000000E+00  0.00000000000E+00  0.45593999997E+02  0.45594000000E+02  0.51100000000E-03 0. -1.
         11   -1    0    0    0    0 -0.00000000000E+00 -0.00000000000E+00 -0.45593999997E+02  0.45594000000E+02  0.51100000000E-03 0.  1.
    9900012    2    1    2    0    0  0.36475509144E+01 -0.38770175762E+02 -0.11693373454E+02  0.50528854177E+02  0.29999982756E+02 0.  0.
         12    1    1    2    0    0 -0.36475509144E+01  0.38770175762E+02  0.11693373454E+02  0.40659145823E+02  0.00000000000E+00 0. -1.
         11    1    3    3    0    0  0.34507015623E+01 -0.27771265849E+02 -0.91567575863E+01  0.29444808674E+02  0.51100000000E-03 0. -1.
        -11    1    3    3    0    0 -0.39791564837E+01  0.23700166367E+01 -0.50523079493E+01  0.68539390904E+01  0.51100000000E-03 0.  1.
         12    1    3    3    0    0  0.41760058358E+01 -0.13368926550E+02  0.25156920813E+01  0.14230106412E+02  0.00000000000E+00 0. -1.
</event>
<event>
 7    1  0.9953837E-014  0.5052886E+02  0.7816164E-02  0.1300439E+00
        -11   -1    0    0    0    0  0.00000000000E+00  0.00000000000E+00  0.45593999997E+02  0.45594000000E+02  0.51100000000E-03 0. -1.
         11   -1    0    0    0    0 -0.00000000000E+00 -0.00000000000E+00 -0.45593999997E+02  0.45594000000E+02  0.51100000000E-03 0.  1.
    9900012    2    1    2    0    0  0.99147329003E+01 -0.34868824506E+02 -0.18412725312E+02  0.50528864442E+02  0.30000013959E+02 0.  0.
         12    1    1    2    0    0 -0.99147329003E+01  0.34868824506E+02  0.18412725312E+02  0.40659135558E+02  0.00000000000E+00 0. -1.
         11    1    3    3    0    0  0.18201835076E+02 -0.24455073615E+02 -0.14213715607E+02  0.33636098722E+02  0.51100000000E-03 0.  1.
        -11    1    3    3    0    0 -0.69986128901E+01 -0.46506194089E+01  0.16696713767E+01  0.85671842539E+01  0.51100000000E-03 0. -1.
        -12    1    3    3    0    0 -0.12884892851E+01 -0.57631314817E+01 -0.58686810820E+01  0.83255814665E+01  0.00000000000E+00 0.  1.
</event>
<event>
 7    1  0.9953837E-014  0.5052886E+02  0.7816164E-02  0.1300439E+00
        -11   -1    0    0    0    0  0.00000000000E+00  0.00000000000E+00  0.45593999997E+02  0.45594000000E+02  0.51100000000E-03 0. -1.
         11   -1    0    0    0    0 -0.00000000000E+00 -0.00000000000E+00 -0.45593999997E+02  0.45594000000E+02  0.51100000000E-03 0.  1.
    9900012    2    1    2    0    0 -0.19173829752E+00 -0.84152041741E+01 -0.39778299933E+02  0.50528861170E+02  0.30000004012E+02 0.  0.
         12    1    1    2    0    0  0.19173829752E+00  0.84152041741E+01  0.39778299933E+02  0.40659138830E+02  0.00000000000E+00 0. -1.
         11    1    3    3    0    0  0.10109076063E+02 -0.13946252471E+02 -0.17650858717E+02  0.24662607132E+02  0.51100000000E-03 0. -1.
        -11    1    3    3    0    0  0.90148070008E+00  0.77039655725E+00 -0.14602582372E+01  0.18810987982E+01  0.51100000000E-03 0.  1.
         12    1    3    3    0    0 -0.11202295061E+02  0.47606517394E+01 -0.20667182978E+02  0.23985155240E+02  0.00000000000E+00 0. -1.
</event>
<event>
 7    1  0.9953837E-014  0.5052886E+02  0.7816164E-02  0.1300439E+00
        -11   -1    0    0    0    0  0.00000000000E+00  0.00000000000E+00  0.45593999997E+02  0.45594000000E+02  0.51100000000E-03 0. -1.
         11   -1    0    0    0    0 -0.00000000000E+00 -0.00000000000E+00 -0.45593999997E+02  0.45594000000E+02  0.51100000000E-03 0.  1.
    9900012    2    1    2    0    0 -0.20737028952E+02  0.23719525074E+02  0.25700682434E+02  0.50528864285E+02  0.30000013480E+02 0.  0.
        -12    1    1    2    0    0  0.20737028952E+02 -0.23719525074E+02 -0.25700682434E+02  0.40659135715E+02  0.00000000000E+00 0.  1.
         11    1    3    3    0    0 -0.59865793128E+01  0.37209179577E+01  0.14857608979E+02  0.16444844395E+02  0.51100000000E-03 0. -1.
        -11    1    3    3    0    0 -0.14481441006E+02  0.16393639680E+02 -0.80425866963E+00  0.21888590358E+02  0.51100000000E-03 0.  1.
        -12    1    3    3    0    0 -0.26900863345E+00  0.36049674365E+01  0.11647332125E+02  0.12195429533E+02  0.00000000000E+00 0.  1.
</event>
<event>
 7    1  0.9953837E-014  0.5052886E+02  0.7816164E-02  0.1300439E+00
        -11   -1    0    0    0    0  0.00000000000E+00  0.00000000000E+00  0.45593999997E+02  0.45594000000E+02  0.51100000000E-03 0. -1.
         11   -1    0    0    0    0 -0.00000000000E+00 -0.00000000000E+00 -0.45593999997E+02  0.45594000000E+02  0.51100000000E-03 0.  1.
    9900012    2    1    2    0    0 -0.12450018949E+02 -0.33188059677E+02  0.19917705358E+02  0.50528864942E+02  0.30000015479E+02 0.  0.
        -12    1    1    2    0    0  0.12450018949E+02  0.33188059677E+02 -0.19917705358E+02  0.40659135058E+02  0.00000000000E+00 0.  1.
         11    1    3    3    0    0 -0.79155385401E+01 -0.25077094851E+01  0.82991866642E+01  0.11739712807E+02  0.51100000000E-03 0. -1.
        -11    1    3    3    0    0 -0.49176913159E+01 -0.33491143549E+02  0.12026412279E+02  0.35923181606E+02  0.51100000000E-03 0.  1.
        -12    1    3    3    0    0  0.38321090755E+00  0.28107933576E+01 -0.40789358586E+00  0.28659705295E+01  0.00000000000E+00 0.  1.
</event>
<event>
 7    1  0.9953837E-014  0.5052886E+02  0.7816164E-02  0.1300439E+00
        -11   -1    0    0    0    0  0.00000000000E+00  0.00000000000E+00  0.45593999997E+02  0.45594000000E+02  0.51100000000E-03 0.  1.
         11   -1    0    0    0    0 -0.00000000000E+00 -0.00000000000E+00 -0.45593999997E+02  0.45594000000E+02  0.51100000000E-03 0. -1.
    9900012    2    1    2    0    0 -0.17586868773E+02 -0.34090763940E+02  0.13479158035E+02  0.50528857848E+02  0.29999993914E+02 0.  0.
        -12    1    1    2    0    0  0.17586868773E+02  0.34090763940E+02 -0.13479158035E+02  0.40659142152E+02  0.00000000000E+00 0.  1.
         11    1    3    3    0    0 -0.22043809777E+02 -0.34434964531E+02  0.11174284038E+02  0.42385857969E+02  0.51100000000E-03 0. -1.
        -11    1    3    3    0    0  0.19501290179E+01  0.11761138210E+01 -0.20405787019E+01  0.30578110808E+01  0.51100000000E-03 0.  1.
         12    1    3    3    0    0  0.25068119859E+01 -0.83191322936E+00  0.43454526983E+01  0.50851887975E+01  0.00000000000E+00 0. -1.
</event>
<event>
 7    1  0.9953837E-014  0.5052886E+02  0.7816164E-02  0.1300439E+00
        -11   -1    0    0    0    0  0.00000000000E+00  0.00000000000E+00  0.45593999997E+02  0.45594000000E+02  0.51100000000E-03 0. -1.
         11   -1    0    0    0    0 -0.00000000000E+00 -0.00000000000E+00 -0.45593999997E+02  0.45594000000E+02  0.51100000000E-03 0.  1.
    9900012    2    1    2    0    0 -0.13965449947E+02  0.16548134742E+02  0.34413530110E+02  0.50528860679E+02  0.30000002520E+02 0.  0.
        -12    1    1    2    0    0  0.13965449947E+02 -0.16548134742E+02 -0.34413530110E+02  0.40659139321E+02  0.00000000000E+00 0.  1.
         11    1    3    3    0    0 -0.15068520516E+02 -0.30661415089E+01  0.10944202471E+02  0.18874244416E+02  0.51100000000E-03 0. -1.
        -11    1    3    3    0    0  0.20116561540E+01  0.13943061605E+02  0.10822363245E+02  0.17764551047E+02  0.51100000000E-03 0.  1.
         12    1    3    3    0    0 -0.90858558443E+00  0.56712146455E+01  0.12646964394E+02  0.13890065216E+02  0.00000000000E+00 0. -1.
</event>
<event>
 7    1  0.9953837E-014  0.5052887E+02  0.7816164E-02  0.1300439E+00
        -11   -1    0    0    0    0  0.00000000000E+00  0.00000000000E+00  0.45593999997E+02  0.45594000000E+02  0.51100000000E-03 0. -1.
         11   -1    0    0    0    0 -0.00000000000E+00 -0.00000000000E+00 -0.45593999997E+02  0.45594000000E+02  0.51100000000E-03 0.  1.
    9900012    2    1    2    0    0 -0.49394573524E+00 -0.53878673071E+01 -0.40297541675E+02  0.50528868657E+02  0.30000026769E+02 0.  0.
         12    1    1    2    0    0  0.49394573524E+00  0.53878673071E+01  0.40297541675E+02  0.40659131343E+02  0.00000000000E+00 0. -1.
         11    1    3    3    0    0 -0.14561603480E+01 -0.43105207532E+01 -0.16230408505E+01  0.48306577178E+01  0.51100000000E-03 0. -1.
        -11    1    3    3    0    0  0.56804345320E+01 -0.67602445844E+01 -0.37112654376E+02  0.38148621973E+02  0.51100000000E-03 0.  1.
        -12    1    3    3    0    0 -0.47182199193E+01  0.56828980305E+01 -0.15618464488E+01  0.75495889663E+01  0.00000000000E+00 0.  1.
</event>
<event>
 7    1  0.9953837E-014  0.5052885E+02  0.7816164E-02  0.1300439E+00
        -11   -1    0    0    0    0  0.00000000000E+00  0.00000000000E+00  0.45593999997E+02  0.45594000000E+02  0.51100000000E-03 0. -1.
         11   -1    0    0    0    0 -0.00000000000E+00 -0.00000000000E+00 -0.45593999997E+02  0.45594000000E+02  0.51100000000E-03 0.  1.
    9900012    2    1    2    0    0  0.29613868608E+02 -0.12751280337E+02  0.24770747123E+02  0.50528852479E+02  0.29999977594E+02 0.  0.
        -12    1    1    2    0    0 -0.29613868608E+02  0.12751280337E+02 -0.24770747123E+02  0.40659147521E+02  0.00000000000E+00 0.  1.
         11    1    3    3    0    0  0.40375141405E+01 -0.99775415699E+01  0.38984295108E+01  0.11447733799E+02  0.51100000000E-03 0. -1.
        -11    1    3    3    0    0  0.24802995049E+02  0.23191368590E+01  0.22612765072E+02  0.33643782540E+02  0.51100000000E-03 0.  1.
        -12    1    3    3    0    0  0.77335941855E+00 -0.50928756261E+01 -0.17404474601E+01  0.54373361395E+01  0.00000000000E+00 0.  1.
</event>
<event>
 7    1  0.9953837E-014  0.5052886E+02  0.7816164E-02  0.1300439E+00
        -11   -1    0    0    0    0  0.00000000000E+00  0.00000000000E+00  0.45593999997E+02  0.45594000000E+02  0.51100000000E-03 0. -1.
         11   -1    0    0    0    0 -0.00000000000E+00 -0.00000000000E+00 -0.45593999997E+02  0.45594000000E+02  0.51100000000E-03 0.  1.
    9900012    2    1    2    0    0 -0.24714573379E+02 -0.27678489421E+02 -0.16620973487E+02  0.50528859901E+02  0.30000000156E+02 0.  0.
         12    1    1    2    0    0  0.24714573379E+02  0.27678489421E+02  0.16620973487E+02  0.40659140099E+02  0.00000000000E+00 0. -1.
         11    1    3    3    0    0 -0.11383890098E+02 -0.55251338838E+01 -0.45989460874E+00  0.12662209977E+02  0.51100000000E-03 0.  1.
        -11    1    3    3    0    0 -0.46468820516E+00 -0.11110642196E+02 -0.17634157019E+02  0.20847680906E+02  0.51100000000E-03 0. -1.
         12    1    3    3    0    0 -0.12865995076E+02 -0.11042713341E+02  0.14730781410E+01  0.17018969018E+02  0.00000000000E+00 0. -1.
</event>
<event>
 7    1  0.9953837E-014  0.5052887E+02  0.7816164E-02  0.1300439E+00
        -11   -1    0    0    0    0  0.00000000000E+00  0.00000000000E+00  0.45593999997E+02  0.45594000000E+02  0.51100000000E-03 0. -1.
         11   -1    0    0    0    0 -0.00000000000E+00 -0.00000000000E+00 -0.45593999997E+02  0.45594000000E+02  0.51100000000E-03 0.  1.
    9900012    2    1    2    0    0  0.24541717765E+01  0.54807189567E+01  0.40213226986E+02  0.50528869857E+02  0.30000030417E+02 0.  0.
        -12    1    1    2    0    0 -0.24541717765E+01 -0.54807189567E+01 -0.40213226986E+02  0.40659130143E+02  0.00000000000E+00 0.  1.
         11    1    3    3    0    0  0.39312768918E+01  0.88108657531E+01  0.19006969583E+01  0.98335620458E+01  0.51100000000E-03 0. -1.
        -11    1    3    3    0    0 -0.59361995793E+01 -0.36130313078E+01  0.33137437890E+02  0.33858267097E+02  0.51100000000E-03 0.  1.
        -12    1    3    3    0    0  0.44590944639E+01  0.28288451130E+00  0.51750921378E+01  0.68370407136E+01  0.00000000000E+00 0.  1.
</event>
<event>
 7    1  0.9953837E-014  0.5052886E+02  0.7816164E-02  0.1300439E+00
        -11   -1    0    0    0    0  0.00000000000E+00  0.00000000000E+00  0.45593999997E+02  0.45594000000E+02  0.51100000000E-03 0. -1.
         11   -1    0    0    0    0 -0.00000000000E+00 -0.00000000000E+00 -0.45593999997E+02  0.45594000000E+02  0.51100000000E-03 0.  1.
    9900012    2    1    2    0    0  0.27477733880E+01  0.40475243743E+02  0.27147614429E+01  0.50528861490E+02  0.30000004986E+02 0.  0.
         12    1    1    2    0    0 -0.27477733880E+01 -0.40475243743E+02 -0.27147614429E+01  0.40659138510E+02  0.00000000000E+00 0. -1.
         11    1    3    3    0    0 -0.85327164113E+01  0.24027678486E+02  0.73674293643E+01  0.26540828896E+02  0.51100000000E-03 0. -1.
        -11    1    3    3    0    0  0.17440854686E+01  0.63080990782E+00 -0.51895366229E+01  0.55109931849E+01  0.51100000000E-03 0.  1.
        -12    1    3    3    0    0  0.95364043307E+01  0.15816755349E+02  0.53686870155E+00  0.18477039410E+02  0.00000000000E+00 0.  1.
</event>
<event>
 7    1  0.9953837E-014  0.5052886E+02  0.7816164E-02  0.1300439E+00
        -11   -1    0    0    0    0  0.00000000000E+00  0.00000000000E+00  0.45593999997E+02  0.45594000000E+02  0.51100000000E-03 0. -1.
         11   -1    0    0    0    0 -0.00000000000E+00 -0.00000000000E+00 -0.45593999997E+02  0.45594000000E+02  0.51100000000E-03 0.  1.
    9900012    2    1    2    0    0  0.14976755895E+02  0.23879059612E+02 -0.29302785930E+02  0.50528856276E+02  0.29999989137E+02 0.  0.
         12    1    1    2    0    0 -0.14976755895E+02 -0.23879059612E+02  0.29302785930E+02  0.40659143724E+02  0.00000000000E+00 0. -1.
         11    1    3    3    0    0 -0.22724648082E+01  0.59175398514E+01  0.47922670273E+01  0.79465211080E+01  0.51100000000E-03 0. -1.
        -11    1    3    3    0    0  0.89770230869E+01  0.12186089396E+02 -0.17266184769E+02  0.22961029050E+02  0.51100000000E-03 0.  1.
        -12    1    3    3    0    0  0.82721976162E+01  0.57754303640E+01 -0.16828868189E+02  0.19621306119E+02  0.00000000000E+00 0.  1.
</event>
<event>
 7    1  0.9953837E-014  0.5052883E+02  0.7816164E-02  0.1300439E+00
        -11   -1    0    0    0    0  0.00000000000E+00  0.00000000000E+00  0.45593999997E+02  0.45594000000E+02  0.51100000000E-03 0.  1.
         11   -1    0    0    0    0 -0.00000000000E+00 -0.00000000000E+00 -0.45593999997E+02  0.45594000000E+02  0.51100000000E-03 0. -1.
    9900012    2    1    2    0    0 -0.34167535984E+02 -0.38248175220E+01  0.21705267529E+02  0.50528826584E+02  0.29999898886E+02 0.  0.
        -12    1    1    2    0    0  0.34167535984E+02  0.38248175220E+01 -0.21705267529E+02  0.40659173416E+02  0.00000000000E+00 0.  1.
         11    1    3    3    0    0 -0.12277530047E+02  0.32236017125E+01 -0.37552991723E+01  0.13237508232E+02  0.51100000000E-03 0. -1.
        -11    1    3    3    0    0 -0.16792822791E+02 -0.92126535217E+01  0.25324282302E+02  0.31752026023E+02  0.51100000000E-03 0.  1.
        -12    1    3    3    0    0 -0.50971831455E+01  0.21642342873E+01  0.13628440013E+00  0.55392923291E+01  0.00000000000E+00 0.  1.
</event>
<event>
 7    1  0.9953837E-014  0.5052884E+02  0.7816164E-02  0.1300439E+00
        -11   -1    0    0    0    0  0.00000000000E+00  0.00000000000E+00  0.45593999997E+02  0.45594000000E+02  0.51100000000E-03 0. -1.
         11   -1    0    0    0    0 -0.00000000000E+00 -0.00000000000E+00 -0.45593999997E+02  0.45594000000E+02  0.51100000000E-03 0.  1.
    9900012    2    1    2    0    0 -0.46933763079E+01 -0.13160494183E+02 -0.38182995075E+02  0.50528837426E+02  0.29999931840E+02 0.  0.
         12    1    1    2    0    0  0.46933763079E+01  0.13160494183E+02  0.38182995075E+02  0.40659162574E+02  0.00000000000E+00 0. -1.
         11    1    3    3    0    0  0.70152768971E+01 -0.98155077285E+01 -0.56085119441E+01  0.13304649879E+02  0.51100000000E-03 0. -1.
        -11    1    3    3    0    0 -0.30125057353E+01 -0.63094658027E+01 -0.22628835100E+02  0.23684356183E+02  0.51100000000E-03 0.  1.
         12    1    3    3    0    0 -0.86961474697E+01  0.29644793486E+01 -0.99456480309E+01  0.13539831364E+02  0.00000000000E+00 0. -1.
</event>
<event>
 7    1  0.9953837E-014  0.5052887E+02  0.7816164E-02  0.1300439E+00
        -11   -1    0    0    0    0  0.00000000000E+00  0.00000000000E+00  0.45593999997E+02  0.45594000000E+02  0.51100000000E-03 0. -1.
         11   -1    0    0    0    0 -0.00000000000E+00 -0.00000000000E+00 -0.45593999997E+02  0.45594000000E+02  0.51100000000E-03 0.  1.
    9900012    2    1    2    0    0 -0.88514212745E+01  0.28131362983E+02  0.27990069090E+02  0.50528865608E+02  0.30000017501E+02 0.  0.
        -12    1    1    2    0    0  0.88514212745E+01 -0.28131362983E+02 -0.27990069090E+02  0.40659134392E+02  0.00000000000E+00 0.  1.
         11    1    3    3    0    0 -0.87961844043E+01  0.35953734941E+01  0.14828464380E+02  0.17612010867E+02  0.51100000000E-03 0. -1.
        -11    1    3    3    0    0  0.53203728795E+01  0.13278311344E+02 -0.63209916124E+00  0.14318500946E+02  0.51100000000E-03 0.  1.
        -12    1    3    3    0    0 -0.53756097498E+01  0.11257678144E+02  0.13793703871E+02  0.18598353795E+02  0.00000000000E+00 0.  1.
</event>
<event>
 7    1  0.9953837E-014  0.5052885E+02  0.7816164E-02  0.1300439E+00
        -11   -1    0    0    0    0  0.00000000000E+00  0.00000000000E+00  0.45593999997E+02  0.45594000000E+02  0.51100000000E-03 0. -1.
         11   -1    0    0    0    0 -0.00000000000E+00 -0.00000000000E+00 -0.45593999997E+02  0.45594000000E+02  0.51100000000E-03 0.  1.
    9900012    2    1    2    0    0  0.65710524273E+01 -0.25766462779E+02  0.30758360984E+02  0.50528854602E+02  0.29999984047E+02 0.  0.
        -12    1    1    2    0    0 -0.65710524273E+01  0.25766462779E+02 -0.30758360984E+02  0.40659145398E+02  0.00000000000E+00 0.  1.
         11    1    3    3    0    0 -0.12412366468E+01 -0.19528079823E+02  0.49743236473E+01  0.20189860475E+02  0.51100000000E-03 0. -1.
        -11    1    3    3    0    0  0.48181160018E+01  0.21607676136E+01  0.17082279222E+02  0.17879804870E+02  0.51100000000E-03 0.  1.
        -12    1    3    3    0    0  0.29941730723E+01 -0.83991505694E+01  0.87017581140E+01  0.12459189257E+02  0.00000000000E+00 0.  1.
</event>
<event>
 7    1  0.9953837E-014  0.5052888E+02  0.7816164E-02  0.1300439E+00
        -11   -1    0    0    0    0  0.00000000000E+00  0.00000000000E+00  0.45593999997E+02  0.45594000000E+02  0.51100000000E-03 0. -1.
         11   -1    0    0    0    0 -0.00000000000E+00 -0.00000000000E+00 -0.45593999997E+02  0.45594000000E+02  0.51100000000E-03 0.  1.
    9900012    2    1    2    0    0 -0.96905827414E+00 -0.32396523230E+02 -0.24549758330E+02  0.50528875250E+02  0.30000046811E+02 0.  0.
         12    1    1    2    0    0  0.96905827414E+00  0.32396523230E+02  0.24549758330E+02  0.40659124750E+02  0.00000000000E+00 0. -1.
         11    1    3    3    0    0 -0.48704535970E+01  0.36363413825E+01 -0.87707653547E+00  0.61411367352E+01  0.51100000000E-03 0. -1.
        -11    1    3    3    0    0 -0.21952770818E+01 -0.19337409102E+02 -0.95076313557E+01  0.21659863492E+02  0.51100000000E-03 0.  1.
         12    1    3    3    0    0  0.60966724046E+01 -0.16695455511E+02 -0.14165050439E+02  0.22727875023E+02  0.00000000000E+00 0. -1.
</event>
<event>
 7    1  0.9953837E-014  0.5052886E+02  0.7816164E-02  0.1300439E+00
        -11   -1    0    0    0    0  0.00000000000E+00  0.00000000000E+00  0.45593999997E+02  0.45594000000E+02  0.51100000000E-03 0. -1.
         11   -1    0    0    0    0 -0.00000000000E+00 -0.00000000000E+00 -0.45593999997E+02  0.45594000000E+02  0.51100000000E-03 0.  1.
    9900012    2    1    2    0    0  0.41040909047E+01  0.83223301579E+01 -0.39586119497E+02  0.50528860827E+02  0.30000002970E+02 0.  0.
         12    1    1    2    0    0 -0.41040909047E+01 -0.83223301579E+01  0.39586119497E+02  0.40659139173E+02  0.00000000000E+00 0. -1.
         11    1    3    3    0    0  0.55096287787E+01 -0.51508647188E+01 -0.67080997887E+01  0.10093860494E+02  0.51100000000E-03 0. -1.
        -11    1    3    3    0    0  0.35704811042E+01  0.16950560555E+02 -0.22284102529E+02  0.28225007781E+02  0.51100000000E-03 0.  1.
        -12    1    3    3    0    0 -0.49760189782E+01 -0.34773656779E+01 -0.10593917180E+02  0.12209992553E+02  0.00000000000E+00 0.  1.
</event>
<event>
 7    1  0.9953837E-014  0.5052883E+02  0.7816164E-02  0.1300439E+00
        -11   -1    0    0    0    0  0.00000000000E+00  0.00000000000E+00  0.45593999997E+02  0.45594000000E+02  0.51100000000E-03 0. -1.
         11   -1    0    0    0    0 -0.00000000000E+00 -0.00000000000E+00 -0.45593999997E+02  0.45594000000E+02  0.51100000000E-03 0.  1.
    9900012    2    1    2    0    0  0.11037511252E+02 -0.11096846000E+01  0.39116620277E+02  0.50528830844E+02  0.29999911835E+02 0.  0.
        -12    1    1    2    0    0 -0.11037511252E+02  0.11096846000E+01 -0.39116620277E+02  0.40659169156E+02  0.00000000000E+00 0.  1.
         11    1    3    3    0    0  0.96807163075E+01  0.13107497004E+02  0.24941919998E+02  0.29792987756E+02  0.51100000000E-03 0. -1.
        -11    1    3    3    0    0 -0.13590296486E+01 -0.10138823382E+02  0.98349401322E+01  0.14190445688E+02  0.51100000000E-03 0.  1.
         12    1    3    3    0    0  0.27158245932E+01 -0.40783582223E+01  0.43397601459E+01  0.65453974008E+01  0.00000000000E+00 0. -1.
</event>
<event>
 7    1  0.9953837E-014  0.5052886E+02  0.7816164E-02  0.1300439E+00
        -11   -1    0    0    0    0  0.00000000000E+00  0.00000000000E+00  0.45593999997E+02  0.45594000000E+02  0.51100000000E-03 0. -1.
         11   -1    0    0    0    0 -0.00000000000E+00 -0.00000000000E+00 -0.45593999997E+02  0.45594000000E+02  0.51100000000E-03 0.  1.
    9900012    2    1    2    0    0 -0.20476286816E+02  0.20478981091E+02 -0.28539419470E+02  0.50528862626E+02  0.30000008439E+02 0.  0.
         12    1    1    2    0    0  0.20476286816E+02 -0.20478981091E+02  0.28539419470E+02  0.40659137374E+02  0.00000000000E+00 0. -1.
         11    1    3    3    0    0  0.14285095382E+01  0.12371036014E+02 -0.14946889193E+02  0.19454888033E+02  0.51100000000E-03 0. -1.
        -11    1    3    3    0    0 -0.19231842754E+02  0.51974616825E+00 -0.12528757445E+02  0.22958738536E+02  0.51100000000E-03 0.  1.
         12    1    3    3    0    0 -0.26729536002E+01  0.75881989084E+01 -0.10637728320E+01  0.81152360570E+01  0.00000000000E+00 0. -1.
</event>
<event>
 7    1  0.9953837E-014  0.5052886E+02  0.7816164E-02  0.1300439E+00
        -11   -1    0    0    0    0  0.00000000000E+00  0.00000000000E+00  0.45593999997E+02  0.45594000000E+02  0.51100000000E-03 0. -1.
         11   -1    0    0    0    0 -0.00000000000E+00 -0.00000000000E+00 -0.45593999997E+02  0.45594000000E+02  0.51100000000E-03 0.  1.
    9900012    2    1    2    0    0 -0.60155970018E+01  0.31402489754E+02  0.25116965382E+02  0.50528859330E+02  0.29999998420E+02 0.  0.
        -12    1    1    2    0    0  0.60155970018E+01 -0.31402489754E+02 -0.25116965382E+02  0.40659140670E+02  0.00000000000E+00 0.  1.
         11    1    3    3    0    0 -0.14978543358E+02  0.24782021810E+02  0.22676243588E+02  0.36779306541E+02  0.51100000000E-03 0. -1.
        -11    1    3    3    0    0  0.18367799078E+01  0.27737222914E+01 -0.25899583565E+01  0.42160621828E+01  0.51100000000E-03 0.  1.
         12    1    3    3    0    0  0.71261664485E+01  0.38467456520E+01  0.50306801500E+01  0.95334906060E+01  0.00000000000E+00 0. -1.
</event>
<event>
 7    1  0.9953837E-014  0.5052888E+02  0.7816164E-02  0.1300439E+00
        -11   -1    0    0    0    0  0.00000000000E+00  0.00000000000E+00  0.45593999997E+02  0.45594000000E+02  0.51100000000E-03 0. -1.
         11   -1    0    0    0    0 -0.00000000000E+00 -0.00000000000E+00 -0.45593999997E+02  0.45594000000E+02  0.51100000000E-03 0.  1.
    9900012    2    1    2    0    0  0.37412358378E+02  0.13873288150E+02  0.78109682515E+01  0.50528881606E+02  0.30000066130E+02 0.  0.
        -12    1    1    2    0    0 -0.37412358378E+02 -0.13873288150E+02 -0.78109682515E+01  0.40659118394E+02  0.00000000000E+00 0.  1.
         11    1    3    3    0    0  0.12895972925E+02 -0.14217004523E+01 -0.67136514711E+01  0.14608232823E+02  0.51100000000E-03 0.  1.
        -11    1    3    3    0    0  0.22105980309E+02  0.17598137861E+02  0.15774118252E+02  0.32360340364E+02  0.51100000000E-03 0. -1.
         12    1    3    3    0    0  0.24104051443E+01 -0.23031492585E+01 -0.12494985295E+01  0.35603084195E+01  0.00000000000E+00 0. -1.
</event>
<event>
 7    1  0.9953837E-014  0.5052888E+02  0.7816164E-02  0.1300439E+00
        -11   -1    0    0    0    0  0.00000000000E+00  0.00000000000E+00  0.45593999997E+02  0.45594000000E+02  0.51100000000E-03 0. -1.
         11   -1    0    0    0    0 -0.00000000000E+00 -0.00000000000E+00 -0.45593999997E+02  0.45594000000E+02  0.51100000000E-03 0.  1.
    9900012    2    1    2    0    0  0.31743981948E+02 -0.10394659973E+02  0.23182637842E+02  0.50528879951E+02  0.30000061098E+02 0.  0.
        -12    1    1    2    0    0 -0.31743981948E+02  0.10394659973E+02 -0.23182637842E+02  0.40659120049E+02  0.00000000000E+00 0.  1.
         11    1    3    3    0    0  0.19629503181E+02  0.22559657353E+01  0.86711360103E+01  0.21577659199E+02  0.51100000000E-03 0. -1.
        -11    1    3    3    0    0  0.79474831219E+01 -0.12238828349E+02  0.18229888212E+02  0.23351236195E+02  0.51100000000E-03 0.  1.
        -12    1    3    3    0    0  0.41669956448E+01 -0.41179735925E+00 -0.37183863801E+01  0.55999845572E+01  0.00000000000E+00 0.  1.
</event>
<event>
 7    1  0.9953837E-014  0.5052886E+02  0.7816164E-02  0.1300439E+00
        -11   -1    0    0    0    0  0.00000000000E+00  0.00000000000E+00  0.45593999997E+02  0.45594000000E+02  0.51100000000E-03 0. -1.
         11   -1    0    0    0    0 -0.00000000000E+00 -0.00000000000E+00 -0.45593999997E+02  0.45594000000E+02  0.51100000000E-03 0.  1.
    9900012    2    1    2    0    0 -0.36203802083E+01 -0.12683648997E+02  0.38460151960E+02  0.50528863345E+02  0.30000010624E+02 0.  0.
        -12    1    1    2    0    0  0.36203802083E+01  0.12683648997E+02 -0.38460151960E+02  0.40659136655E+02  0.00000000000E+00 0.  1.
         11    1    3    3    0    0 -0.61248690136E+01  0.42985053702E+01  0.18997103285E+02  0.20417666428E+02  0.51100000000E-03 0.  1.
        -11    1    3    3    0    0 -0.49070452513E+01 -0.14214275275E+02  0.12058364317E+02  0.19275084045E+02  0.51100000000E-03 0. -1.
        -12    1    3    3    0    0  0.74115340567E+01 -0.27678790923E+01  0.74046843577E+01  0.10836112872E+02  0.00000000000E+00 0.  1.
</event>
<event>
 7    1  0.9953837E-014  0.5052886E+02  0.7816164E-02  0.1300439E+00
        -11   -1    0    0    0    0  0.00000000000E+00  0.00000000000E+00  0.45593999997E+02  0.45594000000E+02  0.51100000000E-03 0. -1.
         11   -1    0    0    0    0 -0.00000000000E+00 -0.00000000000E+00 -0.45593999997E+02  0.45594000000E+02  0.51100000000E-03 0.  1.
    9900012    2    1    2    0    0  0.33541247009E+01 -0.15657357458E+02 -0.37373288149E+02  0.50528860042E+02  0.30000000583E+02 0.  0.
         12    1    1    2    0    0 -0.33541247009E+01  0.15657357458E+02  0.37373288149E+02  0.40659139958E+02  0.00000000000E+00 0. -1.
         11    1    3    3    0    0 -0.87895292394E+01 -0.21603729089E+01 -0.50943315896E+01  0.10386301072E+02  0.51100000000E-03 0. -1.
        -11    1    3    3    0    0  0.94281830150E+01 -0.10248673241E+00 -0.18337217748E+02  0.20619279655E+02  0.51100000000E-03 0.  1.
         12    1    3    3    0    0  0.27154709253E+01 -0.13394497817E+02 -0.13941738812E+02  0.19523279315E+02  0.00000000000E+00 0. -1.
</event>
<event>
 7    1  0.9953837E-014  0.5052886E+02  0.7816164E-02  0.1300439E+00
        -11   -1    0    0    0    0  0.00000000000E+00  0.00000000000E+00  0.45593999997E+02  0.45594000000E+02  0.51100000000E-03 0. -1.
         11   -1    0    0    0    0 -0.00000000000E+00 -0.00000000000E+00 -0.45593999997E+02  0.45594000000E+02  0.51100000000E-03 0.  1.
    9900012    2    1    2    0    0 -0.35167726076E+02  0.43221871622E+01  0.19942813219E+02  0.50528855170E+02  0.29999985774E+02 0.  0.
        -12    1    1    2    0    0  0.35167726076E+02 -0.43221871622E+01 -0.19942813219E+02  0.40659144830E+02  0.00000000000E+00 0.  1.
         11    1    3    3    0    0 -0.13464016682E+02  0.13491406848E+02  0.17877728019E+02  0.26132565189E+02  0.51100000000E-03 0. -1.
        -11    1    3    3    0    0 -0.12912952659E+02 -0.78334687023E+01  0.31818940180E+01  0.15434766862E+02  0.51100000000E-03 0.  1.
         12    1    3    3    0    0 -0.87907567351E+01 -0.13357509838E+01 -0.11168088186E+01  0.89615231185E+01  0.00000000000E+00 0. -1.
</event>
<event>
 7    1  0.1131951E-013  0.5052886E+02  0.7816164E-02  0.1300439E+00
        -11   -1    0    0    0    0  0.00000000000E+00  0.00000000000E+00  0.45593999997E+02  0.45594000000E+02  0.51100000000E-03 0. -1.
         11   -1    0    0    0    0 -0.00000000000E+00 -0.00000000000E+00 -0.45593999997E+02  0.45594000000E+02  0.51100000000E-03 0.  1.
    9900012    2    1    2    0    0 -0.21876627360E+01 -0.36380400390E+01  0.40436915153E+02  0.50528864364E+02  0.30000013722E+02 0.  0.
        -12    1    1    2    0    0  0.21876627360E+01  0.36380400390E+01 -0.40436915153E+02  0.40659135636E+02  0.00000000000E+00 0.  1.
         11    1    3    3    0    0 -0.12086760811E+02 -0.10729657341E+02  0.27416559370E+02  0.31825823815E+02  0.51100000000E-03 0. -1.
        -11    1    3    3    0    0  0.28768781048E+01  0.10514615398E+01  0.46098277601E+00  0.30974996982E+01  0.51100000000E-03 0.  1.
         12    1    3    3    0    0  0.70222199705E+01  0.60401557618E+01  0.12559373006E+02  0.15605540851E+02  0.00000000000E+00 0. -1.
</event>
<event>
 7    1  0.9953837E-014  0.5052886E+02  0.7816164E-02  0.1300439E+00
        -11   -1    0    0    0    0  0.00000000000E+00  0.00000000000E+00  0.45593999997E+02  0.45594000000E+02  0.51100000000E-03 0. -1.
         11   -1    0    0    0    0 -0.00000000000E+00 -0.00000000000E+00 -0.45593999997E+02  0.45594000000E+02  0.51100000000E-03 0.  1.
    9900012    2    1    2    0    0  0.21971992639E+02 -0.85865314370E+01  0.33115988802E+02  0.50528859613E+02  0.29999999279E+02 0.  0.
        -12    1    1    2    0    0 -0.21971992639E+02  0.85865314370E+01 -0.33115988802E+02  0.40659140387E+02  0.00000000000E+00 0.  1.
         11    1    3    3    0    0  0.14047844690E+02 -0.72242650363E+01  0.32678075321E+02  0.36295847596E+02  0.51100000000E-03 0. -1.
        -11    1    3    3    0    0  0.37737632915E+01  0.17271962415E+01 -0.51522476191E+01  0.66159014523E+01  0.51100000000E-03 0.  1.
        -12    1    3    3    0    0  0.41503846580E+01 -0.30894626421E+01  0.55901611007E+01  0.76171105649E+01  0.00000000000E+00 0.  1.
</event>
<event>
 7    1  0.9953837E-014  0.5052886E+02  0.7816164E-02  0.1300439E+00
        -11   -1    0    0    0    0  0.00000000000E+00  0.00000000000E+00  0.45593999997E+02  0.45594000000E+02  0.51100000000E-03 0. -1.
         11   -1    0    0    0    0 -0.00000000000E+00 -0.00000000000E+00 -0.45593999997E+02  0.45594000000E+02  0.51100000000E-03 0.  1.
    9900012    2    1    2    0    0 -0.28735994785E+02  0.99154877814E+01 -0.27001691092E+02  0.50528860609E+02  0.30000002306E+02 0.  0.
         12    1    1    2    0    0  0.28735994785E+02 -0.99154877814E+01  0.27001691092E+02  0.40659139391E+02  0.00000000000E+00 0. -1.
         11    1    3    3    0    0 -0.94875881671E+01 -0.82019731591E+01 -0.59903572518E+00  0.12555697392E+02  0.51100000000E-03 0. -1.
        -11    1    3    3    0    0 -0.11594925700E+02  0.64129457818E+01 -0.14075396066E+02  0.19330932472E+02  0.51100000000E-03 0.  1.
         12    1    3    3    0    0 -0.76534809179E+01  0.11704515159E+02 -0.12327259301E+02  0.18642230745E+02  0.00000000000E+00 0. -1.
</event>
<event>
 7    1  0.9953837E-014  0.5052886E+02  0.7816164E-02  0.1300439E+00
        -11   -1    0    0    0    0  0.00000000000E+00  0.00000000000E+00  0.45593999997E+02  0.45594000000E+02  0.51100000000E-03 0. -1.
         11   -1    0    0    0    0 -0.00000000000E+00 -0.00000000000E+00 -0.45593999997E+02  0.45594000000E+02  0.51100000000E-03 0.  1.
    9900012    2    1    2    0    0  0.10368938905E+02 -0.59519546985E+00 -0.39310262131E+02  0.50528857603E+02  0.29999993169E+02 0.  0.
         12    1    1    2    0    0 -0.10368938905E+02  0.59519546985E+00  0.39310262131E+02  0.40659142397E+02  0.00000000000E+00 0. -1.
         11    1    3    3    0    0 -0.41198297324E+01 -0.69096627815E+01 -0.20579901737E+01  0.83037196842E+01  0.51100000000E-03 0. -1.
        -11    1    3    3    0    0  0.92528458805E+01  0.13092079982E+00 -0.29846179875E+02  0.31247827933E+02  0.51100000000E-03 0.  1.
        -12    1    3    3    0    0  0.52359227565E+01  0.61835465118E+01 -0.74060920827E+01  0.10977309985E+02  0.00000000000E+00 0.  1.
</event>
<event>
 7    1  0.9953837E-014  0.5052888E+02  0.7816164E-02  0.1300439E+00
        -11   -1    0    0    0    0  0.00000000000E+00  0.00000000000E+00  0.45593999997E+02  0.45594000000E+02  0.51100000000E-03 0.  1.
         11   -1    0    0    0    0 -0.00000000000E+00 -0.00000000000E+00 -0.45593999997E+02  0.45594000000E+02  0.51100000000E-03 0. -1.
    9900012    2    1    2    0    0 -0.22862076643E+02  0.70348749534E+01 -0.32878562395E+02  0.50528881968E+02  0.30000067228E+02 0.  0.
         12    1    1    2    0    0  0.22862076643E+02 -0.70348749534E+01  0.32878562395E+02  0.40659118032E+02  0.00000000000E+00 0. -1.
         11    1    3    3    0    0  0.66511755759E-01 -0.47887145654E+01  0.10594050079E+01  0.49049516037E+01  0.51100000000E-03 0. -1.
        -11    1    3    3    0    0 -0.14339103105E+02  0.27810207890E+01 -0.75615469236E+01  0.16447520987E+02  0.51100000000E-03 0.  1.
         12    1    3    3    0    0 -0.85894852943E+01  0.90425687299E+01 -0.26376420479E+02  0.29176409377E+02  0.00000000000E+00 0. -1.
</event>
<event>
 7    1  0.9953837E-014  0.5052886E+02  0.7816164E-02  0.1300439E+00
        -11   -1    0    0    0    0  0.00000000000E+00  0.00000000000E+00  0.45593999997E+02  0.45594000000E+02  0.51100000000E-03 0. -1.
         11   -1    0    0    0    0 -0.00000000000E+00 -0.00000000000E+00 -0.45593999997E+02  0.45594000000E+02  0.51100000000E-03 0.  1.
    9900012    2    1    2    0    0  0.20396385843E+02 -0.48314637558E+01 -0.34839778777E+02  0.50528858559E+02  0.29999996075E+02 0.  0.
         12    1    1    2    0    0 -0.20396385843E+02  0.48314637558E+01  0.34839778777E+02  0.40659141441E+02  0.00000000000E+00 0. -1.
         11    1    3    3    0    0  0.66106612734E+01  0.77512371137E+01 -0.81456232557E+00  0.10219884114E+02  0.51100000000E-03 0. -1.
        -11    1    3    3    0    0  0.15101654507E+02 -0.11537460014E+02 -0.33556358837E+02  0.38564260282E+02  0.51100000000E-03 0.  1.
        -12    1    3    3    0    0 -0.13159299378E+01 -0.10452408551E+01 -0.46885761480E+00  0.17447141626E+01  0.00000000000E+00 0.  1.
</event>
<event>
 7    1  0.9953837E-014  0.5052886E+02  0.7816164E-02  0.1300439E+00
        -11   -1    0    0    0    0  0.00000000000E+00  0.00000000000E+00  0.45593999997E+02  0.45594000000E+02  0.51100000000E-03 0. -1.
         11   -1    0    0    0    0 -0.00000000000E+00 -0.00000000000E+00 -0.45593999997E+02  0.45594000000E+02  0.51100000000E-03 0.  1.
    9900012    2    1    2    0    0  0.10551771828E+02  0.90027876787E+01  0.38220098664E+02  0.50528855683E+02  0.29999987335E+02 0.  0.
        -12    1    1    2    0    0 -0.10551771828E+02 -0.90027876787E+01 -0.38220098664E+02  0.40659144317E+02  0.00000000000E+00 0.  1.
         11    1    3    3    0    0 -0.54859303155E+01 -0.23113565277E+01  0.48863475536E+01  0.77015708203E+01  0.51100000000E-03 0. -1.
        -11    1    3    3    0    0  0.16698961825E+02  0.12871182912E+02  0.34733418304E+02  0.40631675118E+02  0.51100000000E-03 0.  1.
         12    1    3    3    0    0 -0.66125968122E+00 -0.15570387060E+01 -0.13996671936E+01  0.21956097447E+01  0.00000000000E+00 0. -1.
</event>
<event>
 7    1  0.1200419E-013  0.5052886E+02  0.7816164E-02  0.1300439E+00
        -11   -1    0    0    0    0  0.00000000000E+00  0.00000000000E+00  0.45593999997E+02  0.45594000000E+02  0.51100000000E-03 0. -1.
         11   -1    0    0    0    0 -0.00000000000E+00 -0.00000000000E+00 -0.45593999997E+02  0.45594000000E+02  0.51100000000E-03 0.  1.
    9900012    2    1    2    0    0 -0.50052357796E+00 -0.29061918358E+02  0.28430973327E+02  0.50528857525E+02  0.29999992932E+02 0.  0.
        -12    1    1    2    0    0  0.50052357796E+00  0.29061918358E+02 -0.28430973327E+02  0.40659142475E+02  0.00000000000E+00 0.  1.
         11    1    3    3    0    0  0.33022046793E+01 -0.23794625485E+02  0.28735303852E+02  0.37454057797E+02  0.51100000000E-03 0. -1.
        -11    1    3    3    0    0  0.65408287116E+00 -0.53557102587E+01 -0.44450308848E+01  0.69906907101E+01  0.51100000000E-03 0.  1.
         12    1    3    3    0    0 -0.44568111285E+01  0.88417385841E-01  0.41407003593E+01  0.60841090173E+01  0.00000000000E+00 0. -1.
</event>
<event>
 7    1  0.9953837E-014  0.5052886E+02  0.7816164E-02  0.1300439E+00
        -11   -1    0    0    0    0  0.00000000000E+00  0.00000000000E+00  0.45593999997E+02  0.45594000000E+02  0.51100000000E-03 0. -1.
         11   -1    0    0    0    0 -0.00000000000E+00 -0.00000000000E+00 -0.45593999997E+02  0.45594000000E+02  0.51100000000E-03 0.  1.
    9900012    2    1    2    0    0 -0.10237334695E+01  0.36322099907E+02 -0.18243424279E+02  0.50528862020E+02  0.30000006597E+02 0.  0.
         12    1    1    2    0    0  0.10237334695E+01 -0.36322099907E+02  0.18243424279E+02  0.40659137980E+02  0.00000000000E+00 0. -1.
         11    1    3    3    0    0 -0.21743230513E+01 -0.19434916871E+01  0.10742333112E+01  0.31078639187E+01  0.51100000000E-03 0. -1.
        -11    1    3    3    0    0  0.82465878289E+00  0.34955209302E+02 -0.23461756190E+02  0.42107015131E+02  0.51100000000E-03 0.  1.
        -12    1    3    3    0    0  0.32593079894E+00  0.33103822915E+01  0.41440986003E+01  0.53139829704E+01  0.00000000000E+00 0.  1.
</event>
<event>
 7    1  0.9953837E-014  0.5052887E+02  0.7816164E-02  0.1300439E+00
        -11   -1    0    0    0    0  0.00000000000E+00  0.00000000000E+00  0.45593999997E+02  0.45594000000E+02  0.51100000000E-03 0. -1.
         11   -1    0    0    0    0 -0.00000000000E+00 -0.00000000000E+00 -0.45593999997E+02  0.45594000000E+02  0.51100000000E-03 0.  1.
    9900012    2    1    2    0    0  0.28679380287E+00  0.34048941091E+02  0.22220537682E+02  0.50528868984E+02  0.30000027764E+02 0.  0.
        -12    1    1    2    0    0 -0.28679380287E+00 -0.34048941091E+02 -0.22220537682E+02  0.40659131016E+02  0.00000000000E+00 0.  1.
         11    1    3    3    0    0  0.61170954888E+01  0.85246300503E+01  0.88313602946E+01  0.13714266281E+02  0.51100000000E-03 0. -1.
        -11    1    3    3    0    0 -0.12274997720E+02  0.58897869458E+01  0.58236346237E+01  0.14808101829E+02  0.51100000000E-03 0.  1.
        -12    1    3    3    0    0  0.64446960342E+01  0.19634524095E+02  0.75655427636E+01  0.22006500874E+02  0.00000000000E+00 0.  1.
</event>
<event>
 7    1  0.9953837E-014  0.5052889E+02  0.7816164E-02  0.1300439E+00
        -11   -1    0    0    0    0  0.00000000000E+00  0.00000000000E+00  0.45593999997E+02  0.45594000000E+02  0.51100000000E-03 0. -1.
         11   -1    0    0    0    0 -0.00000000000E+00 -0.00000000000E+00 -0.45593999997E+02  0.45594000000E+02  0.51100000000E-03 0.  1.
    9900012    2    1    2    0    0 -0.36059944530E+02  0.77044421735E+01 -0.17131404867E+02  0.50528892024E+02  0.30000097796E+02 0.  0.
         12    1    1    2    0    0  0.36059944530E+02 -0.77044421735E+01  0.17131404867E+02  0.40659107976E+02  0.00000000000E+00 0. -1.
         11    1    3    3    0    0 -0.21762183255E+02 -0.12302410936E+01  0.18781899705E+01  0.21877698942E+02  0.51100000000E-03 0. -1.
        -11    1    3    3    0    0 -0.62491670760E+01 -0.13012230768E+01 -0.12629319616E+02  0.14150794496E+02  0.51100000000E-03 0.  1.
         12    1    3    3    0    0 -0.80485941986E+01  0.10235906344E+02 -0.63802752215E+01  0.14500398586E+02  0.00000000000E+00 0. -1.
</event>
<event>
 7    1  0.9953837E-014  0.5052886E+02  0.7816164E-02  0.1300439E+00
        -11   -1    0    0    0    0  0.00000000000E+00  0.00000000000E+00  0.45593999997E+02  0.45594000000E+02  0.51100000000E-03 0. -1.
         11   -1    0    0    0    0 -0.00000000000E+00 -0.00000000000E+00 -0.45593999997E+02  0.45594000000E+02  0.51100000000E-03 0.  1.
    9900012    2    1    2    0    0 -0.38212956656E+02 -0.76714081453E+01  0.11579510294E+02  0.50528860585E+02  0.30000002234E+02 0.  0.
        -12    1    1    2    0    0  0.38212956656E+02  0.76714081453E+01 -0.11579510294E+02  0.40659139415E+02  0.00000000000E+00 0.  1.
         11    1    3    3    0    0 -0.19194945627E+02 -0.22407976626E+01 -0.83744581676E+01  0.21061782015E+02  0.51100000000E-03 0.  1.
        -11    1    3    3    0    0 -0.93175397591E+01 -0.83793862180E+00  0.14924882862E+02  0.17614505868E+02  0.51100000000E-03 0. -1.
        -12    1    3    3    0    0 -0.97004712701E+01 -0.45926718609E+01  0.50290855996E+01  0.11852572702E+02  0.00000000000E+00 0.  1.
</event>
<event>
 7    1  0.9953837E-014  0.5052886E+02  0.7816164E-02  0.1300439E+00
        -11   -1    0    0    0    0  0.00000000000E+00  0.00000000000E+00  0.45593999997E+02  0.45594000000E+02  0.51100000000E-03 0. -1.
         11   -1    0    0    0    0 -0.00000000000E+00 -0.00000000000E+00 -0.45593999997E+02  0.45594000000E+02  0.51100000000E-03 0.  1.
    9900012    2    1    2    0    0  0.20976685692E+02  0.34778675602E+02 -0.18942328396E+01  0.50528859117E+02  0.29999997773E+02 0.  0.
        -12    1    1    2    0    0 -0.20976685692E+02 -0.34778675602E+02  0.18942328396E+01  0.40659140883E+02  0.00000000000E+00 0.  1.
         11    1    3    3    0    0 -0.11933185366E+01  0.61279630519E+01  0.59004535451E+01  0.85901858300E+01  0.51100000000E-03 0. -1.
        -11    1    3    3    0    0  0.12156276804E+02  0.15769622725E+02 -0.14152160752E+02  0.24428256606E+02  0.51100000000E-03 0.  1.
        -12    1    3    3    0    0  0.10013727424E+02  0.12881089825E+02  0.63574743669E+01  0.17510416681E+02  0.00000000000E+00 0.  1.
</event>
<event>
 7    1  0.9953837E-014  0.5052885E+02  0.7816164E-02  0.1300439E+00
        -11   -1    0    0    0    0  0.00000000000E+00  0.00000000000E+00  0.45593999997E+02  0.45594000000E+02  0.51100000000E-03 0.  1.
         11   -1    0    0    0    0 -0.00000000000E+00 -0.00000000000E+00 -0.45593999997E+02  0.45594000000E+02  0.51100000000E-03 0. -1.
    9900012    2    1    2    0    0 -0.31493114171E+02  0.39707875910E+01  0.25408320603E+02  0.50528854040E+02  0.29999982340E+02 0.  0.
        -12    1    1    2    0    0  0.31493114171E+02 -0.39707875910E+01 -0.25408320603E+02  0.40659145960E+02  0.00000000000E+00 0.  1.
         11    1    3    3    0    0  0.40163808585E+00 -0.55314721192E+01 -0.33375368249E+01  0.64728393519E+01  0.51100000000E-03 0. -1.
        -11    1    3    3    0    0 -0.84103774228E+01  0.13037849251E+01  0.74446299330E+01  0.11307378946E+02  0.51100000000E-03 0.  1.
         12    1    3    3    0    0 -0.23484374834E+02  0.81984747851E+01  0.21301227495E+02  0.32748635742E+02  0.00000000000E+00 0. -1.
</event>
<event>
 7    1  0.9953837E-014  0.5052886E+02  0.7816164E-02  0.1300439E+00
        -11   -1    0    0    0    0  0.00000000000E+00  0.00000000000E+00  0.45593999997E+02  0.45594000000E+02  0.51100000000E-03 0. -1.
         11   -1    0    0    0    0 -0.00000000000E+00 -0.00000000000E+00 -0.45593999997E+02  0.45594000000E+02  0.51100000000E-03 0.  1.
    9900012    2    1    2    0    0  0.19596916467E+02 -0.10232286624E+02 -0.34123704202E+02  0.50528855727E+02  0.29999987467E+02 0.  0.
         12    1    1    2    0    0 -0.19596916467E+02  0.10232286624E+02  0.34123704202E+02  0.40659144273E+02  0.00000000000E+00 0. -1.
         11    1    3    3    0    0 -0.42023191355E+01 -0.29704246161E+01  0.13443232352E+01  0.53188451507E+01  0.51100000000E-03 0. -1.
        -11    1    3    3    0    0  0.98385428537E+01 -0.20013287120E+01 -0.25124109763E+02  0.27055926038E+02  0.51100000000E-03 0.  1.
        -12    1    3    3    0    0  0.13960692749E+02 -0.52605332955E+01 -0.10343917674E+02  0.18154084538E+02  0.00000000000E+00 0.  1.
</event>
<event>
 7    1  0.9953837E-014  0.5052884E+02  0.7816164E-02  0.1300439E+00
        -11   -1    0    0    0    0  0.00000000000E+00  0.00000000000E+00  0.45593999997E+02  0.45594000000E+02  0.51100000000E-03 0. -1.
         11   -1    0    0    0    0 -0.00000000000E+00 -0.00000000000E+00 -0.45593999997E+02  0.45594000000E+02  0.51100000000E-03 0.  1.
    9900012    2    1    2    0    0  0.66800885695E+01 -0.31895627569E+02 -0.24314866565E+02  0.50528838949E+02  0.29999936470E+02 0.  0.
         12    1    1    2    0    0 -0.66800885695E+01  0.31895627569E+02  0.24314866565E+02  0.40659161051E+02  0.00000000000E+00 0. -1.
         11    1    3    3    0    0  0.66638649763E+01 -0.45043676617E+01 -0.19063149838E+02  0.20690580138E+02  0.51100000000E-03 0. -1.
        -11    1    3    3    0    0 -0.18274982283E+01 -0.14464448328E+02 -0.77992166033E+01  0.16534442691E+02  0.51100000000E-03 0.  1.
         12    1    3    3    0    0  0.18437218214E+01 -0.12926811579E+02  0.25474998759E+01  0.13303816120E+02  0.00000000000E+00 0. -1.
</event>
<event>
 7    1  0.9953837E-014  0.5052886E+02  0.7816164E-02  0.1300439E+00
        -11   -1    0    0    0    0  0.00000000000E+00  0.00000000000E+00  0.45593999997E+02  0.45594000000E+02  0.51100000000E-03 0. -1.
         11   -1    0    0    0    0 -0.00000000000E+00 -0.00000000000E+00 -0.45593999997E+02  0.45594000000E+02  0.51100000000E-03 0.  1.
    9900012    2    1    2    0    0 -0.20372228706E+02 -0.45328054528E+01  0.34894003344E+02  0.50528862071E+02  0.30000006752E+02 0.  0.
        -12    1    1    2    0    0  0.20372228706E+02  0.45328054528E+01 -0.34894003344E+02  0.40659137929E+02  0.00000000000E+00 0.  1.
         11    1    3    3    0    0  0.16238291006E+01 -0.32498504608E-01  0.14441763678E+02  0.14532804805E+02  0.51100000000E-03 0. -1.
        -11    1    3    3    0    0 -0.17122331841E+02  0.58923565205E+01  0.11662456487E+02  0.21538500519E+02  0.51100000000E-03 0.  1.
        -12    1    3    3    0    0 -0.48737259651E+01 -0.10392663469E+02  0.87897831797E+01  0.14457556747E+02  0.00000000000E+00 0.  1.
</event>
<event>
 7    1  0.1138923E-013  0.5052885E+02  0.7816164E-02  0.1300439E+00
        -11   -1    0    0    0    0  0.00000000000E+00  0.00000000000E+00  0.45593999997E+02  0.45594000000E+02  0.51100000000E-03 0. -1.
         11   -1    0    0    0    0 -0.00000000000E+00 -0.00000000000E+00 -0.45593999997E+02  0.45594000000E+02  0.51100000000E-03 0.  1.
    9900012    2    1    2    0    0 -0.78370952879E+01  0.19518200388E+02  0.34796349982E+02  0.50528853661E+02  0.29999981189E+02 0.  0.
        -12    1    1    2    0    0  0.78370952879E+01 -0.19518200388E+02 -0.34796349982E+02  0.40659146339E+02  0.00000000000E+00 0.  1.
         11    1    3    3    0    0 -0.10426711306E+02  0.23956040679E+02  0.31021569372E+02  0.40557933382E+02  0.51100000000E-03 0. -1.
        -11    1    3    3    0    0 -0.22397521441E+01 -0.67186460518E+00 -0.63648499371E+00  0.24234283821E+01  0.51100000000E-03 0.  1.
         12    1    3    3    0    0  0.48293681619E+01 -0.37659756862E+01  0.44112656034E+01  0.75474918970E+01  0.00000000000E+00 0. -1.
</event>
<event>
 7    1  0.9953837E-014  0.5052886E+02  0.7816164E-02  0.1300439E+00
        -11   -1    0    0    0    0  0.00000000000E+00  0.00000000000E+00  0.45593999997E+02  0.45594000000E+02  0.51100000000E-03 0. -1.
         11   -1    0    0    0    0 -0.00000000000E+00 -0.00000000000E+00 -0.45593999997E+02  0.45594000000E+02  0.51100000000E-03 0.  1.
    9900012    2    1    2    0    0  0.22432734738E+01  0.12879150616E+01 -0.40576777822E+02  0.50528857123E+02  0.29999991712E+02 0.  0.
         12    1    1    2    0    0 -0.22432734738E+01 -0.12879150616E+01  0.40576777822E+02  0.40659142877E+02  0.00000000000E+00 0. -1.
         11    1    3    3    0    0  0.12365921399E+02 -0.14799916337E+01 -0.53279908547E+01  0.13545991071E+02  0.51100000000E-03 0. -1.
        -11    1    3    3    0    0 -0.63084937374E+01  0.16466532250E+01 -0.15129142430E+02  0.16474207447E+02  0.51100000000E-03 0.  1.
         12    1    3    3    0    0 -0.38141541875E+01  0.11212534703E+01 -0.20119644537E+02  0.20508658606E+02  0.00000000000E+00 0. -1.
</event>
<event>
 7    1  0.9953837E-014  0.5052886E+02  0.7816164E-02  0.1300439E+00
        -11   -1    0    0    0    0  0.00000000000E+00  0.00000000000E+00  0.45593999997E+02  0.45594000000E+02  0.51100000000E-03 0.  1.
         11   -1    0    0    0    0 -0.00000000000E+00 -0.00000000000E+00 -0.45593999997E+02  0.45594000000E+02  0.51100000000E-03 0. -1.
    9900012    2    1    2    0    0 -0.12356382566E+02 -0.36133798068E+02  0.13958308931E+02  0.50528856611E+02  0.29999990154E+02 0.  0.
         12    1    1    2    0    0  0.12356382566E+02  0.36133798068E+02 -0.13958308931E+02  0.40659143389E+02  0.00000000000E+00 0. -1.
         11    1    3    3    0    0 -0.46049009553E+00  0.35607778205E+01  0.74837909847E+01  0.83005010438E+01  0.51100000000E-03 0. -1.
        -11    1    3    3    0    0 -0.45761975119E+01 -0.10208464613E+02  0.33980784362E+01  0.11691931865E+02  0.51100000000E-03 0.  1.
         12    1    3    3    0    0 -0.73196949584E+01 -0.29486111276E+02  0.30764395101E+01  0.30536423702E+02  0.00000000000E+00 0. -1.
</event>
<event>
 7    1  0.9953837E-014  0.5052886E+02  0.7816164E-02  0.1300439E+00
        -11   -1    0    0    0    0  0.00000000000E+00  0.00000000000E+00  0.45593999997E+02  0.45594000000E+02  0.51100000000E-03 0. -1.
         11   -1    0    0    0    0 -0.00000000000E+00 -0.00000000000E+00 -0.45593999997E+02  0.45594000000E+02  0.51100000000E-03 0.  1.
    9900012    2    1    2    0    0 -0.10507518159E+02  0.15694883548E+02 -0.36005946049E+02  0.50528862548E+02  0.30000008201E+02 0.  0.
         12    1    1    2    0    0  0.10507518159E+02 -0.15694883548E+02  0.36005946049E+02  0.40659137452E+02  0.00000000000E+00 0. -1.
         11    1    3    3    0    0  0.49993850137E+01  0.59183585408E+01 -0.24332205415E+01  0.81204298406E+01  0.51100000000E-03 0. -1.
        -11    1    3    3    0    0 -0.18852330292E+02  0.72731087945E+01 -0.32191041786E+02  0.38007520841E+02  0.51100000000E-03 0.  1.
        -12    1    3    3    0    0  0.33454271197E+01  0.25034162124E+01 -0.13816837223E+01  0.44009118663E+01  0.00000000000E+00 0.  1.
</event>
<event>
 7    1  0.9953837E-014  0.5052886E+02  0.7816164E-02  0.1300439E+00
        -11   -1    0    0    0    0  0.00000000000E+00  0.00000000000E+00  0.45593999997E+02  0.45594000000E+02  0.51100000000E-03 0. -1.
         11   -1    0    0    0    0 -0.00000000000E+00 -0.00000000000E+00 -0.45593999997E+02  0.45594000000E+02  0.51100000000E-03 0.  1.
    9900012    2    1    2    0    0 -0.25572799162E+02 -0.11491649480E+02  0.29447231068E+02  0.50528862253E+02  0.30000007303E+02 0.  0.
        -12    1    1    2    0    0  0.25572799162E+02  0.11491649480E+02 -0.29447231068E+02  0.40659137747E+02  0.00000000000E+00 0.  1.
         11    1    3    3    0    0 -0.12728385787E+02 -0.16457152769E+02  0.12732894464E+02  0.24392135694E+02  0.51100000000E-03 0. -1.
        -11    1    3    3    0    0  0.65314065123E+00  0.36496306018E+01  0.10657667440E+02  0.11284160215E+02  0.51100000000E-03 0.  1.
        -12    1    3    3    0    0 -0.13497554027E+02  0.13158726875E+01  0.60566691646E+01  0.14852566344E+02  0.00000000000E+00 0.  1.
</event>
<event>
 7    1  0.9953837E-014  0.5052886E+02  0.7816164E-02  0.1300439E+00
        -11   -1    0    0    0    0  0.00000000000E+00  0.00000000000E+00  0.45593999997E+02  0.45594000000E+02  0.51100000000E-03 0. -1.
         11   -1    0    0    0    0 -0.00000000000E+00 -0.00000000000E+00 -0.45593999997E+02  0.45594000000E+02  0.51100000000E-03 0.  1.
    9900012    2    1    2    0    0 -0.63147354110E+01 -0.39646600353E+02 -0.64371549419E+01  0.50528858757E+02  0.29999996677E+02 0.  0.
         12    1    1    2    0    0  0.63147354110E+01  0.39646600353E+02  0.64371549419E+01  0.40659141243E+02  0.00000000000E+00 0. -1.
         11    1    3    3    0    0 -0.86401156390E+01 -0.38303417276E+02 -0.62184042407E+01  0.39755149664E+02  0.51100000000E-03 0. -1.
        -11    1    3    3    0    0 -0.37013453046E+01 -0.19671410129E+01  0.15385801225E+01  0.44650677355E+01  0.51100000000E-03 0.  1.
         12    1    3    3    0    0  0.60267255326E+01  0.62395793535E+00 -0.17573308236E+01  0.63086413572E+01  0.00000000000E+00 0. -1.
</event>
<event>
 7    1  0.9953837E-014  0.5052888E+02  0.7816164E-02  0.1300439E+00
        -11   -1    0    0    0    0  0.00000000000E+00  0.00000000000E+00  0.45593999997E+02  0.45594000000E+02  0.51100000000E-03 0. -1.
         11   -1    0    0    0    0 -0.00000000000E+00 -0.00000000000E+00 -0.45593999997E+02  0.45594000000E+02  0.51100000000E-03 0.  1.
    9900012    2    1    2    0    0  0.20869248133E+02  0.10014540070E+02  0.33426754098E+02  0.50528875317E+02  0.30000047014E+02 0.  0.
        -12    1    1    2    0    0 -0.20869248133E+02 -0.10014540070E+02 -0.33426754098E+02  0.40659124683E+02  0.00000000000E+00 0.  1.
         11    1    3    3    0    0 -0.50033559870E+01  0.19981233341E+01  0.41341999289E+01  0.67909997279E+01  0.51100000000E-03 0.  1.
        -11    1    3    3    0    0  0.12090062623E+02 -0.54016889977E+01  0.11673022112E+02  0.17652402209E+02  0.51100000000E-03 0. -1.
        -12    1    3    3    0    0  0.13782541497E+02  0.13418105733E+02  0.17619532057E+02  0.26085473381E+02  0.00000000000E+00 0.  1.
</event>
<event>
 7    1  0.9953837E-014  0.5052885E+02  0.7816164E-02  0.1300439E+00
        -11   -1    0    0    0    0  0.00000000000E+00  0.00000000000E+00  0.45593999997E+02  0.45594000000E+02  0.51100000000E-03 0. -1.
         11   -1    0    0    0    0 -0.00000000000E+00 -0.00000000000E+00 -0.45593999997E+02  0.45594000000E+02  0.51100000000E-03 0.  1.
    9900012    2    1    2    0    0  0.30693927769E+02  0.18821713826E+02 -0.18888951064E+02  0.50528848687E+02  0.29999966068E+02 0.  0.
         12    1    1    2    0    0 -0.30693927769E+02 -0.18821713826E+02  0.18888951064E+02  0.40659151313E+02  0.00000000000E+00 0. -1.
         11    1    3    3    0    0  0.56017656761E+00 -0.18913181302E+01 -0.21136187038E+01  0.28910666445E+01  0.51100000000E-03 0. -1.
        -11    1    3    3    0    0  0.24606760835E+02  0.25422017510E+02 -0.80467353188E+01  0.36283902803E+02  0.51100000000E-03 0.  1.
        -12    1    3    3    0    0  0.55269903663E+01 -0.47089855542E+01 -0.87285970417E+01  0.11353879239E+02  0.00000000000E+00 0.  1.
</event>
<event>
 7    1  0.9953837E-014  0.5052886E+02  0.7816164E-02  0.1300439E+00
        -11   -1    0    0    0    0  0.00000000000E+00  0.00000000000E+00  0.45593999997E+02  0.45594000000E+02  0.51100000000E-03 0. -1.
         11   -1    0    0    0    0 -0.00000000000E+00 -0.00000000000E+00 -0.45593999997E+02  0.45594000000E+02  0.51100000000E-03 0.  1.
    9900012    2    1    2    0    0 -0.32417211996E+02  0.12146902031E+02  0.21324692270E+02  0.50528863721E+02  0.30000011765E+02 0.  0.
        -12    1    1    2    0    0  0.32417211996E+02 -0.12146902031E+02 -0.21324692270E+02  0.40659136279E+02  0.00000000000E+00 0.  1.
         11    1    3    3    0    0 -0.11848567640E+02  0.64538410928E+01  0.14354017537E+02  0.19699706589E+02  0.51100000000E-03 0. -1.
        -11    1    3    3    0    0  0.54319188686E+00  0.82651808719E+01 -0.47223631899E+00  0.82964618768E+01  0.51100000000E-03 0.  1.
        -12    1    3    3    0    0 -0.21111836243E+02 -0.25721199341E+01  0.74429110518E+01  0.22532695254E+02  0.00000000000E+00 0.  1.
</event>
<event>
 7    1  0.9953837E-014  0.5052886E+02  0.7816164E-02  0.1300439E+00
        -11   -1    0    0    0    0  0.00000000000E+00  0.00000000000E+00  0.45593999997E+02  0.45594000000E+02  0.51100000000E-03 0.  1.
         11   -1    0    0    0    0 -0.00000000000E+00 -0.00000000000E+00 -0.45593999997E+02  0.45594000000E+02  0.51100000000E-03 0. -1.
    9900012    2    1    2    0    0 -0.14229019430E+02 -0.35416379252E+02  0.14013599444E+02  0.50528857331E+02  0.29999992342E+02 0.  0.
        -12    1    1    2    0    0  0.14229019430E+02  0.35416379252E+02 -0.14013599444E+02  0.40659142669E+02  0.00000000000E+00 0.  1.
         11    1    3    3    0    0  0.51273993703E+00 -0.44361498036E+01 -0.48626945875E+01  0.66021304316E+01  0.51100000000E-03 0. -1.
        -11    1    3    3    0    0 -0.19202657098E+02 -0.22965905561E+02  0.11188083702E+02  0.31958536810E+02  0.51100000000E-03 0.  1.
        -12    1    3    3    0    0  0.44608977310E+01 -0.80143238871E+01  0.76882103298E+01  0.11968190089E+02  0.00000000000E+00 0.  1.
</event>
<event>
 7    1  0.9953837E-014  0.5052886E+02  0.7816164E-02  0.1300439E+00
        -11   -1    0    0    0    0  0.00000000000E+00  0.00000000000E+00  0.45593999997E+02  0.45594000000E+02  0.51100000000E-03 0.  1.
         11   -1    0    0    0    0 -0.00000000000E+00 -0.00000000000E+00 -0.45593999997E+02  0.45594000000E+02  0.51100000000E-03 0. -1.
    9900012    2    1    2    0    0 -0.67787898996E+01  0.37103058061E+02  0.15184753692E+02  0.50528860134E+02  0.30000000863E+02 0.  0.
        -12    1    1    2    0    0  0.67787898996E+01 -0.37103058061E+02 -0.15184753692E+02  0.40659139866E+02  0.00000000000E+00 0.  1.
         11    1    3    3    0    0 -0.71481454491E+01  0.25575783011E+02 -0.73662513863E+00  0.26566130257E+02  0.51100000000E-03 0. -1.
        -11    1    3    3    0    0  0.58125149135E+01  0.85234100772E+01  0.14124970366E+02  0.17491387511E+02  0.51100000000E-03 0.  1.
        -12    1    3    3    0    0 -0.54431593640E+01  0.30038649727E+01  0.17964084643E+01  0.64713423652E+01  0.00000000000E+00 0.  1.
</event>
<event>
 7    1  0.9953837E-014  0.5052889E+02  0.7816164E-02  0.1300439E+00
        -11   -1    0    0    0    0  0.00000000000E+00  0.00000000000E+00  0.45593999997E+02  0.45594000000E+02  0.51100000000E-03 0.  1.
         11   -1    0    0    0    0 -0.00000000000E+00 -0.00000000000E+00 -0.45593999997E+02  0.45594000000E+02  0.51100000000E-03 0. -1.
    9900012    2    1    2    0    0 -0.18898349104E+02  0.31919666427E+02 -0.16647845229E+02  0.50528887191E+02  0.30000083105E+02 0.  0.
         12    1    1    2    0    0  0.18898349104E+02 -0.31919666427E+02  0.16647845229E+02  0.40659112809E+02  0.00000000000E+00 0. -1.
         11    1    3    3    0    0 -0.83404762595E+00  0.10992426377E+02 -0.17165261744E+01  0.11156860466E+02  0.51100000000E-03 0. -1.
        -11    1    3    3    0    0 -0.30227951925E+01 -0.30700455819E+01 -0.96418306718E+01  0.10560651950E+02  0.51100000000E-03 0.  1.
        -12    1    3    3    0    0 -0.15041506285E+02  0.23997285632E+02 -0.52894883829E+01  0.28811374774E+02  0.00000000000E+00 0.  1.
</event>
<event>
 7    1  0.9953837E-014  0.5052885E+02  0.7816164E-02  0.1300439E+00
        -11   -1    0    0    0    0  0.00000000000E+00  0.00000000000E+00  0.45593999997E+02  0.45594000000E+02  0.51100000000E-03 0. -1.
         11   -1    0    0    0    0 -0.00000000000E+00 -0.00000000000E+00 -0.45593999997E+02  0.45594000000E+02  0.51100000000E-03 0.  1.
    9900012    2    1    2    0    0  0.26909203090E+02  0.17240032460E+02  0.25136473606E+02  0.50528852991E+02  0.29999979152E+02 0.  0.
        -12    1    1    2    0    0 -0.26909203090E+02 -0.17240032460E+02 -0.25136473606E+02  0.40659147009E+02  0.00000000000E+00 0.  1.
         11    1    3    3    0    0  0.19582586177E+02 -0.35837734961E+01  0.18120290057E+02  0.26919621578E+02  0.51100000000E-03 0. -1.
        -11    1    3    3    0    0  0.51822531287E+01  0.12929569694E+02  0.21595284350E+01  0.14095853408E+02  0.51100000000E-03 0.  1.
        -12    1    3    3    0    0  0.21443637841E+01  0.78942362616E+01  0.48566551137E+01  0.95133780060E+01  0.00000000000E+00 0.  1.
</event>
<event>
 7    1  0.9953837E-014  0.5052888E+02  0.7816164E-02  0.1300439E+00
        -11   -1    0    0    0    0  0.00000000000E+00  0.00000000000E+00  0.45593999997E+02  0.45594000000E+02  0.51100000000E-03 0. -1.
         11   -1    0    0    0    0 -0.00000000000E+00 -0.00000000000E+00 -0.45593999997E+02  0.45594000000E+02  0.51100000000E-03 0.  1.
    9900012    2    1    2    0    0 -0.73381698901E+00  0.13022074795E+02  0.38510398912E+02  0.50528883634E+02  0.30000072293E+02 0.  0.
        -12    1    1    2    0    0  0.73381698901E+00 -0.13022074795E+02 -0.38510398912E+02  0.40659116366E+02  0.00000000000E+00 0.  1.
         11    1    3    3    0    0  0.52405490109E-01 -0.81941248078E+01  0.18319139530E+02  0.20068315851E+02  0.51100000000E-03 0. -1.
        -11    1    3    3    0    0 -0.41333315693E+01  0.15712066017E+02  0.15812628815E+02  0.22671406632E+02  0.51100000000E-03 0.  1.
        -12    1    3    3    0    0  0.33471090902E+01  0.55041335857E+01  0.43786305669E+01  0.77891611508E+01  0.00000000000E+00 0.  1.
</event>
<event>
 7    1  0.9953837E-014  0.5052886E+02  0.7816164E-02  0.1300439E+00
        -11   -1    0    0    0    0  0.00000000000E+00  0.00000000000E+00  0.45593999997E+02  0.45594000000E+02  0.51100000000E-03 0. -1.
         11   -1    0    0    0    0 -0.00000000000E+00 -0.00000000000E+00 -0.45593999997E+02  0.45594000000E+02  0.51100000000E-03 0.  1.
    9900012    2    1    2    0    0 -0.32554287689E+02 -0.13939253618E+02  0.19977016887E+02  0.50528860288E+02  0.30000001332E+02 0.  0.
        -12    1    1    2    0    0  0.32554287689E+02  0.13939253618E+02 -0.19977016887E+02  0.40659139712E+02  0.00000000000E+00 0.  1.
         11    1    3    3    0    0 -0.26917626526E+02 -0.52318801409E+01  0.18920092714E+02  0.33315178165E+02  0.51100000000E-03 0. -1.
        -11    1    3    3    0    0  0.24792568191E+01 -0.79233220072E+01 -0.19414871409E+01  0.85261432420E+01  0.51100000000E-03 0.  1.
        -12    1    3    3    0    0 -0.81159179820E+01 -0.78405147033E+00  0.29984113138E+01  0.86875388808E+01  0.00000000000E+00 0.  1.
</event>
<event>
 7    1  0.9953837E-014  0.5052886E+02  0.7816164E-02  0.1300439E+00
        -11   -1    0    0    0    0  0.00000000000E+00  0.00000000000E+00  0.45593999997E+02  0.45594000000E+02  0.51100000000E-03 0. -1.
         11   -1    0    0    0    0 -0.00000000000E+00 -0.00000000000E+00 -0.45593999997E+02  0.45594000000E+02  0.51100000000E-03 0.  1.
    9900012    2    1    2    0    0  0.17355620179E+02  0.17031910813E+02  0.32586220645E+02  0.50528864327E+02  0.30000013609E+02 0.  0.
        -12    1    1    2    0    0 -0.17355620179E+02 -0.17031910813E+02 -0.32586220645E+02  0.40659135673E+02  0.00000000000E+00 0.  1.
         11    1    3    3    0    0  0.17852252070E+02  0.12736830598E+02  0.18877461120E+02  0.28935934342E+02  0.51100000000E-03 0. -1.
        -11    1    3    3    0    0 -0.70732279583E+01  0.36146897320E+01  0.12591262303E+02  0.14887458556E+02  0.51100000000E-03 0.  1.
         12    1    3    3    0    0  0.65765960675E+01  0.68039048338E+00  0.11174972216E+01  0.67054714290E+01  0.00000000000E+00 0. -1.
</event>
<event>
 7    1  0.9953837E-014  0.5052886E+02  0.7816164E-02  0.1300439E+00
        -11   -1    0    0    0    0  0.00000000000E+00  0.00000000000E+00  0.45593999997E+02  0.45594000000E+02  0.51100000000E-03 0. -1.
         11   -1    0    0    0    0 -0.00000000000E+00 -0.00000000000E+00 -0.45593999997E+02  0.45594000000E+02  0.51100000000E-03 0.  1.
    9900012    2    1    2    0    0 -0.15272675041E+02  0.35840871982E+02 -0.11633689385E+02  0.50528862822E+02  0.30000009034E+02 0.  0.
         12    1    1    2    0    0  0.15272675041E+02 -0.35840871982E+02  0.11633689385E+02  0.40659137178E+02  0.00000000000E+00 0. -1.
         11    1    3    3    0    0 -0.12377911775E+01  0.11603858422E+02 -0.13278726859E+02  0.17677846150E+02  0.51100000000E-03 0. -1.
        -11    1    3    3    0    0 -0.63551894570E-01  0.96621359301E+01  0.70375101396E+01  0.11953554233E+02  0.51100000000E-03 0.  1.
        -12    1    3    3    0    0 -0.13971331969E+02  0.14574877630E+02 -0.53924726657E+01  0.20897462439E+02  0.00000000000E+00 0.  1.
</event>
<event>
 7    1  0.9953837E-014  0.5052894E+02  0.7816164E-02  0.1300439E+00
        -11   -1    0    0    0    0  0.00000000000E+00  0.00000000000E+00  0.45593999997E+02  0.45594000000E+02  0.51100000000E-03 0. -1.
         11   -1    0    0    0    0 -0.00000000000E+00 -0.00000000000E+00 -0.45593999997E+02  0.45594000000E+02  0.51100000000E-03 0.  1.
    9900012    2    1    2    0    0  0.17208524424E+02  0.10522514906E+02 -0.35303012456E+02  0.50528938018E+02  0.30000237600E+02 0.  0.
         12    1    1    2    0    0 -0.17208524424E+02 -0.10522514906E+02  0.35303012456E+02  0.40659061982E+02  0.00000000000E+00 0. -1.
         11    1    3    3    0    0  0.15927388279E+02 -0.17022700477E+01 -0.12691512401E+02  0.20436582591E+02  0.51100000000E-03 0.  1.
        -11    1    3    3    0    0 -0.20641173321E+01  0.11702406484E+02 -0.63326189516E+01  0.13465101594E+02  0.51100000000E-03 0. -1.
         12    1    3    3    0    0  0.33452534767E+01  0.52237846927E+00 -0.16278881103E+02  0.16627253833E+02  0.00000000000E+00 0. -1.
</event>
<event>
 7    1  0.9953837E-014  0.5052886E+02  0.7816164E-02  0.1300439E+00
        -11   -1    0    0    0    0  0.00000000000E+00  0.00000000000E+00  0.45593999997E+02  0.45594000000E+02  0.51100000000E-03 0.  1.
         11   -1    0    0    0    0 -0.00000000000E+00 -0.00000000000E+00 -0.45593999997E+02  0.45594000000E+02  0.51100000000E-03 0. -1.
    9900012    2    1    2    0    0  0.21174621704E+02 -0.11114005258E+02  0.32882822998E+02  0.50528858771E+02  0.29999996720E+02 0.  0.
        -12    1    1    2    0    0 -0.21174621704E+02  0.11114005258E+02 -0.32882822998E+02  0.40659141229E+02  0.00000000000E+00 0.  1.
         11    1    3    3    0    0  0.33166738150E+01  0.59430645963E+01 -0.25758919381E+01  0.72770572026E+01  0.51100000000E-03 0. -1.
        -11    1    3    3    0    0  0.10383778797E+02 -0.10921336479E+02  0.20605182930E+02  0.25527867448E+02  0.51100000000E-03 0.  1.
         12    1    3    3    0    0  0.74741690920E+01 -0.61357333750E+01  0.14853532005E+02  0.17723934120E+02  0.00000000000E+00 0. -1.
</event>
<event>
 7    1  0.9953837E-014  0.5052886E+02  0.7816164E-02  0.1300439E+00
        -11   -1    0    0    0    0  0.00000000000E+00  0.00000000000E+00  0.45593999997E+02  0.45594000000E+02  0.51100000000E-03 0. -1.
         11   -1    0    0    0    0 -0.00000000000E+00 -0.00000000000E+00 -0.45593999997E+02  0.45594000000E+02  0.51100000000E-03 0.  1.
    9900012    2    1    2    0    0  0.11387116799E+02  0.86974803461E+01 -0.38050661854E+02  0.50528862516E+02  0.30000008105E+02 0.  0.
         12    1    1    2    0    0 -0.11387116799E+02 -0.86974803461E+01  0.38050661854E+02  0.40659137484E+02  0.00000000000E+00 0. -1.
         11    1    3    3    0    0  0.64009668072E+01  0.85548876020E+01 -0.33885677622E+01  0.11208963810E+02  0.51100000000E-03 0. -1.
        -11    1    3    3    0    0  0.11404304767E+02 -0.22433266750E+01 -0.19866953713E+02  0.23017092168E+02  0.51100000000E-03 0.  1.
        -12    1    3    3    0    0 -0.64181547751E+01  0.23859194191E+01 -0.14795140380E+02  0.16302806539E+02  0.00000000000E+00 0.  1.
</event>
<event>
 7    1  0.9953837E-014  0.5052886E+02  0.7816164E-02  0.1300439E+00
        -11   -1    0    0    0    0  0.00000000000E+00  0.00000000000E+00  0.45593999997E+02  0.45594000000E+02  0.51100000000E-03 0. -1.
         11   -1    0    0    0    0 -0.00000000000E+00 -0.00000000000E+00 -0.45593999997E+02  0.45594000000E+02  0.51100000000E-03 0.  1.
    9900012    2    1    2    0    0 -0.56270621996E+01  0.17869027593E+02 -0.36086004956E+02  0.50528859210E+02  0.29999998054E+02 0.  0.
         12    1    1    2    0    0  0.56270621996E+01 -0.17869027593E+02  0.36086004956E+02  0.40659140790E+02  0.00000000000E+00 0. -1.
         11    1    3    3    0    0 -0.17904401362E+01  0.21405681410E+01  0.12713923219E+01  0.30666180957E+01  0.51100000000E-03 0. -1.
        -11    1    3    3    0    0  0.54544770426E+01  0.16804068850E+01 -0.27203262400E+02  0.27795549510E+02  0.51100000000E-03 0.  1.
        -12    1    3    3    0    0 -0.92910991059E+01  0.14048052567E+02 -0.10154134878E+02  0.19666691604E+02  0.00000000000E+00 0.  1.
</event>
<event>
 7    1  0.9953837E-014  0.5052886E+02  0.7816164E-02  0.1300439E+00
        -11   -1    0    0    0    0  0.00000000000E+00  0.00000000000E+00  0.45593999997E+02  0.45594000000E+02  0.51100000000E-03 0. -1.
         11   -1    0    0    0    0 -0.00000000000E+00 -0.00000000000E+00 -0.45593999997E+02  0.45594000000E+02  0.51100000000E-03 0.  1.
    9900012    2    1    2    0    0 -0.38535807982E+02  0.28908838848E+01 -0.12641207226E+02  0.50528858019E+02  0.29999994435E+02 0.  0.
         12    1    1    2    0    0  0.38535807982E+02 -0.28908838848E+01  0.12641207226E+02  0.40659141981E+02  0.00000000000E+00 0. -1.
         11    1    3    3    0    0 -0.12355600902E+02  0.68403142041E+01 -0.17783894025E+02  0.22709417848E+02  0.51100000000E-03 0. -1.
        -11    1    3    3    0    0 -0.12082663653E+02 -0.52587532193E+01  0.22324766984E+01  0.13365223486E+02  0.51100000000E-03 0.  1.
         12    1    3    3    0    0 -0.14097543427E+02  0.13093229000E+01  0.29102101002E+01  0.14454216685E+02  0.00000000000E+00 0. -1.
</event>
<event>
 7    1  0.9953837E-014  0.5052886E+02  0.7816164E-02  0.1300439E+00
        -11   -1    0    0    0    0  0.00000000000E+00  0.00000000000E+00  0.45593999997E+02  0.45594000000E+02  0.51100000000E-03 0. -1.
         11   -1    0    0    0    0 -0.00000000000E+00 -0.00000000000E+00 -0.45593999997E+02  0.45594000000E+02  0.51100000000E-03 0.  1.
    9900012    2    1    2    0    0  0.20066733905E+02  0.34625988020E+02 -0.71786181541E+01  0.50528863086E+02  0.30000009837E+02 0.  0.
         12    1    1    2    0    0 -0.20066733905E+02 -0.34625988020E+02  0.71786181541E+01  0.40659136914E+02  0.00000000000E+00 0. -1.
         11    1    3    3    0    0  0.94823777105E+01  0.22140323242E+02  0.94989721013E+01  0.25890922570E+02  0.51100000000E-03 0. -1.
        -11    1    3    3    0    0  0.83625335798E+01  0.13189683158E+02 -0.15586764829E+02  0.22064608489E+02  0.51100000000E-03 0.  1.
         12    1    3    3    0    0  0.22218226149E+01 -0.70401837989E+00 -0.10908254265E+01  0.25733320273E+01  0.00000000000E+00 0. -1.
</event>
<event>
 7    1  0.9953837E-014  0.5052887E+02  0.7816164E-02  0.1300439E+00
        -11   -1    0    0    0    0  0.00000000000E+00  0.00000000000E+00  0.45593999997E+02  0.45594000000E+02  0.51100000000E-03 0. -1.
         11   -1    0    0    0    0 -0.00000000000E+00 -0.00000000000E+00 -0.45593999997E+02  0.45594000000E+02  0.51100000000E-03 0.  1.
    9900012    2    1    2    0    0  0.93026986895E+01  0.11802579516E+02 -0.37779937017E+02  0.50528871540E+02  0.30000035532E+02 0.  0.
         12    1    1    2    0    0 -0.93026986895E+01 -0.11802579516E+02  0.37779937017E+02  0.40659128460E+02  0.00000000000E+00 0. -1.
         11    1    3    3    0    0  0.60666631430E+01  0.25854840619E+01 -0.45288638387E+00  0.66101615610E+01  0.51100000000E-03 0. -1.
        -11    1    3    3    0    0 -0.51455535149E+01  0.12794974955E+02 -0.19322926791E+02  0.23739494626E+02  0.51100000000E-03 0.  1.
        -12    1    3    3    0    0  0.83815890614E+01 -0.35778795008E+01 -0.18004123842E+02  0.20179215352E+02  0.00000000000E+00 0.  1.
</event>
<event>
 7    1  0.1396957E-013  0.5052885E+02  0.7816164E-02  0.1300439E+00
        -11   -1    0    0    0    0  0.00000000000E+00  0.00000000000E+00  0.45593999997E+02  0.45594000000E+02  0.51100000000E-03 0. -1.
         11   -1    0    0    0    0 -0.00000000000E+00 -0.00000000000E+00 -0.45593999997E+02  0.45594000000E+02  0.51100000000E-03 0.  1.
    9900012    2    1    2    0    0 -0.15583257116E+02  0.42444092127E+01  0.37313714320E+02  0.50528853572E+02  0.29999980918E+02 0.  0.
        -12    1    1    2    0    0  0.15583257116E+02 -0.42444092127E+01 -0.37313714320E+02  0.40659146428E+02  0.00000000000E+00 0.  1.
         11    1    3    3    0    0 -0.14556939016E+02  0.50533788038E+01  0.39704780692E+02  0.42590030769E+02  0.51100000000E-03 0. -1.
        -11    1    3    3    0    0  0.25284355386E+01  0.33162237836E+00  0.11462683003E+01  0.27958703389E+01  0.51100000000E-03 0.  1.
         12    1    3    3    0    0 -0.35547536387E+01 -0.11405919695E+01 -0.35373346718E+01  0.51429524646E+01  0.00000000000E+00 0. -1.
</event>
<event>
 7    1  0.9953837E-014  0.5052884E+02  0.7816164E-02  0.1300439E+00
        -11   -1    0    0    0    0  0.00000000000E+00  0.00000000000E+00  0.45593999997E+02  0.45594000000E+02  0.51100000000E-03 0. -1.
         11   -1    0    0    0    0 -0.00000000000E+00 -0.00000000000E+00 -0.45593999997E+02  0.45594000000E+02  0.51100000000E-03 0.  1.
    9900012    2    1    2    0    0  0.54155214134E+01  0.35753971388E+02  0.18587432478E+02  0.50528843733E+02  0.29999951011E+02 0.  0.
        -12    1    1    2    0    0 -0.54155214134E+01 -0.35753971388E+02 -0.18587432478E+02  0.40659156267E+02  0.00000000000E+00 0.  1.
         11    1    3    3    0    0 -0.27237651521E+01  0.10137252873E+02 -0.40527192868E+01  0.11251992103E+02  0.51100000000E-03 0. -1.
        -11    1    3    3    0    0  0.49355423083E+01  0.25550596671E+02  0.24355290197E+02  0.35642288492E+02  0.51100000000E-03 0.  1.
        -12    1    3    3    0    0  0.32037442572E+01  0.66121844256E-01 -0.17151384317E+01  0.36345631379E+01  0.00000000000E+00 0.  1.
</event>
<event>
 7    1  0.9953837E-014  0.5052887E+02  0.7816164E-02  0.1300439E+00
        -11   -1    0    0    0    0  0.00000000000E+00  0.00000000000E+00  0.45593999997E+02  0.45594000000E+02  0.51100000000E-03 0. -1.
         11   -1    0    0    0    0 -0.00000000000E+00 -0.00000000000E+00 -0.45593999997E+02  0.45594000000E+02  0.51100000000E-03 0.  1.
    9900012    2    1    2    0    0 -0.21563982427E+02  0.20080716906E+02 -0.28016503846E+02  0.50528867972E+02  0.30000024686E+02 0.  0.
         12    1    1    2    0    0  0.21563982427E+02 -0.20080716906E+02  0.28016503846E+02  0.40659132028E+02  0.00000000000E+00 0. -1.
         11    1    3    3    0    0 -0.72743566269E+01 -0.54611248744E+00 -0.10392846696E+02  0.12697470846E+02  0.51100000000E-03 0. -1.
        -11    1    3    3    0    0  0.36709898182E+01  0.84564498650E+01  0.95470370590E+00  0.92681805115E+01  0.51100000000E-03 0.  1.
        -12    1    3    3    0    0 -0.17960615619E+02  0.12170379528E+02 -0.18578360856E+02  0.28563216614E+02  0.00000000000E+00 0.  1.
</event>
<event>
 7    1  0.9953837E-014  0.5052898E+02  0.7816164E-02  0.1300438E+00
        -11   -1    0    0    0    0  0.00000000000E+00  0.00000000000E+00  0.45593999997E+02  0.45594000000E+02  0.51100000000E-03 0. -1.
         11   -1    0    0    0    0 -0.00000000000E+00 -0.00000000000E+00 -0.45593999997E+02  0.45594000000E+02  0.51100000000E-03 0.  1.
    9900012    2    1    2    0    0 -0.10460360045E+02 -0.26601780180E+01 -0.39200260163E+02  0.50528977924E+02  0.30000358895E+02 0.  0.
         12    1    1    2    0    0  0.10460360045E+02  0.26601780180E+01  0.39200260163E+02  0.40659022076E+02  0.00000000000E+00 0. -1.
         11    1    3    3    0    0 -0.79281958199E+01 -0.85781820964E+01 -0.16447453451E+02  0.20173255124E+02  0.51100000000E-03 0. -1.
        -11    1    3    3    0    0  0.63196634542E+01  0.84873125680E+01 -0.95506733762E+01  0.14254402232E+02  0.51100000000E-03 0.  1.
        -12    1    3    3    0    0 -0.88518276795E+01 -0.25693084896E+01 -0.13202133336E+02  0.16101320567E+02  0.00000000000E+00 0.  1.
</event>
<event>
 7    1  0.9953837E-014  0.5052887E+02  0.7816164E-02  0.1300439E+00
        -11   -1    0    0    0    0  0.00000000000E+00  0.00000000000E+00  0.45593999997E+02  0.45594000000E+02  0.51100000000E-03 0. -1.
         11   -1    0    0    0    0 -0.00000000000E+00 -0.00000000000E+00 -0.45593999997E+02  0.45594000000E+02  0.51100000000E-03 0.  1.
    9900012    2    1    2    0    0  0.96508947907E+01  0.22548020060E+02  0.32428571476E+02  0.50528865395E+02  0.30000016854E+02 0.  0.
        -12    1    1    2    0    0 -0.96508947907E+01 -0.22548020060E+02 -0.32428571476E+02  0.40659134605E+02  0.00000000000E+00 0.  1.
         11    1    3    3    0    0  0.24779462928E+01  0.14924904277E+02  0.19535312336E+02  0.24708731530E+02  0.51100000000E-03 0. -1.
        -11    1    3    3    0    0  0.36819209731E+00  0.17251868684E+01 -0.52644347509E+01  0.55521264988E+01  0.51100000000E-03 0.  1.
        -12    1    3    3    0    0  0.68047564006E+01  0.58979289150E+01  0.18157693891E+02  0.20268007366E+02  0.00000000000E+00 0.  1.
</event>
<event>
 7    1  0.9953837E-014  0.5052886E+02  0.7816164E-02  0.1300439E+00
        -11   -1    0    0    0    0  0.00000000000E+00  0.00000000000E+00  0.45593999997E+02  0.45594000000E+02  0.51100000000E-03 0. -1.
         11   -1    0    0    0    0 -0.00000000000E+00 -0.00000000000E+00 -0.45593999997E+02  0.45594000000E+02  0.51100000000E-03 0.  1.
    9900012    2    1    2    0    0 -0.31923468091E+02 -0.10252133470E+02 -0.22998941325E+02  0.50528863785E+02  0.30000011962E+02 0.  0.
         12    1    1    2    0    0  0.31923468091E+02  0.10252133470E+02  0.22998941325E+02  0.40659136215E+02  0.00000000000E+00 0. -1.
         11    1    3    3    0    0 -0.35973972769E+01  0.32786848045E+01 -0.17751659875E+02  0.18406859313E+02  0.51100000000E-03 0. -1.
        -11    1    3    3    0    0 -0.20677581845E+02 -0.10574619680E+02 -0.56852923515E+01  0.23910406139E+02  0.51100000000E-03 0.  1.
         12    1    3    3    0    0 -0.76484889690E+01 -0.29561985941E+01  0.43801090121E+00  0.82115983333E+01  0.00000000000E+00 0. -1.
</event>
<event>
 7    1  0.9953837E-014  0.5052886E+02  0.7816164E-02  0.1300439E+00
        -11   -1    0    0    0    0  0.00000000000E+00  0.00000000000E+00  0.45593999997E+02  0.45594000000E+02  0.51100000000E-03 0. -1.
         11   -1    0    0    0    0 -0.00000000000E+00 -0.00000000000E+00 -0.45593999997E+02  0.45594000000E+02  0.51100000000E-03 0.  1.
    9900012    2    1    2    0    0 -0.12483761800E+02 -0.27709912146E+02 -0.27008925181E+02  0.50528861061E+02  0.30000003681E+02 0.  0.
         12    1    1    2    0    0  0.12483761800E+02  0.27709912146E+02  0.27008925181E+02  0.40659138939E+02  0.00000000000E+00 0. -1.
         11    1    3    3    0    0 -0.43753175963E+01  0.94303876361E+00 -0.16216736019E+01  0.47605201093E+01  0.51100000000E-03 0. -1.
        -11    1    3    3    0    0 -0.63776428042E+01 -0.32696775540E+02 -0.20166148124E+02  0.38941327519E+02  0.51100000000E-03 0.  1.
        -12    1    3    3    0    0 -0.17308013993E+01  0.40438246308E+01 -0.52211034552E+01  0.68270134333E+01  0.00000000000E+00 0.  1.
</event>
<event>
 7    1  0.9953837E-014  0.5052884E+02  0.7816164E-02  0.1300439E+00
        -11   -1    0    0    0    0  0.00000000000E+00  0.00000000000E+00  0.45593999997E+02  0.45594000000E+02  0.51100000000E-03 0.  1.
         11   -1    0    0    0    0 -0.00000000000E+00 -0.00000000000E+00 -0.45593999997E+02  0.45594000000E+02  0.51100000000E-03 0. -1.
    9900012    2    1    2    0    0  0.24559425742E+02 -0.22636004833E+02 -0.23186481870E+02  0.50528842986E+02  0.29999948741E+02 0.  0.
         12    1    1    2    0    0 -0.24559425742E+02  0.22636004833E+02  0.23186481870E+02  0.40659157014E+02  0.00000000000E+00 0. -1.
         11    1    3    3    0    0  0.17718853706E+01  0.19701617801E+01 -0.30307274189E+01  0.40257203275E+01  0.51100000000E-03 0. -1.
        -11    1    3    3    0    0  0.28278066018E+02 -0.20450299340E+02 -0.18124332426E+02  0.39323722954E+02  0.51100000000E-03 0.  1.
        -12    1    3    3    0    0 -0.54905256472E+01 -0.41558672735E+01 -0.20314220253E+01  0.71793997049E+01  0.00000000000E+00 0.  1.
</event>
<event>
 7    1  0.9953837E-014  0.5052884E+02  0.7816164E-02  0.1300439E+00
        -11   -1    0    0    0    0  0.00000000000E+00  0.00000000000E+00  0.45593999997E+02  0.45594000000E+02  0.51100000000E-03 0. -1.
         11   -1    0    0    0    0 -0.00000000000E+00 -0.00000000000E+00 -0.45593999997E+02  0.45594000000E+02  0.51100000000E-03 0.  1.
    9900012    2    1    2    0    0  0.16427852883E+02  0.31453917460E+02  0.19848014667E+02  0.50528844080E+02  0.29999952066E+02 0.  0.
        -12    1    1    2    0    0 -0.16427852883E+02 -0.31453917460E+02 -0.19848014667E+02  0.40659155920E+02  0.00000000000E+00 0.  1.
         11    1    3    3    0    0  0.16220764248E+02  0.88298523555E+01  0.10543701068E+02  0.21266149578E+02  0.51100000000E-03 0. -1.
        -11    1    3    3    0    0  0.39254977926E+01  0.20875813148E+02  0.26010571583E+01  0.21400341261E+02  0.51100000000E-03 0.  1.
         12    1    3    3    0    0 -0.37184091580E+01  0.17482519563E+01  0.67032564408E+01  0.78623532406E+01  0.00000000000E+00 0. -1.
</event>
<event>
 7    1  0.9953837E-014  0.5052885E+02  0.7816164E-02  0.1300439E+00
        -11   -1    0    0    0    0  0.00000000000E+00  0.00000000000E+00  0.45593999997E+02  0.45594000000E+02  0.51100000000E-03 0. -1.
         11   -1    0    0    0    0 -0.00000000000E+00 -0.00000000000E+00 -0.45593999997E+02  0.45594000000E+02  0.51100000000E-03 0.  1.
    9900012    2    1    2    0    0  0.14876611205E+02  0.18709778748E+02 -0.32890683729E+02  0.50528850256E+02  0.29999970838E+02 0.  0.
         12    1    1    2    0    0 -0.14876611205E+02 -0.18709778748E+02  0.32890683729E+02  0.40659149744E+02  0.00000000000E+00 0. -1.
         11    1    3    3    0    0 -0.56186851621E+01  0.81644146760E+01 -0.21787125230E+01  0.10147614423E+02  0.51100000000E-03 0. -1.
        -11    1    3    3    0    0  0.18214596961E+02  0.84844464499E+01 -0.16973800658E+02  0.26303370184E+02  0.51100000000E-03 0.  1.
         12    1    3    3    0    0  0.22806994061E+01  0.20609176224E+01 -0.13738170548E+02  0.14077865649E+02  0.00000000000E+00 0. -1.
</event>
<event>
 7    1  0.9953837E-014  0.5052886E+02  0.7816164E-02  0.1300439E+00
        -11   -1    0    0    0    0  0.00000000000E+00  0.00000000000E+00  0.45593999997E+02  0.45594000000E+02  0.51100000000E-03 0. -1.
         11   -1    0    0    0    0 -0.00000000000E+00 -0.00000000000E+00 -0.45593999997E+02  0.45594000000E+02  0.51100000000E-03 0.  1.
    9900012    2    1    2    0    0 -0.23089575746E+02 -0.14773940721E+02  0.30029448665E+02  0.50528860564E+02  0.30000002170E+02 0.  0.
        -12    1    1    2    0    0  0.23089575746E+02  0.14773940721E+02 -0.30029448665E+02  0.40659139436E+02  0.00000000000E+00 0.  1.
         11    1    3    3    0    0 -0.18635965019E+02  0.83357571303E+00  0.32164262398E+01  0.18929855749E+02  0.51100000000E-03 0. -1.
        -11    1    3    3    0    0 -0.13540061116E+01 -0.86344511316E+01  0.17481872769E+02  0.19544895873E+02  0.51100000000E-03 0.  1.
         12    1    3    3    0    0 -0.30996046151E+01 -0.69730653024E+01  0.93311496560E+01  0.12054108942E+02  0.00000000000E+00 0. -1.
</event>
<event>
 7    1  0.9953837E-014  0.5052887E+02  0.7816164E-02  0.1300439E+00
        -11   -1    0    0    0    0  0.00000000000E+00  0.00000000000E+00  0.45593999997E+02  0.45594000000E+02  0.51100000000E-03 0. -1.
         11   -1    0    0    0    0 -0.00000000000E+00 -0.00000000000E+00 -0.45593999997E+02  0.45594000000E+02  0.51100000000E-03 0.  1.
    9900012    2    1    2    0    0  0.86909330491E+01 -0.30825624033E+02 -0.25048230207E+02  0.50528865100E+02  0.30000015958E+02 0.  0.
         12    1    1    2    0    0 -0.86909330491E+01  0.30825624033E+02  0.25048230207E+02  0.40659134900E+02  0.00000000000E+00 0. -1.
         11    1    3    3    0    0 -0.74192315312E+01 -0.70503159311E+01 -0.15016593186E+02  0.18172782462E+02  0.51100000000E-03 0. -1.
        -11    1    3    3    0    0  0.74945717195E+01 -0.15740890768E+02 -0.91141796216E+00  0.17457804283E+02  0.51100000000E-03 0.  1.
         12    1    3    3    0    0  0.86155928608E+01 -0.80344173339E+01 -0.91202190590E+01  0.14898278354E+02  0.00000000000E+00 0. -1.
</event>
<event>
 7    1  0.9953837E-014  0.5052886E+02  0.7816164E-02  0.1300439E+00
        -11   -1    0    0    0    0  0.00000000000E+00  0.00000000000E+00  0.45593999997E+02  0.45594000000E+02  0.51100000000E-03 0. -1.
         11   -1    0    0    0    0 -0.00000000000E+00 -0.00000000000E+00 -0.45593999997E+02  0.45594000000E+02  0.51100000000E-03 0.  1.
    9900012    2    1    2    0    0  0.12917092646E+02 -0.29861355920E+02 -0.24384703600E+02  0.50528860443E+02  0.30000001804E+02 0.  0.
         12    1    1    2    0    0 -0.12917092646E+02  0.29861355920E+02  0.24384703600E+02  0.40659139557E+02  0.00000000000E+00 0. -1.
         11    1    3    3    0    0  0.16012965606E+01  0.23522733621E+01 -0.55892280601E+01  0.62719065055E+01  0.51100000000E-03 0. -1.
        -11    1    3    3    0    0 -0.33551909602E+01 -0.21842235127E+02 -0.10126994533E+02  0.24308363998E+02  0.51100000000E-03 0.  1.
        -12    1    3    3    0    0  0.14670987046E+02 -0.10371394156E+02 -0.86684810069E+01  0.19948589940E+02  0.00000000000E+00 0.  1.
</event>
<event>
 7    1  0.9953837E-014  0.5052886E+02  0.7816164E-02  0.1300439E+00
        -11   -1    0    0    0    0  0.00000000000E+00  0.00000000000E+00  0.45593999997E+02  0.45594000000E+02  0.51100000000E-03 0. -1.
         11   -1    0    0    0    0 -0.00000000000E+00 -0.00000000000E+00 -0.45593999997E+02  0.45594000000E+02  0.51100000000E-03 0.  1.
    9900012    2    1    2    0    0  0.16787861344E+02 -0.36086860653E+02 -0.83109354588E+01  0.50528862669E+02  0.30000008569E+02 0.  0.
         12    1    1    2    0    0 -0.16787861344E+02  0.36086860653E+02  0.83109354588E+01  0.40659137331E+02  0.00000000000E+00 0. -1.
         11    1    3    3    0    0  0.72919249226E+01 -0.18447081091E+02  0.48845897594E+01  0.20428563024E+02  0.51100000000E-03 0. -1.
        -11    1    3    3    0    0 -0.35835239639E+01  0.14202454906E+01 -0.10880372130E+01  0.40053172772E+01  0.51100000000E-03 0.  1.
        -12    1    3    3    0    0  0.13079460385E+02 -0.19060025053E+02 -0.12107488005E+02  0.26094982368E+02  0.00000000000E+00 0.  1.
</event>
<event>
 7    1  0.9953837E-014  0.5052896E+02  0.7816164E-02  0.1300438E+00
        -11   -1    0    0    0    0  0.00000000000E+00  0.00000000000E+00  0.45593999997E+02  0.45594000000E+02  0.51100000000E-03 0. -1.
         11   -1    0    0    0    0 -0.00000000000E+00 -0.00000000000E+00 -0.45593999997E+02  0.45594000000E+02  0.51100000000E-03 0.  1.
    9900012    2    1    2    0    0 -0.11575142467E+02 -0.72148804362E+01  0.38302989385E+02  0.50528961415E+02  0.30000308716E+02 0.  0.
        -12    1    1    2    0    0  0.11575142467E+02  0.72148804362E+01 -0.38302989385E+02  0.40659038585E+02  0.00000000000E+00 0.  1.
         11    1    3    3    0    0  0.46330239237E+01 -0.11623705120E+02  0.13272880789E+02  0.18241293707E+02  0.51100000000E-03 0. -1.
        -11    1    3    3    0    0 -0.71798845832E+01  0.52308260005E+01  0.47498853609E+01  0.10073415234E+02  0.51100000000E-03 0.  1.
        -12    1    3    3    0    0 -0.90282818071E+01 -0.82200131683E+00  0.20280223235E+02  0.22214252475E+02  0.00000000000E+00 0.  1.
</event>
<event>
 7    1  0.9953837E-014  0.5052886E+02  0.7816164E-02  0.1300439E+00
        -11   -1    0    0    0    0  0.00000000000E+00  0.00000000000E+00  0.45593999997E+02  0.45594000000E+02  0.51100000000E-03 0. -1.
         11   -1    0    0    0    0 -0.00000000000E+00 -0.00000000000E+00 -0.45593999997E+02  0.45594000000E+02  0.51100000000E-03 0.  1.
    9900012    2    1    2    0    0 -0.30249940707E+02 -0.12928978902E+02 -0.23894525554E+02  0.50528858842E+02  0.29999996937E+02 0.  0.
         12    1    1    2    0    0  0.30249940707E+02  0.12928978902E+02  0.23894525554E+02  0.40659141158E+02  0.00000000000E+00 0. -1.
         11    1    3    3    0    0  0.27105965709E+01  0.47912839452E+01 -0.45340021900E+01  0.71316836535E+01  0.51100000000E-03 0. -1.
        -11    1    3    3    0    0 -0.28683038499E+02 -0.12809080770E+02 -0.19330336882E+02  0.36884294381E+02  0.51100000000E-03 0.  1.
        -12    1    3    3    0    0 -0.42774987786E+01 -0.49111820771E+01 -0.30186482334E-01  0.65128808080E+01  0.00000000000E+00 0.  1.
</event>
<event>
 7    1  0.9953837E-014  0.5052886E+02  0.7816164E-02  0.1300439E+00
        -11   -1    0    0    0    0  0.00000000000E+00  0.00000000000E+00  0.45593999997E+02  0.45594000000E+02  0.51100000000E-03 0. -1.
         11   -1    0    0    0    0 -0.00000000000E+00 -0.00000000000E+00 -0.45593999997E+02  0.45594000000E+02  0.51100000000E-03 0.  1.
    9900012    2    1    2    0    0  0.21127853207E+02 -0.33922546056E+02 -0.74860337065E+01  0.50528855731E+02  0.29999987480E+02 0.  0.
         12    1    1    2    0    0 -0.21127853207E+02  0.33922546056E+02  0.74860337065E+01  0.40659144269E+02  0.00000000000E+00 0. -1.
         11    1    3    3    0    0  0.57215148695E+01 -0.33671221064E+01  0.64339601276E+01  0.92449492625E+01  0.51100000000E-03 0. -1.
        -11    1    3    3    0    0  0.12829643360E+02 -0.92962828304E+01 -0.11818988892E+02  0.19766363396E+02  0.51100000000E-03 0.  1.
        -12    1    3    3    0    0  0.25766949775E+01 -0.21259141119E+02 -0.21010049425E+01  0.21517543073E+02  0.00000000000E+00 0.  1.
</event>
<event>
 7    1  0.9953837E-014  0.5052886E+02  0.7816164E-02  0.1300439E+00
        -11   -1    0    0    0    0  0.00000000000E+00  0.00000000000E+00  0.45593999997E+02  0.45594000000E+02  0.51100000000E-03 0. -1.
         11   -1    0    0    0    0 -0.00000000000E+00 -0.00000000000E+00 -0.45593999997E+02  0.45594000000E+02  0.51100000000E-03 0.  1.
    9900012    2    1    2    0    0 -0.50907454846E+01 -0.12948340369E+02 -0.38204590108E+02  0.50528856954E+02  0.29999991198E+02 0.  0.
         12    1    1    2    0    0  0.50907454846E+01  0.12948340369E+02  0.38204590108E+02  0.40659143046E+02  0.00000000000E+00 0. -1.
         11    1    3    3    0    0 -0.91420741403E+01 -0.11886375096E-01 -0.41524764579E+01  0.10040952239E+02  0.51100000000E-03 0. -1.
        -11    1    3    3    0    0  0.82659514455E+01 -0.10052701621E+02 -0.32715398195E+02  0.35209090339E+02  0.51100000000E-03 0.  1.
        -12    1    3    3    0    0 -0.42146227899E+01 -0.28837523727E+01 -0.13367154552E+01  0.52788143760E+01  0.00000000000E+00 0.  1.
</event>
<event>
 7    1  0.9953837E-014  0.5052886E+02  0.7816164E-02  0.1300439E+00
        -11   -1    0    0    0    0  0.00000000000E+00  0.00000000000E+00  0.45593999997E+02  0.45594000000E+02  0.51100000000E-03 0. -1.
         11   -1    0    0    0    0 -0.00000000000E+00 -0.00000000000E+00 -0.45593999997E+02  0.45594000000E+02  0.51100000000E-03 0.  1.
    9900012    2    1    2    0    0 -0.11088829366E+02  0.97111019271E+01 -0.37893247436E+02  0.50528857872E+02  0.29999993989E+02 0.  0.
         12    1    1    2    0    0  0.11088829366E+02 -0.97111019271E+01  0.37893247436E+02  0.40659142128E+02  0.00000000000E+00 0. -1.
         11    1    3    3    0    0 -0.81455584477E+01 -0.45635395666E+01 -0.98658435285E+01  0.13583478369E+02  0.51100000000E-03 0. -1.
        -11    1    3    3    0    0 -0.16835803496E+01  0.19048353577E+02 -0.22730129595E+02  0.29704090770E+02  0.51100000000E-03 0.  1.
        -12    1    3    3    0    0 -0.12596905684E+01 -0.47737120837E+01 -0.52972743120E+01  0.72412887336E+01  0.00000000000E+00 0.  1.
</event>
<event>
 7    1  0.9953837E-014  0.5052886E+02  0.7816164E-02  0.1300439E+00
        -11   -1    0    0    0    0  0.00000000000E+00  0.00000000000E+00  0.45593999997E+02  0.45594000000E+02  0.51100000000E-03 0. -1.
         11   -1    0    0    0    0 -0.00000000000E+00 -0.00000000000E+00 -0.45593999997E+02  0.45594000000E+02  0.51100000000E-03 0.  1.
    9900012    2    1    2    0    0 -0.57675408682E+01 -0.27640854113E+02 -0.29255497849E+02  0.50528862058E+02  0.30000006712E+02 0.  0.
         12    1    1    2    0    0  0.57675408682E+01  0.27640854113E+02  0.29255497849E+02  0.40659137942E+02  0.00000000000E+00 0. -1.
         11    1    3    3    0    0 -0.35158354873E+01 -0.64733312810E+01  0.36700053724E+01  0.82300702756E+01  0.51100000000E-03 0. -1.
        -11    1    3    3    0    0  0.43426551434E+01 -0.17890985890E+02 -0.27736871401E+02  0.33290840560E+02  0.51100000000E-03 0.  1.
        -12    1    3    3    0    0 -0.65943605243E+01 -0.32765369419E+01 -0.51886318205E+01  0.90079512224E+01  0.00000000000E+00 0.  1.
</event>
<event>
 7    1  0.9953837E-014  0.5052890E+02  0.7816164E-02  0.1300439E+00
        -11   -1    0    0    0    0  0.00000000000E+00  0.00000000000E+00  0.45593999997E+02  0.45594000000E+02  0.51100000000E-03 0. -1.
         11   -1    0    0    0    0 -0.00000000000E+00 -0.00000000000E+00 -0.45593999997E+02  0.45594000000E+02  0.51100000000E-03 0.  1.
    9900012    2    1    2    0    0 -0.40606956396E+02  0.20317657707E+01 -0.33116972430E+00  0.50528897043E+02  0.30000113050E+02 0.  0.
        -12    1    1    2    0    0  0.40606956396E+02 -0.20317657707E+01  0.33116972430E+00  0.40659102957E+02  0.00000000000E+00 0.  1.
         11    1    3    3    0    0 -0.30866048186E+01  0.91682968410E+01 -0.43080526541E+01  0.10589811812E+02  0.51100000000E-03 0.  1.
        -11    1    3    3    0    0 -0.36273527605E+02 -0.83782450649E+01  0.19852211831E+01  0.37281428335E+02  0.51100000000E-03 0. -1.
         12    1    3    3    0    0 -0.12468239722E+01  0.12417139946E+01  0.19916617468E+01  0.26576568958E+01  0.00000000000E+00 0. -1.
</event>
<event>
 7    1  0.9953837E-014  0.5052886E+02  0.7816164E-02  0.1300439E+00
        -11   -1    0    0    0    0  0.00000000000E+00  0.00000000000E+00  0.45593999997E+02  0.45594000000E+02  0.51100000000E-03 0.  1.
         11   -1    0    0    0    0 -0.00000000000E+00 -0.00000000000E+00 -0.45593999997E+02  0.45594000000E+02  0.51100000000E-03 0. -1.
    9900012    2    1    2    0    0 -0.37261065502E+02 -0.10754054118E+02 -0.12211828875E+02  0.50528862690E+02  0.30000008632E+02 0.  0.
        -12    1    1    2    0    0  0.37261065502E+02  0.10754054118E+02  0.12211828875E+02  0.40659137310E+02  0.00000000000E+00 0.  1.
         11    1    3    3    0    0 -0.34934367210E+02 -0.57491683792E+00 -0.10964617391E+02  0.36619166792E+02  0.51100000000E-03 0. -1.
        -11    1    3    3    0    0 -0.21287685867E+01 -0.20300047561E+01 -0.42961003250E+01  0.52066355038E+01  0.51100000000E-03 0.  1.
         12    1    3    3    0    0 -0.19792970528E+00 -0.81491325237E+01  0.30488888413E+01  0.87030603941E+01  0.00000000000E+00 0. -1.
</event>
<event>
 7    1  0.9953837E-014  0.5052881E+02  0.7816164E-02  0.1300439E+00
        -11   -1    0    0    0    0  0.00000000000E+00  0.00000000000E+00  0.45593999997E+02  0.45594000000E+02  0.51100000000E-03 0.  1.
         11   -1    0    0    0    0 -0.00000000000E+00 -0.00000000000E+00 -0.45593999997E+02  0.45594000000E+02  0.51100000000E-03 0. -1.
    9900012    2    1    2    0    0  0.40341413130E+02  0.49412283270E+01  0.11507049954E+01  0.50528813182E+02  0.29999858147E+02 0.  0.
        -12    1    1    2    0    0 -0.40341413130E+02 -0.49412283270E+01 -0.11507049954E+01  0.40659186818E+02  0.00000000000E+00 0.  1.
         11    1    3    3    0    0  0.24324776717E+02  0.12948713795E+02  0.32536029907E+01  0.27747970808E+02  0.51100000000E-03 0. -1.
        -11    1    3    3    0    0  0.16162606965E+02 -0.11079492824E+02 -0.20765587515E+01  0.19705256194E+02  0.51100000000E-03 0.  1.
        -12    1    3    3    0    0 -0.14597055178E+00  0.30720073560E+01 -0.26339243699E-01  0.30755861804E+01  0.00000000000E+00 0.  1.
</event>
<event>
 7    1  0.9953837E-014  0.5052881E+02  0.7816164E-02  0.1300439E+00
        -11   -1    0    0    0    0  0.00000000000E+00  0.00000000000E+00  0.45593999997E+02  0.45594000000E+02  0.51100000000E-03 0. -1.
         11   -1    0    0    0    0 -0.00000000000E+00 -0.00000000000E+00 -0.45593999997E+02  0.45594000000E+02  0.51100000000E-03 0.  1.
    9900012    2    1    2    0    0 -0.23448937967E+02 -0.12812360855E+02 -0.30645728461E+02  0.50528807247E+02  0.29999840107E+02 0.  0.
         12    1    1    2    0    0  0.23448937967E+02  0.12812360855E+02  0.30645728461E+02  0.40659192753E+02  0.00000000000E+00 0. -1.
         11    1    3    3    0    0 -0.52264376337E+01 -0.14886165607E+02 -0.36509468592E+01  0.16193918305E+02  0.51100000000E-03 0. -1.
        -11    1    3    3    0    0 -0.12548052840E+02 -0.15601227941E+01 -0.10223615904E+02  0.16260686813E+02  0.51100000000E-03 0.  1.
         12    1    3    3    0    0 -0.56744474930E+01  0.36339275466E+01 -0.16771165698E+02  0.18074202130E+02  0.00000000000E+00 0. -1.
</event>
<event>
 7    1  0.9953837E-014  0.5052885E+02  0.7816164E-02  0.1300439E+00
        -11   -1    0    0    0    0  0.00000000000E+00  0.00000000000E+00  0.45593999997E+02  0.45594000000E+02  0.51100000000E-03 0. -1.
         11   -1    0    0    0    0 -0.00000000000E+00 -0.00000000000E+00 -0.45593999997E+02  0.45594000000E+02  0.51100000000E-03 0.  1.
    9900012    2    1    2    0    0  0.16027659183E+02 -0.17893545533E+02 -0.32803987159E+02  0.50528850917E+02  0.29999972848E+02 0.  0.
         12    1    1    2    0    0 -0.16027659183E+02  0.17893545533E+02  0.32803987159E+02  0.40659149083E+02  0.00000000000E+00 0. -1.
         11    1    3    3    0    0 -0.88676676749E+00  0.66633336610E+01 -0.71307144569E+01  0.97996663058E+01  0.51100000000E-03 0. -1.
        -11    1    3    3    0    0  0.12409636785E+02 -0.23956598054E+02 -0.20810601201E+02  0.34073432437E+02  0.51100000000E-03 0.  1.
         12    1    3    3    0    0  0.45047891659E+01 -0.60028113914E+00 -0.48626715011E+01  0.66557521741E+01  0.00000000000E+00 0. -1.
</event>
<event>
 7    1  0.9953837E-014  0.5052885E+02  0.7816164E-02  0.1300439E+00
        -11   -1    0    0    0    0  0.00000000000E+00  0.00000000000E+00  0.45593999997E+02  0.45594000000E+02  0.51100000000E-03 0. -1.
         11   -1    0    0    0    0 -0.00000000000E+00 -0.00000000000E+00 -0.45593999997E+02  0.45594000000E+02  0.51100000000E-03 0.  1.
    9900012    2    1    2    0    0  0.93911366779E+01  0.25950471274E+02 -0.29858765478E+02  0.50528852403E+02  0.29999977364E+02 0.  0.
         12    1    1    2    0    0 -0.93911366779E+01 -0.25950471274E+02  0.29858765478E+02  0.40659147597E+02  0.00000000000E+00 0. -1.
         11    1    3    3    0    0  0.85780463469E+01  0.26690405108E+02 -0.14158059237E+02  0.31407184617E+02  0.51100000000E-03 0. -1.
        -11    1    3    3    0    0  0.57014931541E+01  0.66374875809E+00 -0.95301590568E+01  0.11125264874E+02  0.51100000000E-03 0.  1.
         12    1    3    3    0    0 -0.48884028231E+01 -0.14036825923E+01 -0.61705471842E+01  0.79964029121E+01  0.00000000000E+00 0. -1.
</event>
<event>
 7    1  0.9953837E-014  0.5052886E+02  0.7816164E-02  0.1300439E+00
        -11   -1    0    0    0    0  0.00000000000E+00  0.00000000000E+00  0.45593999997E+02  0.45594000000E+02  0.51100000000E-03 0. -1.
         11   -1    0    0    0    0 -0.00000000000E+00 -0.00000000000E+00 -0.45593999997E+02  0.45594000000E+02  0.51100000000E-03 0.  1.
    9900012    2    1    2    0    0 -0.24463677234E+02 -0.23302855644E+02  0.22620151146E+02  0.50528858065E+02  0.29999994575E+02 0.  0.
        -12    1    1    2    0    0  0.24463677234E+02  0.23302855644E+02 -0.22620151146E+02  0.40659141935E+02  0.00000000000E+00 0.  1.
         11    1    3    3    0    0 -0.16178985871E+01  0.30151501754E+01  0.81703907273E+01  0.88579913816E+01  0.51100000000E-03 0. -1.
        -11    1    3    3    0    0 -0.12338945603E+02 -0.25039157240E+02  0.13603810239E+02  0.31052739447E+02  0.51100000000E-03 0.  1.
        -12    1    3    3    0    0 -0.10506833044E+02 -0.12788485796E+01  0.84595018015E+00  0.10618127237E+02  0.00000000000E+00 0.  1.
</event>
<event>
 7    1  0.9953837E-014  0.5052886E+02  0.7816164E-02  0.1300439E+00
        -11   -1    0    0    0    0  0.00000000000E+00  0.00000000000E+00  0.45593999997E+02  0.45594000000E+02  0.51100000000E-03 0. -1.
         11   -1    0    0    0    0 -0.00000000000E+00 -0.00000000000E+00 -0.45593999997E+02  0.45594000000E+02  0.51100000000E-03 0.  1.
    9900012    2    1    2    0    0 -0.35376672555E+02  0.17988692841E+02 -0.88353542521E+01  0.50528861840E+02  0.30000006048E+02 0.  0.
        -12    1    1    2    0    0  0.35376672555E+02 -0.17988692841E+02  0.88353542521E+01  0.40659138160E+02  0.00000000000E+00 0.  1.
         11    1    3    3    0    0 -0.21994562168E-01  0.93194400438E+01  0.12197625075E+01  0.93989503311E+01  0.51100000000E-03 0.  1.
        -11    1    3    3    0    0 -0.26193299232E+02  0.13111744959E+02 -0.48352152339E+01  0.29688147250E+02  0.51100000000E-03 0. -1.
         12    1    3    3    0    0 -0.91613787610E+01 -0.44424921619E+01 -0.52199015256E+01  0.11441764259E+02  0.00000000000E+00 0. -1.
</event>
<event>
 7    1  0.9953837E-014  0.5052886E+02  0.7816164E-02  0.1300439E+00
        -11   -1    0    0    0    0  0.00000000000E+00  0.00000000000E+00  0.45593999997E+02  0.45594000000E+02  0.51100000000E-03 0. -1.
         11   -1    0    0    0    0 -0.00000000000E+00 -0.00000000000E+00 -0.45593999997E+02  0.45594000000E+02  0.51100000000E-03 0.  1.
    9900012    2    1    2    0    0 -0.16474686165E+02  0.21054995188E+02 -0.30633926334E+02  0.50528861430E+02  0.30000004803E+02 0.  0.
         12    1    1    2    0    0  0.16474686165E+02 -0.21054995188E+02  0.30633926334E+02  0.40659138570E+02  0.00000000000E+00 0. -1.
         11    1    3    3    0    0  0.65499971883E+01 -0.18720458920E+01 -0.63035934239E+01  0.92812881274E+01  0.51100000000E-03 0. -1.
        -11    1    3    3    0    0 -0.10694336213E+02  0.14895463012E+02 -0.16010962128E+02  0.24343265063E+02  0.51100000000E-03 0.  1.
         12    1    3    3    0    0 -0.12330347141E+02  0.80315780676E+01 -0.83193707822E+01  0.16904308240E+02  0.00000000000E+00 0. -1.
</event>
<event>
 7    1  0.9953837E-014  0.5052886E+02  0.7816164E-02  0.1300439E+00
        -11   -1    0    0    0    0  0.00000000000E+00  0.00000000000E+00  0.45593999997E+02  0.45594000000E+02  0.51100000000E-03 0. -1.
         11   -1    0    0    0    0 -0.00000000000E+00 -0.00000000000E+00 -0.45593999997E+02  0.45594000000E+02  0.51100000000E-03 0.  1.
    9900012    2    1    2    0    0 -0.32100363289E+02 -0.33679125901E+01 -0.24726297259E+02  0.50528856691E+02  0.29999990397E+02 0.  0.
         12    1    1    2    0    0  0.32100363289E+02  0.33679125901E+01  0.24726297259E+02  0.40659143309E+02  0.00000000000E+00 0. -1.
         11    1    3    3    0    0 -0.22528743682E+02  0.15179952749E+01 -0.15217110337E+01  0.22631045187E+02  0.51100000000E-03 0. -1.
        -11    1    3    3    0    0 -0.11268593144E+02 -0.11419079917E+01 -0.17978611626E+02  0.21248896949E+02  0.51100000000E-03 0.  1.
         12    1    3    3    0    0  0.16969735363E+01 -0.37439998732E+01 -0.52259746003E+01  0.66489145547E+01  0.00000000000E+00 0. -1.
</event>
<event>
 7    1  0.9953837E-014  0.5052885E+02  0.7816164E-02  0.1300439E+00
        -11   -1    0    0    0    0  0.00000000000E+00  0.00000000000E+00  0.45593999997E+02  0.45594000000E+02  0.51100000000E-03 0. -1.
         11   -1    0    0    0    0 -0.00000000000E+00 -0.00000000000E+00 -0.45593999997E+02  0.45594000000E+02  0.51100000000E-03 0.  1.
    9900012    2    1    2    0    0  0.27393434236E+02  0.16646424528E+02  0.25013254303E+02  0.50528848759E+02  0.29999966287E+02 0.  0.
        -12    1    1    2    0    0 -0.27393434236E+02 -0.16646424528E+02 -0.25013254303E+02  0.40659151241E+02  0.00000000000E+00 0.  1.
         11    1    3    3    0    0  0.19113752691E+02  0.20652125382E+02  0.78930114087E+01  0.29225766954E+02  0.51100000000E-03 0. -1.
        -11    1    3    3    0    0  0.10127773957E+02 -0.36784058153E+01  0.15037709614E+02  0.18499599600E+02  0.51100000000E-03 0.  1.
        -12    1    3    3    0    0 -0.18480924116E+01 -0.32729503872E+00  0.20825332807E+01  0.28034822042E+01  0.00000000000E+00 0.  1.
</event>
<event>
 7    1  0.9953837E-014  0.5052886E+02  0.7816164E-02  0.1300439E+00
        -11   -1    0    0    0    0  0.00000000000E+00  0.00000000000E+00  0.45593999997E+02  0.45594000000E+02  0.51100000000E-03 0. -1.
         11   -1    0    0    0    0 -0.00000000000E+00 -0.00000000000E+00 -0.45593999997E+02  0.45594000000E+02  0.51100000000E-03 0.  1.
    9900012    2    1    2    0    0 -0.11317801751E+02 -0.24119465766E+02 -0.30713583043E+02  0.50528862667E+02  0.30000008563E+02 0.  0.
         12    1    1    2    0    0  0.11317801751E+02  0.24119465766E+02  0.30713583043E+02  0.40659137333E+02  0.00000000000E+00 0. -1.
         11    1    3    3    0    0 -0.10523474785E+02 -0.18349898399E+02 -0.69844423335E+01  0.22276551074E+02  0.51100000000E-03 0. -1.
        -11    1    3    3    0    0 -0.20175389721E+01  0.96281051214E+00 -0.20612485838E+02  0.20733355741E+02  0.51100000000E-03 0.  1.
        -12    1    3    3    0    0  0.12232120057E+01 -0.67323778790E+01 -0.31166548715E+01  0.75189558521E+01  0.00000000000E+00 0.  1.
</event>
<event>
 7    1  0.9953837E-014  0.5052885E+02  0.7816164E-02  0.1300439E+00
        -11   -1    0    0    0    0  0.00000000000E+00  0.00000000000E+00  0.45593999997E+02  0.45594000000E+02  0.51100000000E-03 0.  1.
         11   -1    0    0    0    0 -0.00000000000E+00 -0.00000000000E+00 -0.45593999997E+02  0.45594000000E+02  0.51100000000E-03 0. -1.
    9900012    2    1    2    0    0 -0.16497053671E+02 -0.37140210042E+02  0.12721611634E+01  0.50528851265E+02  0.29999973906E+02 0.  0.
         12    1    1    2    0    0  0.16497053671E+02  0.37140210042E+02 -0.12721611634E+01  0.40659148735E+02  0.00000000000E+00 0. -1.
         11    1    3    3    0    0 -0.13696414867E+02 -0.36843776916E+01 -0.13807406250E+01  0.14250363649E+02  0.51100000000E-03 0. -1.
        -11    1    3    3    0    0 -0.42171247219E+01 -0.31053593029E+02 -0.13872397917E+01  0.31369319652E+02  0.51100000000E-03 0.  1.
         12    1    3    3    0    0  0.14164859181E+01 -0.24022393218E+01  0.40401415801E+01  0.49091679645E+01  0.00000000000E+00 0. -1.
</event>
<event>
 7    1  0.9953837E-014  0.5052875E+02  0.7816164E-02  0.1300439E+00
        -11   -1    0    0    0    0  0.00000000000E+00  0.00000000000E+00  0.45593999997E+02  0.45594000000E+02  0.51100000000E-03 0. -1.
         11   -1    0    0    0    0 -0.00000000000E+00 -0.00000000000E+00 -0.45593999997E+02  0.45594000000E+02  0.51100000000E-03 0.  1.
    9900012    2    1    2    0    0  0.24743287902E+01 -0.26261989698E+02  0.30941234772E+02  0.50528752404E+02  0.29999673407E+02 0.  0.
        -12    1    1    2    0    0 -0.24743287902E+01  0.26261989698E+02 -0.30941234772E+02  0.40659247596E+02  0.00000000000E+00 0.  1.
         11    1    3    3    0    0  0.28646606563E+01 -0.60322668442E+01  0.34946300688E+01  0.75370394409E+01  0.51100000000E-03 0. -1.
        -11    1    3    3    0    0 -0.74982403580E+01 -0.11388989600E+02  0.37653624296E+00  0.13640911714E+02  0.51100000000E-03 0.  1.
        -12    1    3    3    0    0  0.71079084919E+01 -0.88407332534E+01  0.27070068460E+02  0.29350801250E+02  0.00000000000E+00 0.  1.
</event>
<event>
 7    1  0.9953837E-014  0.5052886E+02  0.7816164E-02  0.1300439E+00
        -11   -1    0    0    0    0  0.00000000000E+00  0.00000000000E+00  0.45593999997E+02  0.45594000000E+02  0.51100000000E-03 0. -1.
         11   -1    0    0    0    0 -0.00000000000E+00 -0.00000000000E+00 -0.45593999997E+02  0.45594000000E+02  0.51100000000E-03 0.  1.
    9900012    2    1    2    0    0 -0.25926468919E+02  0.24303229164E+00 -0.31319718419E+02  0.50528860595E+02  0.30000002265E+02 0.  0.
         12    1    1    2    0    0  0.25926468919E+02 -0.24303229164E+00  0.31319718419E+02  0.40659139405E+02  0.00000000000E+00 0. -1.
         11    1    3    3    0    0  0.35481907100E+01  0.59352015805E+01 -0.54988206572E+01  0.88347780955E+01  0.51100000000E-03 0. -1.
        -11    1    3    3    0    0 -0.98353351941E+01 -0.57955250584E+01 -0.34507079712E+01  0.11925993244E+02  0.51100000000E-03 0.  1.
         12    1    3    3    0    0 -0.19639324435E+02  0.10335576948E+00 -0.22370189791E+02  0.29768089256E+02  0.00000000000E+00 0. -1.
</event>
<event>
 7    1  0.9953837E-014  0.5052886E+02  0.7816164E-02  0.1300439E+00
        -11   -1    0    0    0    0  0.00000000000E+00  0.00000000000E+00  0.45593999997E+02  0.45594000000E+02  0.51100000000E-03 0. -1.
         11   -1    0    0    0    0 -0.00000000000E+00 -0.00000000000E+00 -0.45593999997E+02  0.45594000000E+02  0.51100000000E-03 0.  1.
    9900012    2    1    2    0    0 -0.26238580950E+02  0.48276626224E+01  0.30682178148E+02  0.50528861881E+02  0.30000006173E+02 0.  0.
        -12    1    1    2    0    0  0.26238580950E+02 -0.48276626224E+01 -0.30682178148E+02  0.40659138119E+02  0.00000000000E+00 0.  1.
         11    1    3    3    0    0 -0.18314719345E+02  0.78705904959E+01  0.82708340893E+01  0.21581979433E+02  0.51100000000E-03 0. -1.
        -11    1    3    3    0    0 -0.59742750082E+01 -0.57428788676E+01  0.23902323059E+02  0.25298096123E+02  0.51100000000E-03 0.  1.
        -12    1    3    3    0    0 -0.19495865971E+01  0.26999509942E+01 -0.14909790003E+01  0.36487863256E+01  0.00000000000E+00 0.  1.
</event>
<event>
 7    1  0.9953837E-014  0.5052885E+02  0.7816164E-02  0.1300439E+00
        -11   -1    0    0    0    0  0.00000000000E+00  0.00000000000E+00  0.45593999997E+02  0.45594000000E+02  0.51100000000E-03 0. -1.
         11   -1    0    0    0    0 -0.00000000000E+00 -0.00000000000E+00 -0.45593999997E+02  0.45594000000E+02  0.51100000000E-03 0.  1.
    9900012    2    1    2    0    0 -0.30581761439E+01 -0.15732793245E+02 -0.37367005652E+02  0.50528851755E+02  0.29999975393E+02 0.  0.
         12    1    1    2    0    0  0.30581761439E+01  0.15732793245E+02  0.37367005652E+02  0.40659148245E+02  0.00000000000E+00 0. -1.
         11    1    3    3    0    0  0.40098004520E+01  0.39698849748E+01 -0.83719428445E+00  0.57043300140E+01  0.51100000000E-03 0. -1.
        -11    1    3    3    0    0 -0.11347029480E+02 -0.18142372156E+02 -0.29366302183E+02  0.36335663605E+02  0.51100000000E-03 0.  1.
         12    1    3    3    0    0  0.42790528843E+01 -0.15603060637E+01 -0.71635091847E+01  0.84888581352E+01  0.00000000000E+00 0. -1.
</event>
<event>
 7    1  0.9953837E-014  0.5052885E+02  0.7816164E-02  0.1300439E+00
        -11   -1    0    0    0    0  0.00000000000E+00  0.00000000000E+00  0.45593999997E+02  0.45594000000E+02  0.51100000000E-03 0. -1.
         11   -1    0    0    0    0 -0.00000000000E+00 -0.00000000000E+00 -0.45593999997E+02  0.45594000000E+02  0.51100000000E-03 0.  1.
    9900012    2    1    2    0    0  0.12825221136E+02  0.17534063302E+02 -0.34369120142E+02  0.50528854750E+02  0.29999984499E+02 0.  0.
         12    1    1    2    0    0 -0.12825221136E+02 -0.17534063302E+02  0.34369120142E+02  0.40659145250E+02  0.00000000000E+00 0. -1.
         11    1    3    3    0    0 -0.58226177420E+01  0.72682491550E+01 -0.13466862476E+01  0.94097761536E+01  0.51100000000E-03 0. -1.
        -11    1    3    3    0    0  0.10380570226E+02 -0.11084753875E+01 -0.14089451133E+02  0.17535609182E+02  0.51100000000E-03 0.  1.
        -12    1    3    3    0    0  0.82672686522E+01  0.11374289534E+02 -0.18932982762E+02  0.23583469415E+02  0.00000000000E+00 0.  1.
</event>
<event>
 7    1  0.9953837E-014  0.5052886E+02  0.7816164E-02  0.1300439E+00
        -11   -1    0    0    0    0  0.00000000000E+00  0.00000000000E+00  0.45593999997E+02  0.45594000000E+02  0.51100000000E-03 0.  1.
         11   -1    0    0    0    0 -0.00000000000E+00 -0.00000000000E+00 -0.45593999997E+02  0.45594000000E+02  0.51100000000E-03 0. -1.
    9900012    2    1    2    0    0 -0.16898360566E+02  0.36574521445E+02 -0.54695329586E+01  0.50528855893E+02  0.29999987973E+02 0.  0.
        -12    1    1    2    0    0  0.16898360566E+02 -0.36574521445E+02  0.54695329586E+01  0.40659144107E+02  0.00000000000E+00 0.  1.
         11    1    3    3    0    0 -0.13045227406E+02  0.23696971993E+02  0.12813442160E+01  0.27080736382E+02  0.51100000000E-03 0. -1.
        -11    1    3    3    0    0  0.23900260375E+01 -0.24136368200E+01 -0.60238624067E+01  0.69155466678E+01  0.51100000000E-03 0.  1.
        -12    1    3    3    0    0 -0.62431591972E+01  0.15291186272E+02 -0.72701476785E+00  0.16532572844E+02  0.00000000000E+00 0.  1.
</event>
<event>
 7    1  0.9953837E-014  0.5052886E+02  0.7816164E-02  0.1300439E+00
        -11   -1    0    0    0    0  0.00000000000E+00  0.00000000000E+00  0.45593999997E+02  0.45594000000E+02  0.51100000000E-03 0. -1.
         11   -1    0    0    0    0 -0.00000000000E+00 -0.00000000000E+00 -0.45593999997E+02  0.45594000000E+02  0.51100000000E-03 0.  1.
    9900012    2    1    2    0    0 -0.64396416587E+01  0.16490393566E+02  0.36602785758E+02  0.50528856011E+02  0.29999988330E+02 0.  0.
        -12    1    1    2    0    0  0.64396416587E+01 -0.16490393566E+02 -0.36602785758E+02  0.40659143989E+02  0.00000000000E+00 0.  1.
         11    1    3    3    0    0 -0.13498882766E+02  0.44369828088E+01  0.12836970941E+02  0.19149268278E+02  0.51100000000E-03 0. -1.
        -11    1    3    3    0    0  0.86974497868E+01  0.84695400022E+00  0.72550733896E+01  0.11357775047E+02  0.51100000000E-03 0.  1.
        -12    1    3    3    0    0 -0.16382086799E+01  0.11206456757E+02  0.16510741427E+02  0.20021812686E+02  0.00000000000E+00 0.  1.
</event>
<event>
 7    1  0.9953837E-014  0.5052891E+02  0.7816164E-02  0.1300439E+00
        -11   -1    0    0    0    0  0.00000000000E+00  0.00000000000E+00  0.45593999997E+02  0.45594000000E+02  0.51100000000E-03 0. -1.
         11   -1    0    0    0    0 -0.00000000000E+00 -0.00000000000E+00 -0.45593999997E+02  0.45594000000E+02  0.51100000000E-03 0.  1.
    9900012    2    1    2    0    0 -0.10117476549E+02 -0.35736831469E+02  0.16543198692E+02  0.50528906576E+02  0.30000142027E+02 0.  0.
        -12    1    1    2    0    0  0.10117476549E+02  0.35736831469E+02 -0.16543198692E+02  0.40659093424E+02  0.00000000000E+00 0.  1.
         11    1    3    3    0    0 -0.10894424157E+02 -0.32134037345E+02  0.15932284330E+01  0.33967973312E+02  0.51100000000E-03 0. -1.
        -11    1    3    3    0    0 -0.22329455199E+01 -0.19975629144E+01  0.10698709052E+02  0.11110296078E+02  0.51100000000E-03 0.  1.
         12    1    3    3    0    0  0.30098931284E+01 -0.16052312087E+01  0.42512612071E+01  0.54506371856E+01  0.00000000000E+00 0. -1.
</event>
<event>
 7    1  0.9953837E-014  0.5052884E+02  0.7816164E-02  0.1300439E+00
        -11   -1    0    0    0    0  0.00000000000E+00  0.00000000000E+00  0.45593999997E+02  0.45594000000E+02  0.51100000000E-03 0. -1.
         11   -1    0    0    0    0 -0.00000000000E+00 -0.00000000000E+00 -0.45593999997E+02  0.45594000000E+02  0.51100000000E-03 0.  1.
    9900012    2    1    2    0    0  0.13434806882E+02 -0.12785012036E+02 -0.36183097722E+02  0.50528841998E+02  0.29999945736E+02 0.  0.
         12    1    1    2    0    0 -0.13434806882E+02  0.12785012036E+02  0.36183097722E+02  0.40659158002E+02  0.00000000000E+00 0. -1.
         11    1    3    3    0    0 -0.12676905979E+01 -0.37803963210E+00  0.36198755787E+00  0.13714914030E+01  0.51100000000E-03 0. -1.
        -11    1    3    3    0    0  0.10610208318E+02  0.25167486418E+01 -0.30761728592E+02  0.32637317453E+02  0.51100000000E-03 0.  1.
        -12    1    3    3    0    0  0.40922891611E+01 -0.14923721046E+02 -0.57833566875E+01  0.16520033142E+02  0.00000000000E+00 0.  1.
</event>
<event>
 7    1  0.9953837E-014  0.5052886E+02  0.7816164E-02  0.1300439E+00
        -11   -1    0    0    0    0  0.00000000000E+00  0.00000000000E+00  0.45593999997E+02  0.45594000000E+02  0.51100000000E-03 0. -1.
         11   -1    0    0    0    0 -0.00000000000E+00 -0.00000000000E+00 -0.45593999997E+02  0.45594000000E+02  0.51100000000E-03 0.  1.
    9900012    2    1    2    0    0 -0.27524888780E+01 -0.25774706010E+01 -0.40483898640E+02  0.50528860821E+02  0.30000002950E+02 0.  0.
         12    1    1    2    0    0  0.27524888780E+01  0.25774706010E+01  0.40483898640E+02  0.40659139179E+02  0.00000000000E+00 0. -1.
         11    1    3    3    0    0 -0.80577031252E+00  0.34293335514E+00  0.48616418674E+01  0.49398816778E+01  0.51100000000E-03 0. -1.
        -11    1    3    3    0    0 -0.26867233198E+00 -0.27332030726E+01 -0.34896019043E+02  0.35003924482E+02  0.51100000000E-03 0.  1.
         12    1    3    3    0    0 -0.16780462335E+01 -0.18720088355E+00 -0.10449521465E+02  0.10585054661E+02  0.00000000000E+00 0. -1.
</event>
<event>
 7    1  0.9953837E-014  0.5052880E+02  0.7816164E-02  0.1300439E+00
        -11   -1    0    0    0    0  0.00000000000E+00  0.00000000000E+00  0.45593999997E+02  0.45594000000E+02  0.51100000000E-03 0. -1.
         11   -1    0    0    0    0 -0.00000000000E+00 -0.00000000000E+00 -0.45593999997E+02  0.45594000000E+02  0.51100000000E-03 0.  1.
    9900012    2    1    2    0    0 -0.78439591204E+01 -0.25887827671E+02  0.30355618223E+02  0.50528795951E+02  0.29999805772E+02 0.  0.
        -12    1    1    2    0    0  0.78439591204E+01  0.25887827671E+02 -0.30355618223E+02  0.40659204049E+02  0.00000000000E+00 0.  1.
         11    1    3    3    0    0 -0.21772863709E+01 -0.48365436676E+01  0.56902325349E+01  0.77789123373E+01  0.51100000000E-03 0. -1.
        -11    1    3    3    0    0  0.46072162837E+01  0.44557734882E+01  0.10337289520E+01  0.64922226602E+01  0.51100000000E-03 0.  1.
        -12    1    3    3    0    0 -0.10273889033E+02 -0.25507057491E+02  0.23631656736E+02  0.36257660954E+02  0.00000000000E+00 0.  1.
</event>
<event>
 7    1  0.9953837E-014  0.5052887E+02  0.7816164E-02  0.1300439E+00
        -11   -1    0    0    0    0  0.00000000000E+00  0.00000000000E+00  0.45593999997E+02  0.45594000000E+02  0.51100000000E-03 0. -1.
         11   -1    0    0    0    0 -0.00000000000E+00 -0.00000000000E+00 -0.45593999997E+02  0.45594000000E+02  0.51100000000E-03 0.  1.
    9900012    2    1    2    0    0  0.36015987821E+02  0.46550477789E+01  0.18285070250E+02  0.50528872580E+02  0.30000038693E+02 0.  0.
        -12    1    1    2    0    0 -0.36015987821E+02 -0.46550477789E+01 -0.18285070250E+02  0.40659127420E+02  0.00000000000E+00 0.  1.
         11    1    3    3    0    0  0.33264778639E+02 -0.25689124821E+01  0.11121634473E+02  0.35168673032E+02  0.51100000000E-03 0. -1.
        -11    1    3    3    0    0 -0.12026547611E+01 -0.26561782223E+01  0.11309450159E+01  0.31274107682E+01  0.51100000000E-03 0.  1.
         12    1    3    3    0    0  0.39538639432E+01  0.98801384832E+01  0.60324907611E+01  0.12232788779E+02  0.00000000000E+00 0. -1.
</event>
<event>
 7    1  0.9953837E-014  0.5052886E+02  0.7816164E-02  0.1300439E+00
        -11   -1    0    0    0    0  0.00000000000E+00  0.00000000000E+00  0.45593999997E+02  0.45594000000E+02  0.51100000000E-03 0. -1.
         11   -1    0    0    0    0 -0.00000000000E+00 -0.00000000000E+00 -0.45593999997E+02  0.45594000000E+02  0.51100000000E-03 0.  1.
    9900012    2    1    2    0    0 -0.18039179467E+02 -0.21305323504E+02 -0.29560736268E+02  0.50528856697E+02  0.29999990416E+02 0.  0.
         12    1    1    2    0    0  0.18039179467E+02  0.21305323504E+02  0.29560736268E+02  0.40659143303E+02  0.00000000000E+00 0. -1.
         11    1    3    3    0    0  0.20814724044E+01  0.39164821958E+01 -0.49465026056E+01  0.66437375362E+01  0.51100000000E-03 0. -1.
        -11    1    3    3    0    0 -0.21717918294E+02 -0.20789064605E+02 -0.25078196479E+02  0.39150595411E+02  0.51100000000E-03 0.  1.
         12    1    3    3    0    0  0.15972664231E+01 -0.44327410948E+01  0.46396281643E+00  0.47345237495E+01  0.00000000000E+00 0. -1.
</event>
<event>
 7    1  0.9953837E-014  0.5052885E+02  0.7816164E-02  0.1300439E+00
        -11   -1    0    0    0    0  0.00000000000E+00  0.00000000000E+00  0.45593999997E+02  0.45594000000E+02  0.51100000000E-03 0. -1.
         11   -1    0    0    0    0 -0.00000000000E+00 -0.00000000000E+00 -0.45593999997E+02  0.45594000000E+02  0.51100000000E-03 0.  1.
    9900012    2    1    2    0    0  0.39368203147E+02  0.96961534810E+01 -0.30488818818E+01  0.50528849836E+02  0.29999969561E+02 0.  0.
         12    1    1    2    0    0 -0.39368203147E+02 -0.96961534810E+01  0.30488818818E+01  0.40659150164E+02  0.00000000000E+00 0. -1.
         11    1    3    3    0    0  0.13852294466E+01  0.11014056365E+02 -0.24947256838E+01  0.11377695493E+02  0.51100000000E-03 0. -1.
        -11    1    3    3    0    0  0.24859426050E+02 -0.38855029137E+01 -0.36513567182E+01  0.25424802902E+02  0.51100000000E-03 0.  1.
        -12    1    3    3    0    0  0.13123547650E+02  0.25676000302E+01  0.30972005202E+01  0.13726351442E+02  0.00000000000E+00 0.  1.
</event>
<event>
 7    1  0.9953837E-014  0.5052886E+02  0.7816164E-02  0.1300439E+00
        -11   -1    0    0    0    0  0.00000000000E+00  0.00000000000E+00  0.45593999997E+02  0.45594000000E+02  0.51100000000E-03 0. -1.
         11   -1    0    0    0    0 -0.00000000000E+00 -0.00000000000E+00 -0.45593999997E+02  0.45594000000E+02  0.51100000000E-03 0.  1.
    9900012    2    1    2    0    0  0.35569497244E+01 -0.10108046862E+02 -0.39221689444E+02  0.50528862951E+02  0.30000009426E+02 0.  0.
         12    1    1    2    0    0 -0.35569497244E+01  0.10108046862E+02  0.39221689444E+02  0.40659137049E+02  0.00000000000E+00 0. -1.
         11    1    3    3    0    0  0.33226178773E+00  0.25490995138E+01  0.17672630438E-02  0.25706632628E+01  0.51100000000E-03 0. -1.
        -11    1    3    3    0    0 -0.78786750523E+01 -0.97591480308E+01 -0.32070926057E+02  0.34436300459E+02  0.51100000000E-03 0.  1.
        -12    1    3    3    0    0  0.11103362989E+02 -0.28979983449E+01 -0.71525306503E+01  0.13521899230E+02  0.00000000000E+00 0.  1.
</event>
<event>
 7    1  0.9953837E-014  0.5052883E+02  0.7816164E-02  0.1300439E+00
        -11   -1    0    0    0    0  0.00000000000E+00  0.00000000000E+00  0.45593999997E+02  0.45594000000E+02  0.51100000000E-03 0. -1.
         11   -1    0    0    0    0 -0.00000000000E+00 -0.00000000000E+00 -0.45593999997E+02  0.45594000000E+02  0.51100000000E-03 0.  1.
    9900012    2    1    2    0    0 -0.24682089967E+02 -0.25510387498E+02 -0.19828825389E+02  0.50528834345E+02  0.29999922476E+02 0.  0.
         12    1    1    2    0    0  0.24682089967E+02  0.25510387498E+02  0.19828825389E+02  0.40659165655E+02  0.00000000000E+00 0. -1.
         11    1    3    3    0    0 -0.16038442859E+02 -0.44734903634E+01  0.13745232007E+01  0.16707276249E+02  0.51100000000E-03 0. -1.
        -11    1    3    3    0    0 -0.71493336536E+01 -0.75983388417E+01 -0.16468538898E+02  0.19495140382E+02  0.51100000000E-03 0.  1.
         12    1    3    3    0    0 -0.14943134541E+01 -0.13438558293E+02 -0.47348096917E+01  0.14326417714E+02  0.00000000000E+00 0. -1.
</event>
<event>
 7    1  0.9953837E-014  0.5052886E+02  0.7816164E-02  0.1300439E+00
        -11   -1    0    0    0    0  0.00000000000E+00  0.00000000000E+00  0.45593999997E+02  0.45594000000E+02  0.51100000000E-03 0. -1.
         11   -1    0    0    0    0 -0.00000000000E+00 -0.00000000000E+00 -0.45593999997E+02  0.45594000000E+02  0.51100000000E-03 0.  1.
    9900012    2    1    2    0    0  0.23136052109E+02  0.20641421286E+02  0.26302481150E+02  0.50528859643E+02  0.29999999372E+02 0.  0.
        -12    1    1    2    0    0 -0.23136052109E+02 -0.20641421286E+02 -0.26302481150E+02  0.40659140357E+02  0.00000000000E+00 0.  1.
         11    1    3    3    0    0  0.16580410944E+02  0.70758867070E+01  0.19727220389E+02  0.26723424636E+02  0.51100000000E-03 0. -1.
        -11    1    3    3    0    0  0.86680546364E+01  0.16374167153E+02  0.29571473047E+01  0.18761482926E+02  0.51100000000E-03 0.  1.
        -12    1    3    3    0    0 -0.21124134716E+01 -0.28086325740E+01  0.36181134568E+01  0.50439520811E+01  0.00000000000E+00 0.  1.
</event>
<event>
 7    1  0.9953837E-014  0.5052886E+02  0.7816164E-02  0.1300439E+00
        -11   -1    0    0    0    0  0.00000000000E+00  0.00000000000E+00  0.45593999997E+02  0.45594000000E+02  0.51100000000E-03 0. -1.
         11   -1    0    0    0    0 -0.00000000000E+00 -0.00000000000E+00 -0.45593999997E+02  0.45594000000E+02  0.51100000000E-03 0.  1.
    9900012    2    1    2    0    0  0.27319293275E+02 -0.28616495996E+01 -0.29977205297E+02  0.50528860058E+02  0.30000000631E+02 0.  0.
         12    1    1    2    0    0 -0.27319293275E+02  0.28616495996E+01  0.29977205297E+02  0.40659139942E+02  0.00000000000E+00 0. -1.
         11    1    3    3    0    0 -0.30720394539E+01 -0.28604557102E+01 -0.70915079637E+00  0.42570563057E+01  0.51100000000E-03 0. -1.
        -11    1    3    3    0    0  0.31034823006E+02 -0.35210457416E+01 -0.22104890570E+02  0.38264659799E+02  0.51100000000E-03 0.  1.
        -12    1    3    3    0    0 -0.64349027729E+00  0.35198518523E+01 -0.71631639301E+01  0.80071439533E+01  0.00000000000E+00 0.  1.
</event>
<event>
 7    1  0.9953837E-014  0.5052886E+02  0.7816164E-02  0.1300439E+00
        -11   -1    0    0    0    0  0.00000000000E+00  0.00000000000E+00  0.45593999997E+02  0.45594000000E+02  0.51100000000E-03 0. -1.
         11   -1    0    0    0    0 -0.00000000000E+00 -0.00000000000E+00 -0.45593999997E+02  0.45594000000E+02  0.51100000000E-03 0.  1.
    9900012    2    1    2    0    0 -0.32898134105E+02 -0.14103736318E+02 -0.19286333839E+02  0.50528864757E+02  0.30000014917E+02 0.  0.
         12    1    1    2    0    0  0.32898134105E+02  0.14103736318E+02  0.19286333839E+02  0.40659135243E+02  0.00000000000E+00 0. -1.
         11    1    3    3    0    0 -0.13434594357E+02  0.84952850209E+01 -0.66312387160E+01  0.17222993941E+02  0.51100000000E-03 0. -1.
        -11    1    3    3    0    0 -0.15402798224E+02 -0.17824502538E+02 -0.13218566960E+02  0.27012767288E+02  0.51100000000E-03 0.  1.
         12    1    3    3    0    0 -0.40607415240E+01 -0.47745188009E+01  0.56347183618E+00  0.62931035281E+01  0.00000000000E+00 0. -1.
</event>
<event>
 7    1  0.9953837E-014  0.5052886E+02  0.7816164E-02  0.1300439E+00
        -11   -1    0    0    0    0  0.00000000000E+00  0.00000000000E+00  0.45593999997E+02  0.45594000000E+02  0.51100000000E-03 0. -1.
         11   -1    0    0    0    0 -0.00000000000E+00 -0.00000000000E+00 -0.45593999997E+02  0.45594000000E+02  0.51100000000E-03 0.  1.
    9900012    2    1    2    0    0  0.16405183847E+02 -0.43666062839E+01 -0.36945477102E+02  0.50528860981E+02  0.30000003438E+02 0.  0.
         12    1    1    2    0    0 -0.16405183847E+02  0.43666062839E+01  0.36945477102E+02  0.40659139019E+02  0.00000000000E+00 0. -1.
         11    1    3    3    0    0  0.83291636936E+01 -0.14990773284E+02 -0.24435801216E+02  0.29853084142E+02  0.51100000000E-03 0.  1.
        -11    1    3    3    0    0  0.35315174132E+01  0.75840354930E+01 -0.16639832791E+01  0.85298329534E+01  0.51100000000E-03 0. -1.
        -12    1    3    3    0    0  0.45445027399E+01  0.30401315073E+01 -0.10845692607E+02  0.12145943885E+02  0.00000000000E+00 0.  1.
</event>
<event>
 7    1  0.9953837E-014  0.5052887E+02  0.7816164E-02  0.1300439E+00
        -11   -1    0    0    0    0  0.00000000000E+00  0.00000000000E+00  0.45593999997E+02  0.45594000000E+02  0.51100000000E-03 0. -1.
         11   -1    0    0    0    0 -0.00000000000E+00 -0.00000000000E+00 -0.45593999997E+02  0.45594000000E+02  0.51100000000E-03 0.  1.
    9900012    2    1    2    0    0 -0.27083907101E+02 -0.12567535314E+02  0.27598627000E+02  0.50528865971E+02  0.30000018605E+02 0.  0.
        -12    1    1    2    0    0  0.27083907101E+02  0.12567535314E+02 -0.27598627000E+02  0.40659134029E+02  0.00000000000E+00 0.  1.
         11    1    3    3    0    0 -0.99713150381E+01 -0.47789247252E+01  0.55929238214E+01  0.12391369668E+02  0.51100000000E-03 0. -1.
        -11    1    3    3    0    0 -0.28019893541E+00  0.29476735616E+01 -0.42336138055E+01  0.51663117390E+01  0.51100000000E-03 0.  1.
        -12    1    3    3    0    0 -0.16832393128E+02 -0.10736284150E+02  0.26239316984E+02  0.32971184564E+02  0.00000000000E+00 0.  1.
</event>
<event>
 7    1  0.9953837E-014  0.5052887E+02  0.7816164E-02  0.1300439E+00
        -11   -1    0    0    0    0  0.00000000000E+00  0.00000000000E+00  0.45593999997E+02  0.45594000000E+02  0.51100000000E-03 0.  1.
         11   -1    0    0    0    0 -0.00000000000E+00 -0.00000000000E+00 -0.45593999997E+02  0.45594000000E+02  0.51100000000E-03 0. -1.
    9900012    2    1    2    0    0 -0.34270370826E+02  0.10822414329E+02 -0.19015314041E+02  0.50528866506E+02  0.30000020230E+02 0.  0.
         12    1    1    2    0    0  0.34270370826E+02 -0.10822414329E+02  0.19015314041E+02  0.40659133494E+02  0.00000000000E+00 0. -1.
         11    1    3    3    0    0  0.18538388847E+01 -0.48877677741E+01  0.51030666106E+00  0.52523714238E+01  0.51100000000E-03 0. -1.
        -11    1    3    3    0    0 -0.47353006122E+01  0.59502711583E+01 -0.13777301927E+01  0.77283206126E+01  0.51100000000E-03 0.  1.
         12    1    3    3    0    0 -0.31388909098E+02  0.97599109453E+01 -0.18147890509E+02  0.37548174469E+02  0.00000000000E+00 0. -1.
</event>
<event>
 7    1  0.9953837E-014  0.5052886E+02  0.7816164E-02  0.1300439E+00
        -11   -1    0    0    0    0  0.00000000000E+00  0.00000000000E+00  0.45593999997E+02  0.45594000000E+02  0.51100000000E-03 0.  1.
         11   -1    0    0    0    0 -0.00000000000E+00 -0.00000000000E+00 -0.45593999997E+02  0.45594000000E+02  0.51100000000E-03 0. -1.
    9900012    2    1    2    0    0  0.24900087803E+02 -0.31067546602E+02 -0.82437014587E+01  0.50528862796E+02  0.30000008954E+02 0.  0.
        -12    1    1    2    0    0 -0.24900087803E+02  0.31067546602E+02  0.82437014587E+01  0.40659137204E+02  0.00000000000E+00 0.  1.
         11    1    3    3    0    0  0.39730390842E+01 -0.99934388204E+01 -0.10623722906E+02  0.15116790257E+02  0.51100000000E-03 0. -1.
        -11    1    3    3    0    0  0.11677953904E+02 -0.18414056347E+02  0.91484849126E+01  0.23646286284E+02  0.51100000000E-03 0.  1.
         12    1    3    3    0    0  0.92490948152E+01 -0.26600514337E+01 -0.67684634648E+01  0.11765786255E+02  0.00000000000E+00 0. -1.
</event>
<event>
 7    1  0.9953837E-014  0.5052885E+02  0.7816164E-02  0.1300439E+00
        -11   -1    0    0    0    0  0.00000000000E+00  0.00000000000E+00  0.45593999997E+02  0.45594000000E+02  0.51100000000E-03 0. -1.
         11   -1    0    0    0    0 -0.00000000000E+00 -0.00000000000E+00 -0.45593999997E+02  0.45594000000E+02  0.51100000000E-03 0.  1.
    9900012    2    1    2    0    0  0.32906442889E+02 -0.10061505703E+02 -0.21658690421E+02  0.50528846647E+02  0.29999959869E+02 0.  0.
         12    1    1    2    0    0 -0.32906442889E+02  0.10061505703E+02  0.21658690421E+02  0.40659153353E+02  0.00000000000E+00 0. -1.
         11    1    3    3    0    0  0.57831477584E+01  0.44523100600E+01  0.32779949418E+01  0.80008195809E+01  0.51100000000E-03 0. -1.
        -11    1    3    3    0    0  0.19378055727E+02 -0.16235530486E+02 -0.13645994360E+02  0.28728290173E+02  0.51100000000E-03 0.  1.
         12    1    3    3    0    0  0.77452394033E+01  0.17217147230E+01 -0.11290691003E+02  0.13799736894E+02  0.00000000000E+00 0. -1.
</event>
<event>
 7    1  0.9953837E-014  0.5052886E+02  0.7816164E-02  0.1300439E+00
        -11   -1    0    0    0    0  0.00000000000E+00  0.00000000000E+00  0.45593999997E+02  0.45594000000E+02  0.51100000000E-03 0. -1.
         11   -1    0    0    0    0 -0.00000000000E+00 -0.00000000000E+00 -0.45593999997E+02  0.45594000000E+02  0.51100000000E-03 0.  1.
    9900012    2    1    2    0    0 -0.16948858835E+01  0.80244326249E+01 -0.39823379535E+02  0.50528859396E+02  0.29999998619E+02 0.  0.
         12    1    1    2    0    0  0.16948858835E+01 -0.80244326249E+01  0.39823379535E+02  0.40659140604E+02  0.00000000000E+00 0. -1.
         11    1    3    3    0    0 -0.13146397196E+02  0.82085801337E+01 -0.22339466808E+02  0.27189342114E+02  0.51100000000E-03 0. -1.
        -11    1    3    3    0    0  0.49091337504E+01 -0.37875954718E+01 -0.26734340242E+01  0.67522383978E+01  0.51100000000E-03 0.  1.
        -12    1    3    3    0    0  0.65423775622E+01  0.36034479629E+01 -0.14810478703E+02  0.16587278884E+02  0.00000000000E+00 0.  1.
</event>
<event>
 7    1  0.9953837E-014  0.5052886E+02  0.7816164E-02  0.1300439E+00
        -11   -1    0    0    0    0  0.00000000000E+00  0.00000000000E+00  0.45593999997E+02  0.45594000000E+02  0.51100000000E-03 0. -1.
         11   -1    0    0    0    0 -0.00000000000E+00 -0.00000000000E+00 -0.45593999997E+02  0.45594000000E+02  0.51100000000E-03 0.  1.
    9900012    2    1    2    0    0  0.28749340032E+02 -0.27475860772E+02  0.84686711923E+01  0.50528857495E+02  0.29999992842E+02 0.  0.
        -12    1    1    2    0    0 -0.28749340032E+02  0.27475860772E+02 -0.84686711923E+01  0.40659142505E+02  0.00000000000E+00 0.  1.
         11    1    3    3    0    0  0.19427428765E+02 -0.16432357809E+02  0.18703900489E+02  0.31579792041E+02  0.51100000000E-03 0. -1.
        -11    1    3    3    0    0  0.58918801041E+01 -0.31766902306E+01 -0.72378961524E+01  0.98586384940E+01  0.51100000000E-03 0.  1.
         12    1    3    3    0    0  0.34300311627E+01 -0.78668127326E+01 -0.29973331438E+01  0.90904269603E+01  0.00000000000E+00 0. -1.
</event>
<event>
 7    1  0.9953837E-014  0.5052900E+02  0.7816164E-02  0.1300438E+00
        -11   -1    0    0    0    0  0.00000000000E+00  0.00000000000E+00  0.45593999997E+02  0.45594000000E+02  0.51100000000E-03 0. -1.
         11   -1    0    0    0    0 -0.00000000000E+00 -0.00000000000E+00 -0.45593999997E+02  0.45594000000E+02  0.51100000000E-03 0.  1.
    9900012    2    1    2    0    0  0.15124089504E+02 -0.15675151457E+02  0.34332282346E+02  0.50529002624E+02  0.30000433973E+02 0.  0.
        -12    1    1    2    0    0 -0.15124089504E+02  0.15675151457E+02 -0.34332282346E+02  0.40658997376E+02  0.00000000000E+00 0.  1.
         11    1    3    3    0    0  0.88406318644E+01 -0.47372179862E+00  0.62910467495E+01  0.10860867993E+02  0.51100000000E-03 0. -1.
        -11    1    3    3    0    0  0.29832774286E+01 -0.20295757304E+02  0.15419718652E+02  0.25662919403E+02  0.51100000000E-03 0.  1.
        -12    1    3    3    0    0  0.33001802110E+01  0.50943276450E+01  0.12621516944E+02  0.14005215227E+02  0.00000000000E+00 0.  1.
</event>
<event>
 7    1  0.9953837E-014  0.5052886E+02  0.7816164E-02  0.1300439E+00
        -11   -1    0    0    0    0  0.00000000000E+00  0.00000000000E+00  0.45593999997E+02  0.45594000000E+02  0.51100000000E-03 0. -1.
         11   -1    0    0    0    0 -0.00000000000E+00 -0.00000000000E+00 -0.45593999997E+02  0.45594000000E+02  0.51100000000E-03 0.  1.
    9900012    2    1    2    0    0  0.37943270934E+01  0.33756184374E+02 -0.22344772580E+02  0.50528858799E+02  0.29999996805E+02 0.  0.
         12    1    1    2    0    0 -0.37943270934E+01 -0.33756184374E+02  0.22344772580E+02  0.40659141201E+02  0.00000000000E+00 0. -1.
         11    1    3    3    0    0 -0.21523194890E+01  0.71278718350E+01  0.10134103439E+01  0.75143886555E+01  0.51100000000E-03 0. -1.
        -11    1    3    3    0    0  0.43128733409E+01  0.23712290981E+02 -0.28222074607E+02  0.37112789109E+02  0.51100000000E-03 0.  1.
        -12    1    3    3    0    0  0.16337732415E+01  0.29160215575E+01  0.48638916835E+01  0.59016810349E+01  0.00000000000E+00 0.  1.
</event>
<event>
 7    1  0.9953837E-014  0.5052890E+02  0.7816164E-02  0.1300439E+00
        -11   -1    0    0    0    0  0.00000000000E+00  0.00000000000E+00  0.45593999997E+02  0.45594000000E+02  0.51100000000E-03 0. -1.
         11   -1    0    0    0    0 -0.00000000000E+00 -0.00000000000E+00 -0.45593999997E+02  0.45594000000E+02  0.51100000000E-03 0.  1.
    9900012    2    1    2    0    0  0.98043746829E+01  0.10227635884E+02  0.38110791580E+02  0.50528896056E+02  0.30000110052E+02 0.  0.
        -12    1    1    2    0    0 -0.98043746829E+01 -0.10227635884E+02 -0.38110791580E+02  0.40659103944E+02  0.00000000000E+00 0.  1.
         11    1    3    3    0    0 -0.78744691363E+01  0.76195634586E+01  0.72978879290E+01  0.13165264143E+02  0.51100000000E-03 0. -1.
        -11    1    3    3    0    0  0.18378358878E+02  0.64783224434E+00  0.29873705720E+02  0.35080223137E+02  0.51100000000E-03 0.  1.
        -12    1    3    3    0    0 -0.69951505871E+00  0.19602401807E+01  0.93919793067E+00  0.22834087756E+01  0.00000000000E+00 0.  1.
</event>
<event>
 7    1  0.9953837E-014  0.5052887E+02  0.7816164E-02  0.1300439E+00
        -11   -1    0    0    0    0  0.00000000000E+00  0.00000000000E+00  0.45593999997E+02  0.45594000000E+02  0.51100000000E-03 0. -1.
         11   -1    0    0    0    0 -0.00000000000E+00 -0.00000000000E+00 -0.45593999997E+02  0.45594000000E+02  0.51100000000E-03 0.  1.
    9900012    2    1    2    0    0 -0.75284358478E+00  0.40486931384E+02 -0.36614723259E+01  0.50528871062E+02  0.30000034081E+02 0.  0.
         12    1    1    2    0    0  0.75284358478E+00 -0.40486931384E+02  0.36614723259E+01  0.40659128938E+02  0.00000000000E+00 0. -1.
         11    1    3    3    0    0  0.62777267708E+01  0.62470191758E+01  0.61574701699E+01  0.10786544449E+02  0.51100000000E-03 0. -1.
        -11    1    3    3    0    0 -0.32618335051E+01  0.30141373074E+02 -0.13374117527E+02  0.33136218077E+02  0.51100000000E-03 0.  1.
        -12    1    3    3    0    0 -0.37687368504E+01  0.40985391348E+01  0.35551750311E+01  0.66061085360E+01  0.00000000000E+00 0.  1.
</event>
<event>
 7    1  0.9953837E-014  0.5052886E+02  0.7816164E-02  0.1300439E+00
        -11   -1    0    0    0    0  0.00000000000E+00  0.00000000000E+00  0.45593999997E+02  0.45594000000E+02  0.51100000000E-03 0. -1.
         11   -1    0    0    0    0 -0.00000000000E+00 -0.00000000000E+00 -0.45593999997E+02  0.45594000000E+02  0.51100000000E-03 0.  1.
    9900012    2    1    2    0    0 -0.38222584214E+01 -0.17895885895E+02  0.36308309189E+02  0.50528859483E+02  0.29999998886E+02 0.  0.
        -12    1    1    2    0    0  0.38222584214E+01  0.17895885895E+02 -0.36308309189E+02  0.40659140517E+02  0.00000000000E+00 0.  1.
         11    1    3    3    0    0 -0.94405023639E+01 -0.17711492672E+02  0.38179111259E+02  0.43133103232E+02  0.51100000000E-03 0. -1.
        -11    1    3    3    0    0  0.30173928293E+01 -0.13788894916E+01 -0.28471616201E+01  0.43717645486E+01  0.51100000000E-03 0.  1.
         12    1    3    3    0    0  0.26008511132E+01  0.11944962695E+01  0.97635954964E+00  0.30239917032E+01  0.00000000000E+00 0. -1.
</event>
<event>
 7    1  0.9953837E-014  0.5052886E+02  0.7816164E-02  0.1300439E+00
        -11   -1    0    0    0    0  0.00000000000E+00  0.00000000000E+00  0.45593999997E+02  0.45594000000E+02  0.51100000000E-03 0. -1.
         11   -1    0    0    0    0 -0.00000000000E+00 -0.00000000000E+00 -0.45593999997E+02  0.45594000000E+02  0.51100000000E-03 0.  1.
    9900012    2    1    2    0    0 -0.93446332493E+01  0.34072162242E+01 -0.39423774434E+02  0.50528864697E+02  0.30000014733E+02 0.  0.
         12    1    1    2    0    0  0.93446332493E+01 -0.34072162242E+01  0.39423774434E+02  0.40659135303E+02  0.00000000000E+00 0. -1.
         11    1    3    3    0    0 -0.34844236223E+01 -0.51179521059E+01 -0.12278479278E+02  0.13751207052E+02  0.51100000000E-03 0. -1.
        -11    1    3    3    0    0 -0.90982631050E+01  0.14905421344E+02 -0.21265430210E+02  0.27516694919E+02  0.51100000000E-03 0.  1.
        -12    1    3    3    0    0  0.32380534779E+01 -0.63802530135E+01 -0.58798649456E+01  0.92609627264E+01  0.00000000000E+00 0.  1.
</event>
<event>
 7    1  0.9953837E-014  0.5052887E+02  0.7816164E-02  0.1300439E+00
        -11   -1    0    0    0    0  0.00000000000E+00  0.00000000000E+00  0.45593999997E+02  0.45594000000E+02  0.51100000000E-03 0. -1.
         11   -1    0    0    0    0 -0.00000000000E+00 -0.00000000000E+00 -0.45593999997E+02  0.45594000000E+02  0.51100000000E-03 0.  1.
    9900012    2    1    2    0    0 -0.36727048113E+02 -0.39746376697E+01 -0.16985015277E+02  0.50528873697E+02  0.30000042090E+02 0.  0.
         12    1    1    2    0    0  0.36727048113E+02  0.39746376697E+01  0.16985015277E+02  0.40659126303E+02  0.00000000000E+00 0. -1.
         11    1    3    3    0    0 -0.15817607141E+02 -0.34913257756E+01  0.21341237593E+01  0.16338314963E+02  0.51100000000E-03 0. -1.
        -11    1    3    3    0    0  0.28484989695E+01  0.21491673223E+01 -0.58467862907E+01  0.68496552285E+01  0.51100000000E-03 0.  1.
        -12    1    3    3    0    0 -0.23757939942E+02 -0.26324792164E+01 -0.13272352746E+02  0.27340903506E+02  0.00000000000E+00 0.  1.
</event>
<event>
 7    1  0.9953837E-014  0.5052885E+02  0.7816164E-02  0.1300439E+00
        -11   -1    0    0    0    0  0.00000000000E+00  0.00000000000E+00  0.45593999997E+02  0.45594000000E+02  0.51100000000E-03 0. -1.
         11   -1    0    0    0    0 -0.00000000000E+00 -0.00000000000E+00 -0.45593999997E+02  0.45594000000E+02  0.51100000000E-03 0.  1.
    9900012    2    1    2    0    0 -0.13834472532E+02  0.25513095250E+02 -0.28475529652E+02  0.50528850372E+02  0.29999971191E+02 0.  0.
         12    1    1    2    0    0  0.13834472532E+02 -0.25513095250E+02  0.28475529652E+02  0.40659149628E+02  0.00000000000E+00 0. -1.
         11    1    3    3    0    0  0.15899703579E+01 -0.88023674593E+00 -0.86562703865E+00  0.20129910330E+01  0.51100000000E-03 0. -1.
        -11    1    3    3    0    0 -0.10457226047E+02  0.30580141722E+02 -0.26769210107E+02  0.41965333960E+02  0.51100000000E-03 0.  1.
        -12    1    3    3    0    0 -0.49672168431E+01 -0.41868097263E+01 -0.84069250619E+00  0.65505253790E+01  0.00000000000E+00 0.  1.
</event>
<event>
 7    1  0.1366871E-013  0.5052883E+02  0.7816164E-02  0.1300439E+00
        -11   -1    0    0    0    0  0.00000000000E+00  0.00000000000E+00  0.45593999997E+02  0.45594000000E+02  0.51100000000E-03 0. -1.
         11   -1    0    0    0    0 -0.00000000000E+00 -0.00000000000E+00 -0.45593999997E+02  0.45594000000E+02  0.51100000000E-03 0.  1.
    9900012    2    1    2    0    0 -0.16563567494E+01 -0.36888213885E+02  0.17020113379E+02  0.50528830054E+02  0.29999909432E+02 0.  0.
        -12    1    1    2    0    0  0.16563567494E+01  0.36888213885E+02 -0.17020113379E+02  0.40659169946E+02  0.00000000000E+00 0.  1.
         11    1    3    3    0    0  0.50597106189E-01 -0.23829223254E+02  0.15316338038E+02  0.28327101019E+02  0.51100000000E-03 0. -1.
        -11    1    3    3    0    0  0.52528939175E+01  0.76722010891E+00 -0.29044250237E+01  0.60512152650E+01  0.51100000000E-03 0.  1.
         12    1    3    3    0    0 -0.69598477732E+01 -0.13826210739E+02  0.46082003641E+01  0.16150513770E+02  0.00000000000E+00 0. -1.
</event>
<event>
 7    1  0.9953837E-014  0.5052886E+02  0.7816164E-02  0.1300439E+00
        -11   -1    0    0    0    0  0.00000000000E+00  0.00000000000E+00  0.45593999997E+02  0.45594000000E+02  0.51100000000E-03 0. -1.
         11   -1    0    0    0    0 -0.00000000000E+00 -0.00000000000E+00 -0.45593999997E+02  0.45594000000E+02  0.51100000000E-03 0.  1.
    9900012    2    1    2    0    0  0.71177733589E+01 -0.38031025529E+02  0.12495750013E+02  0.50528863650E+02  0.30000011550E+02 0.  0.
        -12    1    1    2    0    0 -0.71177733589E+01  0.38031025529E+02 -0.12495750013E+02  0.40659136350E+02  0.00000000000E+00 0.  1.
         11    1    3    3    0    0 -0.79368442065E+01 -0.25001604000E+02  0.72211799037E+01  0.27206968556E+02  0.51100000000E-03 0. -1.
        -11    1    3    3    0    0  0.80573642642E+00 -0.64187933632E+01 -0.72024418886E+00  0.65091375297E+01  0.51100000000E-03 0.  1.
         12    1    3    3    0    0  0.14248881139E+02 -0.66106281655E+01  0.59948142978E+01  0.16812757564E+02  0.00000000000E+00 0. -1.
</event>
<event>
 7    1  0.9953837E-014  0.5052887E+02  0.7816164E-02  0.1300439E+00
        -11   -1    0    0    0    0  0.00000000000E+00  0.00000000000E+00  0.45593999997E+02  0.45594000000E+02  0.51100000000E-03 0. -1.
         11   -1    0    0    0    0 -0.00000000000E+00 -0.00000000000E+00 -0.45593999997E+02  0.45594000000E+02  0.51100000000E-03 0.  1.
    9900012    2    1    2    0    0  0.22412846203E+02  0.56353655472E+01 -0.33452530256E+02  0.50528870640E+02  0.30000032798E+02 0.  0.
         12    1    1    2    0    0 -0.22412846203E+02 -0.56353655472E+01  0.33452530256E+02  0.40659129360E+02  0.00000000000E+00 0. -1.
         11    1    3    3    0    0  0.15634495170E+02 -0.26992079056E+01 -0.14050515206E+01  0.15927879099E+02  0.51100000000E-03 0. -1.
        -11    1    3    3    0    0  0.21266473234E+01  0.79213724768E+00 -0.16901158466E+02  0.17052837536E+02  0.51100000000E-03 0.  1.
         12    1    3    3    0    0  0.46517037094E+01  0.75424362050E+01 -0.15146320269E+02  0.17548154005E+02  0.00000000000E+00 0. -1.
</event>
<event>
 7    1  0.9953837E-014  0.5052886E+02  0.7816164E-02  0.1300439E+00
        -11   -1    0    0    0    0  0.00000000000E+00  0.00000000000E+00  0.45593999997E+02  0.45594000000E+02  0.51100000000E-03 0.  1.
         11   -1    0    0    0    0 -0.00000000000E+00 -0.00000000000E+00 -0.45593999997E+02  0.45594000000E+02  0.51100000000E-03 0. -1.
    9900012    2    1    2    0    0 -0.17915773164E+02  0.35225465660E+02 -0.95580861014E+01  0.50528863648E+02  0.30000011543E+02 0.  0.
        -12    1    1    2    0    0  0.17915773164E+02 -0.35225465660E+02  0.95580861014E+01  0.40659136352E+02  0.00000000000E+00 0.  1.
         11    1    3    3    0    0 -0.23674444578E+02  0.19120264266E+02 -0.74821037453E+01  0.31337608530E+02  0.51100000000E-03 0. -1.
        -11    1    3    3    0    0  0.42508626617E+00  0.69721896140E+01 -0.45410207730E+01  0.83314462291E+01  0.51100000000E-03 0.  1.
         12    1    3    3    0    0  0.53335851479E+01  0.91330117793E+01  0.24650384168E+01  0.10859808888E+02  0.00000000000E+00 0. -1.
</event>
<event>
 7    1  0.9953837E-014  0.5052882E+02  0.7816164E-02  0.1300439E+00
        -11   -1    0    0    0    0  0.00000000000E+00  0.00000000000E+00  0.45593999997E+02  0.45594000000E+02  0.51100000000E-03 0. -1.
         11   -1    0    0    0    0 -0.00000000000E+00 -0.00000000000E+00 -0.45593999997E+02  0.45594000000E+02  0.51100000000E-03 0.  1.
    9900012    2    1    2    0    0  0.14788693486E+02  0.20776194320E+01  0.37817279050E+02  0.50528824501E+02  0.29999892552E+02 0.  0.
        -12    1    1    2    0    0 -0.14788693486E+02 -0.20776194320E+01 -0.37817279050E+02  0.40659175499E+02  0.00000000000E+00 0.  1.
         11    1    3    3    0    0  0.21200003674E+02 -0.62842068362E+01  0.21178295078E+02  0.30617831308E+02  0.51100000000E-03 0. -1.
        -11    1    3    3    0    0 -0.14379757815E+01  0.41288808385E+01  0.74380115988E+01  0.86278298622E+01  0.51100000000E-03 0.  1.
         12    1    3    3    0    0 -0.49733344063E+01  0.42329454297E+01  0.92009723737E+01  0.11283163331E+02  0.00000000000E+00 0. -1.
</event>
<event>
 7    1  0.9953837E-014  0.5052896E+02  0.7816164E-02  0.1300438E+00
        -11   -1    0    0    0    0  0.00000000000E+00  0.00000000000E+00  0.45593999997E+02  0.45594000000E+02  0.51100000000E-03 0. -1.
         11   -1    0    0    0    0 -0.00000000000E+00 -0.00000000000E+00 -0.45593999997E+02  0.45594000000E+02  0.51100000000E-03 0.  1.
    9900012    2    1    2    0    0 -0.88128270378E+01  0.24583712584E+02 -0.31163007524E+02  0.50528955708E+02  0.30000291369E+02 0.  0.
         12    1    1    2    0    0  0.88128270378E+01 -0.24583712584E+02  0.31163007524E+02  0.40659044292E+02  0.00000000000E+00 0. -1.
         11    1    3    3    0    0  0.10201007200E+02  0.54691692547E+01 -0.46021888618E+01  0.12456022752E+02  0.51100000000E-03 0. -1.
        -11    1    3    3    0    0 -0.15870304313E+02  0.13949693207E+02 -0.21965399241E+02  0.30478504944E+02  0.51100000000E-03 0.  1.
        -12    1    3    3    0    0 -0.31435299242E+01  0.51648501222E+01 -0.45954194214E+01  0.75944280119E+01  0.00000000000E+00 0.  1.
</event>
<event>
 7    1  0.9953837E-014  0.5052886E+02  0.7816164E-02  0.1300439E+00
        -11   -1    0    0    0    0  0.00000000000E+00  0.00000000000E+00  0.45593999997E+02  0.45594000000E+02  0.51100000000E-03 0. -1.
         11   -1    0    0    0    0 -0.00000000000E+00 -0.00000000000E+00 -0.45593999997E+02  0.45594000000E+02  0.51100000000E-03 0.  1.
    9900012    2    1    2    0    0 -0.18025266554E+02 -0.34423194256E+02  0.11970745136E+02  0.50528864787E+02  0.30000015007E+02 0.  0.
        -12    1    1    2    0    0  0.18025266554E+02  0.34423194256E+02 -0.11970745136E+02  0.40659135213E+02  0.00000000000E+00 0.  1.
         11    1    3    3    0    0 -0.20320633821E+02 -0.23157065851E+02  0.14522997582E+02  0.34060172001E+02  0.51100000000E-03 0. -1.
        -11    1    3    3    0    0 -0.26272294498E+00 -0.12913238719E+02 -0.33099075411E+01  0.13333275882E+02  0.51100000000E-03 0.  1.
         12    1    3    3    0    0  0.25580902117E+01  0.16471103141E+01  0.75765509508E+00  0.31354169039E+01  0.00000000000E+00 0. -1.
</event>
<event>
 7    1  0.9953837E-014  0.5052885E+02  0.7816164E-02  0.1300439E+00
        -11   -1    0    0    0    0  0.00000000000E+00  0.00000000000E+00  0.45593999997E+02  0.45594000000E+02  0.51100000000E-03 0. -1.
         11   -1    0    0    0    0 -0.00000000000E+00 -0.00000000000E+00 -0.45593999997E+02  0.45594000000E+02  0.51100000000E-03 0.  1.
    9900012    2    1    2    0    0 -0.18484607775E+02 -0.62541052328E+01 -0.35670327013E+02  0.50528846220E+02  0.29999958570E+02 0.  0.
         12    1    1    2    0    0  0.18484607775E+02  0.62541052328E+01  0.35670327013E+02  0.40659153780E+02  0.00000000000E+00 0. -1.
         11    1    3    3    0    0 -0.59798041661E+01  0.66984083058E+00  0.44534038475E+01  0.74859568990E+01  0.51100000000E-03 0. -1.
        -11    1    3    3    0    0 -0.30747012448E+01 -0.42241616976E+01 -0.19772137413E+02  0.20450788443E+02  0.51100000000E-03 0.  1.
         12    1    3    3    0    0 -0.94301023645E+01 -0.26997843658E+01 -0.20351593447E+02  0.22592100878E+02  0.00000000000E+00 0. -1.
</event>
<event>
 7    1  0.9953837E-014  0.5052886E+02  0.7816164E-02  0.1300439E+00
        -11   -1    0    0    0    0  0.00000000000E+00  0.00000000000E+00  0.45593999997E+02  0.45594000000E+02  0.51100000000E-03 0.  1.
         11   -1    0    0    0    0 -0.00000000000E+00 -0.00000000000E+00 -0.45593999997E+02  0.45594000000E+02  0.51100000000E-03 0. -1.
    9900012    2    1    2    0    0  0.91649496419E+01 -0.11933998347E+02  0.37772332044E+02  0.50528859742E+02  0.29999999672E+02 0.  0.
        -12    1    1    2    0    0 -0.91649496419E+01  0.11933998347E+02 -0.37772332044E+02  0.40659140258E+02  0.00000000000E+00 0.  1.
         11    1    3    3    0    0  0.60222789209E+01  0.83031544967E+01  0.23132417962E+02  0.25304524873E+02  0.51100000000E-03 0.  1.
        -11    1    3    3    0    0  0.10837543664E+01 -0.11868264274E+02  0.87727060315E+01  0.14798330709E+02  0.51100000000E-03 0. -1.
        -12    1    3    3    0    0  0.20589163545E+01 -0.83688885697E+01  0.58672080502E+01  0.10426004160E+02  0.00000000000E+00 0.  1.
</event>
<event>
 7    1  0.9953837E-014  0.5052886E+02  0.7816164E-02  0.1300439E+00
        -11   -1    0    0    0    0  0.00000000000E+00  0.00000000000E+00  0.45593999997E+02  0.45594000000E+02  0.51100000000E-03 0.  1.
         11   -1    0    0    0    0 -0.00000000000E+00 -0.00000000000E+00 -0.45593999997E+02  0.45594000000E+02  0.51100000000E-03 0. -1.
    9900012    2    1    2    0    0 -0.18759147884E+02  0.24580188855E+02 -0.26402161913E+02  0.50528862439E+02  0.30000007871E+02 0.  0.
         12    1    1    2    0    0  0.18759147884E+02 -0.24580188855E+02  0.26402161913E+02  0.40659137561E+02  0.00000000000E+00 0. -1.
         11    1    3    3    0    0  0.71868558615E+00  0.14551461830E+01 -0.17963696984E+02  0.18036861394E+02  0.51100000000E-03 0. -1.
        -11    1    3    3    0    0 -0.11591519954E+02  0.12386263273E+02 -0.47664761111E+00  0.16970858727E+02  0.51100000000E-03 0.  1.
        -12    1    3    3    0    0 -0.78863135158E+01  0.10738779399E+02 -0.79618173187E+01  0.15521142318E+02  0.00000000000E+00 0.  1.
</event>
<event>
 7    1  0.9953837E-014  0.5052887E+02  0.7816164E-02  0.1300439E+00
        -11   -1    0    0    0    0  0.00000000000E+00  0.00000000000E+00  0.45593999997E+02  0.45594000000E+02  0.51100000000E-03 0. -1.
         11   -1    0    0    0    0 -0.00000000000E+00 -0.00000000000E+00 -0.45593999997E+02  0.45594000000E+02  0.51100000000E-03 0.  1.
    9900012    2    1    2    0    0 -0.92231414728E+01 -0.35950386351E+02  0.16603265190E+02  0.50528867786E+02  0.30000024122E+02 0.  0.
        -12    1    1    2    0    0  0.92231414728E+01  0.35950386351E+02 -0.16603265190E+02  0.40659132214E+02  0.00000000000E+00 0.  1.
         11    1    3    3    0    0  0.63991748674E+01 -0.28783971536E+01  0.71332173422E+01  0.10005868232E+02  0.51100000000E-03 0. -1.
        -11    1    3    3    0    0 -0.17780317667E+02 -0.29799033122E+02  0.10865312034E+02  0.36361752944E+02  0.51100000000E-03 0.  1.
        -12    1    3    3    0    0  0.21580013265E+01 -0.32729560759E+01 -0.13952641864E+01  0.41612466101E+01  0.00000000000E+00 0.  1.
</event>
<event>
 7    1  0.9953837E-014  0.5052886E+02  0.7816164E-02  0.1300439E+00
        -11   -1    0    0    0    0  0.00000000000E+00  0.00000000000E+00  0.45593999997E+02  0.45594000000E+02  0.51100000000E-03 0. -1.
         11   -1    0    0    0    0 -0.00000000000E+00 -0.00000000000E+00 -0.45593999997E+02  0.45594000000E+02  0.51100000000E-03 0.  1.
    9900012    2    1    2    0    0  0.73056665688E+01  0.38290709798E+01 -0.39813703520E+02  0.50528861586E+02  0.30000005276E+02 0.  0.
         12    1    1    2    0    0 -0.73056665688E+01 -0.38290709798E+01  0.39813703520E+02  0.40659138414E+02  0.00000000000E+00 0. -1.
         11    1    3    3    0    0 -0.11056973277E+01 -0.93389929295E+01 -0.26665336281E+02  0.28275068784E+02  0.51100000000E-03 0. -1.
        -11    1    3    3    0    0  0.23228102919E+01  0.84872906772E+01 -0.11358373968E+02  0.14368096956E+02  0.51100000000E-03 0.  1.
         12    1    3    3    0    0  0.60885536046E+01  0.46807732320E+01 -0.17899932716E+01  0.78856958449E+01  0.00000000000E+00 0. -1.
</event>
<event>
 7    1  0.9953837E-014  0.5052885E+02  0.7816164E-02  0.1300439E+00
        -11   -1    0    0    0    0  0.00000000000E+00  0.00000000000E+00  0.45593999997E+02  0.45594000000E+02  0.51100000000E-03 0. -1.
         11   -1    0    0    0    0 -0.00000000000E+00 -0.00000000000E+00 -0.45593999997E+02  0.45594000000E+02  0.51100000000E-03 0.  1.
    9900012    2    1    2    0    0  0.31786649988E+02 -0.14436308931E+02 -0.20841496316E+02  0.50528854636E+02  0.29999984152E+02 0.  0.
         12    1    1    2    0    0 -0.31786649988E+02  0.14436308931E+02  0.20841496316E+02  0.40659145364E+02  0.00000000000E+00 0. -1.
         11    1    3    3    0    0  0.14697348835E+02  0.47966403792E+01  0.12369762399E+01  0.15509672214E+02  0.51100000000E-03 0. -1.
        -11    1    3    3    0    0  0.80498219913E+01 -0.11709083683E+02 -0.17138731673E+02  0.22262937776E+02  0.51100000000E-03 0.  1.
         12    1    3    3    0    0  0.90394791623E+01 -0.75238656269E+01 -0.49397408827E+01  0.12756244647E+02  0.00000000000E+00 0. -1.
</event>
<event>
 7    1  0.9953837E-014  0.5052886E+02  0.7816164E-02  0.1300439E+00
        -11   -1    0    0    0    0  0.00000000000E+00  0.00000000000E+00  0.45593999997E+02  0.45594000000E+02  0.51100000000E-03 0. -1.
         11   -1    0    0    0    0 -0.00000000000E+00 -0.00000000000E+00 -0.45593999997E+02  0.45594000000E+02  0.51100000000E-03 0.  1.
    9900012    2    1    2    0    0 -0.12242723922E+02 -0.23267375710E+02  0.31014679085E+02  0.50528863509E+02  0.30000011122E+02 0.  0.
        -12    1    1    2    0    0  0.12242723922E+02  0.23267375710E+02 -0.31014679085E+02  0.40659136491E+02  0.00000000000E+00 0.  1.
         11    1    3    3    0    0 -0.10408462963E+02 -0.75426000153E+01  0.28698410429E+01  0.13170531657E+02  0.51100000000E-03 0. -1.
        -11    1    3    3    0    0  0.13702291997E+01  0.38661058435E+01  0.84597535985E+01  0.94016878092E+01  0.51100000000E-03 0.  1.
         12    1    3    3    0    0 -0.32044901580E+01 -0.19590881538E+02  0.19685084443E+02  0.27956644043E+02  0.00000000000E+00 0. -1.
</event>
<event>
 7    1  0.9953837E-014  0.5052887E+02  0.7816164E-02  0.1300439E+00
        -11   -1    0    0    0    0  0.00000000000E+00  0.00000000000E+00  0.45593999997E+02  0.45594000000E+02  0.51100000000E-03 0. -1.
         11   -1    0    0    0    0 -0.00000000000E+00 -0.00000000000E+00 -0.45593999997E+02  0.45594000000E+02  0.51100000000E-03 0.  1.
    9900012    2    1    2    0    0 -0.31716094780E+02 -0.25382798831E+02 -0.17228031721E+01  0.50528865782E+02  0.30000018031E+02 0.  0.
        -12    1    1    2    0    0  0.31716094780E+02  0.25382798831E+02  0.17228031721E+01  0.40659134218E+02  0.00000000000E+00 0.  1.
         11    1    3    3    0    0 -0.79337755280E+01 -0.22537135090E+01  0.84520426651E+01  0.11809362565E+02  0.51100000000E-03 0. -1.
        -11    1    3    3    0    0 -0.11599297475E+02 -0.12572547029E+02 -0.14054157736E+02  0.22138924785E+02  0.51100000000E-03 0.  1.
        -12    1    3    3    0    0 -0.12183021777E+02 -0.10556538293E+02  0.38793118989E+01  0.16580578432E+02  0.00000000000E+00 0.  1.
</event>
<event>
 7    1  0.9953837E-014  0.5052886E+02  0.7816164E-02  0.1300439E+00
        -11   -1    0    0    0    0  0.00000000000E+00  0.00000000000E+00  0.45593999997E+02  0.45594000000E+02  0.51100000000E-03 0. -1.
         11   -1    0    0    0    0 -0.00000000000E+00 -0.00000000000E+00 -0.45593999997E+02  0.45594000000E+02  0.51100000000E-03 0.  1.
    9900012    2    1    2    0    0 -0.17624233777E+02 -0.27992606517E+02 -0.23642469915E+02  0.50528855647E+02  0.29999987225E+02 0.  0.
         12    1    1    2    0    0  0.17624233777E+02  0.27992606517E+02  0.23642469915E+02  0.40659144353E+02  0.00000000000E+00 0. -1.
         11    1    3    3    0    0  0.25064162087E+00  0.13098602425E+01 -0.17599514187E+01  0.22081631132E+01  0.51100000000E-03 0. -1.
        -11    1    3    3    0    0 -0.10457492531E+02 -0.32719813752E+02 -0.20600192916E+02  0.40053880092E+02  0.51100000000E-03 0.  1.
        -12    1    3    3    0    0 -0.74173828671E+01  0.34173469922E+01 -0.12823255799E+01  0.82668124422E+01  0.00000000000E+00 0.  1.
</event>
<event>
 7    1  0.9953837E-014  0.5052888E+02  0.7816164E-02  0.1300439E+00
        -11   -1    0    0    0    0  0.00000000000E+00  0.00000000000E+00  0.45593999997E+02  0.45594000000E+02  0.51100000000E-03 0. -1.
         11   -1    0    0    0    0 -0.00000000000E+00 -0.00000000000E+00 -0.45593999997E+02  0.45594000000E+02  0.51100000000E-03 0.  1.
    9900012    2    1    2    0    0 -0.83254867504E+00 -0.58531238646E+01  0.40227003508E+02  0.50528880389E+02  0.30000062431E+02 0.  0.
        -12    1    1    2    0    0  0.83254867504E+00  0.58531238646E+01 -0.40227003508E+02  0.40659119611E+02  0.00000000000E+00 0.  1.
         11    1    3    3    0    0  0.91459126128E+01  0.36342867498E+01  0.13591805779E+02  0.16780731280E+02  0.51100000000E-03 0. -1.
        -11    1    3    3    0    0 -0.72661993232E+01 -0.48343092491E+01  0.25849397880E+01  0.91022037161E+01  0.51100000000E-03 0.  1.
        -12    1    3    3    0    0 -0.27122619647E+01 -0.46531013654E+01  0.24050257942E+02  0.24645945393E+02  0.00000000000E+00 0.  1.
</event>
<event>
 7    1  0.9953837E-014  0.5052885E+02  0.7816164E-02  0.1300439E+00
        -11   -1    0    0    0    0  0.00000000000E+00  0.00000000000E+00  0.45593999997E+02  0.45594000000E+02  0.51100000000E-03 0. -1.
         11   -1    0    0    0    0 -0.00000000000E+00 -0.00000000000E+00 -0.45593999997E+02  0.45594000000E+02  0.51100000000E-03 0.  1.
    9900012    2    1    2    0    0  0.29758866529E+02  0.86877538877E+01 -0.26307782260E+02  0.50528848359E+02  0.29999965072E+02 0.  0.
         12    1    1    2    0    0 -0.29758866529E+02 -0.86877538877E+01  0.26307782260E+02  0.40659151641E+02  0.00000000000E+00 0. -1.
         11    1    3    3    0    0  0.32970176420E+01 -0.20794136851E+01  0.51019764283E+01  0.64206269430E+01  0.51100000000E-03 0. -1.
        -11    1    3    3    0    0  0.20152036073E+02  0.11102556994E+02 -0.29686463384E+02  0.37558719869E+02  0.51100000000E-03 0.  1.
        -12    1    3    3    0    0  0.63098128138E+01 -0.33538942113E+00 -0.17232953049E+01  0.65495015472E+01  0.00000000000E+00 0.  1.
</event>
<event>
 7    1  0.9953837E-014  0.5052889E+02  0.7816164E-02  0.1300439E+00
        -11   -1    0    0    0    0  0.00000000000E+00  0.00000000000E+00  0.45593999997E+02  0.45594000000E+02  0.51100000000E-03 0. -1.
         11   -1    0    0    0    0 -0.00000000000E+00 -0.00000000000E+00 -0.45593999997E+02  0.45594000000E+02  0.51100000000E-03 0.  1.
    9900012    2    1    2    0    0  0.18033395909E+02 -0.73708484230E+01 -0.35687960841E+02  0.50528888801E+02  0.30000088000E+02 0.  0.
         12    1    1    2    0    0 -0.18033395909E+02  0.73708484230E+01  0.35687960841E+02  0.40659111199E+02  0.00000000000E+00 0. -1.
         11    1    3    3    0    0 -0.12347289910E+00  0.66258668453E+01 -0.19327330486E+01  0.69031017889E+01  0.51100000000E-03 0. -1.
        -11    1    3    3    0    0  0.14742681342E+02 -0.52052999078E+01 -0.29266717193E+02  0.33181056882E+02  0.51100000000E-03 0.  1.
        -12    1    3    3    0    0  0.34141874655E+01 -0.87914153605E+01 -0.44885105994E+01  0.10444730130E+02  0.00000000000E+00 0.  1.
</event>
<event>
 7    1  0.9953837E-014  0.5052885E+02  0.7816164E-02  0.1300439E+00
        -11   -1    0    0    0    0  0.00000000000E+00  0.00000000000E+00  0.45593999997E+02  0.45594000000E+02  0.51100000000E-03 0. -1.
         11   -1    0    0    0    0 -0.00000000000E+00 -0.00000000000E+00 -0.45593999997E+02  0.45594000000E+02  0.51100000000E-03 0.  1.
    9900012    2    1    2    0    0  0.80188451864E+01  0.14174392710E+02 -0.37255214051E+02  0.50528852680E+02  0.29999978205E+02 0.  0.
         12    1    1    2    0    0 -0.80188451864E+01 -0.14174392710E+02  0.37255214051E+02  0.40659147320E+02  0.00000000000E+00 0. -1.
         11    1    3    3    0    0  0.20454676184E+01  0.19560382246E+02 -0.26758025900E+02  0.33208198411E+02  0.51100000000E-03 0. -1.
        -11    1    3    3    0    0  0.56650141068E+01 -0.13944937699E+01 -0.11755980373E+02  0.13124026535E+02  0.51100000000E-03 0.  1.
         12    1    3    3    0    0  0.30836346124E+00 -0.39914957663E+01  0.12587922215E+01  0.41966277335E+01  0.00000000000E+00 0. -1.
</event>
<event>
 7    1  0.9953837E-014  0.5052886E+02  0.7816164E-02  0.1300439E+00
        -11   -1    0    0    0    0  0.00000000000E+00  0.00000000000E+00  0.45593999997E+02  0.45594000000E+02  0.51100000000E-03 0.  1.
         11   -1    0    0    0    0 -0.00000000000E+00 -0.00000000000E+00 -0.45593999997E+02  0.45594000000E+02  0.51100000000E-03 0. -1.
    9900012    2    1    2    0    0  0.73522950995E+01  0.39476094048E+02 -0.63833997492E+01  0.50528855433E+02  0.29999986575E+02 0.  0.
         12    1    1    2    0    0 -0.73522950995E+01 -0.39476094048E+02  0.63833997492E+01  0.40659144567E+02  0.00000000000E+00 0. -1.
         11    1    3    3    0    0  0.65334370212E+00 -0.39900783534E+01 -0.22466584579E+01  0.46254791911E+01  0.51100000000E-03 0. -1.
        -11    1    3    3    0    0  0.58321655709E+00  0.22652582864E+02 -0.76722001525E+01  0.23923676711E+02  0.51100000000E-03 0.  1.
         12    1    3    3    0    0  0.61157348403E+01  0.20813589538E+02  0.35354588611E+01  0.21979699531E+02  0.00000000000E+00 0. -1.
</event>
<event>
 7    1  0.9953837E-014  0.5052886E+02  0.7816164E-02  0.1300439E+00
        -11   -1    0    0    0    0  0.00000000000E+00  0.00000000000E+00  0.45593999997E+02  0.45594000000E+02  0.51100000000E-03 0. -1.
         11   -1    0    0    0    0 -0.00000000000E+00 -0.00000000000E+00 -0.45593999997E+02  0.45594000000E+02  0.51100000000E-03 0.  1.
    9900012    2    1    2    0    0 -0.13097423834E+02  0.29368459068E+02 -0.24882055669E+02  0.50528860887E+02  0.30000003151E+02 0.  0.
         12    1    1    2    0    0  0.13097423834E+02 -0.29368459068E+02  0.24882055669E+02  0.40659139113E+02  0.00000000000E+00 0. -1.
         11    1    3    3    0    0  0.66768650463E+01  0.26229505021E+01 -0.96411908859E+01  0.12017194271E+02  0.51100000000E-03 0. -1.
        -11    1    3    3    0    0 -0.15083261785E+02  0.16513582119E+02 -0.15569382648E+02  0.27250850570E+02  0.51100000000E-03 0.  1.
        -12    1    3    3    0    0 -0.46910270954E+01  0.10231926447E+02  0.32851786551E+00  0.11260816046E+02  0.00000000000E+00 0.  1.
</event>
<event>
 7    1  0.9953837E-014  0.5052885E+02  0.7816164E-02  0.1300439E+00
        -11   -1    0    0    0    0  0.00000000000E+00  0.00000000000E+00  0.45593999997E+02  0.45594000000E+02  0.51100000000E-03 0. -1.
         11   -1    0    0    0    0 -0.00000000000E+00 -0.00000000000E+00 -0.45593999997E+02  0.45594000000E+02  0.51100000000E-03 0.  1.
    9900012    2    1    2    0    0  0.15755785193E+02  0.25272643768E+02 -0.27680592893E+02  0.50528849579E+02  0.29999968780E+02 0.  0.
         12    1    1    2    0    0 -0.15755785193E+02 -0.25272643768E+02  0.27680592893E+02  0.40659150421E+02  0.00000000000E+00 0. -1.
         11    1    3    3    0    0 -0.63055518856E+01  0.12926647144E+02 -0.17929245176E+02  0.22985126144E+02  0.51100000000E-03 0. -1.
        -11    1    3    3    0    0  0.17504546181E+02  0.97694589419E+01 -0.97893550303E+01  0.22308808511E+02  0.51100000000E-03 0.  1.
        -12    1    3    3    0    0  0.45567908977E+01  0.25765376812E+01  0.38007313255E-01  0.52349149242E+01  0.00000000000E+00 0.  1.
</event>
<event>
 7    1  0.9953837E-014  0.5052885E+02  0.7816164E-02  0.1300439E+00
        -11   -1    0    0    0    0  0.00000000000E+00  0.00000000000E+00  0.45593999997E+02  0.45594000000E+02  0.51100000000E-03 0. -1.
         11   -1    0    0    0    0 -0.00000000000E+00 -0.00000000000E+00 -0.45593999997E+02  0.45594000000E+02  0.51100000000E-03 0.  1.
    9900012    2    1    2    0    0  0.32368767078E+02  0.67903197356E+01 -0.23649971055E+02  0.50528847830E+02  0.29999963465E+02 0.  0.
         12    1    1    2    0    0 -0.32368767078E+02 -0.67903197356E+01  0.23649971055E+02  0.40659152170E+02  0.00000000000E+00 0. -1.
         11    1    3    3    0    0 -0.37834916992E+01 -0.49247982811E+00 -0.24538017274E+01  0.45363519482E+01  0.51100000000E-03 0. -1.
        -11    1    3    3    0    0  0.17217238640E+02  0.65831259928E+01 -0.19710245187E+02  0.26986378412E+02  0.51100000000E-03 0.  1.
         12    1    3    3    0    0  0.18935020138E+02  0.69967357096E+00 -0.14859241404E+01  0.19006117470E+02  0.00000000000E+00 0. -1.
</event>
<event>
 7    1  0.9953837E-014  0.5052886E+02  0.7816164E-02  0.1300439E+00
        -11   -1    0    0    0    0  0.00000000000E+00  0.00000000000E+00  0.45593999997E+02  0.45594000000E+02  0.51100000000E-03 0. -1.
         11   -1    0    0    0    0 -0.00000000000E+00 -0.00000000000E+00 -0.45593999997E+02  0.45594000000E+02  0.51100000000E-03 0.  1.
    9900012    2    1    2    0    0  0.12895781414E+02  0.18348842110E+02 -0.33914375329E+02  0.50528855407E+02  0.29999986496E+02 0.  0.
         12    1    1    2    0    0 -0.12895781414E+02 -0.18348842110E+02  0.33914375329E+02  0.40659144593E+02  0.00000000000E+00 0. -1.
         11    1    3    3    0    0 -0.52453200044E+01  0.67341027879E+01 -0.24473585448E+02  0.25919450365E+02  0.51100000000E-03 0. -1.
        -11    1    3    3    0    0  0.32707708207E+01  0.58429855305E+01 -0.18674387257E+01  0.69516724122E+01  0.51100000000E-03 0.  1.
         12    1    3    3    0    0  0.14870330597E+02  0.57717537916E+01 -0.75733511555E+01  0.17657732630E+02  0.00000000000E+00 0. -1.
</event>
<event>
 7    1  0.9953837E-014  0.5052886E+02  0.7816164E-02  0.1300439E+00
        -11   -1    0    0    0    0  0.00000000000E+00  0.00000000000E+00  0.45593999997E+02  0.45594000000E+02  0.51100000000E-03 0. -1.
         11   -1    0    0    0    0 -0.00000000000E+00 -0.00000000000E+00 -0.45593999997E+02  0.45594000000E+02  0.51100000000E-03 0.  1.
    9900012    2    1    2    0    0  0.93362433705E+01  0.20622749901E+02 -0.33774281036E+02  0.50528864332E+02  0.30000013625E+02 0.  0.
         12    1    1    2    0    0 -0.93362433705E+01 -0.20622749901E+02  0.33774281036E+02  0.40659135668E+02  0.00000000000E+00 0. -1.
         11    1    3    3    0    0  0.43742487020E+00  0.14144419956E+02 -0.85290654116E+01  0.16522739285E+02  0.51100000000E-03 0. -1.
        -11    1    3    3    0    0  0.53217421123E+01 -0.79531350208E+00 -0.25334878873E+02  0.25899991322E+02  0.51100000000E-03 0.  1.
        -12    1    3    3    0    0  0.35770763880E+01  0.72736434472E+01  0.89663249451E-01  0.81061337258E+01  0.00000000000E+00 0.  1.
</event>
<event>
 7    1  0.1637539E-013  0.5052886E+02  0.7816164E-02  0.1300439E+00
        -11   -1    0    0    0    0  0.00000000000E+00  0.00000000000E+00  0.45593999997E+02  0.45594000000E+02  0.51100000000E-03 0. -1.
         11   -1    0    0    0    0 -0.00000000000E+00 -0.00000000000E+00 -0.45593999997E+02  0.45594000000E+02  0.51100000000E-03 0.  1.
    9900012    2    1    2    0    0 -0.19540561315E+02  0.15461217742E+02  0.32129164845E+02  0.50528855589E+02  0.29999987049E+02 0.  0.
        -12    1    1    2    0    0  0.19540561315E+02 -0.15461217742E+02 -0.32129164845E+02  0.40659144411E+02  0.00000000000E+00 0.  1.
         11    1    3    3    0    0 -0.17796291247E+02  0.19107357135E+02  0.26435433206E+02  0.37156846043E+02  0.51100000000E-03 0. -1.
        -11    1    3    3    0    0 -0.60473825216E+01 -0.29324682310E+01  0.72429539983E+00  0.67597935897E+01  0.51100000000E-03 0.  1.
         12    1    3    3    0    0  0.43031124538E+01 -0.71367116175E+00  0.49694362397E+01  0.66122159567E+01  0.00000000000E+00 0. -1.
</event>
<event>
 7    1  0.9953837E-014  0.5052886E+02  0.7816164E-02  0.1300439E+00
        -11   -1    0    0    0    0  0.00000000000E+00  0.00000000000E+00  0.45593999997E+02  0.45594000000E+02  0.51100000000E-03 0. -1.
         11   -1    0    0    0    0 -0.00000000000E+00 -0.00000000000E+00 -0.45593999997E+02  0.45594000000E+02  0.51100000000E-03 0.  1.
    9900012    2    1    2    0    0  0.26669119145E+02  0.18269199308E+01  0.30636359151E+02  0.50528855217E+02  0.29999985919E+02 0.  0.
        -12    1    1    2    0    0 -0.26669119145E+02 -0.18269199308E+01 -0.30636359151E+02  0.40659144783E+02  0.00000000000E+00 0.  1.
         11    1    3    3    0    0  0.13408571514E+02  0.85344070845E+01  0.80958091635E+01  0.17837264942E+02  0.51100000000E-03 0. -1.
        -11    1    3    3    0    0  0.16328096153E+02 -0.71580663223E+01  0.23452734138E+02  0.29459724647E+02  0.51100000000E-03 0.  1.
        -12    1    3    3    0    0 -0.30675485216E+01  0.45057916855E+00 -0.91218415025E+00  0.32318656289E+01  0.00000000000E+00 0.  1.
</event>
<event>
 7    1  0.9953837E-014  0.5052886E+02  0.7816164E-02  0.1300439E+00
        -11   -1    0    0    0    0  0.00000000000E+00  0.00000000000E+00  0.45593999997E+02  0.45594000000E+02  0.51100000000E-03 0. -1.
         11   -1    0    0    0    0 -0.00000000000E+00 -0.00000000000E+00 -0.45593999997E+02  0.45594000000E+02  0.51100000000E-03 0.  1.
    9900012    2    1    2    0    0  0.37756303522E+02 -0.61766788768E+01 -0.13765030107E+02  0.50528857468E+02  0.29999992761E+02 0.  0.
         12    1    1    2    0    0 -0.37756303522E+02  0.61766788768E+01  0.13765030107E+02  0.40659142532E+02  0.00000000000E+00 0. -1.
         11    1    3    3    0    0  0.71026852795E+01  0.76582604352E+01  0.20110068217E+01  0.10636787098E+02  0.51100000000E-03 0. -1.
        -11    1    3    3    0    0  0.15216765975E+02 -0.13391927434E+02 -0.44831089930E+01  0.20760345702E+02  0.51100000000E-03 0.  1.
        -12    1    3    3    0    0  0.15436852267E+02 -0.44301187779E+00 -0.11292927936E+02  0.19131724668E+02  0.00000000000E+00 0.  1.
</event>
<event>
 7    1  0.9953837E-014  0.5052886E+02  0.7816164E-02  0.1300439E+00
        -11   -1    0    0    0    0  0.00000000000E+00  0.00000000000E+00  0.45593999997E+02  0.45594000000E+02  0.51100000000E-03 0. -1.
         11   -1    0    0    0    0 -0.00000000000E+00 -0.00000000000E+00 -0.45593999997E+02  0.45594000000E+02  0.51100000000E-03 0.  1.
    9900012    2    1    2    0    0 -0.19515496349E+01  0.23134725344E+02 -0.33378764698E+02  0.50528855942E+02  0.29999988122E+02 0.  0.
         12    1    1    2    0    0  0.19515496349E+01 -0.23134725344E+02  0.33378764698E+02  0.40659144058E+02  0.00000000000E+00 0. -1.
         11    1    3    3    0    0 -0.13449669619E+00 -0.38203691058E+00 -0.14081068452E+02  0.14086892154E+02  0.51100000000E-03 0. -1.
        -11    1    3    3    0    0 -0.46086751464E+00  0.17275101238E+02 -0.12834263635E+01  0.17328840271E+02  0.51100000000E-03 0.  1.
        -12    1    3    3    0    0 -0.13561854240E+01  0.62416610168E+01 -0.18014269883E+02  0.19113123517E+02  0.00000000000E+00 0.  1.
</event>
<event>
 7    1  0.9953837E-014  0.5052886E+02  0.7816164E-02  0.1300439E+00
        -11   -1    0    0    0    0  0.00000000000E+00  0.00000000000E+00  0.45593999997E+02  0.45594000000E+02  0.51100000000E-03 0. -1.
         11   -1    0    0    0    0 -0.00000000000E+00 -0.00000000000E+00 -0.45593999997E+02  0.45594000000E+02  0.51100000000E-03 0.  1.
    9900012    2    1    2    0    0  0.20873753477E+02  0.19998868965E+02  0.28591902961E+02  0.50528864999E+02  0.30000015652E+02 0.  0.
        -12    1    1    2    0    0 -0.20873753477E+02 -0.19998868965E+02 -0.28591902961E+02  0.40659135001E+02  0.00000000000E+00 0.  1.
         11    1    3    3    0    0  0.24051901771E+02  0.12595738841E+02  0.27921404237E+02  0.38945493071E+02  0.51100000000E-03 0. -1.
        -11    1    3    3    0    0 -0.60163455883E+01  0.47726626367E+01  0.16963016185E+00  0.76813734146E+01  0.51100000000E-03 0.  1.
         12    1    3    3    0    0  0.28381972946E+01  0.26304674874E+01  0.50086856227E+00  0.39019985138E+01  0.00000000000E+00 0. -1.
</event>
<event>
 7    1  0.9953837E-014  0.5052889E+02  0.7816164E-02  0.1300439E+00
        -11   -1    0    0    0    0  0.00000000000E+00  0.00000000000E+00  0.45593999997E+02  0.45594000000E+02  0.51100000000E-03 0. -1.
         11   -1    0    0    0    0 -0.00000000000E+00 -0.00000000000E+00 -0.45593999997E+02  0.45594000000E+02  0.51100000000E-03 0.  1.
    9900012    2    1    2    0    0  0.49185242468E+01 -0.56863069032E+01  0.39957943141E+02  0.50528890479E+02  0.30000093100E+02 0.  0.
        -12    1    1    2    0    0 -0.49185242468E+01  0.56863069032E+01 -0.39957943141E+02  0.40659109521E+02  0.00000000000E+00 0.  1.
         11    1    3    3    0    0 -0.77456182188E+01 -0.98441271459E+00  0.42329627417E+01  0.88815338663E+01  0.51100000000E-03 0. -1.
        -11    1    3    3    0    0  0.12367974485E+02 -0.98640227367E+01  0.23032750573E+02  0.27942321604E+02  0.51100000000E-03 0.  1.
        -12    1    3    3    0    0  0.29616798071E+00  0.51621285481E+01  0.12692229827E+02  0.13705035009E+02  0.00000000000E+00 0.  1.
</event>
<event>
 7    1  0.9953837E-014  0.5052885E+02  0.7816164E-02  0.1300439E+00
        -11   -1    0    0    0    0  0.00000000000E+00  0.00000000000E+00  0.45593999997E+02  0.45594000000E+02  0.51100000000E-03 0. -1.
         11   -1    0    0    0    0 -0.00000000000E+00 -0.00000000000E+00 -0.45593999997E+02  0.45594000000E+02  0.51100000000E-03 0.  1.
    9900012    2    1    2    0    0 -0.22929243377E+02 -0.19030746809E+02  0.27663098606E+02  0.50528849118E+02  0.29999967379E+02 0.  0.
        -12    1    1    2    0    0  0.22929243377E+02  0.19030746809E+02 -0.27663098606E+02  0.40659150882E+02  0.00000000000E+00 0.  1.
         11    1    3    3    0    0 -0.19462382395E+02 -0.18778372286E+02  0.14843795302E+02  0.30850443326E+02  0.51100000000E-03 0. -1.
        -11    1    3    3    0    0  0.28621689722E+01  0.30223455296E+01  0.11758896573E+02  0.12473902060E+02  0.51100000000E-03 0.  1.
         12    1    3    3    0    0 -0.63290299541E+01 -0.32747200527E+01  0.10604067307E+01  0.72045037315E+01  0.00000000000E+00 0. -1.
</event>
<event>
 7    1  0.9953837E-014  0.5052886E+02  0.7816164E-02  0.1300439E+00
        -11   -1    0    0    0    0  0.00000000000E+00  0.00000000000E+00  0.45593999997E+02  0.45594000000E+02  0.51100000000E-03 0. -1.
         11   -1    0    0    0    0 -0.00000000000E+00 -0.00000000000E+00 -0.45593999997E+02  0.45594000000E+02  0.51100000000E-03 0.  1.
    9900012    2    1    2    0    0 -0.19933667908E+02  0.28620916526E+02 -0.20896352904E+02  0.50528861498E+02  0.30000005009E+02 0.  0.
         12    1    1    2    0    0  0.19933667908E+02 -0.28620916526E+02  0.20896352904E+02  0.40659138502E+02  0.00000000000E+00 0. -1.
         11    1    3    3    0    0 -0.15675195611E+02  0.31511284867E+01 -0.66486483488E+01  0.17316058827E+02  0.51100000000E-03 0. -1.
        -11    1    3    3    0    0 -0.61442047765E+00  0.21492114399E+02 -0.16760493546E+02  0.27261743121E+02  0.51100000000E-03 0.  1.
         12    1    3    3    0    0 -0.36440518200E+01  0.39776736404E+01  0.25127889901E+01  0.59510595498E+01  0.00000000000E+00 0. -1.
</event>
<event>
 7    1  0.9953837E-014  0.5052885E+02  0.7816164E-02  0.1300439E+00
        -11   -1    0    0    0    0  0.00000000000E+00  0.00000000000E+00  0.45593999997E+02  0.45594000000E+02  0.51100000000E-03 0. -1.
         11   -1    0    0    0    0 -0.00000000000E+00 -0.00000000000E+00 -0.45593999997E+02  0.45594000000E+02  0.51100000000E-03 0.  1.
    9900012    2    1    2    0    0  0.41116143449E+01  0.30338575276E+02  0.26755029370E+02  0.50528854425E+02  0.29999983511E+02 0.  0.
        -12    1    1    2    0    0 -0.41116143449E+01 -0.30338575276E+02 -0.26755029370E+02  0.40659145575E+02  0.00000000000E+00 0.  1.
         11    1    3    3    0    0  0.71189469618E+00  0.14287052608E+01  0.40341530903E+01  0.43384771749E+01  0.51100000000E-03 0.  1.
        -11    1    3    3    0    0  0.15181443517E+02  0.12295559239E+02  0.82564300959E+01  0.21209093391E+02  0.51100000000E-03 0. -1.
        -12    1    3    3    0    0 -0.11781723869E+02  0.16614310776E+02  0.14464446183E+02  0.24981283859E+02  0.00000000000E+00 0.  1.
</event>
<event>
 7    1  0.9953837E-014  0.5052884E+02  0.7816164E-02  0.1300439E+00
        -11   -1    0    0    0    0  0.00000000000E+00  0.00000000000E+00  0.45593999997E+02  0.45594000000E+02  0.51100000000E-03 0. -1.
         11   -1    0    0    0    0 -0.00000000000E+00 -0.00000000000E+00 -0.45593999997E+02  0.45594000000E+02  0.51100000000E-03 0.  1.
    9900012    2    1    2    0    0 -0.23208039058E+02  0.21767072767E+02  0.25313009458E+02  0.50528843816E+02  0.29999951263E+02 0.  0.
        -12    1    1    2    0    0  0.23208039058E+02 -0.21767072767E+02 -0.25313009458E+02  0.40659156184E+02  0.00000000000E+00 0.  1.
         11    1    3    3    0    0 -0.12427036972E+02  0.57936247738E+01  0.14942838247E+02  0.20280181238E+02  0.51100000000E-03 0. -1.
        -11    1    3    3    0    0 -0.47200251866E+01  0.20337972018E+02  0.67034626036E+01  0.21928250151E+02  0.51100000000E-03 0.  1.
        -12    1    3    3    0    0 -0.60609768996E+01 -0.43645240244E+01  0.36667086073E+01  0.83204124265E+01  0.00000000000E+00 0.  1.
</event>
<event>
 7    1  0.9953837E-014  0.5052886E+02  0.7816164E-02  0.1300439E+00
        -11   -1    0    0    0    0  0.00000000000E+00  0.00000000000E+00  0.45593999997E+02  0.45594000000E+02  0.51100000000E-03 0. -1.
         11   -1    0    0    0    0 -0.00000000000E+00 -0.00000000000E+00 -0.45593999997E+02  0.45594000000E+02  0.51100000000E-03 0.  1.
    9900012    2    1    2    0    0 -0.91140885158E+01 -0.16631861063E+02 -0.35964988328E+02  0.50528858380E+02  0.29999995531E+02 0.  0.
         12    1    1    2    0    0  0.91140885158E+01  0.16631861063E+02  0.35964988328E+02  0.40659141620E+02  0.00000000000E+00 0. -1.
         11    1    3    3    0    0 -0.29534077377E+01 -0.25064592441E+00 -0.66073681230E+00  0.30367769165E+01  0.51100000000E-03 0. -1.
        -11    1    3    3    0    0  0.10396279347E+02 -0.44070578488E+01 -0.13741259179E+02  0.17785583691E+02  0.51100000000E-03 0.  1.
        -12    1    3    3    0    0 -0.16556960125E+02 -0.11974157290E+02 -0.21562992337E+02  0.29706497772E+02  0.00000000000E+00 0.  1.
</event>
<event>
 7    1  0.9953837E-014  0.5052882E+02  0.7816164E-02  0.1300439E+00
        -11   -1    0    0    0    0  0.00000000000E+00  0.00000000000E+00  0.45593999997E+02  0.45594000000E+02  0.51100000000E-03 0. -1.
         11   -1    0    0    0    0 -0.00000000000E+00 -0.00000000000E+00 -0.45593999997E+02  0.45594000000E+02  0.51100000000E-03 0.  1.
    9900012    2    1    2    0    0 -0.45297261374E+01 -0.53994678921E+01  0.40043681122E+02  0.50528818131E+02  0.29999873191E+02 0.  0.
        -12    1    1    2    0    0  0.45297261374E+01  0.53994678921E+01 -0.40043681122E+02  0.40659181869E+02  0.00000000000E+00 0.  1.
         11    1    3    3    0    0 -0.22719622074E+01 -0.90084092404E+01  0.21482019985E+02  0.23404923247E+02  0.51100000000E-03 0. -1.
        -11    1    3    3    0    0  0.46299294606E+01  0.33340538173E+01 -0.15097291062E+01  0.59018170000E+01  0.51100000000E-03 0.  1.
        -12    1    3    3    0    0 -0.68876933906E+01  0.27488753099E+00  0.20071390244E+02  0.21222077884E+02  0.00000000000E+00 0.  1.
</event>
<event>
 7    1  0.9953837E-014  0.5052884E+02  0.7816164E-02  0.1300439E+00
        -11   -1    0    0    0    0  0.00000000000E+00  0.00000000000E+00  0.45593999997E+02  0.45594000000E+02  0.51100000000E-03 0. -1.
         11   -1    0    0    0    0 -0.00000000000E+00 -0.00000000000E+00 -0.45593999997E+02  0.45594000000E+02  0.51100000000E-03 0.  1.
    9900012    2    1    2    0    0 -0.11775097988E+02 -0.17088705493E+02 -0.34964130944E+02  0.50528840630E+02  0.29999941579E+02 0.  0.
         12    1    1    2    0    0  0.11775097988E+02  0.17088705493E+02  0.34964130944E+02  0.40659159370E+02  0.00000000000E+00 0. -1.
         11    1    3    3    0    0 -0.12944532799E+02  0.25464530627E+01 -0.12828360066E+02  0.18401417740E+02  0.51100000000E-03 0. -1.
        -11    1    3    3    0    0  0.41586357866E+01 -0.15939293639E+02 -0.10439801761E+02  0.19502430474E+02  0.51100000000E-03 0.  1.
        -12    1    3    3    0    0 -0.29892009756E+01 -0.36958649164E+01 -0.11695969116E+02  0.12624992417E+02  0.00000000000E+00 0.  1.
</event>
<event>
 7    1  0.9953837E-014  0.5052886E+02  0.7816164E-02  0.1300439E+00
        -11   -1    0    0    0    0  0.00000000000E+00  0.00000000000E+00  0.45593999997E+02  0.45594000000E+02  0.51100000000E-03 0. -1.
         11   -1    0    0    0    0 -0.00000000000E+00 -0.00000000000E+00 -0.45593999997E+02  0.45594000000E+02  0.51100000000E-03 0.  1.
    9900012    2    1    2    0    0 -0.20919109402E+01  0.12354893370E+02 -0.38680051320E+02  0.50528857711E+02  0.29999993499E+02 0.  0.
         12    1    1    2    0    0  0.20919109402E+01 -0.12354893370E+02  0.38680051320E+02  0.40659142289E+02  0.00000000000E+00 0. -1.
         11    1    3    3    0    0 -0.44005627541E+01 -0.38758443693E+01 -0.87792505677E+01  0.10557573723E+02  0.51100000000E-03 0. -1.
        -11    1    3    3    0    0  0.93013420240E+01  0.10320027906E+02 -0.27003250428E+02  0.30367638587E+02  0.51100000000E-03 0.  1.
        -12    1    3    3    0    0 -0.69926902100E+01  0.59107098337E+01 -0.28975503241E+01  0.96036454012E+01  0.00000000000E+00 0.  1.
</event>
<event>
 7    1  0.9953837E-014  0.5052886E+02  0.7816164E-02  0.1300439E+00
        -11   -1    0    0    0    0  0.00000000000E+00  0.00000000000E+00  0.45593999997E+02  0.45594000000E+02  0.51100000000E-03 0. -1.
         11   -1    0    0    0    0 -0.00000000000E+00 -0.00000000000E+00 -0.45593999997E+02  0.45594000000E+02  0.51100000000E-03 0.  1.
    9900012    2    1    2    0    0  0.27786972523E+01 -0.40349727193E+02 -0.41646145266E+01  0.50528860103E+02  0.30000000770E+02 0.  0.
        -12    1    1    2    0    0 -0.27786972523E+01  0.40349727193E+02  0.41646145266E+01  0.40659139897E+02  0.00000000000E+00 0.  1.
         11    1    3    3    0    0  0.99859172529E+01 -0.11941486051E+02 -0.73156749329E+01  0.17199905014E+02  0.51100000000E-03 0.  1.
        -11    1    3    3    0    0 -0.20193636986E+01  0.48126681970E+00  0.33914491320E+01  0.39763519682E+01  0.51100000000E-03 0. -1.
         12    1    3    3    0    0 -0.51878563020E+01 -0.28889507962E+02 -0.24038872575E+00  0.29352603122E+02  0.00000000000E+00 0. -1.
</event>
<event>
 7    1  0.9953837E-014  0.5052886E+02  0.7816164E-02  0.1300439E+00
        -11   -1    0    0    0    0  0.00000000000E+00  0.00000000000E+00  0.45593999997E+02  0.45594000000E+02  0.51100000000E-03 0. -1.
         11   -1    0    0    0    0 -0.00000000000E+00 -0.00000000000E+00 -0.45593999997E+02  0.45594000000E+02  0.51100000000E-03 0.  1.
    9900012    2    1    2    0    0 -0.28097426714E+02  0.26218831315E+02 -0.13276803858E+02  0.50528855590E+02  0.29999987051E+02 0.  0.
         12    1    1    2    0    0  0.28097426714E+02 -0.26218831315E+02  0.13276803858E+02  0.40659144410E+02  0.00000000000E+00 0. -1.
         11    1    3    3    0    0 -0.17460373123E+02  0.17306995060E+02  0.50200852655E+01  0.25091790768E+02  0.51100000000E-03 0. -1.
        -11    1    3    3    0    0 -0.73730919629E-01  0.44599977609E+01 -0.10944742206E+02  0.11818815444E+02  0.51100000000E-03 0.  1.
        -12    1    3    3    0    0 -0.10563322672E+02  0.44518384941E+01 -0.73521469172E+01  0.13618249379E+02  0.00000000000E+00 0.  1.
</event>
