<event>
 8    1  0.6046524E-010  0.9118800E+02  0.7816164E-02  0.1184000E+00
        -11   -1    0    0    0    0  0.00000000000E+00  0.00000000000E+00  0.45593999997E+02  0.45594000000E+02  0.51100000000E-03 0. -1.
         11   -1    0    0    0    0 -0.00000000000E+00 -0.00000000000E+00 -0.45593999997E+02  0.45594000000E+02  0.51100000000E-03 0.  1.
         23    2    1    2    0    0  0.00000000000E+00  0.00000000000E+00  0.00000000000E+00  0.91188000000E+02  0.91188000000E+02 0.  0.
    9900012    2    3    3    0    0  0.12774191431E+02 -0.41379717419E+02  0.28570070042E+01  0.47787268791E+02  0.19999989728E+02 0.  0.
        -12    1    3    3    0    0 -0.12774191431E+02  0.41379717419E+02 -0.28570070042E+01  0.43400731209E+02  0.00000000000E+00 0.  1.
         11    1    4    4    0    0  0.22754632531E+01 -0.18395516635E+01  0.27636159043E+01  0.40248299923E+01  0.51100000000E-03 0. -1.
        -11    1    4    4    0    0 -0.21223764931E+01 -0.15505190048E+00 -0.10830105733E+01  0.23877678349E+01  0.51100000000E-03 0.  1.
         12    1    4    4    0    0  0.12621104671E+02 -0.39385113855E+02  0.11764016731E+01  0.41374670964E+02  0.00000000000E+00 0. -1.
</event>
<event>
 8    1  0.6425607E-010  0.9118800E+02  0.7816164E-02  0.1184000E+00
        -11   -1    0    0    0    0  0.00000000000E+00  0.00000000000E+00  0.45593999997E+02  0.45594000000E+02  0.51100000000E-03 0. -1.
         11   -1    0    0    0    0 -0.00000000000E+00 -0.00000000000E+00 -0.45593999997E+02  0.45594000000E+02  0.51100000000E-03 0.  1.
         23    2    1    2    0    0 -0.17763568394E-14 -0.35527136788E-14  0.71054273576E-14  0.91188000000E+02  0.91188000000E+02 0.  0.
    9900012    2    3    3    0    0  0.12818438661E+02  0.29611011686E+02 -0.29025835689E+02  0.47787268207E+02  0.19999987061E+02 0.  0.
         12    1    3    3    0    0 -0.12818438661E+02 -0.29611011686E+02  0.29025835689E+02  0.43400731793E+02  0.00000000000E+00 0. -1.
         11    1    4    4    0    0  0.80002879458E+00  0.13195868631E+01 -0.82156032223E+01  0.83592758137E+01  0.51100000000E-03 0. -1.
        -11    1    4    4    0    0  0.14351315202E+02  0.22954779752E+02 -0.19744222302E+02  0.33506961606E+02  0.51100000000E-03 0.  1.
         12    1    4    4    0    0 -0.23329053351E+01  0.53366450705E+01 -0.10660101645E+01  0.59210307871E+01  0.00000000000E+00 0. -1.
</event>
<event>
 8    1  0.6046524E-010  0.9118800E+02  0.7816164E-02  0.1184000E+00
        -11   -1    0    0    0    0  0.00000000000E+00  0.00000000000E+00  0.45593999997E+02  0.45594000000E+02  0.51100000000E-03 0. -1.
         11   -1    0    0    0    0 -0.00000000000E+00 -0.00000000000E+00 -0.45593999997E+02  0.45594000000E+02  0.51100000000E-03 0.  1.
         23    2    1    2    0    0  0.00000000000E+00 -0.17763568394E-14  0.00000000000E+00  0.91188000000E+02  0.91188000000E+02 0.  0.
    9900012    2    3    3    0    0  0.48233812042E+01  0.11014864485E+02  0.41701689543E+02  0.47787272396E+02  0.20000006161E+02 0.  0.
        -12    1    3    3    0    0 -0.48233812042E+01 -0.11014864485E+02 -0.41701689543E+02  0.43400727604E+02  0.00000000000E+00 0.  1.
         11    1    4    4    0    0  0.29660536203E+01  0.13526938518E+02  0.41185260019E+02  0.43451135576E+02  0.51100000000E-03 0. -1.
        -11    1    4    4    0    0  0.19965230047E+01 -0.23985016629E+00  0.45163862159E-01  0.20113856533E+01  0.51100000000E-03 0.  1.
         12    1    4    4    0    0 -0.13919542079E+00 -0.22722238661E+01  0.47126566167E+00  0.23247511667E+01  0.00000000000E+00 0. -1.
</event>
<event>
 8    1  0.6046524E-010  0.9118800E+02  0.7816164E-02  0.1184000E+00
        -11   -1    0    0    0    0  0.00000000000E+00  0.00000000000E+00  0.45593999997E+02  0.45594000000E+02  0.51100000000E-03 0. -1.
         11   -1    0    0    0    0 -0.00000000000E+00 -0.00000000000E+00 -0.45593999997E+02  0.45594000000E+02  0.51100000000E-03 0.  1.
         23    2    1    2    0    0  0.35527136788E-14  0.00000000000E+00  0.00000000000E+00  0.91188000000E+02  0.91188000000E+02 0.  0.
    9900012    2    3    3    0    0  0.15311913251E+02 -0.33620700698E+02 -0.22777553602E+02  0.47787272461E+02  0.20000006457E+02 0.  0.
         12    1    3    3    0    0 -0.15311913251E+02  0.33620700698E+02  0.22777553602E+02  0.43400727539E+02  0.00000000000E+00 0. -1.
         11    1    4    4    0    0  0.13492521560E+02 -0.18428527051E+02 -0.17176303836E+02  0.28577686418E+02  0.51100000000E-03 0.  1.
        -11    1    4    4    0    0 -0.11070122035E+01  0.27136214002E+00 -0.30630215718E+01  0.32682127899E+01  0.51100000000E-03 0. -1.
         12    1    4    4    0    0  0.29264038950E+01 -0.15463535787E+02 -0.25382281944E+01  0.15941373252E+02  0.00000000000E+00 0. -1.
</event>
<event>
 8    1  0.6046524E-010  0.9118800E+02  0.7816164E-02  0.1184000E+00
        -11   -1    0    0    0    0  0.00000000000E+00  0.00000000000E+00  0.45593999997E+02  0.45594000000E+02  0.51100000000E-03 0. -1.
         11   -1    0    0    0    0 -0.00000000000E+00 -0.00000000000E+00 -0.45593999997E+02  0.45594000000E+02  0.51100000000E-03 0.  1.
         23    2    1    2    0    0  0.00000000000E+00  0.00000000000E+00  0.71054273576E-14  0.91188000000E+02  0.91188000000E+02 0.  0.
    9900012    2    3    3    0    0 -0.11965703152E+02 -0.19151216059E+02 -0.37063139891E+02  0.47787268819E+02  0.19999989853E+02 0.  0.
         12    1    3    3    0    0  0.11965703152E+02  0.19151216059E+02  0.37063139891E+02  0.43400731181E+02  0.00000000000E+00 0. -1.
         11    1    4    4    0    0 -0.60605289299E+01 -0.15257206192E+02 -0.23436725321E+02  0.28614549547E+02  0.51100000000E-03 0. -1.
        -11    1    4    4    0    0 -0.64448878626E+00 -0.37583613780E-01 -0.12544148800E+02  0.12560750285E+02  0.51100000000E-03 0.  1.
         12    1    4    4    0    0 -0.52606854357E+01 -0.38564262533E+01 -0.10822657691E+01  0.66119689878E+01  0.00000000000E+00 0. -1.
</event>
<event>
 8    1  0.6046524E-010  0.9118800E+02  0.7816164E-02  0.1184000E+00
        -11   -1    0    0    0    0  0.00000000000E+00  0.00000000000E+00  0.45593999997E+02  0.45594000000E+02  0.51100000000E-03 0. -1.
         11   -1    0    0    0    0 -0.00000000000E+00 -0.00000000000E+00 -0.45593999997E+02  0.45594000000E+02  0.51100000000E-03 0.  1.
         23    2    1    2    0    0  0.35527136788E-14 -0.17763568394E-14  0.00000000000E+00  0.91188000000E+02  0.91188000000E+02 0.  0.
    9900012    2    3    3    0    0 -0.24309856104E+02  0.11489918398E+02 -0.34068108035E+02  0.47787270586E+02  0.19999997910E+02 0.  0.
         12    1    3    3    0    0  0.24309856104E+02 -0.11489918398E+02  0.34068108035E+02  0.43400729414E+02  0.00000000000E+00 0. -1.
         11    1    4    4    0    0 -0.13786313927E+02  0.65588089332E+01 -0.24575244330E+02  0.28931350823E+02  0.51100000000E-03 0. -1.
        -11    1    4    4    0    0 -0.88701392338E+01  0.42461194243E+01 -0.12163171608E+02  0.15641344061E+02  0.51100000000E-03 0.  1.
         12    1    4    4    0    0 -0.16534029428E+01  0.68499004073E+00  0.26703079031E+01  0.32145757021E+01  0.00000000000E+00 0. -1.
</event>
<event>
 8    1  0.6046524E-010  0.9118800E+02  0.7816164E-02  0.1184000E+00
        -11   -1    0    0    0    0  0.00000000000E+00  0.00000000000E+00  0.45593999997E+02  0.45594000000E+02  0.51100000000E-03 0. -1.
         11   -1    0    0    0    0 -0.00000000000E+00 -0.00000000000E+00 -0.45593999997E+02  0.45594000000E+02  0.51100000000E-03 0.  1.
         23    2    1    2    0    0 -0.17763568394E-14  0.35527136788E-14  0.00000000000E+00  0.91188000000E+02  0.91188000000E+02 0.  0.
    9900012    2    3    3    0    0  0.10924798159E+02 -0.31490164317E+02  0.27796423403E+02  0.47787276302E+02  0.20000023971E+02 0.  0.
        -12    1    3    3    0    0 -0.10924798159E+02  0.31490164317E+02 -0.27796423403E+02  0.43400723698E+02  0.00000000000E+00 0.  1.
         11    1    4    4    0    0  0.70780443609E+01 -0.23778106545E+02  0.25625284275E+02  0.35667243477E+02  0.51100000000E-03 0. -1.
        -11    1    4    4    0    0 -0.25023894311E+01 -0.28800814958E+01  0.15467281196E+01  0.41169394487E+01  0.51100000000E-03 0.  1.
         12    1    4    4    0    0  0.63491432287E+01 -0.48319762766E+01  0.62441100816E+00  0.80030933759E+01  0.00000000000E+00 0. -1.
</event>
<event>
 8    1  0.6046524E-010  0.9118800E+02  0.7816164E-02  0.1184000E+00
        -11   -1    0    0    0    0  0.00000000000E+00  0.00000000000E+00  0.45593999997E+02  0.45594000000E+02  0.51100000000E-03 0. -1.
         11   -1    0    0    0    0 -0.00000000000E+00 -0.00000000000E+00 -0.45593999997E+02  0.45594000000E+02  0.51100000000E-03 0.  1.
         23    2    1    2    0    0  0.00000000000E+00  0.44408920985E-15 -0.71054273576E-14  0.91188000000E+02  0.91188000000E+02 0.  0.
    9900012    2    3    3    0    0 -0.10316842066E+02 -0.27299313680E+01 -0.42068202225E+02  0.47787269662E+02  0.19999993696E+02 0.  0.
         12    1    3    3    0    0  0.10316842066E+02  0.27299313680E+01  0.42068202225E+02  0.43400730338E+02  0.00000000000E+00 0. -1.
         11    1    4    4    0    0 -0.53566027397E-01  0.15729858027E+01 -0.39320568671E+01  0.42353541908E+01  0.51100000000E-03 0. -1.
        -11    1    4    4    0    0 -0.11390549023E+02 -0.10016365534E+02 -0.28750137395E+02  0.32506039224E+02  0.51100000000E-03 0.  1.
        -12    1    4    4    0    0  0.11272729849E+01  0.57134483633E+01 -0.93860079628E+01  0.11045876247E+02  0.00000000000E+00 0.  1.
</event>
<event>
 8    1  0.6046524E-010  0.9118800E+02  0.7816164E-02  0.1184000E+00
        -11   -1    0    0    0    0  0.00000000000E+00  0.00000000000E+00  0.45593999997E+02  0.45594000000E+02  0.51100000000E-03 0. -1.
         11   -1    0    0    0    0 -0.00000000000E+00 -0.00000000000E+00 -0.45593999997E+02  0.45594000000E+02  0.51100000000E-03 0.  1.
         23    2    1    2    0    0  0.00000000000E+00  0.00000000000E+00 -0.71054273576E-14  0.91188000000E+02  0.91188000000E+02 0.  0.
    9900012    2    3    3    0    0  0.20030519497E+02 -0.18358912595E+02 -0.33843047113E+02  0.47787271655E+02  0.20000002783E+02 0.  0.
         12    1    3    3    0    0 -0.20030519497E+02  0.18358912595E+02  0.33843047113E+02  0.43400728345E+02  0.00000000000E+00 0. -1.
         11    1    4    4    0    0  0.78061165937E+01  0.10171711138E+01 -0.44723383562E+01  0.90538336622E+01  0.51100000000E-03 0. -1.
        -11    1    4    4    0    0  0.47145860533E+00 -0.50795969018E+01 -0.13219171418E+02  0.14169370880E+02  0.51100000000E-03 0.  1.
        -12    1    4    4    0    0  0.11752944298E+02 -0.14296486807E+02 -0.16151537339E+02  0.24564067113E+02  0.00000000000E+00 0.  1.
</event>
<event>
 8    1  0.6046524E-010  0.9118800E+02  0.7816164E-02  0.1184000E+00
        -11   -1    0    0    0    0  0.00000000000E+00  0.00000000000E+00  0.45593999997E+02  0.45594000000E+02  0.51100000000E-03 0. -1.
         11   -1    0    0    0    0 -0.00000000000E+00 -0.00000000000E+00 -0.45593999997E+02  0.45594000000E+02  0.51100000000E-03 0.  1.
         23    2    1    2    0    0 -0.44408920985E-15  0.35527136788E-14  0.00000000000E+00  0.91188000000E+02  0.91188000000E+02 0.  0.
    9900012    2    3    3    0    0 -0.37288779619E+01  0.18860606392E+02  0.38910104363E+02  0.47787271598E+02  0.20000002522E+02 0.  0.
        -12    1    3    3    0    0  0.37288779619E+01 -0.18860606392E+02 -0.38910104363E+02  0.43400728402E+02  0.00000000000E+00 0.  1.
         11    1    4    4    0    0 -0.35860245349E+01  0.63392239013E+01  0.27772865960E+01  0.77947836874E+01  0.51100000000E-03 0. -1.
        -11    1    4    4    0    0  0.27369594192E+01  0.84990847314E+01  0.10044967984E+02  0.13439745913E+02  0.51100000000E-03 0.  1.
        -12    1    4    4    0    0 -0.28798128462E+01  0.40222977592E+01  0.26087849783E+02  0.26552741997E+02  0.00000000000E+00 0.  1.
</event>
<event>
 8    1  0.6046524E-010  0.9118800E+02  0.7816164E-02  0.1184000E+00
        -11   -1    0    0    0    0  0.00000000000E+00  0.00000000000E+00  0.45593999997E+02  0.45594000000E+02  0.51100000000E-03 0. -1.
         11   -1    0    0    0    0 -0.00000000000E+00 -0.00000000000E+00 -0.45593999997E+02  0.45594000000E+02  0.51100000000E-03 0.  1.
         23    2    1    2    0    0  0.00000000000E+00  0.13322676296E-14  0.00000000000E+00  0.91188000000E+02  0.91188000000E+02 0.  0.
    9900012    2    3    3    0    0  0.18613969193E+02 -0.12018436910E+01  0.39187998349E+02  0.47787268532E+02  0.19999988545E+02 0.  0.
        -12    1    3    3    0    0 -0.18613969193E+02  0.12018436910E+01 -0.39187998349E+02  0.43400731468E+02  0.00000000000E+00 0.  1.
         11    1    4    4    0    0  0.39723274120E+01  0.33674068596E+01  0.93029685908E+01  0.10661333823E+02  0.51100000000E-03 0. -1.
        -11    1    4    4    0    0  0.52524234540E+01 -0.88428094304E+01  0.21494557873E+02  0.23828538545E+02  0.51100000000E-03 0.  1.
         12    1    4    4    0    0  0.93892183268E+01  0.42735588799E+01  0.83904718850E+01  0.13297396164E+02  0.00000000000E+00 0. -1.
</event>
<event>
 8    1  0.6046524E-010  0.9118800E+02  0.7816164E-02  0.1184000E+00
        -11   -1    0    0    0    0  0.00000000000E+00  0.00000000000E+00  0.45593999997E+02  0.45594000000E+02  0.51100000000E-03 0. -1.
         11   -1    0    0    0    0 -0.00000000000E+00 -0.00000000000E+00 -0.45593999997E+02  0.45594000000E+02  0.51100000000E-03 0.  1.
         23    2    1    2    0    0  0.22204460493E-15  0.00000000000E+00 -0.71054273576E-14  0.91188000000E+02  0.91188000000E+02 0.  0.
    9900012    2    3    3    0    0 -0.13942710815E+01  0.99979943917E+01 -0.42210421444E+02  0.47787267723E+02  0.19999984856E+02 0.  0.
         12    1    3    3    0    0  0.13942710815E+01 -0.99979943917E+01  0.42210421444E+02  0.43400732277E+02  0.00000000000E+00 0. -1.
         11    1    4    4    0    0 -0.11637141206E+00  0.69460910496E+01 -0.11364986187E+02  0.13320083876E+02  0.51100000000E-03 0. -1.
        -11    1    4    4    0    0  0.42334635340E+01 -0.41183905260E+01 -0.16326712724E+02  0.17362168720E+02  0.51100000000E-03 0.  1.
        -12    1    4    4    0    0 -0.55113632034E+01  0.71702938680E+01 -0.14518722533E+02  0.17105015128E+02  0.00000000000E+00 0.  1.
</event>
<event>
 8    1  0.6046524E-010  0.9118800E+02  0.7816164E-02  0.1184000E+00
        -11   -1    0    0    0    0  0.00000000000E+00  0.00000000000E+00  0.45593999997E+02  0.45594000000E+02  0.51100000000E-03 0.  1.
         11   -1    0    0    0    0 -0.00000000000E+00 -0.00000000000E+00 -0.45593999997E+02  0.45594000000E+02  0.51100000000E-03 0. -1.
         23    2    1    2    0    0  0.00000000000E+00  0.00000000000E+00  0.88817841970E-15  0.91188000000E+02  0.91188000000E+02 0.  0.
    9900012    2    3    3    0    0  0.42331567530E+02 -0.77297369621E+01  0.56491468624E+01  0.47787270706E+02  0.19999998455E+02 0.  0.
        -12    1    3    3    0    0 -0.42331567530E+02  0.77297369621E+01 -0.56491468624E+01  0.43400729294E+02  0.00000000000E+00 0.  1.
         11    1    4    4    0    0  0.12905519116E+02  0.15265671655E+01  0.30910980680E+01  0.13358058186E+02  0.51100000000E-03 0. -1.
        -11    1    4    4    0    0  0.20600514110E+02 -0.52673044529E+01  0.86852281799E+01  0.22968649647E+02  0.51100000000E-03 0.  1.
         12    1    4    4    0    0  0.88255343028E+01 -0.39889996747E+01 -0.61271793855E+01  0.11460562873E+02  0.00000000000E+00 0. -1.
</event>
<event>
 8    1  0.6046524E-010  0.9118800E+02  0.7816164E-02  0.1184000E+00
        -11   -1    0    0    0    0  0.00000000000E+00  0.00000000000E+00  0.45593999997E+02  0.45594000000E+02  0.51100000000E-03 0. -1.
         11   -1    0    0    0    0 -0.00000000000E+00 -0.00000000000E+00 -0.45593999997E+02  0.45594000000E+02  0.51100000000E-03 0.  1.
         23    2    1    2    0    0  0.00000000000E+00  0.00000000000E+00  0.00000000000E+00  0.91188000000E+02  0.91188000000E+02 0.  0.
    9900012    2    3    3    0    0  0.27347250312E+02 -0.15027311420E+02 -0.30165064077E+02  0.47787270987E+02  0.19999999738E+02 0.  0.
         12    1    3    3    0    0 -0.27347250312E+02  0.15027311420E+02  0.30165064077E+02  0.43400729013E+02  0.00000000000E+00 0. -1.
         11    1    4    4    0    0 -0.14589110868E+00  0.15453608367E+01 -0.98302571595E+00  0.18373252707E+01  0.51100000000E-03 0.  1.
        -11    1    4    4    0    0  0.10824971169E+02 -0.84111007686E+01 -0.22258902729E+02  0.26141640498E+02  0.51100000000E-03 0. -1.
        -12    1    4    4    0    0  0.16668170251E+02 -0.81615714880E+01 -0.69231356319E+01  0.19808305219E+02  0.00000000000E+00 0.  1.
</event>
<event>
 8    1  0.6046524E-010  0.9118800E+02  0.7816164E-02  0.1184000E+00
        -11   -1    0    0    0    0  0.00000000000E+00  0.00000000000E+00  0.45593999997E+02  0.45594000000E+02  0.51100000000E-03 0. -1.
         11   -1    0    0    0    0 -0.00000000000E+00 -0.00000000000E+00 -0.45593999997E+02  0.45594000000E+02  0.51100000000E-03 0.  1.
         23    2    1    2    0    0  0.00000000000E+00  0.22204460493E-15  0.00000000000E+00  0.91188000000E+02  0.91188000000E+02 0.  0.
    9900012    2    3    3    0    0  0.43123773640E+02 -0.16023821562E+01 -0.46255062930E+01  0.47787276619E+02  0.20000025417E+02 0.  0.
         12    1    3    3    0    0 -0.43123773640E+02  0.16023821562E+01  0.46255062930E+01  0.43400723381E+02  0.00000000000E+00 0. -1.
         11    1    4    4    0    0  0.89374597109E+01 -0.36108167850E+01 -0.57583323221E+01  0.11228293518E+02  0.51100000000E-03 0.  1.
        -11    1    4    4    0    0  0.51292493403E+01  0.49972029427E+01  0.16305155496E+01  0.73443731702E+01  0.51100000000E-03 0. -1.
        -12    1    4    4    0    0  0.29057064589E+02 -0.29887683140E+01 -0.49768952053E+00  0.29214609931E+02  0.00000000000E+00 0.  1.
</event>
<event>
 8    1  0.6046524E-010  0.9118800E+02  0.7816164E-02  0.1184000E+00
        -11   -1    0    0    0    0  0.00000000000E+00  0.00000000000E+00  0.45593999997E+02  0.45594000000E+02  0.51100000000E-03 0.  1.
         11   -1    0    0    0    0 -0.00000000000E+00 -0.00000000000E+00 -0.45593999997E+02  0.45594000000E+02  0.51100000000E-03 0. -1.
         23    2    1    2    0    0 -0.17763568394E-14  0.00000000000E+00  0.00000000000E+00  0.91188000000E+02  0.91188000000E+02 0.  0.
    9900012    2    3    3    0    0  0.10605693950E+02  0.38822687950E+02  0.16246294323E+02  0.47787263565E+02  0.19999965900E+02 0.  0.
        -12    1    3    3    0    0 -0.10605693950E+02 -0.38822687950E+02 -0.16246294323E+02  0.43400736435E+02  0.00000000000E+00 0.  1.
         11    1    4    4    0    0  0.65255964509E+01  0.51956139323E+01  0.40390399175E+01  0.92677751855E+01  0.51100000000E-03 0. -1.
        -11    1    4    4    0    0  0.53572640928E+01  0.25244676471E+02  0.29644660803E+01  0.25976566903E+02  0.51100000000E-03 0.  1.
        -12    1    4    4    0    0 -0.12771665934E+01  0.83823975473E+01  0.92427883252E+01  0.12542921477E+02  0.00000000000E+00 0.  1.
</event>
<event>
 8    1  0.6046524E-010  0.9118800E+02  0.7816164E-02  0.1184000E+00
        -11   -1    0    0    0    0  0.00000000000E+00  0.00000000000E+00  0.45593999997E+02  0.45594000000E+02  0.51100000000E-03 0. -1.
         11   -1    0    0    0    0 -0.00000000000E+00 -0.00000000000E+00 -0.45593999997E+02  0.45594000000E+02  0.51100000000E-03 0.  1.
         23    2    1    2    0    0  0.00000000000E+00  0.17763568394E-14 -0.17763568394E-14  0.91188000000E+02  0.91188000000E+02 0.  0.
    9900012    2    3    3    0    0 -0.39993009957E+02 -0.14595612032E+02 -0.84350729806E+01  0.47787271985E+02  0.20000004289E+02 0.  0.
         12    1    3    3    0    0  0.39993009957E+02  0.14595612032E+02  0.84350729806E+01  0.43400728015E+02  0.00000000000E+00 0. -1.
         11    1    4    4    0    0 -0.12824441504E+02  0.69139514735E+00 -0.49123617550E+01  0.13750477279E+02  0.51100000000E-03 0. -1.
        -11    1    4    4    0    0 -0.20770497763E+02 -0.77240319316E+01  0.27216707988E+01  0.22326704611E+02  0.51100000000E-03 0.  1.
        -12    1    4    4    0    0 -0.63980706909E+01 -0.75629752476E+01 -0.62443820244E+01  0.11710090095E+02  0.00000000000E+00 0.  1.
</event>
<event>
 8    1  0.6046524E-010  0.9118800E+02  0.7816164E-02  0.1184000E+00
        -11   -1    0    0    0    0  0.00000000000E+00  0.00000000000E+00  0.45593999997E+02  0.45594000000E+02  0.51100000000E-03 0. -1.
         11   -1    0    0    0    0 -0.00000000000E+00 -0.00000000000E+00 -0.45593999997E+02  0.45594000000E+02  0.51100000000E-03 0.  1.
         23    2    1    2    0    0  0.00000000000E+00  0.00000000000E+00  0.35527136788E-14  0.91188000000E+02  0.91188000000E+02 0.  0.
    9900012    2    3    3    0    0  0.24503879352E+02  0.28856419430E+02  0.21224765236E+02  0.47787266078E+02  0.19999977357E+02 0.  0.
        -12    1    3    3    0    0 -0.24503879352E+02 -0.28856419430E+02 -0.21224765236E+02  0.43400733922E+02  0.00000000000E+00 0.  1.
         11    1    4    4    0    0  0.54497343606E+01  0.79394220430E+01  0.82519243457E+01  0.12681809124E+02  0.51100000000E-03 0. -1.
        -11    1    4    4    0    0  0.14643150084E+02  0.17017549166E+02  0.18573856727E+01  0.22527066072E+02  0.51100000000E-03 0.  1.
        -12    1    4    4    0    0  0.44109949075E+01  0.38994482206E+01  0.11115455218E+02  0.12578390883E+02  0.00000000000E+00 0.  1.
</event>
<event>
 8    1  0.6046524E-010  0.9118800E+02  0.7816164E-02  0.1184000E+00
        -11   -1    0    0    0    0  0.00000000000E+00  0.00000000000E+00  0.45593999997E+02  0.45594000000E+02  0.51100000000E-03 0. -1.
         11   -1    0    0    0    0 -0.00000000000E+00 -0.00000000000E+00 -0.45593999997E+02  0.45594000000E+02  0.51100000000E-03 0.  1.
         23    2    1    2    0    0  0.00000000000E+00 -0.88817841970E-15  0.00000000000E+00  0.91188000000E+02  0.91188000000E+02 0.  0.
    9900012    2    3    3    0    0 -0.51116529367E+01  0.67381177959E+01  0.42568669639E+02  0.47787275790E+02  0.20000021635E+02 0.  0.
        -12    1    3    3    0    0  0.51116529367E+01 -0.67381177959E+01 -0.42568669639E+02  0.43400724210E+02  0.00000000000E+00 0.  1.
         11    1    4    4    0    0 -0.30175232877E+00  0.22734893049E+01  0.11880515929E+02  0.12099854011E+02  0.51100000000E-03 0. -1.
        -11    1    4    4    0    0  0.85850373404E+00 -0.32795466944E+01  0.23380214694E+02  0.23624709408E+02  0.51100000000E-03 0.  1.
         12    1    4    4    0    0 -0.56684043420E+01  0.77441751853E+01  0.73079390153E+01  0.12062712371E+02  0.00000000000E+00 0. -1.
</event>
<event>
 8    1  0.6046524E-010  0.9118800E+02  0.7816164E-02  0.1184000E+00
        -11   -1    0    0    0    0  0.00000000000E+00  0.00000000000E+00  0.45593999997E+02  0.45594000000E+02  0.51100000000E-03 0. -1.
         11   -1    0    0    0    0 -0.00000000000E+00 -0.00000000000E+00 -0.45593999997E+02  0.45594000000E+02  0.51100000000E-03 0.  1.
         23    2    1    2    0    0  0.00000000000E+00  0.88817841970E-15 -0.71054273576E-14  0.91188000000E+02  0.91188000000E+02 0.  0.
    9900012    2    3    3    0    0  0.23595865881E+02  0.74625110960E+01 -0.35653459698E+02  0.47787272506E+02  0.20000006666E+02 0.  0.
         12    1    3    3    0    0 -0.23595865881E+02 -0.74625110960E+01  0.35653459698E+02  0.43400727494E+02  0.00000000000E+00 0. -1.
         11    1    4    4    0    0  0.11650466413E+02  0.15974519449E+01 -0.28251343811E+02  0.30601039978E+02  0.51100000000E-03 0. -1.
        -11    1    4    4    0    0  0.10746424867E+02  0.28460625263E+01 -0.82326483035E+01  0.13833373330E+02  0.51100000000E-03 0.  1.
        -12    1    4    4    0    0  0.11989746008E+01  0.30189966247E+01  0.83053241606E+00  0.33528591989E+01  0.00000000000E+00 0.  1.
</event>
<event>
 8    1  0.6046524E-010  0.9118800E+02  0.7816164E-02  0.1184000E+00
        -11   -1    0    0    0    0  0.00000000000E+00  0.00000000000E+00  0.45593999997E+02  0.45594000000E+02  0.51100000000E-03 0. -1.
         11   -1    0    0    0    0 -0.00000000000E+00 -0.00000000000E+00 -0.45593999997E+02  0.45594000000E+02  0.51100000000E-03 0.  1.
         23    2    1    2    0    0 -0.17763568394E-14  0.55511151231E-16  0.00000000000E+00  0.91188000000E+02  0.91188000000E+02 0.  0.
    9900012    2    3    3    0    0  0.15309766708E+02 -0.43531518036E+00  0.40608434275E+02  0.47787269704E+02  0.19999993889E+02 0.  0.
        -12    1    3    3    0    0 -0.15309766708E+02  0.43531518036E+00 -0.40608434275E+02  0.43400730296E+02  0.00000000000E+00 0.  1.
         11    1    4    4    0    0  0.10250110915E+02  0.10518444888E+01  0.10421444667E+02  0.14655294600E+02  0.51100000000E-03 0.  1.
        -11    1    4    4    0    0  0.88917070498E+01  0.84635905063E+00  0.17016025672E+02  0.19217801847E+02  0.51100000000E-03 0. -1.
         12    1    4    4    0    0 -0.38320512564E+01 -0.23335187198E+01  0.13170963935E+02  0.13914173257E+02  0.00000000000E+00 0. -1.
</event>
<event>
 8    1  0.6046524E-010  0.9118800E+02  0.7816164E-02  0.1184000E+00
        -11   -1    0    0    0    0  0.00000000000E+00  0.00000000000E+00  0.45593999997E+02  0.45594000000E+02  0.51100000000E-03 0. -1.
         11   -1    0    0    0    0 -0.00000000000E+00 -0.00000000000E+00 -0.45593999997E+02  0.45594000000E+02  0.51100000000E-03 0.  1.
         23    2    1    2    0    0  0.13322676296E-14 -0.35527136788E-14  0.00000000000E+00  0.91188000000E+02  0.91188000000E+02 0.  0.
    9900012    2    3    3    0    0  0.28081508127E+01 -0.27738381505E+02  0.33261382514E+02  0.47787273206E+02  0.20000009856E+02 0.  0.
        -12    1    3    3    0    0 -0.28081508127E+01  0.27738381505E+02 -0.33261382514E+02  0.43400726794E+02  0.00000000000E+00 0.  1.
         11    1    4    4    0    0  0.81173368726E+01 -0.19828074923E+02  0.27952192323E+02  0.35218869501E+02  0.51100000000E-03 0. -1.
        -11    1    4    4    0    0 -0.29222870143E+01 -0.84524837195E+01  0.42326584556E+01  0.98944247072E+01  0.51100000000E-03 0.  1.
        -12    1    4    4    0    0 -0.23868990456E+01  0.54217713725E+00  0.10765317357E+01  0.26739789977E+01  0.00000000000E+00 0.  1.
</event>
<event>
 8    1  0.6046524E-010  0.9118800E+02  0.7816164E-02  0.1184000E+00
        -11   -1    0    0    0    0  0.00000000000E+00  0.00000000000E+00  0.45593999997E+02  0.45594000000E+02  0.51100000000E-03 0. -1.
         11   -1    0    0    0    0 -0.00000000000E+00 -0.00000000000E+00 -0.45593999997E+02  0.45594000000E+02  0.51100000000E-03 0.  1.
         23    2    1    2    0    0  0.35527136788E-14 -0.71054273576E-14 -0.35527136788E-14  0.91188000000E+02  0.91188000000E+02 0.  0.
    9900012    2    3    3    0    0 -0.13962503350E+02  0.33270150079E+02  0.24119882942E+02  0.47787272596E+02  0.20000007074E+02 0.  0.
        -12    1    3    3    0    0  0.13962503350E+02 -0.33270150079E+02 -0.24119882942E+02  0.43400727404E+02  0.00000000000E+00 0.  1.
         11    1    4    4    0    0 -0.34285507792E+01  0.65228887852E+00  0.60312769628E+00  0.35417798500E+01  0.51100000000E-03 0. -1.
        -11    1    4    4    0    0 -0.14000163430E+02  0.23485212652E+02  0.14484226437E+02  0.30941115124E+02  0.51100000000E-03 0.  1.
         12    1    4    4    0    0  0.34662108593E+01  0.91326485489E+01  0.90325288083E+01  0.13304377622E+02  0.00000000000E+00 0. -1.
</event>
<event>
 8    1  0.6046524E-010  0.9118800E+02  0.7816164E-02  0.1184000E+00
        -11   -1    0    0    0    0  0.00000000000E+00  0.00000000000E+00  0.45593999997E+02  0.45594000000E+02  0.51100000000E-03 0. -1.
         11   -1    0    0    0    0 -0.00000000000E+00 -0.00000000000E+00 -0.45593999997E+02  0.45594000000E+02  0.51100000000E-03 0.  1.
         23    2    1    2    0    0  0.00000000000E+00  0.00000000000E+00  0.00000000000E+00  0.91188000000E+02  0.91188000000E+02 0.  0.
    9900012    2    3    3    0    0 -0.68986789998E+01  0.26175004490E+02 -0.33924918226E+02  0.47787277556E+02  0.20000029688E+02 0.  0.
         12    1    3    3    0    0  0.68986789998E+01 -0.26175004490E+02  0.33924918226E+02  0.43400722444E+02  0.00000000000E+00 0. -1.
         11    1    4    4    0    0 -0.73001492450E+01  0.89014745679E+01 -0.23117223660E+01  0.11741911643E+02  0.51100000000E-03 0. -1.
        -11    1    4    4    0    0  0.79511075998E+00  0.10887205475E+02 -0.20209149882E+02  0.22968961304E+02  0.51100000000E-03 0.  1.
         12    1    4    4    0    0 -0.39364051483E+00  0.63863244473E+01 -0.11404045979E+02  0.13076404608E+02  0.00000000000E+00 0. -1.
</event>
<event>
 8    1  0.6046524E-010  0.9118800E+02  0.7816164E-02  0.1184000E+00
        -11   -1    0    0    0    0  0.00000000000E+00  0.00000000000E+00  0.45593999997E+02  0.45594000000E+02  0.51100000000E-03 0. -1.
         11   -1    0    0    0    0 -0.00000000000E+00 -0.00000000000E+00 -0.45593999997E+02  0.45594000000E+02  0.51100000000E-03 0.  1.
         23    2    1    2    0    0  0.00000000000E+00  0.00000000000E+00  0.44408920985E-15  0.91188000000E+02  0.91188000000E+02 0.  0.
    9900012    2    3    3    0    0  0.20168913009E+02  0.38413578210E+02  0.11114925293E+01  0.47787268917E+02  0.19999990302E+02 0.  0.
         12    1    3    3    0    0 -0.20168913009E+02 -0.38413578210E+02 -0.11114925293E+01  0.43400731083E+02  0.00000000000E+00 0. -1.
         11    1    4    4    0    0  0.69791649644E+01  0.50220836436E+01  0.71169076318E+01  0.11161560922E+02  0.51100000000E-03 0. -1.
        -11    1    4    4    0    0  0.27081822871E+01  0.11128343864E+02 -0.85239127827E+00  0.11484809951E+02  0.51100000000E-03 0.  1.
         12    1    4    4    0    0  0.10481565758E+02  0.22263150703E+02 -0.51530238243E+01  0.25140898044E+02  0.00000000000E+00 0. -1.
</event>
<event>
 8    1  0.6046525E-010  0.9118800E+02  0.7816164E-02  0.1184000E+00
        -11   -1    0    0    0    0  0.00000000000E+00  0.00000000000E+00  0.45593999997E+02  0.45594000000E+02  0.51100000000E-03 0. -1.
         11   -1    0    0    0    0 -0.00000000000E+00 -0.00000000000E+00 -0.45593999997E+02  0.45594000000E+02  0.51100000000E-03 0.  1.
         23    2    1    2    0    0  0.35527136788E-14  0.00000000000E+00 -0.35527136788E-14  0.91188000000E+02  0.91188000000E+02 0.  0.
    9900012    2    3    3    0    0  0.28995453104E+02 -0.17050399216E+02 -0.27425733488E+02  0.47787271072E+02  0.20000000125E+02 0.  0.
         12    1    3    3    0    0 -0.28995453104E+02  0.17050399216E+02  0.27425733488E+02  0.43400728928E+02  0.00000000000E+00 0. -1.
         11    1    4    4    0    0 -0.13958248271E+01 -0.60387414295E+01 -0.34804990579E+01  0.71083471323E+01  0.51100000000E-03 0. -1.
        -11    1    4    4    0    0  0.14368796218E+02 -0.84132957545E+01 -0.11892423347E+02  0.20461563565E+02  0.51100000000E-03 0.  1.
         12    1    4    4    0    0  0.16022481713E+02 -0.25983620320E+01 -0.12052811083E+02  0.20217360374E+02  0.00000000000E+00 0. -1.
</event>
<event>
 8    1  0.6046524E-010  0.9118800E+02  0.7816164E-02  0.1184000E+00
        -11   -1    0    0    0    0  0.00000000000E+00  0.00000000000E+00  0.45593999997E+02  0.45594000000E+02  0.51100000000E-03 0. -1.
         11   -1    0    0    0    0 -0.00000000000E+00 -0.00000000000E+00 -0.45593999997E+02  0.45594000000E+02  0.51100000000E-03 0.  1.
         23    2    1    2    0    0  0.00000000000E+00  0.00000000000E+00  0.00000000000E+00  0.91188000000E+02  0.91188000000E+02 0.  0.
    9900012    2    3    3    0    0  0.19376177929E+02 -0.25226525516E+02 -0.29526418565E+02  0.47787271273E+02  0.20000001042E+02 0.  0.
         12    1    3    3    0    0 -0.19376177929E+02  0.25226525516E+02  0.29526418565E+02  0.43400728727E+02  0.00000000000E+00 0. -1.
         11    1    4    4    0    0  0.44463558940E+01 -0.27173097389E+01 -0.16487761127E+02  0.17291619941E+02  0.51100000000E-03 0. -1.
        -11    1    4    4    0    0  0.17895234340E+01 -0.44057874810E+01 -0.32712316765E+00  0.47665886415E+01  0.51100000000E-03 0.  1.
         12    1    4    4    0    0  0.13140298601E+02 -0.18103428296E+02 -0.12711534271E+02  0.25729062690E+02  0.00000000000E+00 0. -1.
</event>
<event>
 8    1  0.6046524E-010  0.9118800E+02  0.7816164E-02  0.1184000E+00
        -11   -1    0    0    0    0  0.00000000000E+00  0.00000000000E+00  0.45593999997E+02  0.45594000000E+02  0.51100000000E-03 0. -1.
         11   -1    0    0    0    0 -0.00000000000E+00 -0.00000000000E+00 -0.45593999997E+02  0.45594000000E+02  0.51100000000E-03 0.  1.
         23    2    1    2    0    0  0.88817841970E-15  0.44408920985E-15  0.00000000000E+00  0.91188000000E+02  0.91188000000E+02 0.  0.
    9900012    2    3    3    0    0 -0.70259307461E+01  0.11426346217E+01 -0.42813021804E+02  0.47787260920E+02  0.19999953836E+02 0.  0.
         12    1    3    3    0    0  0.70259307461E+01 -0.11426346217E+01  0.42813021804E+02  0.43400739080E+02  0.00000000000E+00 0. -1.
         11    1    4    4    0    0  0.35392578089E+01  0.31627195672E+01 -0.50958818301E+01  0.69639897176E+01  0.51100000000E-03 0. -1.
        -11    1    4    4    0    0 -0.22230883443E+01  0.13281875973E+01 -0.25627707772E+02  0.25758214417E+02  0.51100000000E-03 0.  1.
         12    1    4    4    0    0 -0.83421002107E+01 -0.33482725428E+01 -0.12089432202E+02  0.15065056785E+02  0.00000000000E+00 0. -1.
</event>
<event>
 8    1  0.6046524E-010  0.9118800E+02  0.7816164E-02  0.1184000E+00
        -11   -1    0    0    0    0  0.00000000000E+00  0.00000000000E+00  0.45593999997E+02  0.45594000000E+02  0.51100000000E-03 0. -1.
         11   -1    0    0    0    0 -0.00000000000E+00 -0.00000000000E+00 -0.45593999997E+02  0.45594000000E+02  0.51100000000E-03 0.  1.
         23    2    1    2    0    0  0.00000000000E+00  0.35527136788E-14 -0.35527136788E-14  0.91188000000E+02  0.91188000000E+02 0.  0.
    9900012    2    3    3    0    0 -0.15853635691E+02 -0.28060678328E+02  0.29066884727E+02  0.47787271659E+02  0.20000002800E+02 0.  0.
        -12    1    3    3    0    0  0.15853635691E+02  0.28060678328E+02 -0.29066884727E+02  0.43400728341E+02  0.00000000000E+00 0.  1.
         11    1    4    4    0    0 -0.48101940842E+01 -0.19822528987E+01  0.42498758426E+01  0.67177926896E+01  0.51100000000E-03 0. -1.
        -11    1    4    4    0    0 -0.27991531687E+01  0.10561764273E+01 -0.52436188729E+00  0.30373874889E+01  0.51100000000E-03 0.  1.
         12    1    4    4    0    0 -0.82442884376E+01 -0.27134601857E+02  0.25341370771E+02  0.38032091480E+02  0.00000000000E+00 0. -1.
</event>
<event>
 8    1  0.8059196E-010  0.9118800E+02  0.7816164E-02  0.1184000E+00
        -11   -1    0    0    0    0  0.00000000000E+00  0.00000000000E+00  0.45593999997E+02  0.45594000000E+02  0.51100000000E-03 0. -1.
         11   -1    0    0    0    0 -0.00000000000E+00 -0.00000000000E+00 -0.45593999997E+02  0.45594000000E+02  0.51100000000E-03 0.  1.
         23    2    1    2    0    0 -0.83266726847E-15  0.00000000000E+00  0.00000000000E+00  0.91188000000E+02  0.91188000000E+02 0.  0.
    9900012    2    3    3    0    0 -0.42890377821E+00  0.87142528697E+01 -0.42514714338E+02  0.47787273085E+02  0.20000009303E+02 0.  0.
         12    1    3    3    0    0  0.42890377821E+00 -0.87142528697E+01  0.42514714338E+02  0.43400726915E+02  0.00000000000E+00 0. -1.
         11    1    4    4    0    0  0.57668665355E+01 -0.26138758966E+01 -0.55726575093E+01  0.84346670840E+01  0.51100000000E-03 0. -1.
        -11    1    4    4    0    0 -0.52064446550E+00  0.51339969010E+01 -0.14170070098E+02  0.15080446999E+02  0.51100000000E-03 0.  1.
         12    1    4    4    0    0 -0.56751258482E+01  0.61941318653E+01 -0.22771986731E+02  0.24272159002E+02  0.00000000000E+00 0. -1.
</event>
<event>
 8    1  0.6046524E-010  0.9118800E+02  0.7816164E-02  0.1184000E+00
        -11   -1    0    0    0    0  0.00000000000E+00  0.00000000000E+00  0.45593999997E+02  0.45594000000E+02  0.51100000000E-03 0. -1.
         11   -1    0    0    0    0 -0.00000000000E+00 -0.00000000000E+00 -0.45593999997E+02  0.45594000000E+02  0.51100000000E-03 0.  1.
         23    2    1    2    0    0  0.00000000000E+00  0.00000000000E+00  0.00000000000E+00  0.91188000000E+02  0.91188000000E+02 0.  0.
    9900012    2    3    3    0    0  0.15288843040E+02 -0.46487900090E+01  0.40351744623E+02  0.47787271156E+02  0.20000000508E+02 0.  0.
        -12    1    3    3    0    0 -0.15288843040E+02  0.46487900090E+01 -0.40351744623E+02  0.43400728844E+02  0.00000000000E+00 0.  1.
         11    1    4    4    0    0  0.12789221143E+01 -0.14935348706E+01  0.20841894859E+02  0.20934442189E+02  0.51100000000E-03 0. -1.
        -11    1    4    4    0    0  0.47851792400E+01 -0.59212069297E+01  0.13506748059E+02  0.15504543697E+02  0.51100000000E-03 0.  1.
         12    1    4    4    0    0  0.92247416858E+01  0.27659517914E+01  0.60031017058E+01  0.11348285270E+02  0.00000000000E+00 0. -1.
</event>
<event>
 8    1  0.6046524E-010  0.9118800E+02  0.7816164E-02  0.1184000E+00
        -11   -1    0    0    0    0  0.00000000000E+00  0.00000000000E+00  0.45593999997E+02  0.45594000000E+02  0.51100000000E-03 0. -1.
         11   -1    0    0    0    0 -0.00000000000E+00 -0.00000000000E+00 -0.45593999997E+02  0.45594000000E+02  0.51100000000E-03 0.  1.
         23    2    1    2    0    0  0.00000000000E+00 -0.35527136788E-14  0.00000000000E+00  0.91188000000E+02  0.91188000000E+02 0.  0.
    9900012    2    3    3    0    0 -0.16537880899E+02  0.81056165503E+01  0.39299118042E+02  0.47787271859E+02  0.20000003715E+02 0.  0.
        -12    1    3    3    0    0  0.16537880899E+02 -0.81056165503E+01 -0.39299118042E+02  0.43400728141E+02  0.00000000000E+00 0.  1.
         11    1    4    4    0    0 -0.13727859372E+02  0.92159001322E+01  0.13452449920E+02  0.21315612759E+02  0.51100000000E-03 0. -1.
        -11    1    4    4    0    0  0.57070162542E+00 -0.20293293948E+01  0.73596202072E+01  0.76555788804E+01  0.51100000000E-03 0.  1.
        -12    1    4    4    0    0 -0.33807231523E+01  0.91904581289E+00  0.18487047915E+02  0.18816080220E+02  0.00000000000E+00 0.  1.
</event>
<event>
 8    1  0.6046524E-010  0.9118800E+02  0.7816164E-02  0.1184000E+00
        -11   -1    0    0    0    0  0.00000000000E+00  0.00000000000E+00  0.45593999997E+02  0.45594000000E+02  0.51100000000E-03 0. -1.
         11   -1    0    0    0    0 -0.00000000000E+00 -0.00000000000E+00 -0.45593999997E+02  0.45594000000E+02  0.51100000000E-03 0.  1.
         23    2    1    2    0    0 -0.35527136788E-14 -0.71054273576E-14 -0.71054273576E-14  0.91188000000E+02  0.91188000000E+02 0.  0.
    9900012    2    3    3    0    0  0.18031142636E+02  0.32507425596E+02  0.22400200957E+02  0.47787264677E+02  0.19999970970E+02 0.  0.
        -12    1    3    3    0    0 -0.18031142636E+02 -0.32507425596E+02 -0.22400200957E+02  0.43400735323E+02  0.00000000000E+00 0.  1.
         11    1    4    4    0    0  0.13267769862E+02  0.28209743192E+02  0.14167198544E+02  0.34242266906E+02  0.51100000000E-03 0.  1.
        -11    1    4    4    0    0  0.44480378943E+01  0.54059343175E+01  0.21059655185E+01  0.73105579801E+01  0.51100000000E-03 0. -1.
        -12    1    4    4    0    0  0.31533487951E+00 -0.11082519136E+01  0.61270368952E+01  0.62344397908E+01  0.00000000000E+00 0.  1.
</event>
<event>
 8    1  0.6046524E-010  0.9118800E+02  0.7816164E-02  0.1184000E+00
        -11   -1    0    0    0    0  0.00000000000E+00  0.00000000000E+00  0.45593999997E+02  0.45594000000E+02  0.51100000000E-03 0.  1.
         11   -1    0    0    0    0 -0.00000000000E+00 -0.00000000000E+00 -0.45593999997E+02  0.45594000000E+02  0.51100000000E-03 0. -1.
         23    2    1    2    0    0  0.00000000000E+00  0.00000000000E+00  0.17763568394E-14  0.91188000000E+02  0.91188000000E+02 0.  0.
    9900012    2    3    3    0    0 -0.21079561761E+02 -0.36659019812E+02 -0.97668683999E+01  0.47787269868E+02  0.19999994636E+02 0.  0.
        -12    1    3    3    0    0  0.21079561761E+02  0.36659019812E+02  0.97668683999E+01  0.43400730132E+02  0.00000000000E+00 0.  1.
         11    1    4    4    0    0 -0.78408646041E+01 -0.77693687774E+01 -0.59164057120E+01  0.12523821531E+02  0.51100000000E-03 0. -1.
        -11    1    4    4    0    0 -0.27269418331E+01 -0.22383197634E+02 -0.39963875599E+01  0.22900106154E+02  0.51100000000E-03 0.  1.
         12    1    4    4    0    0 -0.10511755324E+02 -0.65064534007E+01  0.14592487189E+00  0.12363342182E+02  0.00000000000E+00 0. -1.
</event>
<event>
 8    1  0.6663522E-010  0.9118800E+02  0.7816164E-02  0.1184000E+00
        -11   -1    0    0    0    0  0.00000000000E+00  0.00000000000E+00  0.45593999997E+02  0.45594000000E+02  0.51100000000E-03 0. -1.
         11   -1    0    0    0    0 -0.00000000000E+00 -0.00000000000E+00 -0.45593999997E+02  0.45594000000E+02  0.51100000000E-03 0.  1.
         23    2    1    2    0    0  0.00000000000E+00  0.00000000000E+00  0.17763568394E-14  0.91188000000E+02  0.91188000000E+02 0.  0.
    9900012    2    3    3    0    0 -0.35666228615E+02  0.23400899017E+02 -0.79963421958E+01  0.47787269281E+02  0.19999991962E+02 0.  0.
         12    1    3    3    0    0  0.35666228615E+02 -0.23400899017E+02  0.79963421958E+01  0.43400730719E+02  0.00000000000E+00 0. -1.
         11    1    4    4    0    0 -0.36805869369E+01  0.45939677263E+00 -0.47510405579E+01  0.60274498952E+01  0.51100000000E-03 0. -1.
        -11    1    4    4    0    0 -0.27684909985E+02  0.14309889657E+02 -0.59860658372E+01  0.31734211308E+02  0.51100000000E-03 0.  1.
         12    1    4    4    0    0 -0.43007316931E+01  0.86316125868E+01  0.27407641994E+01  0.10025608078E+02  0.00000000000E+00 0. -1.
</event>
<event>
 8    1  0.6046524E-010  0.9118800E+02  0.7816164E-02  0.1184000E+00
        -11   -1    0    0    0    0  0.00000000000E+00  0.00000000000E+00  0.45593999997E+02  0.45594000000E+02  0.51100000000E-03 0. -1.
         11   -1    0    0    0    0 -0.00000000000E+00 -0.00000000000E+00 -0.45593999997E+02  0.45594000000E+02  0.51100000000E-03 0.  1.
         23    2    1    2    0    0  0.00000000000E+00  0.35527136788E-14 -0.71054273576E-14  0.91188000000E+02  0.91188000000E+02 0.  0.
    9900012    2    3    3    0    0 -0.98314612743E+01 -0.21544385629E+02  0.36370388222E+02  0.47787270487E+02  0.19999997456E+02 0.  0.
        -12    1    3    3    0    0  0.98314612743E+01  0.21544385629E+02 -0.36370388222E+02  0.43400729513E+02  0.00000000000E+00 0.  1.
         11    1    4    4    0    0 -0.49313149312E+01 -0.15030599089E+02  0.31688980568E+02  0.35417908826E+02  0.51100000000E-03 0. -1.
        -11    1    4    4    0    0  0.20241776147E+01 -0.13408526341E+00  0.68617557440E+00  0.21415207339E+01  0.51100000000E-03 0.  1.
        -12    1    4    4    0    0 -0.69243239578E+01 -0.63797012761E+01  0.39952320791E+01  0.10227840926E+02  0.00000000000E+00 0.  1.
</event>
<event>
 8    1  0.6046524E-010  0.9118800E+02  0.7816164E-02  0.1184000E+00
        -11   -1    0    0    0    0  0.00000000000E+00  0.00000000000E+00  0.45593999997E+02  0.45594000000E+02  0.51100000000E-03 0. -1.
         11   -1    0    0    0    0 -0.00000000000E+00 -0.00000000000E+00 -0.45593999997E+02  0.45594000000E+02  0.51100000000E-03 0.  1.
         23    2    1    2    0    0 -0.44408920985E-15  0.00000000000E+00  0.71054273576E-14  0.91188000000E+02  0.91188000000E+02 0.  0.
    9900012    2    3    3    0    0  0.88277886886E+00 -0.23909079866E+02  0.36210494386E+02  0.47787270718E+02  0.19999998512E+02 0.  0.
        -12    1    3    3    0    0 -0.88277886886E+00  0.23909079866E+02 -0.36210494386E+02  0.43400729282E+02  0.00000000000E+00 0.  1.
         11    1    4    4    0    0  0.40609850412E+01 -0.11196593914E+02  0.17073340737E+02  0.20817163086E+02  0.51100000000E-03 0. -1.
        -11    1    4    4    0    0 -0.24247709931E+01  0.11703713552E+01  0.99446075908E+01  0.10302645479E+02  0.51100000000E-03 0.  1.
         12    1    4    4    0    0 -0.75343517924E+00 -0.13882857307E+02  0.91925460582E+01  0.16667462153E+02  0.00000000000E+00 0. -1.
</event>
<event>
 8    1  0.6046524E-010  0.9118800E+02  0.7816164E-02  0.1184000E+00
        -11   -1    0    0    0    0  0.00000000000E+00  0.00000000000E+00  0.45593999997E+02  0.45594000000E+02  0.51100000000E-03 0.  1.
         11   -1    0    0    0    0 -0.00000000000E+00 -0.00000000000E+00 -0.45593999997E+02  0.45594000000E+02  0.51100000000E-03 0. -1.
         23    2    1    2    0    0  0.00000000000E+00 -0.17763568394E-14  0.00000000000E+00  0.91188000000E+02  0.91188000000E+02 0.  0.
    9900012    2    3    3    0    0 -0.41839041811E+02  0.92203660197E+01  0.69356103505E+01  0.47787271202E+02  0.20000000720E+02 0.  0.
        -12    1    3    3    0    0  0.41839041811E+02 -0.92203660197E+01 -0.69356103505E+01  0.43400728798E+02  0.00000000000E+00 0.  1.
         11    1    4    4    0    0 -0.28057197545E+02  0.98519892927E+01  0.58078811595E-02  0.29736645088E+02  0.51100000000E-03 0. -1.
        -11    1    4    4    0    0 -0.13208958814E+02  0.25222160006E+01  0.58878037714E+01  0.14680068120E+02  0.51100000000E-03 0.  1.
         12    1    4    4    0    0 -0.57288545244E+00 -0.31538392735E+01  0.10419986979E+01  0.33705579941E+01  0.00000000000E+00 0. -1.
</event>
<event>
 8    1  0.6470419E-010  0.9118800E+02  0.7816164E-02  0.1184000E+00
        -11   -1    0    0    0    0  0.00000000000E+00  0.00000000000E+00  0.45593999997E+02  0.45594000000E+02  0.51100000000E-03 0. -1.
         11   -1    0    0    0    0 -0.00000000000E+00 -0.00000000000E+00 -0.45593999997E+02  0.45594000000E+02  0.51100000000E-03 0.  1.
         23    2    1    2    0    0  0.17763568394E-14  0.17763568394E-14 -0.71054273576E-14  0.91188000000E+02  0.91188000000E+02 0.  0.
    9900012    2    3    3    0    0  0.10074733095E+02  0.15713268236E+02 -0.39181836117E+02  0.47787270431E+02  0.19999997204E+02 0.  0.
         12    1    3    3    0    0 -0.10074733095E+02 -0.15713268236E+02  0.39181836117E+02  0.43400729569E+02  0.00000000000E+00 0. -1.
         11    1    4    4    0    0  0.26492264724E+01  0.86372455308E+01 -0.68266157446E+01  0.11323563664E+02  0.51100000000E-03 0. -1.
        -11    1    4    4    0    0  0.20146189184E+01  0.64663343736E+01 -0.29592753301E+02  0.30357918535E+02  0.51100000000E-03 0.  1.
         12    1    4    4    0    0  0.54108877044E+01  0.60968833129E+00 -0.27624670720E+01  0.61057882321E+01  0.00000000000E+00 0. -1.
</event>
<event>
 8    1  0.6046524E-010  0.9118800E+02  0.7816164E-02  0.1184000E+00
        -11   -1    0    0    0    0  0.00000000000E+00  0.00000000000E+00  0.45593999997E+02  0.45594000000E+02  0.51100000000E-03 0. -1.
         11   -1    0    0    0    0 -0.00000000000E+00 -0.00000000000E+00 -0.45593999997E+02  0.45594000000E+02  0.51100000000E-03 0.  1.
         23    2    1    2    0    0 -0.17763568394E-14 -0.17763568394E-14  0.71054273576E-14  0.91188000000E+02  0.91188000000E+02 0.  0.
    9900012    2    3    3    0    0 -0.12765752047E+02 -0.15653096161E+02  0.38414058037E+02  0.47787266139E+02  0.19999977634E+02 0.  0.
        -12    1    3    3    0    0  0.12765752047E+02  0.15653096161E+02 -0.38414058037E+02  0.43400733861E+02  0.00000000000E+00 0.  1.
         11    1    4    4    0    0 -0.15378746222E+01  0.29667867324E+01  0.18132479973E+01  0.38019403507E+01  0.51100000000E-03 0.  1.
        -11    1    4    4    0    0 -0.59598273168E+01 -0.66742727799E+01  0.24880726913E+02  0.26440802385E+02  0.51100000000E-03 0. -1.
        -12    1    4    4    0    0 -0.52680501083E+01 -0.11945610114E+02  0.11720083127E+02  0.17544523403E+02  0.00000000000E+00 0.  1.
</event>
<event>
 8    1  0.6046524E-010  0.9118800E+02  0.7816164E-02  0.1184000E+00
        -11   -1    0    0    0    0  0.00000000000E+00  0.00000000000E+00  0.45593999997E+02  0.45594000000E+02  0.51100000000E-03 0. -1.
         11   -1    0    0    0    0 -0.00000000000E+00 -0.00000000000E+00 -0.45593999997E+02  0.45594000000E+02  0.51100000000E-03 0.  1.
         23    2    1    2    0    0  0.44408920985E-15  0.00000000000E+00  0.00000000000E+00  0.91188000000E+02  0.91188000000E+02 0.  0.
    9900012    2    3    3    0    0  0.20954791748E+01 -0.30676696591E+02  0.30629604928E+02  0.47787269075E+02  0.19999991023E+02 0.  0.
        -12    1    3    3    0    0 -0.20954791748E+01  0.30676696591E+02 -0.30629604928E+02  0.43400730925E+02  0.00000000000E+00 0.  1.
         11    1    4    4    0    0 -0.28973280437E+01 -0.56874404027E+01  0.12015330693E+01  0.64950111705E+01  0.51100000000E-03 0. -1.
        -11    1    4    4    0    0  0.85050324585E+01 -0.99763094845E+01  0.99926400508E+01  0.16483785472E+02  0.51100000000E-03 0.  1.
         12    1    4    4    0    0 -0.35122252401E+01 -0.15012946704E+02  0.19435431808E+02  0.24808472433E+02  0.00000000000E+00 0. -1.
</event>
<event>
 8    1  0.6046524E-010  0.9118800E+02  0.7816164E-02  0.1184000E+00
        -11   -1    0    0    0    0  0.00000000000E+00  0.00000000000E+00  0.45593999997E+02  0.45594000000E+02  0.51100000000E-03 0. -1.
         11   -1    0    0    0    0 -0.00000000000E+00 -0.00000000000E+00 -0.45593999997E+02  0.45594000000E+02  0.51100000000E-03 0.  1.
         23    2    1    2    0    0  0.71054273576E-14  0.44408920985E-15  0.35527136788E-14  0.91188000000E+02  0.91188000000E+02 0.  0.
    9900012    2    3    3    0    0  0.37702025118E+02  0.30073548618E+01  0.21287001114E+02  0.47787270770E+02  0.19999998749E+02 0.  0.
        -12    1    3    3    0    0 -0.37702025118E+02 -0.30073548618E+01 -0.21287001114E+02  0.43400729230E+02  0.00000000000E+00 0.  1.
         11    1    4    4    0    0  0.74443649956E+01  0.37570930182E+01  0.28184733618E+01  0.88021651022E+01  0.51100000000E-03 0. -1.
        -11    1    4    4    0    0  0.11913412613E+02 -0.71142700497E+01  0.30900840886E+01  0.14215866430E+02  0.51100000000E-03 0.  1.
        -12    1    4    4    0    0  0.18344247510E+02  0.63645318933E+01  0.15378443663E+02  0.24769239238E+02  0.00000000000E+00 0.  1.
</event>
<event>
 8    1  0.6046524E-010  0.9118800E+02  0.7816164E-02  0.1184000E+00
        -11   -1    0    0    0    0  0.00000000000E+00  0.00000000000E+00  0.45593999997E+02  0.45594000000E+02  0.51100000000E-03 0. -1.
         11   -1    0    0    0    0 -0.00000000000E+00 -0.00000000000E+00 -0.45593999997E+02  0.45594000000E+02  0.51100000000E-03 0.  1.
         23    2    1    2    0    0  0.00000000000E+00  0.00000000000E+00  0.00000000000E+00  0.91188000000E+02  0.91188000000E+02 0.  0.
    9900012    2    3    3    0    0  0.38459652976E+02  0.13584112794E+02  0.14830733096E+02  0.47787266463E+02  0.19999979110E+02 0.  0.
        -12    1    3    3    0    0 -0.38459652976E+02 -0.13584112794E+02 -0.14830733096E+02  0.43400733537E+02  0.00000000000E+00 0.  1.
         11    1    4    4    0    0  0.11797742129E+02  0.87407525487E+01  0.68801113174E+01  0.16214913089E+02  0.51100000000E-03 0. -1.
        -11    1    4    4    0    0 -0.34087926240E+00 -0.73559847810E+00 -0.20792345758E+01  0.22317079725E+01  0.51100000000E-03 0.  1.
         12    1    4    4    0    0  0.27002790109E+02  0.55789587232E+01  0.10029856355E+02  0.29340645402E+02  0.00000000000E+00 0. -1.
</event>
<event>
 8    1  0.6046524E-010  0.9118800E+02  0.7816164E-02  0.1184000E+00
        -11   -1    0    0    0    0  0.00000000000E+00  0.00000000000E+00  0.45593999997E+02  0.45594000000E+02  0.51100000000E-03 0. -1.
         11   -1    0    0    0    0 -0.00000000000E+00 -0.00000000000E+00 -0.45593999997E+02  0.45594000000E+02  0.51100000000E-03 0.  1.
         23    2    1    2    0    0  0.88817841970E-15  0.35527136788E-14 -0.35527136788E-14  0.91188000000E+02  0.91188000000E+02 0.  0.
    9900012    2    3    3    0    0 -0.58359656240E+01  0.30724954386E+02 -0.30092223749E+02  0.47787271355E+02  0.20000001415E+02 0.  0.
         12    1    3    3    0    0  0.58359656240E+01 -0.30724954386E+02  0.30092223749E+02  0.43400728645E+02  0.00000000000E+00 0. -1.
         11    1    4    4    0    0 -0.38532825918E+01  0.29357158209E+02 -0.20978288227E+02  0.36287451027E+02  0.51100000000E-03 0.  1.
        -11    1    4    4    0    0 -0.16170276075E+01 -0.40448840036E+00  0.48168686831E+00  0.17350537887E+01  0.51100000000E-03 0. -1.
        -12    1    4    4    0    0 -0.36565542472E+00  0.17722845775E+01 -0.95956223904E+01  0.97647665396E+01  0.00000000000E+00 0.  1.
</event>
<event>
 8    1  0.6046524E-010  0.9118800E+02  0.7816164E-02  0.1184000E+00
        -11   -1    0    0    0    0  0.00000000000E+00  0.00000000000E+00  0.45593999997E+02  0.45594000000E+02  0.51100000000E-03 0. -1.
         11   -1    0    0    0    0 -0.00000000000E+00 -0.00000000000E+00 -0.45593999997E+02  0.45594000000E+02  0.51100000000E-03 0.  1.
         23    2    1    2    0    0  0.00000000000E+00  0.35527136788E-14  0.00000000000E+00  0.91188000000E+02  0.91188000000E+02 0.  0.
    9900012    2    3    3    0    0  0.43991235556E+01 -0.16429798722E+02 -0.39929102596E+02  0.47787264888E+02  0.19999971931E+02 0.  0.
         12    1    3    3    0    0 -0.43991235556E+01  0.16429798722E+02  0.39929102596E+02  0.43400735112E+02  0.00000000000E+00 0. -1.
         11    1    4    4    0    0 -0.21199954468E+01 -0.17497647106E+01 -0.10091950480E+00  0.27506803239E+01  0.51100000000E-03 0. -1.
        -11    1    4    4    0    0  0.41741685219E+01 -0.16234965534E+02 -0.26074281881E+02  0.30997838063E+02  0.51100000000E-03 0.  1.
         12    1    4    4    0    0  0.23449504806E+01  0.15549315229E+01 -0.13753901211E+02  0.14038746501E+02  0.00000000000E+00 0. -1.
</event>
<event>
 8    1  0.6046524E-010  0.9118800E+02  0.7816164E-02  0.1184000E+00
        -11   -1    0    0    0    0  0.00000000000E+00  0.00000000000E+00  0.45593999997E+02  0.45594000000E+02  0.51100000000E-03 0. -1.
         11   -1    0    0    0    0 -0.00000000000E+00 -0.00000000000E+00 -0.45593999997E+02  0.45594000000E+02  0.51100000000E-03 0.  1.
         23    2    1    2    0    0  0.11102230246E-14  0.00000000000E+00  0.00000000000E+00  0.91188000000E+02  0.91188000000E+02 0.  0.
    9900012    2    3    3    0    0  0.18602080301E+01 -0.11007800498E+02 -0.41940325512E+02  0.47787274779E+02  0.20000017026E+02 0.  0.
         12    1    3    3    0    0 -0.18602080301E+01  0.11007800498E+02  0.41940325512E+02  0.43400725221E+02  0.00000000000E+00 0. -1.
         11    1    4    4    0    0  0.59305544773E+01 -0.88897536638E+00 -0.10017304903E+02  0.11675108196E+02  0.51100000000E-03 0. -1.
        -11    1    4    4    0    0 -0.78305781748E-01 -0.11451468794E+02 -0.16221985102E+02  0.19856864562E+02  0.51100000000E-03 0.  1.
        -12    1    4    4    0    0 -0.39920406654E+01  0.13326436615E+01 -0.15701035506E+02  0.16255302020E+02  0.00000000000E+00 0.  1.
</event>
<event>
 8    1  0.6046524E-010  0.9118800E+02  0.7816164E-02  0.1184000E+00
        -11   -1    0    0    0    0  0.00000000000E+00  0.00000000000E+00  0.45593999997E+02  0.45594000000E+02  0.51100000000E-03 0. -1.
         11   -1    0    0    0    0 -0.00000000000E+00 -0.00000000000E+00 -0.45593999997E+02  0.45594000000E+02  0.51100000000E-03 0.  1.
         23    2    1    2    0    0  0.00000000000E+00  0.88817841970E-15  0.00000000000E+00  0.91188000000E+02  0.91188000000E+02 0.  0.
    9900012    2    3    3    0    0 -0.33819869439E+02  0.27836386396E+01  0.27057179560E+02  0.47787272141E+02  0.20000005002E+02 0.  0.
        -12    1    3    3    0    0  0.33819869439E+02 -0.27836386396E+01 -0.27057179560E+02  0.43400727859E+02  0.00000000000E+00 0.  1.
         11    1    4    4    0    0 -0.14138952166E+02 -0.26172091052E-01  0.96418740420E+01  0.17113631661E+02  0.51100000000E-03 0. -1.
        -11    1    4    4    0    0 -0.48762438458E+01  0.62386697723E+01  0.12320842409E+02  0.14645883807E+02  0.51100000000E-03 0.  1.
        -12    1    4    4    0    0 -0.14804673427E+02 -0.34288590417E+01  0.50944631091E+01  0.16027756674E+02  0.00000000000E+00 0.  1.
</event>
<event>
 8    1  0.6046524E-010  0.9118800E+02  0.7816164E-02  0.1184000E+00
        -11   -1    0    0    0    0  0.00000000000E+00  0.00000000000E+00  0.45593999997E+02  0.45594000000E+02  0.51100000000E-03 0. -1.
         11   -1    0    0    0    0 -0.00000000000E+00 -0.00000000000E+00 -0.45593999997E+02  0.45594000000E+02  0.51100000000E-03 0.  1.
         23    2    1    2    0    0 -0.44408920985E-15  0.00000000000E+00 -0.35527136788E-14  0.91188000000E+02  0.91188000000E+02 0.  0.
    9900012    2    3    3    0    0  0.19992042054E+01  0.38898621030E+02 -0.19144811414E+02  0.47787270288E+02  0.19999996549E+02 0.  0.
         12    1    3    3    0    0 -0.19992042054E+01 -0.38898621030E+02  0.19144811414E+02  0.43400729712E+02  0.00000000000E+00 0. -1.
         11    1    4    4    0    0  0.50755874453E+01  0.21864250706E+01 -0.24477667036E+01  0.60443034835E+01  0.51100000000E-03 0. -1.
        -11    1    4    4    0    0 -0.42771311160E+01  0.36677254280E+02 -0.15499759701E+02  0.40046939747E+02  0.51100000000E-03 0.  1.
        -12    1    4    4    0    0  0.12007478762E+01  0.34941679739E-01 -0.11972850095E+01  0.16960270567E+01  0.00000000000E+00 0.  1.
</event>
<event>
 8    1  0.6046524E-010  0.9118800E+02  0.7816164E-02  0.1184000E+00
        -11   -1    0    0    0    0  0.00000000000E+00  0.00000000000E+00  0.45593999997E+02  0.45594000000E+02  0.51100000000E-03 0. -1.
         11   -1    0    0    0    0 -0.00000000000E+00 -0.00000000000E+00 -0.45593999997E+02  0.45594000000E+02  0.51100000000E-03 0.  1.
         23    2    1    2    0    0  0.35527136788E-14 -0.44408920985E-15  0.00000000000E+00  0.91188000000E+02  0.91188000000E+02 0.  0.
    9900012    2    3    3    0    0 -0.21721047084E+02 -0.21254215381E+01 -0.37514024199E+02  0.47787270573E+02  0.19999997852E+02 0.  0.
         12    1    3    3    0    0  0.21721047084E+02  0.21254215381E+01  0.37514024199E+02  0.43400729427E+02  0.00000000000E+00 0. -1.
         11    1    4    4    0    0 -0.92961041904E+01 -0.70379193089E+01 -0.14385352619E+02  0.18517241467E+02  0.51100000000E-03 0. -1.
        -11    1    4    4    0    0 -0.76477784609E+01 -0.26794859673E+01 -0.65476631479E+01  0.10418255775E+02  0.51100000000E-03 0.  1.
        -12    1    4    4    0    0 -0.47771644327E+01  0.75919837381E+01 -0.16581008432E+02  0.18851773331E+02  0.00000000000E+00 0.  1.
</event>
<event>
 8    1  0.6046524E-010  0.9118800E+02  0.7816164E-02  0.1184000E+00
        -11   -1    0    0    0    0  0.00000000000E+00  0.00000000000E+00  0.45593999997E+02  0.45594000000E+02  0.51100000000E-03 0. -1.
         11   -1    0    0    0    0 -0.00000000000E+00 -0.00000000000E+00 -0.45593999997E+02  0.45594000000E+02  0.51100000000E-03 0.  1.
         23    2    1    2    0    0  0.00000000000E+00  0.00000000000E+00  0.00000000000E+00  0.91188000000E+02  0.91188000000E+02 0.  0.
    9900012    2    3    3    0    0 -0.25447755382E+01  0.39790786340E+01  0.43142956971E+02  0.47787266302E+02  0.19999978378E+02 0.  0.
        -12    1    3    3    0    0  0.25447755382E+01 -0.39790786340E+01 -0.43142956971E+02  0.43400733698E+02  0.00000000000E+00 0.  1.
         11    1    4    4    0    0 -0.31218076758E+01 -0.26009117449E+01  0.14980768252E+02  0.15522043768E+02  0.51100000000E-03 0. -1.
        -11    1    4    4    0    0 -0.29259889758E+01  0.49084469387E+01  0.23761953340E+01  0.61887452171E+01  0.51100000000E-03 0.  1.
         12    1    4    4    0    0  0.35030211134E+01  0.16715434402E+01  0.25785993385E+02  0.26076477317E+02  0.00000000000E+00 0. -1.
</event>
<event>
 8    1  0.6046524E-010  0.9118800E+02  0.7816164E-02  0.1184000E+00
        -11   -1    0    0    0    0  0.00000000000E+00  0.00000000000E+00  0.45593999997E+02  0.45594000000E+02  0.51100000000E-03 0. -1.
         11   -1    0    0    0    0 -0.00000000000E+00 -0.00000000000E+00 -0.45593999997E+02  0.45594000000E+02  0.51100000000E-03 0.  1.
         23    2    1    2    0    0  0.00000000000E+00  0.00000000000E+00  0.00000000000E+00  0.91188000000E+02  0.91188000000E+02 0.  0.
    9900012    2    3    3    0    0 -0.31110744737E+01  0.36676467354E+01  0.43133433481E+02  0.47787268430E+02  0.19999988079E+02 0.  0.
        -12    1    3    3    0    0  0.31110744737E+01 -0.36676467354E+01 -0.43133433481E+02  0.43400731570E+02  0.00000000000E+00 0.  1.
         11    1    4    4    0    0  0.33049945434E+01 -0.45930917420E+01  0.79499134573E+01  0.97581045763E+01  0.51100000000E-03 0. -1.
        -11    1    4    4    0    0 -0.28177098595E+00  0.64794928496E+01  0.90986431761E+01  0.11173563907E+02  0.51100000000E-03 0.  1.
         12    1    4    4    0    0 -0.61342980311E+01  0.17812456277E+01  0.26084876848E+02  0.26855599946E+02  0.00000000000E+00 0. -1.
</event>
<event>
 8    1  0.7618016E-010  0.9118800E+02  0.7816164E-02  0.1184000E+00
        -11   -1    0    0    0    0  0.00000000000E+00  0.00000000000E+00  0.45593999997E+02  0.45594000000E+02  0.51100000000E-03 0. -1.
         11   -1    0    0    0    0 -0.00000000000E+00 -0.00000000000E+00 -0.45593999997E+02  0.45594000000E+02  0.51100000000E-03 0.  1.
         23    2    1    2    0    0  0.35527136788E-14  0.17763568394E-14  0.00000000000E+00  0.91188000000E+02  0.91188000000E+02 0.  0.
    9900012    2    3    3    0    0  0.13388549950E+02 -0.13654878532E+02 -0.38960419279E+02  0.47787271344E+02  0.20000001366E+02 0.  0.
         12    1    3    3    0    0 -0.13388549950E+02  0.13654878532E+02  0.38960419279E+02  0.43400728656E+02  0.00000000000E+00 0. -1.
         11    1    4    4    0    0 -0.27614999310E+00 -0.38058739097E+01 -0.15846108795E+02  0.16299082773E+02  0.51100000000E-03 0. -1.
        -11    1    4    4    0    0  0.14417189264E+02 -0.84927964948E+01 -0.24322394885E+02  0.29522226064E+02  0.51100000000E-03 0.  1.
         12    1    4    4    0    0 -0.75248932041E+00 -0.13562081273E+01  0.12080844007E+01  0.19659625076E+01  0.00000000000E+00 0. -1.
</event>
<event>
 8    1  0.6046524E-010  0.9118800E+02  0.7816164E-02  0.1184000E+00
        -11   -1    0    0    0    0  0.00000000000E+00  0.00000000000E+00  0.45593999997E+02  0.45594000000E+02  0.51100000000E-03 0. -1.
         11   -1    0    0    0    0 -0.00000000000E+00 -0.00000000000E+00 -0.45593999997E+02  0.45594000000E+02  0.51100000000E-03 0.  1.
         23    2    1    2    0    0  0.22204460493E-15  0.00000000000E+00  0.00000000000E+00  0.91188000000E+02  0.91188000000E+02 0.  0.
    9900012    2    3    3    0    0 -0.15461752438E+01  0.25461434994E+02  0.35113357434E+02  0.47787271894E+02  0.20000003874E+02 0.  0.
        -12    1    3    3    0    0  0.15461752438E+01 -0.25461434994E+02 -0.35113357434E+02  0.43400728106E+02  0.00000000000E+00 0.  1.
         11    1    4    4    0    0  0.13231848147E+01  0.55028894159E+01  0.20816964231E+01  0.60304286943E+01  0.51100000000E-03 0. -1.
        -11    1    4    4    0    0 -0.47844738079E+01  0.67390807410E+00  0.13074079894E+02  0.13938325116E+02  0.51100000000E-03 0.  1.
        -12    1    4    4    0    0  0.19151137494E+01  0.19284637504E+02  0.19957581117E+02  0.27818518084E+02  0.00000000000E+00 0.  1.
</event>
<event>
 8    1  0.6046524E-010  0.9118800E+02  0.7816164E-02  0.1184000E+00
        -11   -1    0    0    0    0  0.00000000000E+00  0.00000000000E+00  0.45593999997E+02  0.45594000000E+02  0.51100000000E-03 0. -1.
         11   -1    0    0    0    0 -0.00000000000E+00 -0.00000000000E+00 -0.45593999997E+02  0.45594000000E+02  0.51100000000E-03 0.  1.
         23    2    1    2    0    0  0.88817841970E-15  0.00000000000E+00  0.00000000000E+00  0.91188000000E+02  0.91188000000E+02 0.  0.
    9900012    2    3    3    0    0  0.71081617788E+01  0.65859721757E+01 -0.42305103417E+02  0.47787276867E+02  0.20000026547E+02 0.  0.
         12    1    3    3    0    0 -0.71081617788E+01 -0.65859721757E+01  0.42305103417E+02  0.43400723133E+02  0.00000000000E+00 0. -1.
         11    1    4    4    0    0  0.53288975824E+01  0.60836177755E+01 -0.11161920067E+02  0.13783904183E+02  0.51100000000E-03 0. -1.
        -11    1    4    4    0    0 -0.57510037857E+01  0.38211624697E+00 -0.97857995992E+01  0.11357021239E+02  0.51100000000E-03 0.  1.
         12    1    4    4    0    0  0.75302679821E+01  0.12023815320E+00 -0.21357383751E+02  0.22646351445E+02  0.00000000000E+00 0. -1.
</event>
<event>
 8    1  0.6046524E-010  0.9118800E+02  0.7816164E-02  0.1184000E+00
        -11   -1    0    0    0    0  0.00000000000E+00  0.00000000000E+00  0.45593999997E+02  0.45594000000E+02  0.51100000000E-03 0. -1.
         11   -1    0    0    0    0 -0.00000000000E+00 -0.00000000000E+00 -0.45593999997E+02  0.45594000000E+02  0.51100000000E-03 0.  1.
         23    2    1    2    0    0 -0.13322676296E-14  0.00000000000E+00  0.00000000000E+00  0.91188000000E+02  0.91188000000E+02 0.  0.
    9900012    2    3    3    0    0 -0.51179994442E+00  0.83825950485E+01  0.42580435008E+02  0.47787270923E+02  0.19999999448E+02 0.  0.
        -12    1    3    3    0    0  0.51179994442E+00 -0.83825950485E+01 -0.42580435008E+02  0.43400729077E+02  0.00000000000E+00 0.  1.
         11    1    4    4    0    0  0.50448146025E+01 -0.47902487221E+00  0.85373212805E+01  0.99280146107E+01  0.51100000000E-03 0. -1.
        -11    1    4    4    0    0  0.41478685745E+01  0.19417792076E+01  0.79979771430E+01  0.92164504471E+01  0.51100000000E-03 0.  1.
         12    1    4    4    0    0 -0.97044831215E+01  0.69198407131E+01  0.26045136584E+02  0.28642805865E+02  0.00000000000E+00 0. -1.
</event>
<event>
 8    1  0.6831708E-010  0.9118800E+02  0.7816164E-02  0.1184000E+00
        -11   -1    0    0    0    0  0.00000000000E+00  0.00000000000E+00  0.45593999997E+02  0.45594000000E+02  0.51100000000E-03 0. -1.
         11   -1    0    0    0    0 -0.00000000000E+00 -0.00000000000E+00 -0.45593999997E+02  0.45594000000E+02  0.51100000000E-03 0.  1.
         23    2    1    2    0    0 -0.71054273576E-14 -0.35527136788E-14  0.00000000000E+00  0.91188000000E+02  0.91188000000E+02 0.  0.
    9900012    2    3    3    0    0  0.27778428943E+02 -0.18397167746E+02 -0.27812323497E+02  0.47787283025E+02  0.20000054625E+02 0.  0.
         12    1    3    3    0    0 -0.27778428943E+02  0.18397167746E+02  0.27812323497E+02  0.43400716975E+02  0.00000000000E+00 0. -1.
         11    1    4    4    0    0  0.59181491461E+01 -0.99121001140E+01 -0.57166064572E+01  0.12882305990E+02  0.51100000000E-03 0. -1.
        -11    1    4    4    0    0  0.16504996299E+02 -0.23363465156E+01 -0.77035375180E+01  0.18363493906E+02  0.51100000000E-03 0.  1.
         12    1    4    4    0    0  0.53552834977E+01 -0.61487211166E+01 -0.14392179522E+02  0.16541483129E+02  0.00000000000E+00 0. -1.
</event>
<event>
 8    1  0.6046524E-010  0.9118800E+02  0.7816164E-02  0.1184000E+00
        -11   -1    0    0    0    0  0.00000000000E+00  0.00000000000E+00  0.45593999997E+02  0.45594000000E+02  0.51100000000E-03 0. -1.
         11   -1    0    0    0    0 -0.00000000000E+00 -0.00000000000E+00 -0.45593999997E+02  0.45594000000E+02  0.51100000000E-03 0.  1.
         23    2    1    2    0    0 -0.88817841970E-15  0.17763568394E-14 -0.71054273576E-14  0.91188000000E+02  0.91188000000E+02 0.  0.
    9900012    2    3    3    0    0  0.62065555137E+01 -0.13266271359E+02  0.40854722807E+02  0.47787266564E+02  0.19999979574E+02 0.  0.
        -12    1    3    3    0    0 -0.62065555137E+01  0.13266271359E+02 -0.40854722807E+02  0.43400733436E+02  0.00000000000E+00 0.  1.
         11    1    4    4    0    0  0.19302466897E+01 -0.19049909731E+01  0.22734292756E+02  0.22895477943E+02  0.51100000000E-03 0. -1.
        -11    1    4    4    0    0  0.35549097097E+01  0.65649377055E+00  0.64730010836E+00  0.36725147795E+01  0.51100000000E-03 0.  1.
         12    1    4    4    0    0  0.72139911436E+00 -0.12017774157E+02  0.17473129943E+02  0.21219273841E+02  0.00000000000E+00 0. -1.
</event>
<event>
 8    1  0.6046524E-010  0.9118800E+02  0.7816164E-02  0.1184000E+00
        -11   -1    0    0    0    0  0.00000000000E+00  0.00000000000E+00  0.45593999997E+02  0.45594000000E+02  0.51100000000E-03 0. -1.
         11   -1    0    0    0    0 -0.00000000000E+00 -0.00000000000E+00 -0.45593999997E+02  0.45594000000E+02  0.51100000000E-03 0.  1.
         23    2    1    2    0    0  0.00000000000E+00  0.00000000000E+00  0.71054273576E-14  0.91188000000E+02  0.91188000000E+02 0.  0.
    9900012    2    3    3    0    0 -0.76613732705E+01  0.11529252341E+02  0.41133923047E+02  0.47787309623E+02  0.20000175893E+02 0.  0.
        -12    1    3    3    0    0  0.76613732705E+01 -0.11529252341E+02 -0.41133923047E+02  0.43400690377E+02  0.00000000000E+00 0.  1.
         11    1    4    4    0    0 -0.23273632826E+01 -0.37028822099E+01  0.10491082382E+02  0.11366211608E+02  0.51100000000E-03 0. -1.
        -11    1    4    4    0    0  0.31747934510E+01  0.56905743086E+01  0.71422757462E+01  0.96681979973E+01  0.51100000000E-03 0.  1.
        -12    1    4    4    0    0 -0.85088034389E+01  0.95415602427E+01  0.23500564919E+02  0.26752900017E+02  0.00000000000E+00 0.  1.
</event>
<event>
 8    1  0.6046524E-010  0.9118800E+02  0.7816164E-02  0.1184000E+00
        -11   -1    0    0    0    0  0.00000000000E+00  0.00000000000E+00  0.45593999997E+02  0.45594000000E+02  0.51100000000E-03 0. -1.
         11   -1    0    0    0    0 -0.00000000000E+00 -0.00000000000E+00 -0.45593999997E+02  0.45594000000E+02  0.51100000000E-03 0.  1.
         23    2    1    2    0    0  0.17763568394E-14  0.17763568394E-14  0.00000000000E+00  0.91188000000E+02  0.91188000000E+02 0.  0.
    9900012    2    3    3    0    0 -0.14123902207E+02  0.12366153056E+02  0.39130770771E+02  0.47787267562E+02  0.19999984124E+02 0.  0.
        -12    1    3    3    0    0  0.14123902207E+02 -0.12366153056E+02 -0.39130770771E+02  0.43400732438E+02  0.00000000000E+00 0.  1.
         11    1    4    4    0    0 -0.12903939609E+02  0.11388171576E+02  0.14503921453E+02  0.22507017729E+02  0.51100000000E-03 0. -1.
        -11    1    4    4    0    0  0.78946071143E+00  0.28432518425E+01  0.11762928840E+02  0.12127399738E+02  0.51100000000E-03 0.  1.
        -12    1    4    4    0    0 -0.20094233100E+01 -0.18652703627E+01  0.12863920478E+02  0.13152850095E+02  0.00000000000E+00 0.  1.
</event>
<event>
 8    1  0.6046524E-010  0.9118800E+02  0.7816164E-02  0.1184000E+00
        -11   -1    0    0    0    0  0.00000000000E+00  0.00000000000E+00  0.45593999997E+02  0.45594000000E+02  0.51100000000E-03 0. -1.
         11   -1    0    0    0    0 -0.00000000000E+00 -0.00000000000E+00 -0.45593999997E+02  0.45594000000E+02  0.51100000000E-03 0.  1.
         23    2    1    2    0    0  0.00000000000E+00  0.00000000000E+00  0.00000000000E+00  0.91188000000E+02  0.91188000000E+02 0.  0.
    9900012    2    3    3    0    0 -0.29866418811E+02  0.31357084403E+01  0.31333500284E+02  0.47787264061E+02  0.19999968159E+02 0.  0.
        -12    1    3    3    0    0  0.29866418811E+02 -0.31357084403E+01 -0.31333500284E+02  0.43400735939E+02  0.00000000000E+00 0.  1.
         11    1    4    4    0    0 -0.80039533548E+01  0.38345755257E+01  0.13313438343E+02  0.16000464979E+02  0.51100000000E-03 0. -1.
        -11    1    4    4    0    0 -0.23191665027E+02 -0.31414326714E+01  0.16198825068E+02  0.28462674853E+02  0.51100000000E-03 0.  1.
         12    1    4    4    0    0  0.13291995710E+01  0.24425655859E+01  0.18212368735E+01  0.33241242291E+01  0.00000000000E+00 0. -1.
</event>
<event>
 8    1  0.6046524E-010  0.9118800E+02  0.7816164E-02  0.1184000E+00
        -11   -1    0    0    0    0  0.00000000000E+00  0.00000000000E+00  0.45593999997E+02  0.45594000000E+02  0.51100000000E-03 0. -1.
         11   -1    0    0    0    0 -0.00000000000E+00 -0.00000000000E+00 -0.45593999997E+02  0.45594000000E+02  0.51100000000E-03 0.  1.
         23    2    1    2    0    0  0.44408920985E-15  0.00000000000E+00  0.00000000000E+00  0.91188000000E+02  0.91188000000E+02 0.  0.
    9900012    2    3    3    0    0  0.30366717376E+01 -0.32986466922E+02  0.28040940677E+02  0.47787277318E+02  0.20000028603E+02 0.  0.
        -12    1    3    3    0    0 -0.30366717376E+01  0.32986466922E+02 -0.28040940677E+02  0.43400722682E+02  0.00000000000E+00 0.  1.
         11    1    4    4    0    0  0.61376172468E+01 -0.17345255837E+02  0.11983304483E+02  0.21957409504E+02  0.51100000000E-03 0. -1.
        -11    1    4    4    0    0  0.80446576363E+00 -0.16103342704E+02  0.14180816493E+02  0.21472316319E+02  0.51100000000E-03 0.  1.
        -12    1    4    4    0    0 -0.39054112728E+01  0.46213161910E+00  0.18768197013E+01  0.43575514953E+01  0.00000000000E+00 0.  1.
</event>
<event>
 8    1  0.6046524E-010  0.9118800E+02  0.7816164E-02  0.1184000E+00
        -11   -1    0    0    0    0  0.00000000000E+00  0.00000000000E+00  0.45593999997E+02  0.45594000000E+02  0.51100000000E-03 0. -1.
         11   -1    0    0    0    0 -0.00000000000E+00 -0.00000000000E+00 -0.45593999997E+02  0.45594000000E+02  0.51100000000E-03 0.  1.
         23    2    1    2    0    0  0.00000000000E+00 -0.35527136788E-14  0.00000000000E+00  0.91188000000E+02  0.91188000000E+02 0.  0.
    9900012    2    3    3    0    0  0.21544784810E+02 -0.16761445173E+02  0.33741686944E+02  0.47787248455E+02  0.19999897007E+02 0.  0.
        -12    1    3    3    0    0 -0.21544784810E+02  0.16761445173E+02 -0.33741686944E+02  0.43400751545E+02  0.00000000000E+00 0.  1.
         11    1    4    4    0    0  0.70273533232E+01 -0.12759984143E+01  0.13538025817E+02  0.15306534878E+02  0.51100000000E-03 0.  1.
        -11    1    4    4    0    0  0.12839569970E+01 -0.10969713211E+02  0.11821187069E+02  0.16177874319E+02  0.51100000000E-03 0. -1.
        -12    1    4    4    0    0  0.13233474490E+02 -0.45157335480E+01  0.83824740580E+01  0.16302839258E+02  0.00000000000E+00 0.  1.
</event>
<event>
 8    1  0.6046524E-010  0.9118800E+02  0.7816164E-02  0.1184000E+00
        -11   -1    0    0    0    0  0.00000000000E+00  0.00000000000E+00  0.45593999997E+02  0.45594000000E+02  0.51100000000E-03 0. -1.
         11   -1    0    0    0    0 -0.00000000000E+00 -0.00000000000E+00 -0.45593999997E+02  0.45594000000E+02  0.51100000000E-03 0.  1.
         23    2    1    2    0    0  0.00000000000E+00  0.00000000000E+00  0.00000000000E+00  0.91188000000E+02  0.91188000000E+02 0.  0.
    9900012    2    3    3    0    0  0.19451331492E+02  0.21590251621E+02  0.32235538419E+02  0.47787271907E+02  0.20000003932E+02 0.  0.
        -12    1    3    3    0    0 -0.19451331492E+02 -0.21590251621E+02 -0.32235538419E+02  0.43400728093E+02  0.00000000000E+00 0.  1.
         11    1    4    4    0    0  0.79485394197E+01  0.14172978068E+02  0.11403958413E+02  0.19852023926E+02  0.51100000000E-03 0. -1.
        -11    1    4    4    0    0  0.10436628772E+02  0.22889000196E+01  0.61071654072E+01  0.12306898594E+02  0.51100000000E-03 0.  1.
         12    1    4    4    0    0  0.10661632999E+01  0.51283735337E+01  0.14724414599E+02  0.15628349387E+02  0.00000000000E+00 0. -1.
</event>
<event>
 8    1  0.6046524E-010  0.9118800E+02  0.7816164E-02  0.1184000E+00
        -11   -1    0    0    0    0  0.00000000000E+00  0.00000000000E+00  0.45593999997E+02  0.45594000000E+02  0.51100000000E-03 0. -1.
         11   -1    0    0    0    0 -0.00000000000E+00 -0.00000000000E+00 -0.45593999997E+02  0.45594000000E+02  0.51100000000E-03 0.  1.
         23    2    1    2    0    0  0.17763568394E-14  0.00000000000E+00  0.00000000000E+00  0.91188000000E+02  0.91188000000E+02 0.  0.
    9900012    2    3    3    0    0 -0.15438435979E+02  0.75665912907E+01 -0.39850031097E+02  0.47787267429E+02  0.19999983515E+02 0.  0.
         12    1    3    3    0    0  0.15438435979E+02 -0.75665912907E+01  0.39850031097E+02  0.43400732571E+02  0.00000000000E+00 0. -1.
         11    1    4    4    0    0 -0.92005880788E+01 -0.34593763220E+01 -0.84395946487E+01  0.12955495499E+02  0.51100000000E-03 0. -1.
        -11    1    4    4    0    0 -0.12823366457E+01  0.53539022001E+01 -0.52450185741E+01  0.76038724440E+01  0.51100000000E-03 0.  1.
         12    1    4    4    0    0 -0.49555112548E+01  0.56720654127E+01 -0.26165417875E+02  0.27227899486E+02  0.00000000000E+00 0. -1.
</event>
<event>
 8    1  0.6046524E-010  0.9118800E+02  0.7816164E-02  0.1184000E+00
        -11   -1    0    0    0    0  0.00000000000E+00  0.00000000000E+00  0.45593999997E+02  0.45594000000E+02  0.51100000000E-03 0. -1.
         11   -1    0    0    0    0 -0.00000000000E+00 -0.00000000000E+00 -0.45593999997E+02  0.45594000000E+02  0.51100000000E-03 0.  1.
         23    2    1    2    0    0  0.00000000000E+00  0.00000000000E+00  0.00000000000E+00  0.91188000000E+02  0.91188000000E+02 0.  0.
    9900012    2    3    3    0    0 -0.15838149405E+02  0.31617193241E+02 -0.25162061477E+02  0.47787271633E+02  0.20000002681E+02 0.  0.
         12    1    3    3    0    0  0.15838149405E+02 -0.31617193241E+02  0.25162061477E+02  0.43400728367E+02  0.00000000000E+00 0. -1.
         11    1    4    4    0    0  0.86335433850E+00  0.44367893200E+01  0.26734851277E+01  0.52514762851E+01  0.51100000000E-03 0. -1.
        -11    1    4    4    0    0 -0.46140772829E+01  0.85755285134E+01 -0.10955114890E+02  0.14657555764E+02  0.51100000000E-03 0.  1.
         12    1    4    4    0    0 -0.12087426461E+02  0.18604875408E+02 -0.16880431715E+02  0.27878239584E+02  0.00000000000E+00 0. -1.
</event>
<event>
 8    1  0.6046524E-010  0.9118800E+02  0.7816164E-02  0.1184000E+00
        -11   -1    0    0    0    0  0.00000000000E+00  0.00000000000E+00  0.45593999997E+02  0.45594000000E+02  0.51100000000E-03 0. -1.
         11   -1    0    0    0    0 -0.00000000000E+00 -0.00000000000E+00 -0.45593999997E+02  0.45594000000E+02  0.51100000000E-03 0.  1.
         23    2    1    2    0    0  0.35527136788E-14  0.00000000000E+00  0.35527136788E-14  0.91188000000E+02  0.91188000000E+02 0.  0.
    9900012    2    3    3    0    0 -0.26263896163E+02 -0.29735141455E+02  0.17596904055E+02  0.47787286742E+02  0.20000071571E+02 0.  0.
        -12    1    3    3    0    0  0.26263896163E+02  0.29735141455E+02 -0.17596904055E+02  0.43400713258E+02  0.00000000000E+00 0.  1.
         11    1    4    4    0    0 -0.12341365292E+02 -0.69650005156E+01  0.51541660560E+01  0.15079322181E+02  0.51100000000E-03 0. -1.
        -11    1    4    4    0    0 -0.21482992874E+01  0.19100510640E+01  0.77070364677E+00  0.29761500748E+01  0.51100000000E-03 0.  1.
         12    1    4    4    0    0 -0.11774231583E+02 -0.24680192003E+02  0.11672034352E+02  0.29731814486E+02  0.00000000000E+00 0. -1.
</event>
<event>
 8    1  0.6046524E-010  0.9118800E+02  0.7816164E-02  0.1184000E+00
        -11   -1    0    0    0    0  0.00000000000E+00  0.00000000000E+00  0.45593999997E+02  0.45594000000E+02  0.51100000000E-03 0. -1.
         11   -1    0    0    0    0 -0.00000000000E+00 -0.00000000000E+00 -0.45593999997E+02  0.45594000000E+02  0.51100000000E-03 0.  1.
         23    2    1    2    0    0  0.17763568394E-14  0.00000000000E+00  0.00000000000E+00  0.91188000000E+02  0.91188000000E+02 0.  0.
    9900012    2    3    3    0    0  0.13461357056E+02 -0.10380970513E+02  0.39933066582E+02  0.47787280084E+02  0.20000041214E+02 0.  0.
        -12    1    3    3    0    0 -0.13461357056E+02  0.10380970513E+02 -0.39933066582E+02  0.43400719916E+02  0.00000000000E+00 0.  1.
         11    1    4    4    0    0 -0.11388979636E+00  0.76714322374E+00 -0.10693402380E+01  0.13209725270E+01  0.51100000000E-03 0. -1.
        -11    1    4    4    0    0  0.81099852876E+01 -0.16427361093E+01  0.73323428377E+01  0.11055934833E+02  0.51100000000E-03 0.  1.
         12    1    4    4    0    0  0.54652615652E+01 -0.95053776274E+01  0.33670063983E+02  0.35410372723E+02  0.00000000000E+00 0. -1.
</event>
<event>
 8    1  0.6046524E-010  0.9118800E+02  0.7816164E-02  0.1184000E+00
        -11   -1    0    0    0    0  0.00000000000E+00  0.00000000000E+00  0.45593999997E+02  0.45594000000E+02  0.51100000000E-03 0. -1.
         11   -1    0    0    0    0 -0.00000000000E+00 -0.00000000000E+00 -0.45593999997E+02  0.45594000000E+02  0.51100000000E-03 0.  1.
         23    2    1    2    0    0  0.88817841970E-15 -0.17763568394E-14  0.00000000000E+00  0.91188000000E+02  0.91188000000E+02 0.  0.
    9900012    2    3    3    0    0 -0.61099705706E+01 -0.13740161500E+02  0.40712400955E+02  0.47787269938E+02  0.19999994955E+02 0.  0.
        -12    1    3    3    0    0  0.61099705706E+01  0.13740161500E+02 -0.40712400955E+02  0.43400730062E+02  0.00000000000E+00 0.  1.
         11    1    4    4    0    0 -0.84976724662E+01 -0.14079165628E+02  0.37555657892E+02  0.40998302185E+02  0.51100000000E-03 0. -1.
        -11    1    4    4    0    0  0.54406627243E+00 -0.22767757353E+01  0.68832111339E-01  0.23418911115E+01  0.51100000000E-03 0.  1.
         12    1    4    4    0    0  0.18436356231E+01  0.26157798635E+01  0.30879109515E+01  0.44470766408E+01  0.00000000000E+00 0. -1.
</event>
<event>
 8    1  0.6046524E-010  0.9118800E+02  0.7816164E-02  0.1184000E+00
        -11   -1    0    0    0    0  0.00000000000E+00  0.00000000000E+00  0.45593999997E+02  0.45594000000E+02  0.51100000000E-03 0.  1.
         11   -1    0    0    0    0 -0.00000000000E+00 -0.00000000000E+00 -0.45593999997E+02  0.45594000000E+02  0.51100000000E-03 0. -1.
         23    2    1    2    0    0  0.00000000000E+00 -0.44408920985E-15  0.00000000000E+00  0.91188000000E+02  0.91188000000E+02 0.  0.
    9900012    2    3    3    0    0 -0.37965229315E+02 -0.34613663025E+01  0.20743281933E+02  0.47787269142E+02  0.19999991327E+02 0.  0.
         12    1    3    3    0    0  0.37965229315E+02  0.34613663025E+01 -0.20743281933E+02  0.43400730858E+02  0.00000000000E+00 0. -1.
         11    1    4    4    0    0 -0.13176338192E+02  0.78911684665E+00  0.73038407926E+01  0.15085910119E+02  0.51100000000E-03 0. -1.
        -11    1    4    4    0    0 -0.20244880613E+02  0.35114142415E+01  0.11327023656E+02  0.23462452689E+02  0.51100000000E-03 0.  1.
         12    1    4    4    0    0 -0.45440105104E+01 -0.77618973906E+01  0.21124174846E+01  0.92389063341E+01  0.00000000000E+00 0. -1.
</event>
<event>
 8    1  0.6046524E-010  0.9118800E+02  0.7816164E-02  0.1184000E+00
        -11   -1    0    0    0    0  0.00000000000E+00  0.00000000000E+00  0.45593999997E+02  0.45594000000E+02  0.51100000000E-03 0. -1.
         11   -1    0    0    0    0 -0.00000000000E+00 -0.00000000000E+00 -0.45593999997E+02  0.45594000000E+02  0.51100000000E-03 0.  1.
         23    2    1    2    0    0  0.00000000000E+00  0.00000000000E+00  0.00000000000E+00  0.91188000000E+02  0.91188000000E+02 0.  0.
    9900012    2    3    3    0    0 -0.22620724465E+02 -0.38479898987E+01  0.36839097243E+02  0.47787270890E+02  0.19999999298E+02 0.  0.
        -12    1    3    3    0    0  0.22620724465E+02  0.38479898987E+01 -0.36839097243E+02  0.43400729110E+02  0.00000000000E+00 0.  1.
         11    1    4    4    0    0 -0.73481881404E+00  0.30991782365E+01  0.45149426810E+01  0.55253571925E+01  0.51100000000E-03 0. -1.
        -11    1    4    4    0    0 -0.83997070778E+01 -0.10334351963E+02  0.15508036498E+02  0.20441455569E+02  0.51100000000E-03 0.  1.
         12    1    4    4    0    0 -0.13486198573E+02  0.33871838275E+01  0.16816118064E+02  0.21820458129E+02  0.00000000000E+00 0. -1.
</event>
<event>
 8    1  0.6046524E-010  0.9118800E+02  0.7816164E-02  0.1184000E+00
        -11   -1    0    0    0    0  0.00000000000E+00  0.00000000000E+00  0.45593999997E+02  0.45594000000E+02  0.51100000000E-03 0.  1.
         11   -1    0    0    0    0 -0.00000000000E+00 -0.00000000000E+00 -0.45593999997E+02  0.45594000000E+02  0.51100000000E-03 0. -1.
         23    2    1    2    0    0  0.00000000000E+00  0.35527136788E-14  0.00000000000E+00  0.91188000000E+02  0.91188000000E+02 0.  0.
    9900012    2    3    3    0    0  0.35682011065E+02  0.16231864881E+02 -0.18626438775E+02  0.47787267604E+02  0.19999984312E+02 0.  0.
         12    1    3    3    0    0 -0.35682011065E+02 -0.16231864881E+02  0.18626438775E+02  0.43400732396E+02  0.00000000000E+00 0. -1.
         11    1    4    4    0    0  0.13243299297E+02  0.63774324299E+01 -0.10024564310E+00  0.14699206445E+02  0.51100000000E-03 0.  1.
        -11    1    4    4    0    0  0.17109208755E+01  0.59156648128E+01 -0.57336476877E+01  0.84140986735E+01  0.51100000000E-03 0. -1.
        -12    1    4    4    0    0  0.20727790892E+02  0.39387676381E+01 -0.12792545444E+02  0.24673962485E+02  0.00000000000E+00 0.  1.
</event>
<event>
 8    1  0.6046524E-010  0.9118800E+02  0.7816164E-02  0.1184000E+00
        -11   -1    0    0    0    0  0.00000000000E+00  0.00000000000E+00  0.45593999997E+02  0.45594000000E+02  0.51100000000E-03 0. -1.
         11   -1    0    0    0    0 -0.00000000000E+00 -0.00000000000E+00 -0.45593999997E+02  0.45594000000E+02  0.51100000000E-03 0.  1.
         23    2    1    2    0    0  0.00000000000E+00  0.00000000000E+00  0.00000000000E+00  0.91188000000E+02  0.91188000000E+02 0.  0.
    9900012    2    3    3    0    0 -0.20225387306E+02 -0.17793155737E+02 -0.34028821064E+02  0.47787270217E+02  0.19999996227E+02 0.  0.
         12    1    3    3    0    0  0.20225387306E+02  0.17793155737E+02  0.34028821064E+02  0.43400729783E+02  0.00000000000E+00 0. -1.
         11    1    4    4    0    0  0.61132222073E+00 -0.32852216458E+01 -0.40070992018E+00  0.33655556481E+01  0.51100000000E-03 0. -1.
        -11    1    4    4    0    0 -0.11650645896E+02 -0.83531689712E+01 -0.77866287783E+01  0.16313937895E+02  0.51100000000E-03 0.  1.
        -12    1    4    4    0    0 -0.91860636304E+01 -0.61547651196E+01 -0.25841482365E+02  0.28107776673E+02  0.00000000000E+00 0.  1.
</event>
<event>
 8    1  0.6046524E-010  0.9118800E+02  0.7816164E-02  0.1184000E+00
        -11   -1    0    0    0    0  0.00000000000E+00  0.00000000000E+00  0.45593999997E+02  0.45594000000E+02  0.51100000000E-03 0. -1.
         11   -1    0    0    0    0 -0.00000000000E+00 -0.00000000000E+00 -0.45593999997E+02  0.45594000000E+02  0.51100000000E-03 0.  1.
         23    2    1    2    0    0  0.88817841970E-15 -0.44408920985E-15  0.00000000000E+00  0.91188000000E+02  0.91188000000E+02 0.  0.
    9900012    2    3    3    0    0 -0.33911846556E+01 -0.16743930100E+01 -0.43235655038E+02  0.47787244339E+02  0.19999878240E+02 0.  0.
         12    1    3    3    0    0  0.33911846556E+01  0.16743930100E+01  0.43235655038E+02  0.43400755661E+02  0.00000000000E+00 0. -1.
         11    1    4    4    0    0 -0.71651086282E+01 -0.28714787220E+01 -0.55032599214E+01  0.94799811038E+01  0.51100000000E-03 0. -1.
        -11    1    4    4    0    0  0.10972795944E+01 -0.41968805982E+00 -0.13453243359E+01  0.17860734604E+01  0.51100000000E-03 0.  1.
        -12    1    4    4    0    0  0.26766443781E+01  0.16167737718E+01 -0.36387070781E+02  0.36521189775E+02  0.00000000000E+00 0.  1.
</event>
<event>
 8    1  0.6046524E-010  0.9118800E+02  0.7816164E-02  0.1184000E+00
        -11   -1    0    0    0    0  0.00000000000E+00  0.00000000000E+00  0.45593999997E+02  0.45594000000E+02  0.51100000000E-03 0. -1.
         11   -1    0    0    0    0 -0.00000000000E+00 -0.00000000000E+00 -0.45593999997E+02  0.45594000000E+02  0.51100000000E-03 0.  1.
         23    2    1    2    0    0 -0.35527136788E-14  0.00000000000E+00  0.00000000000E+00  0.91188000000E+02  0.91188000000E+02 0.  0.
    9900012    2    3    3    0    0  0.30578706653E+02  0.10540433115E+02  0.28938990810E+02  0.47787271666E+02  0.20000002833E+02 0.  0.
        -12    1    3    3    0    0 -0.30578706653E+02 -0.10540433115E+02 -0.28938990810E+02  0.43400728334E+02  0.00000000000E+00 0.  1.
         11    1    4    4    0    0  0.10027521040E+02  0.34549907913E+01  0.56298895905E+01  0.12007655751E+02  0.51100000000E-03 0. -1.
        -11    1    4    4    0    0 -0.24551169738E+01  0.25548169864E-01  0.48997833651E+01  0.54805227260E+01  0.51100000000E-03 0.  1.
        -12    1    4    4    0    0  0.23006302587E+02  0.70598941534E+01  0.18409317854E+02  0.30299093189E+02  0.00000000000E+00 0.  1.
</event>
<event>
 8    1  0.6046524E-010  0.9118800E+02  0.7816164E-02  0.1184000E+00
        -11   -1    0    0    0    0  0.00000000000E+00  0.00000000000E+00  0.45593999997E+02  0.45594000000E+02  0.51100000000E-03 0. -1.
         11   -1    0    0    0    0 -0.00000000000E+00 -0.00000000000E+00 -0.45593999997E+02  0.45594000000E+02  0.51100000000E-03 0.  1.
         23    2    1    2    0    0  0.00000000000E+00  0.22204460493E-15  0.71054273576E-14  0.91188000000E+02  0.91188000000E+02 0.  0.
    9900012    2    3    3    0    0  0.95723228822E+01 -0.10127239992E+01 -0.42319837486E+02  0.47787267056E+02  0.19999981814E+02 0.  0.
         12    1    3    3    0    0 -0.95723228822E+01  0.10127239992E+01  0.42319837486E+02  0.43400732944E+02  0.00000000000E+00 0. -1.
         11    1    4    4    0    0 -0.12347605543E+01 -0.15504658599E+01 -0.96037818966E+01  0.98061819781E+01  0.51100000000E-03 0. -1.
        -11    1    4    4    0    0  0.12564812042E+02  0.34611359413E+01 -0.14702191867E+02  0.19647096722E+02  0.51100000000E-03 0.  1.
        -12    1    4    4    0    0 -0.17577286060E+01 -0.29233940806E+01 -0.18013863722E+02  0.18333988355E+02  0.00000000000E+00 0.  1.
</event>
<event>
 8    1  0.6046524E-010  0.9118800E+02  0.7816164E-02  0.1184000E+00
        -11   -1    0    0    0    0  0.00000000000E+00  0.00000000000E+00  0.45593999997E+02  0.45594000000E+02  0.51100000000E-03 0.  1.
         11   -1    0    0    0    0 -0.00000000000E+00 -0.00000000000E+00 -0.45593999997E+02  0.45594000000E+02  0.51100000000E-03 0. -1.
         23    2    1    2    0    0  0.17763568394E-14  0.00000000000E+00  0.00000000000E+00  0.91188000000E+02  0.91188000000E+02 0.  0.
    9900012    2    3    3    0    0  0.63780865838E+01  0.18749073565E+02  0.38618876925E+02  0.47787246516E+02  0.19999888164E+02 0.  0.
        -12    1    3    3    0    0 -0.63780865838E+01 -0.18749073565E+02 -0.38618876925E+02  0.43400753484E+02  0.00000000000E+00 0.  1.
         11    1    4    4    0    0 -0.42961682489E+00 -0.22169396498E+01  0.16553569811E+01  0.27999283960E+01  0.51100000000E-03 0. -1.
        -11    1    4    4    0    0  0.96574296990E+01  0.96624538674E+01  0.23463551848E+02  0.27150823721E+02  0.51100000000E-03 0.  1.
         12    1    4    4    0    0 -0.28497262903E+01  0.11303559348E+02  0.13499968096E+02  0.17836494399E+02  0.00000000000E+00 0. -1.
</event>
<event>
 8    1  0.6771278E-010  0.9118800E+02  0.7816164E-02  0.1184000E+00
        -11   -1    0    0    0    0  0.00000000000E+00  0.00000000000E+00  0.45593999997E+02  0.45594000000E+02  0.51100000000E-03 0. -1.
         11   -1    0    0    0    0 -0.00000000000E+00 -0.00000000000E+00 -0.45593999997E+02  0.45594000000E+02  0.51100000000E-03 0.  1.
         23    2    1    2    0    0  0.00000000000E+00 -0.71054273576E-14  0.35527136788E-14  0.91188000000E+02  0.91188000000E+02 0.  0.
    9900012    2    3    3    0    0  0.20643667127E+02  0.35424538325E+02 -0.14232528422E+02  0.47787265291E+02  0.19999973769E+02 0.  0.
         12    1    3    3    0    0 -0.20643667127E+02 -0.35424538325E+02  0.14232528422E+02  0.43400734709E+02  0.00000000000E+00 0. -1.
         11    1    4    4    0    0 -0.85502006841E+00  0.53774899486E+01 -0.67799974642E+01  0.86957934279E+01  0.51100000000E-03 0. -1.
        -11    1    4    4    0    0  0.13569934059E+02  0.20000095051E+02 -0.97980068446E+01  0.26079644376E+02  0.51100000000E-03 0.  1.
         12    1    4    4    0    0  0.79287531369E+01  0.10046953325E+02  0.23454758864E+01  0.13011827487E+02  0.00000000000E+00 0. -1.
</event>
<event>
 8    1  0.6046524E-010  0.9118800E+02  0.7816164E-02  0.1184000E+00
        -11   -1    0    0    0    0  0.00000000000E+00  0.00000000000E+00  0.45593999997E+02  0.45594000000E+02  0.51100000000E-03 0. -1.
         11   -1    0    0    0    0 -0.00000000000E+00 -0.00000000000E+00 -0.45593999997E+02  0.45594000000E+02  0.51100000000E-03 0.  1.
         23    2    1    2    0    0  0.88817841970E-15  0.00000000000E+00  0.00000000000E+00  0.91188000000E+02  0.91188000000E+02 0.  0.
    9900012    2    3    3    0    0 -0.34751623683E+01  0.29368166085E+02 -0.31765661431E+02  0.47787272139E+02  0.20000004992E+02 0.  0.
         12    1    3    3    0    0  0.34751623683E+01 -0.29368166085E+02  0.31765661431E+02  0.43400727861E+02  0.00000000000E+00 0. -1.
         11    1    4    4    0    0 -0.46202283078E+01  0.81488725460E+01 -0.21177467760E+02  0.23156765197E+02  0.51100000000E-03 0.  1.
        -11    1    4    4    0    0 -0.26714096509E+01  0.10628201038E+02 -0.46754579835E+01  0.11914486747E+02  0.51100000000E-03 0. -1.
        -12    1    4    4    0    0  0.38164755904E+01  0.10591092501E+02 -0.59127356869E+01  0.12716020195E+02  0.00000000000E+00 0.  1.
</event>
<event>
 8    1  0.6046524E-010  0.9118800E+02  0.7816164E-02  0.1184000E+00
        -11   -1    0    0    0    0  0.00000000000E+00  0.00000000000E+00  0.45593999997E+02  0.45594000000E+02  0.51100000000E-03 0. -1.
         11   -1    0    0    0    0 -0.00000000000E+00 -0.00000000000E+00 -0.45593999997E+02  0.45594000000E+02  0.51100000000E-03 0.  1.
         23    2    1    2    0    0  0.00000000000E+00  0.00000000000E+00  0.00000000000E+00  0.91188000000E+02  0.91188000000E+02 0.  0.
    9900012    2    3    3    0    0 -0.10392458518E+02  0.58678967988E+01 -0.41727553475E+02  0.47787261229E+02  0.19999955248E+02 0.  0.
         12    1    3    3    0    0  0.10392458518E+02 -0.58678967988E+01  0.41727553475E+02  0.43400738771E+02  0.00000000000E+00 0. -1.
         11    1    4    4    0    0 -0.11908041999E+02 -0.30029011555E+00 -0.21662391939E+02  0.24721465636E+02  0.51100000000E-03 0. -1.
        -11    1    4    4    0    0  0.18108129120E+01 -0.76348106608E+00 -0.13057787742E+02  0.13204838799E+02  0.51100000000E-03 0.  1.
         12    1    4    4    0    0 -0.29522943059E+00  0.69316679804E+01 -0.70073737934E+01  0.98609567937E+01  0.00000000000E+00 0. -1.
</event>
<event>
 8    1  0.6046524E-010  0.9118800E+02  0.7816164E-02  0.1184000E+00
        -11   -1    0    0    0    0  0.00000000000E+00  0.00000000000E+00  0.45593999997E+02  0.45594000000E+02  0.51100000000E-03 0. -1.
         11   -1    0    0    0    0 -0.00000000000E+00 -0.00000000000E+00 -0.45593999997E+02  0.45594000000E+02  0.51100000000E-03 0.  1.
         23    2    1    2    0    0 -0.35527136788E-14  0.00000000000E+00  0.71054273576E-14  0.91188000000E+02  0.91188000000E+02 0.  0.
    9900012    2    3    3    0    0  0.19949146946E+02  0.19877427540E+02 -0.33023369390E+02  0.47787268262E+02  0.19999987315E+02 0.  0.
         12    1    3    3    0    0 -0.19949146946E+02 -0.19877427540E+02  0.33023369390E+02  0.43400731738E+02  0.00000000000E+00 0. -1.
         11    1    4    4    0    0  0.53192266615E+01  0.11950912006E+02 -0.13625284837E+02  0.18888273008E+02  0.51100000000E-03 0. -1.
        -11    1    4    4    0    0  0.15669290709E+02  0.63758314853E+01 -0.20617332835E+02  0.26669314051E+02  0.51100000000E-03 0.  1.
        -12    1    4    4    0    0 -0.10393704247E+01  0.15506840484E+01  0.12192482817E+01  0.22296812037E+01  0.00000000000E+00 0.  1.
</event>
<event>
 8    1  0.6046524E-010  0.9118800E+02  0.7816164E-02  0.1184000E+00
        -11   -1    0    0    0    0  0.00000000000E+00  0.00000000000E+00  0.45593999997E+02  0.45594000000E+02  0.51100000000E-03 0. -1.
         11   -1    0    0    0    0 -0.00000000000E+00 -0.00000000000E+00 -0.45593999997E+02  0.45594000000E+02  0.51100000000E-03 0.  1.
         23    2    1    2    0    0 -0.17763568394E-14  0.00000000000E+00  0.00000000000E+00  0.91188000000E+02  0.91188000000E+02 0.  0.
    9900012    2    3    3    0    0  0.10184294709E+02 -0.30183291875E+02  0.29476625019E+02  0.47787281231E+02  0.20000046446E+02 0.  0.
        -12    1    3    3    0    0 -0.10184294709E+02  0.30183291875E+02 -0.29476625019E+02  0.43400718769E+02  0.00000000000E+00 0.  1.
         11    1    4    4    0    0  0.10555817308E+02 -0.10707318328E+02  0.15205466856E+02  0.21384063397E+02  0.51100000000E-03 0. -1.
        -11    1    4    4    0    0  0.20692504365E+01 -0.19570818668E+02  0.11894570647E+02  0.22995207150E+02  0.51100000000E-03 0.  1.
         12    1    4    4    0    0 -0.24407730348E+01  0.94845121146E-01  0.23765875160E+01  0.34080106845E+01  0.00000000000E+00 0. -1.
</event>
<event>
 8    1  0.6046524E-010  0.9118800E+02  0.7816164E-02  0.1184000E+00
        -11   -1    0    0    0    0  0.00000000000E+00  0.00000000000E+00  0.45593999997E+02  0.45594000000E+02  0.51100000000E-03 0. -1.
         11   -1    0    0    0    0 -0.00000000000E+00 -0.00000000000E+00 -0.45593999997E+02  0.45594000000E+02  0.51100000000E-03 0.  1.
         23    2    1    2    0    0  0.00000000000E+00  0.00000000000E+00 -0.71054273576E-14  0.91188000000E+02  0.91188000000E+02 0.  0.
    9900012    2    3    3    0    0 -0.12784987933E+02 -0.33262032547E+02 -0.24775081048E+02  0.47787269977E+02  0.19999995131E+02 0.  0.
         12    1    3    3    0    0  0.12784987933E+02  0.33262032547E+02  0.24775081048E+02  0.43400730023E+02  0.00000000000E+00 0. -1.
         11    1    4    4    0    0  0.14570987417E+01 -0.19165092198E+02 -0.77630008585E+01  0.20728918889E+02  0.51100000000E-03 0. -1.
        -11    1    4    4    0    0 -0.80853119959E+01 -0.11854540302E+02 -0.13082873908E+02  0.19418135487E+02  0.51100000000E-03 0.  1.
        -12    1    4    4    0    0 -0.61567746793E+01 -0.22424000470E+01 -0.39292062816E+01  0.76402156007E+01  0.00000000000E+00 0.  1.
</event>
<event>
 8    1  0.6046524E-010  0.9118800E+02  0.7816164E-02  0.1184000E+00
        -11   -1    0    0    0    0  0.00000000000E+00  0.00000000000E+00  0.45593999997E+02  0.45594000000E+02  0.51100000000E-03 0.  1.
         11   -1    0    0    0    0 -0.00000000000E+00 -0.00000000000E+00 -0.45593999997E+02  0.45594000000E+02  0.51100000000E-03 0. -1.
         23    2    1    2    0    0 -0.35527136788E-14  0.00000000000E+00  0.00000000000E+00  0.91188000000E+02  0.91188000000E+02 0.  0.
    9900012    2    3    3    0    0  0.27876014612E+02  0.32785909170E+02  0.56245165956E+01  0.47787271691E+02  0.20000002948E+02 0.  0.
        -12    1    3    3    0    0 -0.27876014612E+02 -0.32785909170E+02 -0.56245165956E+01  0.43400728309E+02  0.00000000000E+00 0.  1.
         11    1    4    4    0    0  0.13521939071E+02  0.12962207982E+02 -0.43918830405E+01  0.19239290759E+02  0.51100000000E-03 0. -1.
        -11    1    4    4    0    0  0.48714290205E+01  0.52524740260E+00  0.36916631124E+01  0.61347438685E+01  0.51100000000E-03 0.  1.
         12    1    4    4    0    0  0.94826465208E+01  0.19298453786E+02  0.63247365236E+01  0.22413237064E+02  0.00000000000E+00 0. -1.
</event>
<event>
 8    1  0.6046524E-010  0.9118800E+02  0.7816164E-02  0.1184000E+00
        -11   -1    0    0    0    0  0.00000000000E+00  0.00000000000E+00  0.45593999997E+02  0.45594000000E+02  0.51100000000E-03 0. -1.
         11   -1    0    0    0    0 -0.00000000000E+00 -0.00000000000E+00 -0.45593999997E+02  0.45594000000E+02  0.51100000000E-03 0.  1.
         23    2    1    2    0    0  0.35527136788E-14  0.00000000000E+00  0.00000000000E+00  0.91188000000E+02  0.91188000000E+02 0.  0.
    9900012    2    3    3    0    0  0.31909817507E+02  0.28824183861E+02  0.58782397301E+01  0.47787265779E+02  0.19999975994E+02 0.  0.
        -12    1    3    3    0    0 -0.31909817507E+02 -0.28824183861E+02 -0.58782397301E+01  0.43400734221E+02  0.00000000000E+00 0.  1.
         11    1    4    4    0    0  0.86454970794E+01  0.14987942951E+02 -0.37702047624E+01  0.17708684250E+02  0.51100000000E-03 0. -1.
        -11    1    4    4    0    0  0.30317741853E+00  0.20548208787E+01 -0.81439000027E+00  0.22310169708E+01  0.51100000000E-03 0.  1.
        -12    1    4    4    0    0  0.22961143009E+02  0.11781420031E+02  0.10462834493E+02  0.27847564559E+02  0.00000000000E+00 0.  1.
</event>
<event>
 8    1  0.6046524E-010  0.9118800E+02  0.7816164E-02  0.1184000E+00
        -11   -1    0    0    0    0  0.00000000000E+00  0.00000000000E+00  0.45593999997E+02  0.45594000000E+02  0.51100000000E-03 0. -1.
         11   -1    0    0    0    0 -0.00000000000E+00 -0.00000000000E+00 -0.45593999997E+02  0.45594000000E+02  0.51100000000E-03 0.  1.
         23    2    1    2    0    0  0.00000000000E+00  0.35527136788E-14  0.00000000000E+00  0.91188000000E+02  0.91188000000E+02 0.  0.
    9900012    2    3    3    0    0 -0.31105710264E+02 -0.26147578599E+02  0.15243425735E+02  0.47787272982E+02  0.20000008833E+02 0.  0.
        -12    1    3    3    0    0  0.31105710264E+02  0.26147578599E+02 -0.15243425735E+02  0.43400727018E+02  0.00000000000E+00 0.  1.
         11    1    4    4    0    0 -0.62863344267E+01 -0.13052164641E+02  0.12562328712E+02  0.19175221127E+02  0.51100000000E-03 0. -1.
        -11    1    4    4    0    0 -0.12293160658E+02 -0.37339027757E+01  0.11215544354E+01  0.12896577589E+02  0.51100000000E-03 0.  1.
        -12    1    4    4    0    0 -0.12526215179E+02 -0.93615111819E+01  0.15595425879E+01  0.15715474266E+02  0.00000000000E+00 0.  1.
</event>
<event>
 8    1  0.6046524E-010  0.9118800E+02  0.7816164E-02  0.1184000E+00
        -11   -1    0    0    0    0  0.00000000000E+00  0.00000000000E+00  0.45593999997E+02  0.45594000000E+02  0.51100000000E-03 0. -1.
         11   -1    0    0    0    0 -0.00000000000E+00 -0.00000000000E+00 -0.45593999997E+02  0.45594000000E+02  0.51100000000E-03 0.  1.
         23    2    1    2    0    0  0.11102230246E-15  0.00000000000E+00  0.00000000000E+00  0.91188000000E+02  0.91188000000E+02 0.  0.
    9900012    2    3    3    0    0 -0.61382227286E+00  0.36831240327E+02 -0.22950075762E+02  0.47787273978E+02  0.20000013373E+02 0.  0.
         12    1    3    3    0    0  0.61382227286E+00 -0.36831240327E+02  0.22950075762E+02  0.43400726022E+02  0.00000000000E+00 0. -1.
         11    1    4    4    0    0 -0.31419631727E+01  0.10928334274E+02 -0.27038666675E+01  0.11688084437E+02  0.51100000000E-03 0. -1.
        -11    1    4    4    0    0 -0.16310764592E+01  0.70989948760E+01 -0.14123085473E+02  0.15890804958E+02  0.51100000000E-03 0.  1.
        -12    1    4    4    0    0  0.41592173591E+01  0.18803911176E+02 -0.61231236222E+01  0.20208384583E+02  0.00000000000E+00 0.  1.
</event>
<event>
 8    1  0.6046524E-010  0.9118800E+02  0.7816164E-02  0.1184000E+00
        -11   -1    0    0    0    0  0.00000000000E+00  0.00000000000E+00  0.45593999997E+02  0.45594000000E+02  0.51100000000E-03 0.  1.
         11   -1    0    0    0    0 -0.00000000000E+00 -0.00000000000E+00 -0.45593999997E+02  0.45594000000E+02  0.51100000000E-03 0. -1.
         23    2    1    2    0    0  0.00000000000E+00 -0.35527136788E-14 -0.88817841970E-15  0.91188000000E+02  0.91188000000E+02 0.  0.
    9900012    2    3    3    0    0  0.36435342733E+02 -0.22261896878E+02  0.77779754289E+01  0.47787272420E+02  0.20000006273E+02 0.  0.
        -12    1    3    3    0    0 -0.36435342733E+02  0.22261896878E+02 -0.77779754289E+01  0.43400727580E+02  0.00000000000E+00 0.  1.
         11    1    4    4    0    0  0.27706784970E+02 -0.12567435654E+02  0.93633043898E+01  0.31832025409E+02  0.51100000000E-03 0. -1.
        -11    1    4    4    0    0 -0.81650270853E+00 -0.23568865757E+01  0.22091996682E+01  0.33319895616E+01  0.51100000000E-03 0.  1.
        -12    1    4    4    0    0  0.95450604714E+01 -0.73375746478E+01 -0.37945286291E+01  0.12623257449E+02  0.00000000000E+00 0.  1.
</event>
<event>
 8    1  0.6046524E-010  0.9118800E+02  0.7816164E-02  0.1184000E+00
        -11   -1    0    0    0    0  0.00000000000E+00  0.00000000000E+00  0.45593999997E+02  0.45594000000E+02  0.51100000000E-03 0. -1.
         11   -1    0    0    0    0 -0.00000000000E+00 -0.00000000000E+00 -0.45593999997E+02  0.45594000000E+02  0.51100000000E-03 0.  1.
         23    2    1    2    0    0  0.00000000000E+00  0.00000000000E+00  0.00000000000E+00  0.91188000000E+02  0.91188000000E+02 0.  0.
    9900012    2    3    3    0    0  0.64063671951E+01  0.34069094392E+02  0.26112808298E+02  0.47787268549E+02  0.19999988620E+02 0.  0.
        -12    1    3    3    0    0 -0.64063671951E+01 -0.34069094392E+02 -0.26112808298E+02  0.43400731451E+02  0.00000000000E+00 0.  1.
         11    1    4    4    0    0  0.69955489299E+01  0.22355395601E+02  0.16157252926E+02  0.28456251329E+02  0.51100000000E-03 0. -1.
        -11    1    4    4    0    0  0.30002320585E+01  0.22555047908E+00 -0.88157040414E+00  0.31351925079E+01  0.51100000000E-03 0.  1.
         12    1    4    4    0    0 -0.35894137933E+01  0.11488148311E+02  0.10837125776E+02  0.16195824712E+02  0.00000000000E+00 0. -1.
</event>
<event>
 8    1  0.6046524E-010  0.9118800E+02  0.7816164E-02  0.1184000E+00
        -11   -1    0    0    0    0  0.00000000000E+00  0.00000000000E+00  0.45593999997E+02  0.45594000000E+02  0.51100000000E-03 0. -1.
         11   -1    0    0    0    0 -0.00000000000E+00 -0.00000000000E+00 -0.45593999997E+02  0.45594000000E+02  0.51100000000E-03 0.  1.
         23    2    1    2    0    0 -0.22204460493E-15 -0.71054273576E-14  0.00000000000E+00  0.91188000000E+02  0.91188000000E+02 0.  0.
    9900012    2    3    3    0    0  0.19726515377E+01 -0.43189640569E+02 -0.37929614026E+01  0.47787274629E+02  0.20000016341E+02 0.  0.
         12    1    3    3    0    0 -0.19726515377E+01  0.43189640569E+02  0.37929614026E+01  0.43400725371E+02  0.00000000000E+00 0. -1.
         11    1    4    4    0    0 -0.64566208286E+01 -0.28480841503E+02  0.30321685367E+01  0.29360523353E+02  0.51100000000E-03 0. -1.
        -11    1    4    4    0    0  0.27014027664E+01 -0.29650756836E+01 -0.21380856077E+01  0.45453999870E+01  0.51100000000E-03 0.  1.
         12    1    4    4    0    0  0.57278695999E+01 -0.11743723382E+02 -0.46870443317E+01  0.13881351289E+02  0.00000000000E+00 0. -1.
</event>
<event>
 8    1  0.6046524E-010  0.9118800E+02  0.7816164E-02  0.1184000E+00
        -11   -1    0    0    0    0  0.00000000000E+00  0.00000000000E+00  0.45593999997E+02  0.45594000000E+02  0.51100000000E-03 0. -1.
         11   -1    0    0    0    0 -0.00000000000E+00 -0.00000000000E+00 -0.45593999997E+02  0.45594000000E+02  0.51100000000E-03 0.  1.
         23    2    1    2    0    0  0.22204460493E-15  0.00000000000E+00  0.00000000000E+00  0.91188000000E+02  0.91188000000E+02 0.  0.
    9900012    2    3    3    0    0  0.76470813517E+00 -0.12229043967E+02 -0.41635189188E+02  0.47787271048E+02  0.20000000016E+02 0.  0.
         12    1    3    3    0    0 -0.76470813517E+00  0.12229043967E+02  0.41635189188E+02  0.43400728952E+02  0.00000000000E+00 0. -1.
         11    1    4    4    0    0  0.52433539799E+01 -0.12386440645E+01 -0.12313741009E+02  0.13440804216E+02  0.51100000000E-03 0. -1.
        -11    1    4    4    0    0  0.26815083404E+01 -0.46986118719E+01 -0.26522819916E+01  0.60251174699E+01  0.51100000000E-03 0.  1.
        -12    1    4    4    0    0 -0.71601541851E+01 -0.62917880309E+01 -0.26669166187E+02  0.28321349362E+02  0.00000000000E+00 0.  1.
</event>
<event>
 8    1  0.6046524E-010  0.9118800E+02  0.7816164E-02  0.1184000E+00
        -11   -1    0    0    0    0  0.00000000000E+00  0.00000000000E+00  0.45593999997E+02  0.45594000000E+02  0.51100000000E-03 0. -1.
         11   -1    0    0    0    0 -0.00000000000E+00 -0.00000000000E+00 -0.45593999997E+02  0.45594000000E+02  0.51100000000E-03 0.  1.
         23    2    1    2    0    0  0.00000000000E+00  0.00000000000E+00  0.00000000000E+00  0.91188000000E+02  0.91188000000E+02 0.  0.
    9900012    2    3    3    0    0  0.12989538067E+02  0.17726813551E+02 -0.37425327839E+02  0.47787272106E+02  0.20000004841E+02 0.  0.
         12    1    3    3    0    0 -0.12989538067E+02 -0.17726813551E+02  0.37425327839E+02  0.43400727894E+02  0.00000000000E+00 0. -1.
         11    1    4    4    0    0 -0.13000696120E+01  0.10905518931E+02 -0.14375818324E+02  0.18091010942E+02  0.51100000000E-03 0. -1.
        -11    1    4    4    0    0  0.12659095307E+02  0.92088099041E+01 -0.17808568211E+02  0.23710756543E+02  0.51100000000E-03 0.  1.
        -12    1    4    4    0    0  0.16305123717E+01 -0.23875152839E+01 -0.52409413037E+01  0.59855046215E+01  0.00000000000E+00 0.  1.
</event>
<event>
 8    1  0.6046524E-010  0.9118800E+02  0.7816164E-02  0.1184000E+00
        -11   -1    0    0    0    0  0.00000000000E+00  0.00000000000E+00  0.45593999997E+02  0.45594000000E+02  0.51100000000E-03 0. -1.
         11   -1    0    0    0    0 -0.00000000000E+00 -0.00000000000E+00 -0.45593999997E+02  0.45594000000E+02  0.51100000000E-03 0.  1.
         23    2    1    2    0    0  0.17763568394E-14  0.00000000000E+00  0.00000000000E+00  0.91188000000E+02  0.91188000000E+02 0.  0.
    9900012    2    3    3    0    0  0.12215206072E+02  0.65795953843E+01 -0.41123240933E+02  0.47787270978E+02  0.19999999695E+02 0.  0.
         12    1    3    3    0    0 -0.12215206072E+02 -0.65795953843E+01  0.41123240933E+02  0.43400729022E+02  0.00000000000E+00 0. -1.
         11    1    4    4    0    0 -0.17129380461E+01  0.80165995153E+01 -0.95582960081E+01  0.12592102580E+02  0.51100000000E-03 0. -1.
        -11    1    4    4    0    0  0.62294077634E+01 -0.11476428938E+01 -0.69533955092E+01  0.94059722869E+01  0.51100000000E-03 0.  1.
         12    1    4    4    0    0  0.76987363552E+01 -0.28936123725E+00 -0.24611549416E+02  0.25789196111E+02  0.00000000000E+00 0. -1.
</event>
<event>
 8    1  0.6046524E-010  0.9118800E+02  0.7816164E-02  0.1184000E+00
        -11   -1    0    0    0    0  0.00000000000E+00  0.00000000000E+00  0.45593999997E+02  0.45594000000E+02  0.51100000000E-03 0. -1.
         11   -1    0    0    0    0 -0.00000000000E+00 -0.00000000000E+00 -0.45593999997E+02  0.45594000000E+02  0.51100000000E-03 0.  1.
         23    2    1    2    0    0  0.00000000000E+00  0.71054273576E-14 -0.35527136788E-14  0.91188000000E+02  0.91188000000E+02 0.  0.
    9900012    2    3    3    0    0 -0.18314421092E+02 -0.31555555905E+02  0.23504305460E+02  0.47787268398E+02  0.19999987934E+02 0.  0.
        -12    1    3    3    0    0  0.18314421092E+02  0.31555555905E+02 -0.23504305460E+02  0.43400731602E+02  0.00000000000E+00 0.  1.
         11    1    4    4    0    0 -0.16502239313E+02 -0.24922073963E+02  0.16570263995E+02  0.34176122104E+02  0.51100000000E-03 0. -1.
        -11    1    4    4    0    0  0.15673602351E+01 -0.58486989689E+01  0.22634615762E+00  0.60593011627E+01  0.51100000000E-03 0.  1.
        -12    1    4    4    0    0 -0.33795420137E+01 -0.78478297296E+00  0.67076953081E+01  0.75518451310E+01  0.00000000000E+00 0.  1.
</event>
<event>
 8    1  0.6046524E-010  0.9118800E+02  0.7816164E-02  0.1184000E+00
        -11   -1    0    0    0    0  0.00000000000E+00  0.00000000000E+00  0.45593999997E+02  0.45594000000E+02  0.51100000000E-03 0.  1.
         11   -1    0    0    0    0 -0.00000000000E+00 -0.00000000000E+00 -0.45593999997E+02  0.45594000000E+02  0.51100000000E-03 0. -1.
         23    2    1    2    0    0  0.00000000000E+00  0.00000000000E+00  0.00000000000E+00  0.91188000000E+02  0.91188000000E+02 0.  0.
    9900012    2    3    3    0    0 -0.31327334381E+02  0.74068330544E+01 -0.29109457805E+02  0.47787267414E+02  0.19999983448E+02 0.  0.
         12    1    3    3    0    0  0.31327334381E+02 -0.74068330544E+01  0.29109457805E+02  0.43400732586E+02  0.00000000000E+00 0. -1.
         11    1    4    4    0    0 -0.19533133642E+01 -0.43682891993E+01 -0.44209893783E+01  0.65147932409E+01  0.51100000000E-03 0. -1.
        -11    1    4    4    0    0 -0.14074242863E+02  0.23335225828E+01 -0.64305806379E+01  0.15648706254E+02  0.51100000000E-03 0.  1.
        -12    1    4    4    0    0 -0.15299778153E+02  0.94415996708E+01 -0.18257887789E+02  0.25623767919E+02  0.00000000000E+00 0.  1.
</event>
<event>
 8    1  0.6046524E-010  0.9118800E+02  0.7816164E-02  0.1184000E+00
        -11   -1    0    0    0    0  0.00000000000E+00  0.00000000000E+00  0.45593999997E+02  0.45594000000E+02  0.51100000000E-03 0. -1.
         11   -1    0    0    0    0 -0.00000000000E+00 -0.00000000000E+00 -0.45593999997E+02  0.45594000000E+02  0.51100000000E-03 0.  1.
         23    2    1    2    0    0  0.00000000000E+00 -0.44408920985E-15  0.00000000000E+00  0.91188000000E+02  0.91188000000E+02 0.  0.
    9900012    2    3    3    0    0  0.39479298415E+02 -0.19601630386E+01  0.17921092175E+02  0.47787276651E+02  0.20000025563E+02 0.  0.
        -12    1    3    3    0    0 -0.39479298415E+02  0.19601630386E+01 -0.17921092175E+02  0.43400723349E+02  0.00000000000E+00 0.  1.
         11    1    4    4    0    0  0.63146106522E+01 -0.18854118551E+01  0.42959714645E+01  0.78666674417E+01  0.51100000000E-03 0. -1.
        -11    1    4    4    0    0  0.31883365282E+02  0.39379680730E+01  0.15046826872E+02  0.35474830140E+02  0.51100000000E-03 0.  1.
         12    1    4    4    0    0  0.12813224801E+01 -0.40127192566E+01 -0.14217061609E+01  0.44457790698E+01  0.00000000000E+00 0. -1.
</event>
<event>
 8    1  0.6046524E-010  0.9118800E+02  0.7816164E-02  0.1184000E+00
        -11   -1    0    0    0    0  0.00000000000E+00  0.00000000000E+00  0.45593999997E+02  0.45594000000E+02  0.51100000000E-03 0. -1.
         11   -1    0    0    0    0 -0.00000000000E+00 -0.00000000000E+00 -0.45593999997E+02  0.45594000000E+02  0.51100000000E-03 0.  1.
         23    2    1    2    0    0  0.88817841970E-15 -0.35527136788E-14 -0.71054273576E-14  0.91188000000E+02  0.91188000000E+02 0.  0.
    9900012    2    3    3    0    0 -0.63117138411E+00 -0.26200321042E+02 -0.34594336212E+02  0.47787270767E+02  0.19999998735E+02 0.  0.
         12    1    3    3    0    0  0.63117138411E+00  0.26200321042E+02  0.34594336212E+02  0.43400729233E+02  0.00000000000E+00 0. -1.
         11    1    4    4    0    0 -0.18700195616E+01 -0.95032091674E+01 -0.57710356656E+01  0.11274431718E+02  0.51100000000E-03 0. -1.
        -11    1    4    4    0    0  0.56175964604E+01 -0.19873555194E+01 -0.13820905768E+02  0.15050727838E+02  0.51100000000E-03 0.  1.
        -12    1    4    4    0    0 -0.43787482829E+01 -0.14709756355E+02 -0.15002394779E+02  0.21462111211E+02  0.00000000000E+00 0.  1.
</event>
<event>
 8    1  0.6046524E-010  0.9118800E+02  0.7816164E-02  0.1184000E+00
        -11   -1    0    0    0    0  0.00000000000E+00  0.00000000000E+00  0.45593999997E+02  0.45594000000E+02  0.51100000000E-03 0. -1.
         11   -1    0    0    0    0 -0.00000000000E+00 -0.00000000000E+00 -0.45593999997E+02  0.45594000000E+02  0.51100000000E-03 0.  1.
         23    2    1    2    0    0  0.00000000000E+00  0.00000000000E+00  0.00000000000E+00  0.91188000000E+02  0.91188000000E+02 0.  0.
    9900012    2    3    3    0    0  0.25534999360E+02  0.73813812029E+01  0.34308923895E+02  0.47787271439E+02  0.20000001799E+02 0.  0.
        -12    1    3    3    0    0 -0.25534999360E+02 -0.73813812029E+01 -0.34308923895E+02  0.43400728561E+02  0.00000000000E+00 0.  1.
         11    1    4    4    0    0  0.12692178635E+02 -0.39850734425E+01  0.11159678611E+02  0.17364061616E+02  0.51100000000E-03 0. -1.
        -11    1    4    4    0    0  0.49250060544E+01  0.41219673683E+01  0.16724310335E+02  0.17915045523E+02  0.51100000000E-03 0.  1.
        -12    1    4    4    0    0  0.79178146706E+01  0.72444872772E+01  0.64249349490E+01  0.12508164300E+02  0.00000000000E+00 0.  1.
</event>
<event>
 8    1  0.6046524E-010  0.9118800E+02  0.7816164E-02  0.1184000E+00
        -11   -1    0    0    0    0  0.00000000000E+00  0.00000000000E+00  0.45593999997E+02  0.45594000000E+02  0.51100000000E-03 0. -1.
         11   -1    0    0    0    0 -0.00000000000E+00 -0.00000000000E+00 -0.45593999997E+02  0.45594000000E+02  0.51100000000E-03 0.  1.
         23    2    1    2    0    0 -0.88817841970E-15  0.00000000000E+00  0.00000000000E+00  0.91188000000E+02  0.91188000000E+02 0.  0.
    9900012    2    3    3    0    0  0.53574441023E+01 -0.17665885825E+02  0.39278984157E+02  0.47787258927E+02  0.19999944753E+02 0.  0.
        -12    1    3    3    0    0 -0.53574441023E+01  0.17665885825E+02 -0.39278984157E+02  0.43400741073E+02  0.00000000000E+00 0.  1.
         11    1    4    4    0    0  0.90050398739E+00 -0.10527550555E+02  0.12659468165E+02  0.16489462168E+02  0.51100000000E-03 0. -1.
        -11    1    4    4    0    0 -0.29550086895E+01 -0.79137144775E+01  0.10044212899E+02  0.13124220594E+02  0.51100000000E-03 0.  1.
         12    1    4    4    0    0  0.74119488043E+01  0.77537920764E+00  0.16575303093E+02  0.18173576165E+02  0.00000000000E+00 0. -1.
</event>
<event>
 8    1  0.6046524E-010  0.9118800E+02  0.7816164E-02  0.1184000E+00
        -11   -1    0    0    0    0  0.00000000000E+00  0.00000000000E+00  0.45593999997E+02  0.45594000000E+02  0.51100000000E-03 0. -1.
         11   -1    0    0    0    0 -0.00000000000E+00 -0.00000000000E+00 -0.45593999997E+02  0.45594000000E+02  0.51100000000E-03 0.  1.
         23    2    1    2    0    0  0.00000000000E+00 -0.71054273576E-14  0.00000000000E+00  0.91188000000E+02  0.91188000000E+02 0.  0.
    9900012    2    3    3    0    0 -0.28134755304E+02  0.23968293728E+02 -0.22750381330E+02  0.47787269466E+02  0.19999992803E+02 0.  0.
         12    1    3    3    0    0  0.28134755304E+02 -0.23968293728E+02  0.22750381330E+02  0.43400730534E+02  0.00000000000E+00 0. -1.
         11    1    4    4    0    0 -0.26356592123E+02  0.20366422095E+02 -0.10752352648E+02  0.35001059770E+02  0.51100000000E-03 0. -1.
        -11    1    4    4    0    0 -0.34769984708E+00  0.16478698861E+01 -0.27356840615E+01  0.32125282708E+01  0.51100000000E-03 0.  1.
        -12    1    4    4    0    0 -0.14304633342E+01  0.19540017465E+01 -0.92623446200E+01  0.95736814254E+01  0.00000000000E+00 0.  1.
</event>
<event>
 8    1  0.6046524E-010  0.9118800E+02  0.7816164E-02  0.1184000E+00
        -11   -1    0    0    0    0  0.00000000000E+00  0.00000000000E+00  0.45593999997E+02  0.45594000000E+02  0.51100000000E-03 0.  1.
         11   -1    0    0    0    0 -0.00000000000E+00 -0.00000000000E+00 -0.45593999997E+02  0.45594000000E+02  0.51100000000E-03 0. -1.
         23    2    1    2    0    0  0.00000000000E+00 -0.22204460493E-15  0.00000000000E+00  0.91188000000E+02  0.91188000000E+02 0.  0.
    9900012    2    3    3    0    0 -0.42586699537E+02 -0.19162579318E+01 -0.81439601099E+01  0.47787272953E+02  0.20000008702E+02 0.  0.
        -12    1    3    3    0    0  0.42586699537E+02  0.19162579318E+01  0.81439601099E+01  0.43400727047E+02  0.00000000000E+00 0.  1.
         11    1    4    4    0    0 -0.12559453655E+02 -0.37161468578E+01  0.22622173862E+00  0.13099648854E+02  0.51100000000E-03 0. -1.
        -11    1    4    4    0    0 -0.15642289999E+02  0.21010280419E+01  0.33449493332E+01  0.16133327045E+02  0.51100000000E-03 0.  1.
         12    1    4    4    0    0 -0.14384955883E+02 -0.30113911587E+00 -0.11715131182E+02  0.18554297053E+02  0.00000000000E+00 0. -1.
</event>
<event>
 8    1  0.6046524E-010  0.9118800E+02  0.7816164E-02  0.1184000E+00
        -11   -1    0    0    0    0  0.00000000000E+00  0.00000000000E+00  0.45593999997E+02  0.45594000000E+02  0.51100000000E-03 0. -1.
         11   -1    0    0    0    0 -0.00000000000E+00 -0.00000000000E+00 -0.45593999997E+02  0.45594000000E+02  0.51100000000E-03 0.  1.
         23    2    1    2    0    0  0.88817841970E-15  0.00000000000E+00  0.71054273576E-14  0.91188000000E+02  0.91188000000E+02 0.  0.
    9900012    2    3    3    0    0 -0.78340472358E+01  0.20076246859E+01 -0.42640594501E+02  0.47787272444E+02  0.20000006381E+02 0.  0.
         12    1    3    3    0    0  0.78340472358E+01 -0.20076246859E+01  0.42640594501E+02  0.43400727556E+02  0.00000000000E+00 0. -1.
         11    1    4    4    0    0 -0.33036707393E+01 -0.23432301068E+00 -0.24197477581E+01  0.41017468353E+01  0.51100000000E-03 0. -1.
        -11    1    4    4    0    0 -0.51832003643E+00 -0.36268142370E+01 -0.34124084450E+02  0.34320191971E+02  0.51100000000E-03 0.  1.
        -12    1    4    4    0    0 -0.40120564601E+01  0.58687619335E+01 -0.60967622936E+01  0.93653336372E+01  0.00000000000E+00 0.  1.
</event>
<event>
 8    1  0.6046524E-010  0.9118800E+02  0.7816164E-02  0.1184000E+00
        -11   -1    0    0    0    0  0.00000000000E+00  0.00000000000E+00  0.45593999997E+02  0.45594000000E+02  0.51100000000E-03 0. -1.
         11   -1    0    0    0    0 -0.00000000000E+00 -0.00000000000E+00 -0.45593999997E+02  0.45594000000E+02  0.51100000000E-03 0.  1.
         23    2    1    2    0    0 -0.11102230246E-15  0.88817841970E-15  0.71054273576E-14  0.91188000000E+02  0.91188000000E+02 0.  0.
    9900012    2    3    3    0    0  0.40672572044E+00  0.56488096608E+01  0.43029630324E+02  0.47787267723E+02  0.19999984854E+02 0.  0.
        -12    1    3    3    0    0 -0.40672572044E+00 -0.56488096608E+01 -0.43029630324E+02  0.43400732277E+02  0.00000000000E+00 0.  1.
         11    1    4    4    0    0  0.24423601378E+00  0.48255836857E+00  0.35178710519E+00  0.64518852904E+00  0.51100000000E-03 0. -1.
        -11    1    4    4    0    0 -0.22032720441E+01  0.68543890293E+01  0.37723858760E+01  0.81282194928E+01  0.51100000000E-03 0.  1.
         12    1    4    4    0    0  0.23657617507E+01 -0.16881377371E+01  0.38905457343E+02  0.39013859701E+02  0.00000000000E+00 0. -1.
</event>
<event>
 8    1  0.6046524E-010  0.9118800E+02  0.7816164E-02  0.1184000E+00
        -11   -1    0    0    0    0  0.00000000000E+00  0.00000000000E+00  0.45593999997E+02  0.45594000000E+02  0.51100000000E-03 0. -1.
         11   -1    0    0    0    0 -0.00000000000E+00 -0.00000000000E+00 -0.45593999997E+02  0.45594000000E+02  0.51100000000E-03 0.  1.
         23    2    1    2    0    0  0.00000000000E+00 -0.55511151231E-16 -0.71054273576E-14  0.91188000000E+02  0.91188000000E+02 0.  0.
    9900012    2    3    3    0    0  0.18032009709E+02  0.94193908554E-01 -0.39477342556E+02  0.47787276251E+02  0.20000023739E+02 0.  0.
         12    1    3    3    0    0 -0.18032009709E+02 -0.94193908554E-01  0.39477342556E+02  0.43400723749E+02  0.00000000000E+00 0. -1.
         11    1    4    4    0    0  0.25010933708E+01  0.49796827667E+00 -0.54938034710E+01  0.60568405372E+01  0.51100000000E-03 0. -1.
        -11    1    4    4    0    0  0.11583290125E+02 -0.76640986975E+00 -0.35603310050E+02  0.37448039748E+02  0.51100000000E-03 0.  1.
         12    1    4    4    0    0  0.39476262135E+01  0.36263550163E+00  0.16197709649E+01  0.42823959657E+01  0.00000000000E+00 0. -1.
</event>
<event>
 8    1  0.6046524E-010  0.9118800E+02  0.7816164E-02  0.1184000E+00
        -11   -1    0    0    0    0  0.00000000000E+00  0.00000000000E+00  0.45593999997E+02  0.45594000000E+02  0.51100000000E-03 0. -1.
         11   -1    0    0    0    0 -0.00000000000E+00 -0.00000000000E+00 -0.45593999997E+02  0.45594000000E+02  0.51100000000E-03 0.  1.
         23    2    1    2    0    0 -0.35527136788E-14  0.00000000000E+00  0.00000000000E+00  0.91188000000E+02  0.91188000000E+02 0.  0.
    9900012    2    3    3    0    0 -0.15335858446E+02  0.22752962982E+02  0.33626432717E+02  0.47787275858E+02  0.20000021949E+02 0.  0.
        -12    1    3    3    0    0  0.15335858446E+02 -0.22752962982E+02 -0.33626432717E+02  0.43400724142E+02  0.00000000000E+00 0.  1.
         11    1    4    4    0    0 -0.10632088873E+02  0.69488841568E+01  0.13226598091E+02  0.18337698933E+02  0.51100000000E-03 0. -1.
        -11    1    4    4    0    0  0.11787238041E+01 -0.18699769627E+01  0.42741950647E+01  0.48119587861E+01  0.51100000000E-03 0.  1.
         12    1    4    4    0    0 -0.58824933774E+01  0.17674055788E+02  0.16125639561E+02  0.24637618139E+02  0.00000000000E+00 0. -1.
</event>
<event>
 8    1  0.6046524E-010  0.9118800E+02  0.7816164E-02  0.1184000E+00
        -11   -1    0    0    0    0  0.00000000000E+00  0.00000000000E+00  0.45593999997E+02  0.45594000000E+02  0.51100000000E-03 0. -1.
         11   -1    0    0    0    0 -0.00000000000E+00 -0.00000000000E+00 -0.45593999997E+02  0.45594000000E+02  0.51100000000E-03 0.  1.
         23    2    1    2    0    0  0.88817841970E-15  0.00000000000E+00  0.00000000000E+00  0.91188000000E+02  0.91188000000E+02 0.  0.
    9900012    2    3    3    0    0  0.53177074879E+01 -0.36992586886E+02  0.22065671421E+02  0.47787270136E+02  0.19999995858E+02 0.  0.
        -12    1    3    3    0    0 -0.53177074879E+01  0.36992586886E+02 -0.22065671421E+02  0.43400729864E+02  0.00000000000E+00 0.  1.
         11    1    4    4    0    0 -0.32537708136E+01 -0.74985875533E+01  0.13194298883E+01  0.82798994736E+01  0.51100000000E-03 0. -1.
        -11    1    4    4    0    0  0.18143617056E+01 -0.39865655744E+01  0.10181682293E+02  0.11083829124E+02  0.51100000000E-03 0.  1.
         12    1    4    4    0    0  0.67571165959E+01 -0.25507433759E+02  0.10564559240E+02  0.28423541538E+02  0.00000000000E+00 0. -1.
</event>
<event>
 8    1  0.6046524E-010  0.9118800E+02  0.7816164E-02  0.1184000E+00
        -11   -1    0    0    0    0  0.00000000000E+00  0.00000000000E+00  0.45593999997E+02  0.45594000000E+02  0.51100000000E-03 0. -1.
         11   -1    0    0    0    0 -0.00000000000E+00 -0.00000000000E+00 -0.45593999997E+02  0.45594000000E+02  0.51100000000E-03 0.  1.
         23    2    1    2    0    0  0.00000000000E+00  0.00000000000E+00  0.00000000000E+00  0.91188000000E+02  0.91188000000E+02 0.  0.
    9900012    2    3    3    0    0 -0.23660141881E+02 -0.19222841605E+02 -0.30891783238E+02  0.47787283130E+02  0.20000055102E+02 0.  0.
         12    1    3    3    0    0  0.23660141881E+02  0.19222841605E+02  0.30891783238E+02  0.43400716870E+02  0.00000000000E+00 0. -1.
         11    1    4    4    0    0 -0.18684709805E+02 -0.55058723161E+01 -0.25726096656E+02  0.32268638953E+02  0.51100000000E-03 0. -1.
        -11    1    4    4    0    0 -0.14006732711E+01 -0.41619439062E+01 -0.10306047286E+01  0.45106328889E+01  0.51100000000E-03 0.  1.
         12    1    4    4    0    0 -0.35747588051E+01 -0.95550253830E+01 -0.41350818540E+01  0.11008011288E+02  0.00000000000E+00 0. -1.
</event>
<event>
 8    1  0.6046524E-010  0.9118800E+02  0.7816164E-02  0.1184000E+00
        -11   -1    0    0    0    0  0.00000000000E+00  0.00000000000E+00  0.45593999997E+02  0.45594000000E+02  0.51100000000E-03 0.  1.
         11   -1    0    0    0    0 -0.00000000000E+00 -0.00000000000E+00 -0.45593999997E+02  0.45594000000E+02  0.51100000000E-03 0. -1.
         23    2    1    2    0    0  0.00000000000E+00  0.00000000000E+00  0.35527136788E-14  0.91188000000E+02  0.91188000000E+02 0.  0.
    9900012    2    3    3    0    0 -0.20680977633E+02  0.31500952014E+02 -0.21531627845E+02  0.47787264854E+02  0.19999971773E+02 0.  0.
        -12    1    3    3    0    0  0.20680977633E+02 -0.31500952014E+02  0.21531627845E+02  0.43400735146E+02  0.00000000000E+00 0.  1.
         11    1    4    4    0    0 -0.44884379632E+01  0.13991475258E+02 -0.76918381975E+01  0.16585289577E+02  0.51100000000E-03 0. -1.
        -11    1    4    4    0    0 -0.10343135350E+02  0.19052175421E+02 -0.12433857779E+02  0.24991331631E+02  0.51100000000E-03 0.  1.
        -12    1    4    4    0    0 -0.58494043201E+01 -0.15426986657E+01 -0.14059318676E+01  0.62106436453E+01  0.00000000000E+00 0.  1.
</event>
<event>
 8    1  0.6046524E-010  0.9118800E+02  0.7816164E-02  0.1184000E+00
        -11   -1    0    0    0    0  0.00000000000E+00  0.00000000000E+00  0.45593999997E+02  0.45594000000E+02  0.51100000000E-03 0. -1.
         11   -1    0    0    0    0 -0.00000000000E+00 -0.00000000000E+00 -0.45593999997E+02  0.45594000000E+02  0.51100000000E-03 0.  1.
         23    2    1    2    0    0  0.00000000000E+00  0.35527136788E-14  0.35527136788E-14  0.91188000000E+02  0.91188000000E+02 0.  0.
    9900012    2    3    3    0    0  0.85155687603E+01  0.30439783213E+02  0.29741016244E+02  0.47787270045E+02  0.19999995443E+02 0.  0.
        -12    1    3    3    0    0 -0.85155687603E+01 -0.30439783213E+02 -0.29741016244E+02  0.43400729955E+02  0.00000000000E+00 0.  1.
         11    1    4    4    0    0  0.38392008731E+01  0.22341200845E+02  0.92065519314E+01  0.24466902486E+02  0.51100000000E-03 0. -1.
        -11    1    4    4    0    0 -0.67086554735E+00  0.49626853815E-01  0.48617872570E+01  0.49081054390E+01  0.51100000000E-03 0.  1.
         12    1    4    4    0    0  0.53472334345E+01  0.80489555150E+01  0.15672677056E+02  0.18412262120E+02  0.00000000000E+00 0. -1.
</event>
<event>
 8    1  0.6046524E-010  0.9118800E+02  0.7816164E-02  0.1184000E+00
        -11   -1    0    0    0    0  0.00000000000E+00  0.00000000000E+00  0.45593999997E+02  0.45594000000E+02  0.51100000000E-03 0. -1.
         11   -1    0    0    0    0 -0.00000000000E+00 -0.00000000000E+00 -0.45593999997E+02  0.45594000000E+02  0.51100000000E-03 0.  1.
         23    2    1    2    0    0  0.00000000000E+00  0.00000000000E+00  0.00000000000E+00  0.91188000000E+02  0.91188000000E+02 0.  0.
    9900012    2    3    3    0    0  0.21661744996E+02 -0.13315486349E+02 -0.35172289267E+02  0.47787270682E+02  0.19999998349E+02 0.  0.
         12    1    3    3    0    0 -0.21661744996E+02  0.13315486349E+02  0.35172289267E+02  0.43400729318E+02  0.00000000000E+00 0. -1.
         11    1    4    4    0    0 -0.49822721147E+00 -0.72102278657E+01 -0.68998105400E+01  0.99921470155E+01  0.51100000000E-03 0. -1.
        -11    1    4    4    0    0  0.38988694799E+01 -0.35916090576E+01 -0.12340630024E+02  0.13431008469E+02  0.51100000000E-03 0.  1.
        -12    1    4    4    0    0  0.18261102728E+02 -0.25136494256E+01 -0.15931848703E+02  0.24364115198E+02  0.00000000000E+00 0.  1.
</event>
<event>
 8    1  0.6046524E-010  0.9118800E+02  0.7816164E-02  0.1184000E+00
        -11   -1    0    0    0    0  0.00000000000E+00  0.00000000000E+00  0.45593999997E+02  0.45594000000E+02  0.51100000000E-03 0. -1.
         11   -1    0    0    0    0 -0.00000000000E+00 -0.00000000000E+00 -0.45593999997E+02  0.45594000000E+02  0.51100000000E-03 0.  1.
         23    2    1    2    0    0  0.00000000000E+00  0.35527136788E-14  0.00000000000E+00  0.91188000000E+02  0.91188000000E+02 0.  0.
    9900012    2    3    3    0    0  0.16085138899E+02 -0.16528689527E+02  0.36765391494E+02  0.47787270944E+02  0.19999999540E+02 0.  0.
        -12    1    3    3    0    0 -0.16085138899E+02  0.16528689527E+02 -0.36765391494E+02  0.43400729056E+02  0.00000000000E+00 0.  1.
         11    1    4    4    0    0  0.20596912849E+00 -0.84349689694E+01  0.35178776145E+01  0.91414762467E+01  0.51100000000E-03 0. -1.
        -11    1    4    4    0    0  0.10020739393E+02 -0.64316090394E+01  0.13598930074E+02  0.18075168388E+02  0.51100000000E-03 0.  1.
        -12    1    4    4    0    0  0.58584303780E+01 -0.16621115181E+01  0.19648583806E+02  0.20570626309E+02  0.00000000000E+00 0.  1.
</event>
<event>
 8    1  0.6046524E-010  0.9118800E+02  0.7816164E-02  0.1184000E+00
        -11   -1    0    0    0    0  0.00000000000E+00  0.00000000000E+00  0.45593999997E+02  0.45594000000E+02  0.51100000000E-03 0. -1.
         11   -1    0    0    0    0 -0.00000000000E+00 -0.00000000000E+00 -0.45593999997E+02  0.45594000000E+02  0.51100000000E-03 0.  1.
         23    2    1    2    0    0  0.00000000000E+00  0.00000000000E+00  0.00000000000E+00  0.91188000000E+02  0.91188000000E+02 0.  0.
    9900012    2    3    3    0    0 -0.19418033796E+02  0.22433903727E+02 -0.31674652794E+02  0.47787266106E+02  0.19999977485E+02 0.  0.
         12    1    3    3    0    0  0.19418033796E+02 -0.22433903727E+02  0.31674652794E+02  0.43400733894E+02  0.00000000000E+00 0. -1.
         11    1    4    4    0    0 -0.99945435873E+00  0.14869857755E+01 -0.22583362828E+01  0.28827276560E+01  0.51100000000E-03 0. -1.
        -11    1    4    4    0    0 -0.24106438148E+01  0.12628676250E+02 -0.34945940934E+01  0.13323169877E+02  0.51100000000E-03 0.  1.
        -12    1    4    4    0    0 -0.16007935622E+02  0.83182417017E+01 -0.25921722417E+02  0.31581368574E+02  0.00000000000E+00 0.  1.
</event>
<event>
 8    1  0.6046524E-010  0.9118800E+02  0.7816164E-02  0.1184000E+00
        -11   -1    0    0    0    0  0.00000000000E+00  0.00000000000E+00  0.45593999997E+02  0.45594000000E+02  0.51100000000E-03 0. -1.
         11   -1    0    0    0    0 -0.00000000000E+00 -0.00000000000E+00 -0.45593999997E+02  0.45594000000E+02  0.51100000000E-03 0.  1.
         23    2    1    2    0    0  0.00000000000E+00  0.35527136788E-14  0.71054273576E-14  0.91188000000E+02  0.91188000000E+02 0.  0.
    9900012    2    3    3    0    0  0.26303354092E+02 -0.23646913302E+02  0.25151166194E+02  0.47787261457E+02  0.19999956287E+02 0.  0.
        -12    1    3    3    0    0 -0.26303354092E+02  0.23646913302E+02 -0.25151166194E+02  0.43400738543E+02  0.00000000000E+00 0.  1.
         11    1    4    4    0    0  0.24894065323E+02 -0.19159405056E+02  0.18279333674E+02  0.36344619000E+02  0.51100000000E-03 0. -1.
        -11    1    4    4    0    0  0.97248240058E+00  0.19095193267E+01  0.37314339905E+01  0.43029740837E+01  0.51100000000E-03 0.  1.
         12    1    4    4    0    0  0.43680636805E+00 -0.63970275718E+01  0.31403985294E+01  0.71396683733E+01  0.00000000000E+00 0. -1.
</event>
<event>
 8    1  0.6046524E-010  0.9118800E+02  0.7816164E-02  0.1184000E+00
        -11   -1    0    0    0    0  0.00000000000E+00  0.00000000000E+00  0.45593999997E+02  0.45594000000E+02  0.51100000000E-03 0. -1.
         11   -1    0    0    0    0 -0.00000000000E+00 -0.00000000000E+00 -0.45593999997E+02  0.45594000000E+02  0.51100000000E-03 0.  1.
         23    2    1    2    0    0 -0.35527136788E-14  0.00000000000E+00  0.35527136788E-14  0.91188000000E+02  0.91188000000E+02 0.  0.
    9900012    2    3    3    0    0  0.24581905338E+02 -0.27892528285E+02 -0.22391077178E+02  0.47787267963E+02  0.19999985951E+02 0.  0.
         12    1    3    3    0    0 -0.24581905338E+02  0.27892528285E+02  0.22391077178E+02  0.43400732037E+02  0.00000000000E+00 0. -1.
         11    1    4    4    0    0  0.88351094753E+01 -0.10348331045E+02 -0.16775328503E+02  0.21599971331E+02  0.51100000000E-03 0. -1.
        -11    1    4    4    0    0  0.15059428210E+02 -0.11797191647E+02 -0.67561250080E+01  0.20288058905E+02  0.51100000000E-03 0.  1.
        -12    1    4    4    0    0  0.68736765289E+00 -0.57470055925E+01  0.11403763335E+01  0.58992377264E+01  0.00000000000E+00 0.  1.
</event>
<event>
 8    1  0.6046524E-010  0.9118800E+02  0.7816164E-02  0.1184000E+00
        -11   -1    0    0    0    0  0.00000000000E+00  0.00000000000E+00  0.45593999997E+02  0.45594000000E+02  0.51100000000E-03 0. -1.
         11   -1    0    0    0    0 -0.00000000000E+00 -0.00000000000E+00 -0.45593999997E+02  0.45594000000E+02  0.51100000000E-03 0.  1.
         23    2    1    2    0    0  0.00000000000E+00  0.00000000000E+00  0.00000000000E+00  0.91188000000E+02  0.91188000000E+02 0.  0.
    9900012    2    3    3    0    0 -0.81042355597E+01  0.29713899771E+02 -0.30578241446E+02  0.47787270472E+02  0.19999997391E+02 0.  0.
         12    1    3    3    0    0  0.81042355597E+01 -0.29713899771E+02  0.30578241446E+02  0.43400729528E+02  0.00000000000E+00 0. -1.
         11    1    4    4    0    0 -0.45958997915E+01  0.29989305969E+02 -0.27205931921E+02  0.40750993845E+02  0.51100000000E-03 0.  1.
        -11    1    4    4    0    0  0.11217326786E+01 -0.96479123800E+00 -0.10224066548E+01  0.17984498781E+01  0.51100000000E-03 0. -1.
        -12    1    4    4    0    0 -0.46300684469E+01  0.68938503983E+00 -0.23499028709E+01  0.52378267496E+01  0.00000000000E+00 0.  1.
</event>
<event>
 8    1  0.6046524E-010  0.9118800E+02  0.7816164E-02  0.1184000E+00
        -11   -1    0    0    0    0  0.00000000000E+00  0.00000000000E+00  0.45593999997E+02  0.45594000000E+02  0.51100000000E-03 0. -1.
         11   -1    0    0    0    0 -0.00000000000E+00 -0.00000000000E+00 -0.45593999997E+02  0.45594000000E+02  0.51100000000E-03 0.  1.
         23    2    1    2    0    0  0.17763568394E-14  0.35527136788E-14 -0.71054273576E-14  0.91188000000E+02  0.91188000000E+02 0.  0.
    9900012    2    3    3    0    0 -0.15996500639E+02 -0.24833843769E+02  0.31796461417E+02  0.47787276646E+02  0.20000025539E+02 0.  0.
        -12    1    3    3    0    0  0.15996500639E+02  0.24833843769E+02 -0.31796461417E+02  0.43400723354E+02  0.00000000000E+00 0.  1.
         11    1    4    4    0    0 -0.17330612996E+01 -0.12573084022E+00  0.57899222804E+01  0.60450401146E+01  0.51100000000E-03 0. -1.
        -11    1    4    4    0    0 -0.49455384015E+01 -0.22522383581E+02  0.17689969506E+02  0.29062882404E+02  0.51100000000E-03 0.  1.
         12    1    4    4    0    0 -0.93179009375E+01 -0.21857293476E+01  0.83165696302E+01  0.12679354127E+02  0.00000000000E+00 0. -1.
</event>
<event>
 8    1  0.8429668E-010  0.9118800E+02  0.7816164E-02  0.1184000E+00
        -11   -1    0    0    0    0  0.00000000000E+00  0.00000000000E+00  0.45593999997E+02  0.45594000000E+02  0.51100000000E-03 0. -1.
         11   -1    0    0    0    0 -0.00000000000E+00 -0.00000000000E+00 -0.45593999997E+02  0.45594000000E+02  0.51100000000E-03 0.  1.
         23    2    1    2    0    0 -0.71054273576E-14 -0.88817841970E-15 -0.17763568394E-14  0.91188000000E+02  0.91188000000E+02 0.  0.
    9900012    2    3    3    0    0  0.40268467566E+02  0.53202494400E+01 -0.15289543196E+02  0.47787255014E+02  0.19999926912E+02 0.  0.
         12    1    3    3    0    0 -0.40268467566E+02 -0.53202494400E+01  0.15289543196E+02  0.43400744986E+02  0.00000000000E+00 0. -1.
         11    1    4    4    0    0  0.78932221477E+01 -0.34356714924E+01  0.45916241719E+00  0.86207670693E+01  0.51100000000E-03 0. -1.
        -11    1    4    4    0    0  0.18436784179E+02  0.89319553203E+01 -0.14646073454E+02  0.25183373574E+02  0.51100000000E-03 0.  1.
         12    1    4    4    0    0  0.13938461239E+02 -0.17603438796E+00 -0.11026321583E+01  0.13983114371E+02  0.00000000000E+00 0. -1.
</event>
<event>
 8    1  0.6046524E-010  0.9118800E+02  0.7816164E-02  0.1184000E+00
        -11   -1    0    0    0    0  0.00000000000E+00  0.00000000000E+00  0.45593999997E+02  0.45594000000E+02  0.51100000000E-03 0. -1.
         11   -1    0    0    0    0 -0.00000000000E+00 -0.00000000000E+00 -0.45593999997E+02  0.45594000000E+02  0.51100000000E-03 0.  1.
         23    2    1    2    0    0  0.00000000000E+00  0.00000000000E+00 -0.35527136788E-14  0.91188000000E+02  0.91188000000E+02 0.  0.
    9900012    2    3    3    0    0 -0.33430401124E+02  0.45285702261E+01 -0.27304262098E+02  0.47787281154E+02  0.20000046095E+02 0.  0.
         12    1    3    3    0    0  0.33430401124E+02 -0.45285702261E+01  0.27304262098E+02  0.43400718846E+02  0.00000000000E+00 0. -1.
         11    1    4    4    0    0 -0.33891758402E+02 -0.51096383896E+00 -0.22660565237E+02  0.40772706419E+02  0.51100000000E-03 0.  1.
        -11    1    4    4    0    0  0.45507610669E+00  0.15693493881E+01 -0.74692980590E+00  0.17966235446E+01  0.51100000000E-03 0. -1.
        -12    1    4    4    0    0  0.62811712527E-02  0.34701846769E+01 -0.38967670549E+01  0.52179511904E+01  0.00000000000E+00 0.  1.
</event>
<event>
 8    1  0.6046524E-010  0.9118800E+02  0.7816164E-02  0.1184000E+00
        -11   -1    0    0    0    0  0.00000000000E+00  0.00000000000E+00  0.45593999997E+02  0.45594000000E+02  0.51100000000E-03 0. -1.
         11   -1    0    0    0    0 -0.00000000000E+00 -0.00000000000E+00 -0.45593999997E+02  0.45594000000E+02  0.51100000000E-03 0.  1.
         23    2    1    2    0    0  0.00000000000E+00  0.00000000000E+00  0.35527136788E-14  0.91188000000E+02  0.91188000000E+02 0.  0.
    9900012    2    3    3    0    0  0.83249995773E+00 -0.34623609527E+02  0.26155990818E+02  0.47787271336E+02  0.20000001329E+02 0.  0.
        -12    1    3    3    0    0 -0.83249995773E+00  0.34623609527E+02 -0.26155990818E+02  0.43400728664E+02  0.00000000000E+00 0.  1.
         11    1    4    4    0    0 -0.15548035333E+01  0.82002776704E+00  0.11703941988E+01  0.21117960146E+01  0.51100000000E-03 0. -1.
        -11    1    4    4    0    0 -0.58686846967E+01 -0.17993676898E+02  0.12011384035E+02  0.22416226602E+02  0.51100000000E-03 0.  1.
        -12    1    4    4    0    0  0.82559881877E+01 -0.17449960397E+02  0.12974212584E+02  0.23259248719E+02  0.00000000000E+00 0.  1.
</event>
<event>
 8    1  0.6046524E-010  0.9118800E+02  0.7816164E-02  0.1184000E+00
        -11   -1    0    0    0    0  0.00000000000E+00  0.00000000000E+00  0.45593999997E+02  0.45594000000E+02  0.51100000000E-03 0. -1.
         11   -1    0    0    0    0 -0.00000000000E+00 -0.00000000000E+00 -0.45593999997E+02  0.45594000000E+02  0.51100000000E-03 0.  1.
         23    2    1    2    0    0 -0.44408920985E-15  0.17763568394E-14  0.71054273576E-14  0.91188000000E+02  0.91188000000E+02 0.  0.
    9900012    2    3    3    0    0  0.19845206407E+01 -0.84685907517E+01 -0.42520207786E+02  0.47787269342E+02  0.19999992239E+02 0.  0.
         12    1    3    3    0    0 -0.19845206407E+01  0.84685907517E+01  0.42520207786E+02  0.43400730658E+02  0.00000000000E+00 0. -1.
         11    1    4    4    0    0  0.57151083878E+01 -0.12494826411E+01 -0.10159420080E+02  0.11723373549E+02  0.51100000000E-03 0. -1.
        -11    1    4    4    0    0 -0.31973784410E+01 -0.79630202462E+01 -0.81457759379E+01  0.11831592717E+02  0.51100000000E-03 0.  1.
        -12    1    4    4    0    0 -0.53320930611E+00  0.74391213566E+00 -0.24215011768E+02  0.24232303076E+02  0.00000000000E+00 0.  1.
</event>
<event>
 8    1  0.6046524E-010  0.9118800E+02  0.7816164E-02  0.1184000E+00
        -11   -1    0    0    0    0  0.00000000000E+00  0.00000000000E+00  0.45593999997E+02  0.45594000000E+02  0.51100000000E-03 0. -1.
         11   -1    0    0    0    0 -0.00000000000E+00 -0.00000000000E+00 -0.45593999997E+02  0.45594000000E+02  0.51100000000E-03 0.  1.
         23    2    1    2    0    0  0.00000000000E+00  0.00000000000E+00  0.00000000000E+00  0.91188000000E+02  0.91188000000E+02 0.  0.
    9900012    2    3    3    0    0 -0.30445815228E+02 -0.50520557744E+01 -0.30514788730E+02  0.47787271162E+02  0.20000000535E+02 0.  0.
         12    1    3    3    0    0  0.30445815228E+02  0.50520557744E+01  0.30514788730E+02  0.43400728838E+02  0.00000000000E+00 0. -1.
         11    1    4    4    0    0  0.15976286201E+01 -0.22324114667E+01 -0.77961453408E+00  0.28537479299E+01  0.51100000000E-03 0. -1.
        -11    1    4    4    0    0 -0.10104680402E+02  0.25317252332E+01 -0.53946671796E+01  0.11731011590E+02  0.51100000000E-03 0.  1.
        -12    1    4    4    0    0 -0.21938763446E+02 -0.53513695408E+01 -0.24340507017E+02  0.33202511642E+02  0.00000000000E+00 0.  1.
</event>
<event>
 8    1  0.6046524E-010  0.9118800E+02  0.7816164E-02  0.1184000E+00
        -11   -1    0    0    0    0  0.00000000000E+00  0.00000000000E+00  0.45593999997E+02  0.45594000000E+02  0.51100000000E-03 0. -1.
         11   -1    0    0    0    0 -0.00000000000E+00 -0.00000000000E+00 -0.45593999997E+02  0.45594000000E+02  0.51100000000E-03 0.  1.
         23    2    1    2    0    0  0.00000000000E+00  0.00000000000E+00 -0.71054273576E-14  0.91188000000E+02  0.91188000000E+02 0.  0.
    9900012    2    3    3    0    0 -0.16528065927E+01  0.27494639746E+02 -0.33540066298E+02  0.47787273835E+02  0.20000012723E+02 0.  0.
         12    1    3    3    0    0  0.16528065927E+01 -0.27494639746E+02  0.33540066298E+02  0.43400726165E+02  0.00000000000E+00 0. -1.
         11    1    4    4    0    0 -0.33006147425E+01  0.15657364297E+02 -0.83789528591E+01  0.18062501645E+02  0.51100000000E-03 0. -1.
        -11    1    4    4    0    0  0.55796336248E+01  0.93490291570E+01 -0.14861021468E+02  0.18422448721E+02  0.51100000000E-03 0.  1.
        -12    1    4    4    0    0 -0.39318254750E+01  0.24882462923E+01 -0.10300091971E+02  0.11302323468E+02  0.00000000000E+00 0.  1.
</event>
<event>
 8    1  0.6046524E-010  0.9118800E+02  0.7816164E-02  0.1184000E+00
        -11   -1    0    0    0    0  0.00000000000E+00  0.00000000000E+00  0.45593999997E+02  0.45594000000E+02  0.51100000000E-03 0. -1.
         11   -1    0    0    0    0 -0.00000000000E+00 -0.00000000000E+00 -0.45593999997E+02  0.45594000000E+02  0.51100000000E-03 0.  1.
         23    2    1    2    0    0  0.88817841970E-15 -0.11102230246E-15 -0.71054273576E-14  0.91188000000E+02  0.91188000000E+02 0.  0.
    9900012    2    3    3    0    0  0.72764984241E+01  0.55841249555E+00 -0.42782754190E+02  0.47787270629E+02  0.19999998106E+02 0.  0.
         12    1    3    3    0    0 -0.72764984241E+01 -0.55841249555E+00  0.42782754190E+02  0.43400729371E+02  0.00000000000E+00 0. -1.
         11    1    4    4    0    0 -0.14799173270E+01  0.14222667711E-01 -0.37184710112E+00  0.15259843076E+01  0.51100000000E-03 0. -1.
        -11    1    4    4    0    0  0.12657981501E+02 -0.56360472173E+00 -0.38850465032E+02  0.40864419480E+02  0.51100000000E-03 0.  1.
        -12    1    4    4    0    0 -0.39015657500E+01  0.11077945496E+01 -0.35604420572E+01  0.53968668419E+01  0.00000000000E+00 0.  1.
</event>
<event>
 8    1  0.6223592E-010  0.9118800E+02  0.7816164E-02  0.1184000E+00
        -11   -1    0    0    0    0  0.00000000000E+00  0.00000000000E+00  0.45593999997E+02  0.45594000000E+02  0.51100000000E-03 0. -1.
         11   -1    0    0    0    0 -0.00000000000E+00 -0.00000000000E+00 -0.45593999997E+02  0.45594000000E+02  0.51100000000E-03 0.  1.
         23    2    1    2    0    0  0.88817841970E-15 -0.71054273576E-14  0.00000000000E+00  0.91188000000E+02  0.91188000000E+02 0.  0.
    9900012    2    3    3    0    0 -0.67799869844E+01  0.39689317209E+02 -0.16199173391E+02  0.47787270253E+02  0.19999996392E+02 0.  0.
         12    1    3    3    0    0  0.67799869844E+01 -0.39689317209E+02  0.16199173391E+02  0.43400729747E+02  0.00000000000E+00 0. -1.
         11    1    4    4    0    0 -0.51716810212E+01  0.38711841696E+00 -0.86250850062E+00  0.52573820889E+01  0.51100000000E-03 0. -1.
        -11    1    4    4    0    0 -0.20996196005E+01  0.16604470607E+02 -0.42678249274E+01  0.17272266107E+02  0.51100000000E-03 0.  1.
         12    1    4    4    0    0  0.49131363725E+00  0.22697728185E+02 -0.11068839963E+02  0.25257622057E+02  0.00000000000E+00 0. -1.
</event>
<event>
 8    1  0.6046524E-010  0.9118800E+02  0.7816164E-02  0.1184000E+00
        -11   -1    0    0    0    0  0.00000000000E+00  0.00000000000E+00  0.45593999997E+02  0.45594000000E+02  0.51100000000E-03 0. -1.
         11   -1    0    0    0    0 -0.00000000000E+00 -0.00000000000E+00 -0.45593999997E+02  0.45594000000E+02  0.51100000000E-03 0.  1.
         23    2    1    2    0    0  0.00000000000E+00  0.00000000000E+00  0.00000000000E+00  0.91188000000E+02  0.91188000000E+02 0.  0.
    9900012    2    3    3    0    0  0.26437792537E+02 -0.22282431676E+02 -0.26232798828E+02  0.47787269937E+02  0.19999994953E+02 0.  0.
         12    1    3    3    0    0 -0.26437792537E+02  0.22282431676E+02  0.26232798828E+02  0.43400730063E+02  0.00000000000E+00 0. -1.
         11    1    4    4    0    0  0.14246927717E+02 -0.16526851023E+02 -0.62072635001E+01  0.22685719617E+02  0.51100000000E-03 0. -1.
        -11    1    4    4    0    0  0.23956202519E+01  0.15839768868E+01 -0.32807210297E+01  0.43601731508E+01  0.51100000000E-03 0.  1.
         12    1    4    4    0    0  0.97952445680E+01 -0.73395575398E+01 -0.16744814298E+02  0.20741377170E+02  0.00000000000E+00 0. -1.
</event>
<event>
 8    1  0.6046524E-010  0.9118800E+02  0.7816164E-02  0.1184000E+00
        -11   -1    0    0    0    0  0.00000000000E+00  0.00000000000E+00  0.45593999997E+02  0.45594000000E+02  0.51100000000E-03 0. -1.
         11   -1    0    0    0    0 -0.00000000000E+00 -0.00000000000E+00 -0.45593999997E+02  0.45594000000E+02  0.51100000000E-03 0.  1.
         23    2    1    2    0    0  0.00000000000E+00  0.00000000000E+00  0.00000000000E+00  0.91188000000E+02  0.91188000000E+02 0.  0.
    9900012    2    3    3    0    0 -0.24658430208E+02  0.31496017749E+02  0.16840008292E+02  0.47787271968E+02  0.20000004213E+02 0.  0.
        -12    1    3    3    0    0  0.24658430208E+02 -0.31496017749E+02 -0.16840008292E+02  0.43400728032E+02  0.00000000000E+00 0.  1.
         11    1    4    4    0    0 -0.25343752426E+01 -0.63367017762E-02 -0.34354643347E+00  0.25575618149E+01  0.51100000000E-03 0. -1.
        -11    1    4    4    0    0 -0.23329387790E+02  0.32654743180E+02  0.16101168588E+02  0.43241649101E+02  0.51100000000E-03 0.  1.
        -12    1    4    4    0    0  0.12053328238E+01 -0.11523887292E+01  0.10823861375E+01  0.19880610529E+01  0.00000000000E+00 0.  1.
</event>
<event>
 8    1  0.6046524E-010  0.9118800E+02  0.7816164E-02  0.1184000E+00
        -11   -1    0    0    0    0  0.00000000000E+00  0.00000000000E+00  0.45593999997E+02  0.45594000000E+02  0.51100000000E-03 0. -1.
         11   -1    0    0    0    0 -0.00000000000E+00 -0.00000000000E+00 -0.45593999997E+02  0.45594000000E+02  0.51100000000E-03 0.  1.
         23    2    1    2    0    0  0.35527136788E-14  0.88817841970E-15  0.35527136788E-14  0.91188000000E+02  0.91188000000E+02 0.  0.
    9900012    2    3    3    0    0  0.30862056981E+02 -0.25207000541E+01  0.30410587982E+02  0.47787258633E+02  0.19999943409E+02 0.  0.
        -12    1    3    3    0    0 -0.30862056981E+02  0.25207000541E+01 -0.30410587982E+02  0.43400741367E+02  0.00000000000E+00 0.  1.
         11    1    4    4    0    0  0.14676948364E+02 -0.69063779165E+00  0.22784139915E+02  0.27111009309E+02  0.51100000000E-03 0. -1.
        -11    1    4    4    0    0  0.10468809208E+02 -0.60591436187E+01  0.51525476115E+01  0.13147544819E+02  0.51100000000E-03 0.  1.
         12    1    4    4    0    0  0.57162994093E+01  0.42290813562E+01  0.24739004554E+01  0.75287045046E+01  0.00000000000E+00 0. -1.
</event>
<event>
 8    1  0.6046524E-010  0.9118800E+02  0.7816164E-02  0.1184000E+00
        -11   -1    0    0    0    0  0.00000000000E+00  0.00000000000E+00  0.45593999997E+02  0.45594000000E+02  0.51100000000E-03 0. -1.
         11   -1    0    0    0    0 -0.00000000000E+00 -0.00000000000E+00 -0.45593999997E+02  0.45594000000E+02  0.51100000000E-03 0.  1.
         23    2    1    2    0    0  0.00000000000E+00  0.00000000000E+00  0.00000000000E+00  0.91188000000E+02  0.91188000000E+02 0.  0.
    9900012    2    3    3    0    0  0.11519879481E+02  0.96688662272E+01  0.40711532548E+02  0.47787268672E+02  0.19999989183E+02 0.  0.
        -12    1    3    3    0    0 -0.11519879481E+02 -0.96688662272E+01 -0.40711532548E+02  0.43400731328E+02  0.00000000000E+00 0.  1.
         11    1    4    4    0    0  0.14491894066E+01 -0.88675531085E+00  0.38583459004E+00  0.17422265953E+01  0.51100000000E-03 0. -1.
        -11    1    4    4    0    0  0.11303901398E+02 -0.24659551329E+00  0.19063323256E+02  0.22164144242E+02  0.51100000000E-03 0.  1.
         12    1    4    4    0    0 -0.12332113243E+01  0.10802217051E+02  0.21262374703E+02  0.23880897835E+02  0.00000000000E+00 0. -1.
</event>
<event>
 8    1  0.6046524E-010  0.9118800E+02  0.7816164E-02  0.1184000E+00
        -11   -1    0    0    0    0  0.00000000000E+00  0.00000000000E+00  0.45593999997E+02  0.45594000000E+02  0.51100000000E-03 0.  1.
         11   -1    0    0    0    0 -0.00000000000E+00 -0.00000000000E+00 -0.45593999997E+02  0.45594000000E+02  0.51100000000E-03 0. -1.
         23    2    1    2    0    0  0.35527136788E-14  0.00000000000E+00  0.88817841970E-15  0.91188000000E+02  0.91188000000E+02 0.  0.
    9900012    2    3    3    0    0 -0.16833116908E+02  0.39598977269E+02 -0.56736138769E+01  0.47787277425E+02  0.20000029093E+02 0.  0.
         12    1    3    3    0    0  0.16833116908E+02 -0.39598977269E+02  0.56736138769E+01  0.43400722575E+02  0.00000000000E+00 0. -1.
         11    1    4    4    0    0  0.18189887585E+01  0.10215260261E+02  0.23298930069E+01  0.10634315398E+02  0.51100000000E-03 0. -1.
        -11    1    4    4    0    0 -0.12139063095E+02  0.19605460442E+02 -0.22098324017E+00  0.23060350514E+02  0.51100000000E-03 0.  1.
         12    1    4    4    0    0 -0.65130425713E+01  0.97782565667E+01 -0.77825236436E+01  0.14092611514E+02  0.00000000000E+00 0. -1.
</event>
<event>
 8    1  0.6046524E-010  0.9118800E+02  0.7816164E-02  0.1184000E+00
        -11   -1    0    0    0    0  0.00000000000E+00  0.00000000000E+00  0.45593999997E+02  0.45594000000E+02  0.51100000000E-03 0. -1.
         11   -1    0    0    0    0 -0.00000000000E+00 -0.00000000000E+00 -0.45593999997E+02  0.45594000000E+02  0.51100000000E-03 0.  1.
         23    2    1    2    0    0 -0.33306690739E-15  0.00000000000E+00 -0.17763568394E-14  0.91188000000E+02  0.91188000000E+02 0.  0.
    9900012    2    3    3    0    0  0.75749962007E+00  0.41777340968E+02  0.11734701783E+02  0.47787271320E+02  0.20000001255E+02 0.  0.
        -12    1    3    3    0    0 -0.75749962007E+00 -0.41777340968E+02 -0.11734701783E+02  0.43400728680E+02  0.00000000000E+00 0.  1.
         11    1    4    4    0    0  0.44690630139E+01  0.32316747845E+02  0.47360276096E+01  0.32966265686E+02  0.51100000000E-03 0. -1.
        -11    1    4    4    0    0 -0.53612219479E+01  0.95184655701E+01  0.44751081443E+01  0.11805527551E+02  0.51100000000E-03 0.  1.
        -12    1    4    4    0    0  0.16496585541E+01 -0.57872446677E-01  0.25235660295E+01  0.30154780832E+01  0.00000000000E+00 0.  1.
</event>
<event>
 8    1  0.6046524E-010  0.9118800E+02  0.7816164E-02  0.1184000E+00
        -11   -1    0    0    0    0  0.00000000000E+00  0.00000000000E+00  0.45593999997E+02  0.45594000000E+02  0.51100000000E-03 0. -1.
         11   -1    0    0    0    0 -0.00000000000E+00 -0.00000000000E+00 -0.45593999997E+02  0.45594000000E+02  0.51100000000E-03 0.  1.
         23    2    1    2    0    0 -0.17763568394E-14  0.00000000000E+00  0.35527136788E-14  0.91188000000E+02  0.91188000000E+02 0.  0.
    9900012    2    3    3    0    0  0.15123700842E+02 -0.27019385317E+02  0.30411341191E+02  0.47787272090E+02  0.20000004768E+02 0.  0.
        -12    1    3    3    0    0 -0.15123700842E+02  0.27019385317E+02 -0.30411341191E+02  0.43400727910E+02  0.00000000000E+00 0.  1.
         11    1    4    4    0    0  0.48221481699E+01 -0.91008998261E+01  0.12713585519E+02  0.16361990944E+02  0.51100000000E-03 0. -1.
        -11    1    4    4    0    0  0.61519478343E+01  0.22659969503E+00  0.65998602577E+00  0.61913965624E+01  0.51100000000E-03 0.  1.
        -12    1    4    4    0    0  0.41496048383E+01 -0.18145085186E+02  0.17037769645E+02  0.25233884584E+02  0.00000000000E+00 0.  1.
</event>
<event>
 8    1  0.7923811E-010  0.9118800E+02  0.7816164E-02  0.1184000E+00
        -11   -1    0    0    0    0  0.00000000000E+00  0.00000000000E+00  0.45593999997E+02  0.45594000000E+02  0.51100000000E-03 0. -1.
         11   -1    0    0    0    0 -0.00000000000E+00 -0.00000000000E+00 -0.45593999997E+02  0.45594000000E+02  0.51100000000E-03 0.  1.
         23    2    1    2    0    0  0.00000000000E+00  0.35527136788E-14  0.35527136788E-14  0.91188000000E+02  0.91188000000E+02 0.  0.
    9900012    2    3    3    0    0  0.10944897291E+02 -0.30552887769E+02 -0.28815856959E+02  0.47787270283E+02  0.19999996526E+02 0.  0.
         12    1    3    3    0    0 -0.10944897291E+02  0.30552887769E+02  0.28815856959E+02  0.43400729717E+02  0.00000000000E+00 0. -1.
         11    1    4    4    0    0 -0.21204542843E+01 -0.14248498168E+02 -0.91422692860E+01  0.17061568344E+02  0.51100000000E-03 0. -1.
        -11    1    4    4    0    0  0.79648321397E+01 -0.15350077136E+02 -0.18655051207E+02  0.25437656238E+02  0.51100000000E-03 0.  1.
         12    1    4    4    0    0  0.51005194354E+01 -0.95431246593E+00 -0.10185364651E+01  0.52880456999E+01  0.00000000000E+00 0. -1.
</event>
<event>
 8    1  0.6046524E-010  0.9118800E+02  0.7816164E-02  0.1184000E+00
        -11   -1    0    0    0    0  0.00000000000E+00  0.00000000000E+00  0.45593999997E+02  0.45594000000E+02  0.51100000000E-03 0. -1.
         11   -1    0    0    0    0 -0.00000000000E+00 -0.00000000000E+00 -0.45593999997E+02  0.45594000000E+02  0.51100000000E-03 0.  1.
         23    2    1    2    0    0 -0.35527136788E-14  0.00000000000E+00  0.00000000000E+00  0.91188000000E+02  0.91188000000E+02 0.  0.
    9900012    2    3    3    0    0  0.20161606592E+02  0.21475558148E+01 -0.38373438603E+02  0.47787272281E+02  0.20000005637E+02 0.  0.
         12    1    3    3    0    0 -0.20161606592E+02 -0.21475558148E+01  0.38373438603E+02  0.43400727719E+02  0.00000000000E+00 0. -1.
         11    1    4    4    0    0 -0.10503204926E+01 -0.22099631046E+01 -0.20547455940E+01  0.31951666275E+01  0.51100000000E-03 0. -1.
        -11    1    4    4    0    0  0.15707924415E+02  0.47862255186E+00 -0.34024599111E+02  0.37478544714E+02  0.51100000000E-03 0.  1.
        -12    1    4    4    0    0  0.55040026697E+01  0.38788963675E+01 -0.22940938978E+01  0.71135609387E+01  0.00000000000E+00 0.  1.
</event>
<event>
 8    1  0.6046524E-010  0.9118800E+02  0.7816164E-02  0.1184000E+00
        -11   -1    0    0    0    0  0.00000000000E+00  0.00000000000E+00  0.45593999997E+02  0.45594000000E+02  0.51100000000E-03 0. -1.
         11   -1    0    0    0    0 -0.00000000000E+00 -0.00000000000E+00 -0.45593999997E+02  0.45594000000E+02  0.51100000000E-03 0.  1.
         23    2    1    2    0    0  0.00000000000E+00  0.00000000000E+00  0.00000000000E+00  0.91188000000E+02  0.91188000000E+02 0.  0.
    9900012    2    3    3    0    0 -0.25270319572E+02 -0.65247568287E+01  0.34676530216E+02  0.47787271311E+02  0.20000001213E+02 0.  0.
        -12    1    3    3    0    0  0.25270319572E+02  0.65247568287E+01 -0.34676530216E+02  0.43400728689E+02  0.00000000000E+00 0.  1.
         11    1    4    4    0    0 -0.19129193203E+02 -0.40375207201E+01  0.21676441643E+02  0.29190678798E+02  0.51100000000E-03 0. -1.
        -11    1    4    4    0    0 -0.86296512422E+01  0.10969831638E+01  0.69356766673E+01  0.11125550041E+02  0.51100000000E-03 0.  1.
        -12    1    4    4    0    0  0.24885248731E+01 -0.35842192724E+01  0.60644119060E+01  0.74710424709E+01  0.00000000000E+00 0.  1.
</event>
<event>
 8    1  0.7997716E-010  0.9118800E+02  0.7816164E-02  0.1184000E+00
        -11   -1    0    0    0    0  0.00000000000E+00  0.00000000000E+00  0.45593999997E+02  0.45594000000E+02  0.51100000000E-03 0. -1.
         11   -1    0    0    0    0 -0.00000000000E+00 -0.00000000000E+00 -0.45593999997E+02  0.45594000000E+02  0.51100000000E-03 0.  1.
         23    2    1    2    0    0  0.35527136788E-14  0.35527136788E-14  0.00000000000E+00  0.91188000000E+02  0.91188000000E+02 0.  0.
    9900012    2    3    3    0    0 -0.17212359665E+02 -0.27524039470E+02 -0.28805994977E+02  0.47787269354E+02  0.19999992293E+02 0.  0.
         12    1    3    3    0    0  0.17212359665E+02  0.27524039470E+02  0.28805994977E+02  0.43400730646E+02  0.00000000000E+00 0. -1.
         11    1    4    4    0    0 -0.59268882887E+01 -0.13040617495E+02 -0.18536589059E+02  0.23426285314E+02  0.51100000000E-03 0. -1.
        -11    1    4    4    0    0 -0.41278839403E+01 -0.13375732259E+02 -0.98298990422E+01  0.17104869328E+02  0.51100000000E-03 0.  1.
         12    1    4    4    0    0 -0.71575874362E+01 -0.11076897159E+01 -0.43950687602E+00  0.72561147115E+01  0.00000000000E+00 0. -1.
</event>
<event>
 8    1  0.6046524E-010  0.9118800E+02  0.7816164E-02  0.1184000E+00
        -11   -1    0    0    0    0  0.00000000000E+00  0.00000000000E+00  0.45593999997E+02  0.45594000000E+02  0.51100000000E-03 0. -1.
         11   -1    0    0    0    0 -0.00000000000E+00 -0.00000000000E+00 -0.45593999997E+02  0.45594000000E+02  0.51100000000E-03 0.  1.
         23    2    1    2    0    0  0.00000000000E+00  0.00000000000E+00  0.35527136788E-14  0.91188000000E+02  0.91188000000E+02 0.  0.
    9900012    2    3    3    0    0  0.29972353886E+02 -0.14144529904E+02 -0.28021661812E+02  0.47787271269E+02  0.20000001022E+02 0.  0.
         12    1    3    3    0    0 -0.29972353886E+02  0.14144529904E+02  0.28021661812E+02  0.43400728731E+02  0.00000000000E+00 0. -1.
         11    1    4    4    0    0  0.88745087330E+01 -0.70892266839E-01 -0.23525760674E+00  0.88779095156E+01  0.51100000000E-03 0. -1.
        -11    1    4    4    0    0  0.85261153904E+01 -0.83858363900E+00 -0.12191534201E+02  0.14900717184E+02  0.51100000000E-03 0.  1.
        -12    1    4    4    0    0  0.12571729763E+02 -0.13235053998E+02 -0.15594870005E+02  0.24008644569E+02  0.00000000000E+00 0.  1.
</event>
<event>
 8    1  0.6046524E-010  0.9118800E+02  0.7816164E-02  0.1184000E+00
        -11   -1    0    0    0    0  0.00000000000E+00  0.00000000000E+00  0.45593999997E+02  0.45594000000E+02  0.51100000000E-03 0. -1.
         11   -1    0    0    0    0 -0.00000000000E+00 -0.00000000000E+00 -0.45593999997E+02  0.45594000000E+02  0.51100000000E-03 0.  1.
         23    2    1    2    0    0  0.24980018054E-15  0.00000000000E+00  0.00000000000E+00  0.91188000000E+02  0.91188000000E+02 0.  0.
    9900012    2    3    3    0    0 -0.71978113628E-01  0.26564848169E+02  0.34320932154E+02  0.47787277391E+02  0.20000028936E+02 0.  0.
        -12    1    3    3    0    0  0.71978113628E-01 -0.26564848169E+02 -0.34320932154E+02  0.43400722609E+02  0.00000000000E+00 0.  1.
         11    1    4    4    0    0 -0.27444800998E+01  0.13253103878E+02  0.93977735976E+01  0.16477107825E+02  0.51100000000E-03 0. -1.
        -11    1    4    4    0    0  0.60471854047E+01  0.38143316206E+01  0.42670744475E+01  0.83261937061E+01  0.51100000000E-03 0.  1.
        -12    1    4    4    0    0 -0.33746834186E+01  0.94974126698E+01  0.20656084109E+02  0.22983975860E+02  0.00000000000E+00 0.  1.
</event>
<event>
 8    1  0.6046524E-010  0.9118800E+02  0.7816164E-02  0.1184000E+00
        -11   -1    0    0    0    0  0.00000000000E+00  0.00000000000E+00  0.45593999997E+02  0.45594000000E+02  0.51100000000E-03 0. -1.
         11   -1    0    0    0    0 -0.00000000000E+00 -0.00000000000E+00 -0.45593999997E+02  0.45594000000E+02  0.51100000000E-03 0.  1.
         23    2    1    2    0    0  0.00000000000E+00  0.00000000000E+00  0.00000000000E+00  0.91188000000E+02  0.91188000000E+02 0.  0.
    9900012    2    3    3    0    0  0.17946195749E+02  0.20396928348E+02 -0.33845571077E+02  0.47787270635E+02  0.19999998134E+02 0.  0.
         12    1    3    3    0    0 -0.17946195749E+02 -0.20396928348E+02  0.33845571077E+02  0.43400729365E+02  0.00000000000E+00 0. -1.
         11    1    4    4    0    0  0.82181639643E+01  0.17198024550E+02 -0.21314713524E+02  0.28594182629E+02  0.51100000000E-03 0. -1.
        -11    1    4    4    0    0 -0.21996464350E+01  0.22038345883E+00 -0.14617832773E+01  0.26502497842E+01  0.51100000000E-03 0.  1.
         12    1    4    4    0    0  0.11927678220E+02  0.29785203394E+01 -0.11069074275E+02  0.16542838222E+02  0.00000000000E+00 0. -1.
</event>
<event>
 8    1  0.6046524E-010  0.9118800E+02  0.7816164E-02  0.1184000E+00
        -11   -1    0    0    0    0  0.00000000000E+00  0.00000000000E+00  0.45593999997E+02  0.45594000000E+02  0.51100000000E-03 0. -1.
         11   -1    0    0    0    0 -0.00000000000E+00 -0.00000000000E+00 -0.45593999997E+02  0.45594000000E+02  0.51100000000E-03 0.  1.
         23    2    1    2    0    0  0.00000000000E+00  0.00000000000E+00  0.00000000000E+00  0.91188000000E+02  0.91188000000E+02 0.  0.
    9900012    2    3    3    0    0 -0.12975413528E+02 -0.32778447290E+02 -0.25314729135E+02  0.47787268737E+02  0.19999989478E+02 0.  0.
         12    1    3    3    0    0  0.12975413528E+02  0.32778447290E+02  0.25314729135E+02  0.43400731263E+02  0.00000000000E+00 0. -1.
         11    1    4    4    0    0 -0.40209950108E+01 -0.18620420437E+02 -0.23723184907E+02  0.30424956212E+02  0.51100000000E-03 0. -1.
        -11    1    4    4    0    0 -0.16020386137E+01 -0.12608146785E+01 -0.14746908386E+01  0.25161269252E+01  0.51100000000E-03 0.  1.
        -12    1    4    4    0    0 -0.73523799037E+01 -0.12897212175E+02 -0.11685338992E+00  0.14846185599E+02  0.00000000000E+00 0.  1.
</event>
<event>
 8    1  0.6046524E-010  0.9118800E+02  0.7816164E-02  0.1184000E+00
        -11   -1    0    0    0    0  0.00000000000E+00  0.00000000000E+00  0.45593999997E+02  0.45594000000E+02  0.51100000000E-03 0. -1.
         11   -1    0    0    0    0 -0.00000000000E+00 -0.00000000000E+00 -0.45593999997E+02  0.45594000000E+02  0.51100000000E-03 0.  1.
         23    2    1    2    0    0  0.00000000000E+00  0.00000000000E+00  0.71054273576E-14  0.91188000000E+02  0.91188000000E+02 0.  0.
    9900012    2    3    3    0    0  0.87372105594E+01  0.45756934430E+01 -0.42265168949E+02  0.47787305016E+02  0.20000154888E+02 0.  0.
         12    1    3    3    0    0 -0.87372105594E+01 -0.45756934430E+01  0.42265168949E+02  0.43400694984E+02  0.00000000000E+00 0. -1.
         11    1    4    4    0    0 -0.16558084842E+00 -0.19143682878E+01 -0.51407635166E+01  0.54881392797E+01  0.51100000000E-03 0. -1.
        -11    1    4    4    0    0  0.51652007869E+01  0.55190731106E+01 -0.32881531264E+01  0.82432650335E+01  0.51100000000E-03 0.  1.
        -12    1    4    4    0    0  0.37375906209E+01  0.97098862017E+00 -0.33836252306E+02  0.34055900702E+02  0.00000000000E+00 0.  1.
</event>
<event>
 8    1  0.6046524E-010  0.9118800E+02  0.7816164E-02  0.1184000E+00
        -11   -1    0    0    0    0  0.00000000000E+00  0.00000000000E+00  0.45593999997E+02  0.45594000000E+02  0.51100000000E-03 0.  1.
         11   -1    0    0    0    0 -0.00000000000E+00 -0.00000000000E+00 -0.45593999997E+02  0.45594000000E+02  0.51100000000E-03 0. -1.
         23    2    1    2    0    0  0.00000000000E+00  0.00000000000E+00 -0.35527136788E-14  0.91188000000E+02  0.91188000000E+02 0.  0.
    9900012    2    3    3    0    0 -0.14409119013E+02 -0.28055706894E+02  0.29814049004E+02  0.47787275143E+02  0.20000018688E+02 0.  0.
        -12    1    3    3    0    0  0.14409119013E+02  0.28055706894E+02 -0.29814049004E+02  0.43400724857E+02  0.00000000000E+00 0.  1.
         11    1    4    4    0    0 -0.11517788097E+02 -0.17425600750E+02  0.17547432257E+02  0.27280457900E+02  0.51100000000E-03 0. -1.
        -11    1    4    4    0    0  0.10591547708E+01 -0.36273969866E+01 -0.18908982506E+01  0.42255548963E+01  0.51100000000E-03 0.  1.
         12    1    4    4    0    0 -0.39504856875E+01 -0.70027091575E+01  0.14157514997E+02  0.16281262347E+02  0.00000000000E+00 0. -1.
</event>
<event>
 8    1  0.6046524E-010  0.9118800E+02  0.7816164E-02  0.1184000E+00
        -11   -1    0    0    0    0  0.00000000000E+00  0.00000000000E+00  0.45593999997E+02  0.45594000000E+02  0.51100000000E-03 0. -1.
         11   -1    0    0    0    0 -0.00000000000E+00 -0.00000000000E+00 -0.45593999997E+02  0.45594000000E+02  0.51100000000E-03 0.  1.
         23    2    1    2    0    0  0.66613381478E-15  0.00000000000E+00 -0.71054273576E-14  0.91188000000E+02  0.91188000000E+02 0.  0.
    9900012    2    3    3    0    0  0.16047475044E+01  0.31221119361E+02  0.30104637903E+02  0.47787277287E+02  0.20000028461E+02 0.  0.
        -12    1    3    3    0    0 -0.16047475044E+01 -0.31221119361E+02 -0.30104637903E+02  0.43400722713E+02  0.00000000000E+00 0.  1.
         11    1    4    4    0    0 -0.54524883393E+01  0.57176996716E+01  0.27152596272E+01  0.83543015105E+01  0.51100000000E-03 0. -1.
        -11    1    4    4    0    0  0.16736538850E+01  0.71016726822E+01  0.19035913866E+01  0.75404597101E+01  0.51100000000E-03 0.  1.
         12    1    4    4    0    0  0.53835819588E+01  0.18401747008E+02  0.25485786890E+02  0.31892516066E+02  0.00000000000E+00 0. -1.
</event>
<event>
 8    1  0.6046524E-010  0.9118800E+02  0.7816164E-02  0.1184000E+00
        -11   -1    0    0    0    0  0.00000000000E+00  0.00000000000E+00  0.45593999997E+02  0.45594000000E+02  0.51100000000E-03 0. -1.
         11   -1    0    0    0    0 -0.00000000000E+00 -0.00000000000E+00 -0.45593999997E+02  0.45594000000E+02  0.51100000000E-03 0.  1.
         23    2    1    2    0    0  0.00000000000E+00  0.17763568394E-14  0.71054273576E-14  0.91188000000E+02  0.91188000000E+02 0.  0.
    9900012    2    3    3    0    0  0.24577700006E+02 -0.10705203014E+02 -0.34131487528E+02  0.47787272471E+02  0.20000006503E+02 0.  0.
         12    1    3    3    0    0 -0.24577700006E+02  0.10705203014E+02  0.34131487528E+02  0.43400727529E+02  0.00000000000E+00 0. -1.
         11    1    4    4    0    0  0.44542923789E+01 -0.22698027917E+01 -0.18195854759E+02  0.18870131318E+02  0.51100000000E-03 0. -1.
        -11    1    4    4    0    0  0.58656512025E+01  0.95615161236E+00 -0.60944756171E+00  0.59742377360E+01  0.51100000000E-03 0.  1.
        -12    1    4    4    0    0  0.14257756425E+02 -0.93915518352E+01 -0.15326185208E+02  0.22942903416E+02  0.00000000000E+00 0.  1.
</event>
<event>
 8    1  0.6046524E-010  0.9118800E+02  0.7816164E-02  0.1184000E+00
        -11   -1    0    0    0    0  0.00000000000E+00  0.00000000000E+00  0.45593999997E+02  0.45594000000E+02  0.51100000000E-03 0. -1.
         11   -1    0    0    0    0 -0.00000000000E+00 -0.00000000000E+00 -0.45593999997E+02  0.45594000000E+02  0.51100000000E-03 0.  1.
         23    2    1    2    0    0  0.00000000000E+00 -0.35527136788E-14  0.00000000000E+00  0.91188000000E+02  0.91188000000E+02 0.  0.
    9900012    2    3    3    0    0  0.11881987519E+02 -0.16429736628E+02 -0.38373235848E+02  0.47787273018E+02  0.20000008999E+02 0.  0.
         12    1    3    3    0    0 -0.11881987519E+02  0.16429736628E+02  0.38373235848E+02  0.43400726982E+02  0.00000000000E+00 0. -1.
         11    1    4    4    0    0  0.10329733579E+02 -0.86641393619E+01 -0.86158298546E+01  0.16000100970E+02  0.51100000000E-03 0. -1.
        -11    1    4    4    0    0 -0.25876224554E+01 -0.30888805751E+00 -0.58566695401E+01  0.64102870580E+01  0.51100000000E-03 0.  1.
        -12    1    4    4    0    0  0.41398763956E+01 -0.74567092091E+01 -0.23900736453E+02  0.25376884990E+02  0.00000000000E+00 0.  1.
</event>
<event>
 8    1 -0.6046524E-010  0.9118800E+02  0.7816164E-02  0.1184000E+00
        -11   -1    0    0    0    0  0.00000000000E+00  0.00000000000E+00  0.45593999997E+02  0.45594000000E+02  0.51100000000E-03 0.  1.
         11   -1    0    0    0    0 -0.00000000000E+00 -0.00000000000E+00 -0.45593999997E+02  0.45594000000E+02  0.51100000000E-03 0. -1.
         23    2    1    2    0    0  0.00000000000E+00 -0.71054273576E-14  0.26645352591E-14  0.91188000000E+02  0.91188000000E+02 0.  0.
    9900012    2    3    3    0    0 -0.17275245732E+02  0.39192607001E+02  0.70091865992E+01  0.47787271257E+02  0.20000000969E+02 0.  0.
        -12    1    3    3    0    0  0.17275245732E+02 -0.39192607001E+02 -0.70091865992E+01  0.43400728743E+02  0.00000000000E+00 0.  1.
         11    1    4    4    0    0 -0.43621735716E+01  0.59489940107E+01  0.81477943423E+01  0.10991161946E+02  0.51100000000E-03 0.  1.
        -11    1    4    4    0    0 -0.77930411532E+01  0.21205021138E+02  0.36109926788E+01  0.22878454499E+02  0.51100000000E-03 0. -1.
         12    1    4    4    0    0 -0.51200310069E+01  0.12038591853E+02 -0.47496004220E+01  0.13917654813E+02  0.00000000000E+00 0. -1.
</event>
<event>
 8    1  0.6046524E-010  0.9118800E+02  0.7816164E-02  0.1184000E+00
        -11   -1    0    0    0    0  0.00000000000E+00  0.00000000000E+00  0.45593999997E+02  0.45594000000E+02  0.51100000000E-03 0. -1.
         11   -1    0    0    0    0 -0.00000000000E+00 -0.00000000000E+00 -0.45593999997E+02  0.45594000000E+02  0.51100000000E-03 0.  1.
         23    2    1    2    0    0  0.00000000000E+00  0.35527136788E-14 -0.35527136788E-14  0.91188000000E+02  0.91188000000E+02 0.  0.
    9900012    2    3    3    0    0 -0.33380251646E+02 -0.16274070951E+02  0.22461878390E+02  0.47787279198E+02  0.20000037177E+02 0.  0.
        -12    1    3    3    0    0  0.33380251646E+02  0.16274070951E+02 -0.22461878390E+02  0.43400720802E+02  0.00000000000E+00 0.  1.
         11    1    4    4    0    0 -0.22103330514E+02 -0.14534738965E+02  0.14205325762E+02  0.30026773667E+02  0.51100000000E-03 0. -1.
        -11    1    4    4    0    0 -0.12940254128E+01 -0.39754355975E+01  0.59525083108E+01  0.72739910235E+01  0.51100000000E-03 0.  1.
         12    1    4    4    0    0 -0.99828957190E+01  0.22361036115E+01  0.23040443176E+01  0.10486514507E+02  0.00000000000E+00 0. -1.
</event>
<event>
 8    1  0.6046524E-010  0.9118800E+02  0.7816164E-02  0.1184000E+00
        -11   -1    0    0    0    0  0.00000000000E+00  0.00000000000E+00  0.45593999997E+02  0.45594000000E+02  0.51100000000E-03 0. -1.
         11   -1    0    0    0    0 -0.00000000000E+00 -0.00000000000E+00 -0.45593999997E+02  0.45594000000E+02  0.51100000000E-03 0.  1.
         23    2    1    2    0    0  0.00000000000E+00  0.00000000000E+00  0.00000000000E+00  0.91188000000E+02  0.91188000000E+02 0.  0.
    9900012    2    3    3    0    0  0.16324501729E+02 -0.17545138276E+02  0.36184277868E+02  0.47787271911E+02  0.20000003952E+02 0.  0.
        -12    1    3    3    0    0 -0.16324501729E+02  0.17545138276E+02 -0.36184277868E+02  0.43400728089E+02  0.00000000000E+00 0.  1.
         11    1    4    4    0    0  0.12416149576E+02 -0.78194437649E+01  0.22620606719E+02  0.26962869278E+02  0.51100000000E-03 0. -1.
        -11    1    4    4    0    0  0.63539450711E+01 -0.81051449356E+01  0.43943203234E+01  0.11197144447E+02  0.51100000000E-03 0.  1.
         12    1    4    4    0    0 -0.24455929178E+01 -0.16205495758E+01  0.91693508247E+01  0.96272581867E+01  0.00000000000E+00 0. -1.
</event>
<event>
 8    1  0.6046524E-010  0.9118800E+02  0.7816164E-02  0.1184000E+00
        -11   -1    0    0    0    0  0.00000000000E+00  0.00000000000E+00  0.45593999997E+02  0.45594000000E+02  0.51100000000E-03 0. -1.
         11   -1    0    0    0    0 -0.00000000000E+00 -0.00000000000E+00 -0.45593999997E+02  0.45594000000E+02  0.51100000000E-03 0.  1.
         23    2    1    2    0    0  0.00000000000E+00  0.35527136788E-14  0.00000000000E+00  0.91188000000E+02  0.91188000000E+02 0.  0.
    9900012    2    3    3    0    0  0.20079723815E+02  0.29000999278E+02 -0.25285750099E+02  0.47787280816E+02  0.20000044553E+02 0.  0.
         12    1    3    3    0    0 -0.20079723815E+02 -0.29000999278E+02  0.25285750099E+02  0.43400719184E+02  0.00000000000E+00 0. -1.
         11    1    4    4    0    0  0.52669827185E+01  0.50903946415E+01 -0.52808436353E+01  0.90299797522E+01  0.51100000000E-03 0.  1.
        -11    1    4    4    0    0  0.95823167472E+01  0.22545685369E+02 -0.22067816716E+02  0.32971461264E+02  0.51100000000E-03 0. -1.
         12    1    4    4    0    0  0.52304243493E+01  0.13649192674E+01  0.20629102525E+01  0.57858397999E+01  0.00000000000E+00 0. -1.
</event>
<event>
 8    1  0.6046524E-010  0.9118800E+02  0.7816164E-02  0.1184000E+00
        -11   -1    0    0    0    0  0.00000000000E+00  0.00000000000E+00  0.45593999997E+02  0.45594000000E+02  0.51100000000E-03 0. -1.
         11   -1    0    0    0    0 -0.00000000000E+00 -0.00000000000E+00 -0.45593999997E+02  0.45594000000E+02  0.51100000000E-03 0.  1.
         23    2    1    2    0    0  0.00000000000E+00 -0.35527136788E-14  0.00000000000E+00  0.91188000000E+02  0.91188000000E+02 0.  0.
    9900012    2    3    3    0    0 -0.11342112604E+02 -0.18579832736E+02 -0.37546894728E+02  0.47787274124E+02  0.20000014042E+02 0.  0.
         12    1    3    3    0    0  0.11342112604E+02  0.18579832736E+02  0.37546894728E+02  0.43400725876E+02  0.00000000000E+00 0. -1.
         11    1    4    4    0    0 -0.55431761011E+01 -0.12472905161E+02 -0.30035998731E+02  0.32991838149E+02  0.51100000000E-03 0. -1.
        -11    1    4    4    0    0 -0.78427858364E+01 -0.68304556831E+01 -0.70895336593E+01  0.12586735172E+02  0.51100000000E-03 0.  1.
        -12    1    4    4    0    0  0.20438493335E+01  0.72352810736E+00 -0.42136233785E+00  0.22087008036E+01  0.00000000000E+00 0.  1.
</event>
<event>
 8    1  0.6046524E-010  0.9118800E+02  0.7816164E-02  0.1184000E+00
        -11   -1    0    0    0    0  0.00000000000E+00  0.00000000000E+00  0.45593999997E+02  0.45594000000E+02  0.51100000000E-03 0. -1.
         11   -1    0    0    0    0 -0.00000000000E+00 -0.00000000000E+00 -0.45593999997E+02  0.45594000000E+02  0.51100000000E-03 0.  1.
         23    2    1    2    0    0  0.35527136788E-14  0.17763568394E-14 -0.71054273576E-14  0.91188000000E+02  0.91188000000E+02 0.  0.
    9900012    2    3    3    0    0 -0.18477397160E+02 -0.15287240724E+02  0.36173321019E+02  0.47787273182E+02  0.20000009747E+02 0.  0.
        -12    1    3    3    0    0  0.18477397160E+02  0.15287240724E+02 -0.36173321019E+02  0.43400726818E+02  0.00000000000E+00 0.  1.
         11    1    4    4    0    0 -0.14701277557E+02 -0.27971992488E+01  0.11513014654E+02  0.18881244454E+02  0.51100000000E-03 0.  1.
        -11    1    4    4    0    0 -0.38805220368E+00 -0.49088747305E+01  0.31422741077E+01  0.58413630654E+01  0.51100000000E-03 0. -1.
        -12    1    4    4    0    0 -0.33880673995E+01 -0.75811667444E+01  0.21518032257E+02  0.23064665663E+02  0.00000000000E+00 0.  1.
</event>
<event>
 8    1  0.6046524E-010  0.9118800E+02  0.7816164E-02  0.1184000E+00
        -11   -1    0    0    0    0  0.00000000000E+00  0.00000000000E+00  0.45593999997E+02  0.45594000000E+02  0.51100000000E-03 0. -1.
         11   -1    0    0    0    0 -0.00000000000E+00 -0.00000000000E+00 -0.45593999997E+02  0.45594000000E+02  0.51100000000E-03 0.  1.
         23    2    1    2    0    0  0.00000000000E+00  0.00000000000E+00  0.00000000000E+00  0.91188000000E+02  0.91188000000E+02 0.  0.
    9900012    2    3    3    0    0  0.69307558209E+01  0.21706913906E+02 -0.36937759156E+02  0.47787267990E+02  0.19999986073E+02 0.  0.
         12    1    3    3    0    0 -0.69307558209E+01 -0.21706913906E+02  0.36937759156E+02  0.43400732010E+02  0.00000000000E+00 0. -1.
         11    1    4    4    0    0 -0.26853575959E+01  0.60333491384E+01 -0.78453683922E+01  0.10254864832E+02  0.51100000000E-03 0. -1.
        -11    1    4    4    0    0 -0.24109100909E+01  0.16938581521E+01  0.16165643429E+00  0.29508940967E+01  0.51100000000E-03 0.  1.
        -12    1    4    4    0    0  0.12027023508E+02  0.13979706615E+02 -0.29254047198E+02  0.34581509061E+02  0.00000000000E+00 0.  1.
</event>
<event>
 8    1  0.6046524E-010  0.9118800E+02  0.7816164E-02  0.1184000E+00
        -11   -1    0    0    0    0  0.00000000000E+00  0.00000000000E+00  0.45593999997E+02  0.45594000000E+02  0.51100000000E-03 0. -1.
         11   -1    0    0    0    0 -0.00000000000E+00 -0.00000000000E+00 -0.45593999997E+02  0.45594000000E+02  0.51100000000E-03 0.  1.
         23    2    1    2    0    0  0.00000000000E+00 -0.71054273576E-14  0.00000000000E+00  0.91188000000E+02  0.91188000000E+02 0.  0.
    9900012    2    3    3    0    0  0.22345457782E+02  0.35742973010E+02 -0.10331697114E+02  0.47787267652E+02  0.19999984533E+02 0.  0.
         12    1    3    3    0    0 -0.22345457782E+02 -0.35742973010E+02  0.10331697114E+02  0.43400732348E+02  0.00000000000E+00 0. -1.
         11    1    4    4    0    0  0.43572230228E+01  0.88948584637E+01  0.38011043745E+01  0.10609066608E+02  0.51100000000E-03 0. -1.
        -11    1    4    4    0    0  0.15256982626E+02  0.21777662220E+02 -0.60777365320E+01  0.27276014596E+02  0.51100000000E-03 0.  1.
        -12    1    4    4    0    0  0.27312521333E+01  0.50704523259E+01 -0.80550649565E+01  0.99021864484E+01  0.00000000000E+00 0.  1.
</event>
<event>
 8    1  0.6046524E-010  0.9118800E+02  0.7816164E-02  0.1184000E+00
        -11   -1    0    0    0    0  0.00000000000E+00  0.00000000000E+00  0.45593999997E+02  0.45594000000E+02  0.51100000000E-03 0. -1.
         11   -1    0    0    0    0 -0.00000000000E+00 -0.00000000000E+00 -0.45593999997E+02  0.45594000000E+02  0.51100000000E-03 0.  1.
         23    2    1    2    0    0 -0.88817841970E-15  0.22204460493E-14  0.00000000000E+00  0.91188000000E+02  0.91188000000E+02 0.  0.
    9900012    2    3    3    0    0  0.79113102121E+01 -0.33854468847E+01 -0.42539075702E+02  0.47787273722E+02  0.20000012208E+02 0.  0.
         12    1    3    3    0    0 -0.79113102121E+01  0.33854468847E+01  0.42539075702E+02  0.43400726278E+02  0.00000000000E+00 0. -1.
         11    1    4    4    0    0  0.31154524844E+01  0.60698554021E+01 -0.63621893296E+01  0.93288071108E+01  0.51100000000E-03 0. -1.
        -11    1    4    4    0    0 -0.29196788845E+00  0.86757430520E+00 -0.75430446577E+01  0.75983849200E+01  0.51100000000E-03 0.  1.
        -12    1    4    4    0    0  0.50878256162E+01 -0.10322876592E+02 -0.28633841715E+02  0.30860081691E+02  0.00000000000E+00 0.  1.
</event>
<event>
 8    1  0.6046524E-010  0.9118800E+02  0.7816164E-02  0.1184000E+00
        -11   -1    0    0    0    0  0.00000000000E+00  0.00000000000E+00  0.45593999997E+02  0.45594000000E+02  0.51100000000E-03 0. -1.
         11   -1    0    0    0    0 -0.00000000000E+00 -0.00000000000E+00 -0.45593999997E+02  0.45594000000E+02  0.51100000000E-03 0.  1.
         23    2    1    2    0    0  0.00000000000E+00  0.00000000000E+00  0.00000000000E+00  0.91188000000E+02  0.91188000000E+02 0.  0.
    9900012    2    3    3    0    0 -0.38441158611E+02 -0.11166783390E+02 -0.16769133055E+02  0.47787267862E+02  0.19999985492E+02 0.  0.
         12    1    3    3    0    0  0.38441158611E+02  0.11166783390E+02  0.16769133055E+02  0.43400732138E+02  0.00000000000E+00 0. -1.
         11    1    4    4    0    0 -0.40494261175E+01 -0.37685781022E+01  0.56871976403E+00  0.55608879888E+01  0.51100000000E-03 0. -1.
        -11    1    4    4    0    0 -0.36063418772E+02 -0.67440308049E+01 -0.16240251608E+02  0.40122286794E+02  0.51100000000E-03 0.  1.
         12    1    4    4    0    0  0.16716862786E+01 -0.65417448325E+00 -0.10976012110E+01  0.21040930794E+01  0.00000000000E+00 0. -1.
</event>
<event>
 8    1  0.6046524E-010  0.9118800E+02  0.7816164E-02  0.1184000E+00
        -11   -1    0    0    0    0  0.00000000000E+00  0.00000000000E+00  0.45593999997E+02  0.45594000000E+02  0.51100000000E-03 0. -1.
         11   -1    0    0    0    0 -0.00000000000E+00 -0.00000000000E+00 -0.45593999997E+02  0.45594000000E+02  0.51100000000E-03 0.  1.
         23    2    1    2    0    0 -0.44408920985E-15 -0.17763568394E-14  0.00000000000E+00  0.91188000000E+02  0.91188000000E+02 0.  0.
    9900012    2    3    3    0    0 -0.23423576172E+01 -0.15463593126E+02 -0.40484731988E+02  0.47787275632E+02  0.20000020915E+02 0.  0.
         12    1    3    3    0    0  0.23423576172E+01  0.15463593126E+02  0.40484731988E+02  0.43400724368E+02  0.00000000000E+00 0. -1.
         11    1    4    4    0    0 -0.60732243655E+01 -0.13647402825E+02 -0.16933393620E+02  0.22580422446E+02  0.51100000000E-03 0. -1.
        -11    1    4    4    0    0  0.40170448819E+01 -0.32139430312E+01 -0.75152366791E+01  0.91074069852E+01  0.51100000000E-03 0.  1.
         12    1    4    4    0    0 -0.28617813370E+00  0.13977527300E+01 -0.16036101688E+02  0.16099446201E+02  0.00000000000E+00 0. -1.
</event>
<event>
 8    1  0.6046524E-010  0.9118800E+02  0.7816164E-02  0.1184000E+00
        -11   -1    0    0    0    0  0.00000000000E+00  0.00000000000E+00  0.45593999997E+02  0.45594000000E+02  0.51100000000E-03 0. -1.
         11   -1    0    0    0    0 -0.00000000000E+00 -0.00000000000E+00 -0.45593999997E+02  0.45594000000E+02  0.51100000000E-03 0.  1.
         23    2    1    2    0    0  0.17763568394E-14  0.00000000000E+00  0.00000000000E+00  0.91188000000E+02  0.91188000000E+02 0.  0.
    9900012    2    3    3    0    0  0.15218974245E+02  0.22959056058E+02  0.33539351853E+02  0.47787267807E+02  0.19999985239E+02 0.  0.
        -12    1    3    3    0    0 -0.15218974245E+02 -0.22959056058E+02 -0.33539351853E+02  0.43400732193E+02  0.00000000000E+00 0.  1.
         11    1    4    4    0    0  0.39258247844E+01  0.12874220642E+02  0.13773092843E+02  0.19257615224E+02  0.51100000000E-03 0. -1.
        -11    1    4    4    0    0  0.10828459676E+01 -0.13192998522E+01  0.10497003568E+02  0.10634857388E+02  0.51100000000E-03 0.  1.
         12    1    4    4    0    0  0.10210303493E+02  0.11404135268E+02  0.92692554418E+01  0.17894795195E+02  0.00000000000E+00 0. -1.
</event>
<event>
 8    1  0.6046524E-010  0.9118800E+02  0.7816164E-02  0.1184000E+00
        -11   -1    0    0    0    0  0.00000000000E+00  0.00000000000E+00  0.45593999997E+02  0.45594000000E+02  0.51100000000E-03 0. -1.
         11   -1    0    0    0    0 -0.00000000000E+00 -0.00000000000E+00 -0.45593999997E+02  0.45594000000E+02  0.51100000000E-03 0.  1.
         23    2    1    2    0    0  0.00000000000E+00 -0.35527136788E-14  0.00000000000E+00  0.91188000000E+02  0.91188000000E+02 0.  0.
    9900012    2    3    3    0    0  0.13591675823E+02  0.25144349506E+02  0.32659632284E+02  0.47787267924E+02  0.19999985775E+02 0.  0.
        -12    1    3    3    0    0 -0.13591675823E+02 -0.25144349506E+02 -0.32659632284E+02  0.43400732076E+02  0.00000000000E+00 0.  1.
         11    1    4    4    0    0  0.33060636139E+01  0.11568014882E+02  0.46973410129E+01  0.12915650885E+02  0.51100000000E-03 0. -1.
        -11    1    4    4    0    0 -0.14423370987E+01 -0.88585078062E+00  0.51728910167E+01  0.54427814252E+01  0.51100000000E-03 0.  1.
        -12    1    4    4    0    0  0.11727949307E+02  0.14462185404E+02  0.22789400255E+02  0.29428835614E+02  0.00000000000E+00 0.  1.
</event>
<event>
 8    1  0.6046524E-010  0.9118800E+02  0.7816164E-02  0.1184000E+00
        -11   -1    0    0    0    0  0.00000000000E+00  0.00000000000E+00  0.45593999997E+02  0.45594000000E+02  0.51100000000E-03 0. -1.
         11   -1    0    0    0    0 -0.00000000000E+00 -0.00000000000E+00 -0.45593999997E+02  0.45594000000E+02  0.51100000000E-03 0.  1.
         23    2    1    2    0    0  0.00000000000E+00 -0.35527136788E-14  0.00000000000E+00  0.91188000000E+02  0.91188000000E+02 0.  0.
    9900012    2    3    3    0    0  0.96614624458E+01  0.22820867792E+02  0.35629865246E+02  0.47787272347E+02  0.20000005939E+02 0.  0.
        -12    1    3    3    0    0 -0.96614624458E+01 -0.22820867792E+02 -0.35629865246E+02  0.43400727653E+02  0.00000000000E+00 0.  1.
         11    1    4    4    0    0  0.14876110795E+01  0.57411374775E+01  0.15125316198E+01  0.61205717397E+01  0.51100000000E-03 0.  1.
        -11    1    4    4    0    0  0.65248077059E+01  0.48000339846E+00  0.14553987712E+02  0.15956881821E+02  0.51100000000E-03 0. -1.
        -12    1    4    4    0    0  0.16490436604E+01  0.16599726916E+02  0.19563345914E+02  0.25709818787E+02  0.00000000000E+00 0.  1.
</event>
<event>
 8    1  0.6046524E-010  0.9118800E+02  0.7816164E-02  0.1184000E+00
        -11   -1    0    0    0    0  0.00000000000E+00  0.00000000000E+00  0.45593999997E+02  0.45594000000E+02  0.51100000000E-03 0. -1.
         11   -1    0    0    0    0 -0.00000000000E+00 -0.00000000000E+00 -0.45593999997E+02  0.45594000000E+02  0.51100000000E-03 0.  1.
         23    2    1    2    0    0  0.71054273576E-14 -0.88817841970E-15  0.17763568394E-14  0.91188000000E+02  0.91188000000E+02 0.  0.
    9900012    2    3    3    0    0 -0.40767931987E+02  0.52676702732E+01 -0.13923025683E+02  0.47787271057E+02  0.20000000057E+02 0.  0.
         12    1    3    3    0    0  0.40767931987E+02 -0.52676702732E+01  0.13923025683E+02  0.43400728943E+02  0.00000000000E+00 0. -1.
         11    1    4    4    0    0 -0.24578489602E+02  0.12820115038E+01 -0.98505414040E+01  0.26509976817E+02  0.51100000000E-03 0. -1.
        -11    1    4    4    0    0 -0.17368154179E+02  0.80070027253E+00 -0.26169400521E+01  0.17582442265E+02  0.51100000000E-03 0.  1.
         12    1    4    4    0    0  0.11787117938E+01  0.31849584969E+01 -0.14555442268E+01  0.36948519748E+01  0.00000000000E+00 0. -1.
</event>
<event>
 8    1  0.6046524E-010  0.9118800E+02  0.7816164E-02  0.1184000E+00
        -11   -1    0    0    0    0  0.00000000000E+00  0.00000000000E+00  0.45593999997E+02  0.45594000000E+02  0.51100000000E-03 0. -1.
         11   -1    0    0    0    0 -0.00000000000E+00 -0.00000000000E+00 -0.45593999997E+02  0.45594000000E+02  0.51100000000E-03 0.  1.
         23    2    1    2    0    0  0.00000000000E+00 -0.44408920985E-15  0.71054273576E-14  0.91188000000E+02  0.91188000000E+02 0.  0.
    9900012    2    3    3    0    0  0.10046586863E+02  0.26473700410E+01  0.42138829354E+02  0.47787269418E+02  0.19999992584E+02 0.  0.
        -12    1    3    3    0    0 -0.10046586863E+02 -0.26473700410E+01 -0.42138829354E+02  0.43400730582E+02  0.00000000000E+00 0.  1.
         11    1    4    4    0    0  0.12646220760E+02  0.39645423239E+01  0.41131682843E+02  0.43214116086E+02  0.51100000000E-03 0. -1.
        -11    1    4    4    0    0 -0.83698992699E+00  0.11326859043E+01  0.58826994077E-01  0.14096064600E+01  0.51100000000E-03 0.  1.
         12    1    4    4    0    0 -0.17626439701E+01 -0.24498581873E+01  0.94831951691E+00  0.31635468717E+01  0.00000000000E+00 0. -1.
</event>
<event>
 8    1  0.6046524E-010  0.9118800E+02  0.7816164E-02  0.1184000E+00
        -11   -1    0    0    0    0  0.00000000000E+00  0.00000000000E+00  0.45593999997E+02  0.45594000000E+02  0.51100000000E-03 0. -1.
         11   -1    0    0    0    0 -0.00000000000E+00 -0.00000000000E+00 -0.45593999997E+02  0.45594000000E+02  0.51100000000E-03 0.  1.
         23    2    1    2    0    0  0.00000000000E+00  0.00000000000E+00  0.17763568394E-14  0.91188000000E+02  0.91188000000E+02 0.  0.
    9900012    2    3    3    0    0 -0.19710212859E+02  0.37274422643E+02 -0.10283374557E+02  0.47787275737E+02  0.20000021394E+02 0.  0.
         12    1    3    3    0    0  0.19710212859E+02 -0.37274422643E+02  0.10283374557E+02  0.43400724263E+02  0.00000000000E+00 0. -1.
         11    1    4    4    0    0 -0.63566714180E+01  0.20355955265E+02 -0.54273729971E+01  0.22005194028E+02  0.51100000000E-03 0. -1.
        -11    1    4    4    0    0 -0.50249953255E+01  0.15704701578E+02 -0.53926743429E+01  0.17348462943E+02  0.51100000000E-03 0.  1.
        -12    1    4    4    0    0 -0.83285461153E+01  0.12137657998E+01  0.53667278329E+00  0.84336187658E+01  0.00000000000E+00 0.  1.
</event>
<event>
 8    1  0.6046524E-010  0.9118800E+02  0.7816164E-02  0.1184000E+00
        -11   -1    0    0    0    0  0.00000000000E+00  0.00000000000E+00  0.45593999997E+02  0.45594000000E+02  0.51100000000E-03 0. -1.
         11   -1    0    0    0    0 -0.00000000000E+00 -0.00000000000E+00 -0.45593999997E+02  0.45594000000E+02  0.51100000000E-03 0.  1.
         23    2    1    2    0    0  0.88817841970E-15  0.17763568394E-14  0.71054273576E-14  0.91188000000E+02  0.91188000000E+02 0.  0.
    9900012    2    3    3    0    0 -0.50547530347E+01 -0.14322326657E+02 -0.40656413920E+02  0.47787267726E+02  0.19999984869E+02 0.  0.
         12    1    3    3    0    0  0.50547530347E+01  0.14322326657E+02  0.40656413920E+02  0.43400732274E+02  0.00000000000E+00 0. -1.
         11    1    4    4    0    0 -0.19907654617E+01 -0.15894982649E+02 -0.28446434830E+02  0.32646795790E+02  0.51100000000E-03 0. -1.
        -11    1    4    4    0    0  0.11472071824E+01  0.80082593718E+00 -0.10397626303E+02  0.10491331636E+02  0.51100000000E-03 0.  1.
        -12    1    4    4    0    0 -0.42111947554E+01  0.77183005570E+00 -0.18123527870E+01  0.46491402999E+01  0.00000000000E+00 0.  1.
</event>
<event>
 8    1  0.6046524E-010  0.9118800E+02  0.7816164E-02  0.1184000E+00
        -11   -1    0    0    0    0  0.00000000000E+00  0.00000000000E+00  0.45593999997E+02  0.45594000000E+02  0.51100000000E-03 0. -1.
         11   -1    0    0    0    0 -0.00000000000E+00 -0.00000000000E+00 -0.45593999997E+02  0.45594000000E+02  0.51100000000E-03 0.  1.
         23    2    1    2    0    0 -0.88817841970E-15  0.00000000000E+00  0.35527136788E-14  0.91188000000E+02  0.91188000000E+02 0.  0.
    9900012    2    3    3    0    0  0.36699260397E+01  0.33297526137E+02  0.27594036286E+02  0.47787257581E+02  0.19999938613E+02 0.  0.
        -12    1    3    3    0    0 -0.36699260397E+01 -0.33297526137E+02 -0.27594036286E+02  0.43400742419E+02  0.00000000000E+00 0.  1.
         11    1    4    4    0    0  0.19792373160E+01  0.23742519037E+02  0.13386180283E+02  0.27327905397E+02  0.51100000000E-03 0. -1.
        -11    1    4    4    0    0 -0.47048095699E+01  0.44888413361E+01  0.53923458759E+01  0.84476223836E+01  0.51100000000E-03 0.  1.
        -12    1    4    4    0    0  0.63954982936E+01  0.50661657638E+01  0.88155101280E+01  0.12011729800E+02  0.00000000000E+00 0.  1.
</event>
<event>
 8    1  0.6046524E-010  0.9118800E+02  0.7816164E-02  0.1184000E+00
        -11   -1    0    0    0    0  0.00000000000E+00  0.00000000000E+00  0.45593999997E+02  0.45594000000E+02  0.51100000000E-03 0. -1.
         11   -1    0    0    0    0 -0.00000000000E+00 -0.00000000000E+00 -0.45593999997E+02  0.45594000000E+02  0.51100000000E-03 0.  1.
         23    2    1    2    0    0  0.35527136788E-14 -0.88817841970E-15  0.00000000000E+00  0.91188000000E+02  0.91188000000E+02 0.  0.
    9900012    2    3    3    0    0 -0.19642948368E+02 -0.68511730460E+01  0.38089884490E+02  0.47787270823E+02  0.19999998988E+02 0.  0.
        -12    1    3    3    0    0  0.19642948368E+02  0.68511730460E+01 -0.38089884490E+02  0.43400729177E+02  0.00000000000E+00 0.  1.
         11    1    4    4    0    0 -0.19907703765E+02 -0.95193712877E+01  0.24031437975E+02  0.32625835014E+02  0.51100000000E-03 0.  1.
        -11    1    4    4    0    0 -0.22089595945E+01  0.17531219507E+01  0.93327309584E+01  0.97495028831E+01  0.51100000000E-03 0. -1.
        -12    1    4    4    0    0  0.24737149917E+01  0.91507629096E+00  0.47257155560E+01  0.54119329259E+01  0.00000000000E+00 0.  1.
</event>
<event>
 8    1  0.6046524E-010  0.9118800E+02  0.7816164E-02  0.1184000E+00
        -11   -1    0    0    0    0  0.00000000000E+00  0.00000000000E+00  0.45593999997E+02  0.45594000000E+02  0.51100000000E-03 0. -1.
         11   -1    0    0    0    0 -0.00000000000E+00 -0.00000000000E+00 -0.45593999997E+02  0.45594000000E+02  0.51100000000E-03 0.  1.
         23    2    1    2    0    0 -0.88817841970E-15  0.00000000000E+00  0.00000000000E+00  0.91188000000E+02  0.91188000000E+02 0.  0.
    9900012    2    3    3    0    0 -0.21057165202E+01  0.19194517010E+01  0.43307075007E+02  0.47787296290E+02  0.20000115104E+02 0.  0.
        -12    1    3    3    0    0  0.21057165202E+01 -0.19194517010E+01 -0.43307075007E+02  0.43400703710E+02  0.00000000000E+00 0.  1.
         11    1    4    4    0    0 -0.10171117149E+02  0.10765281987E+01  0.19842497071E+02  0.22323423288E+02  0.51100000000E-03 0. -1.
        -11    1    4    4    0    0  0.32420396626E+01 -0.83223909544E+00  0.34444470982E+01  0.48028802983E+01  0.51100000000E-03 0.  1.
         12    1    4    4    0    0  0.48233609665E+01  0.16751625977E+01  0.20020130838E+02  0.20660992703E+02  0.00000000000E+00 0. -1.
</event>
<event>
 8    1  0.6046524E-010  0.9118800E+02  0.7816164E-02  0.1184000E+00
        -11   -1    0    0    0    0  0.00000000000E+00  0.00000000000E+00  0.45593999997E+02  0.45594000000E+02  0.51100000000E-03 0. -1.
         11   -1    0    0    0    0 -0.00000000000E+00 -0.00000000000E+00 -0.45593999997E+02  0.45594000000E+02  0.51100000000E-03 0.  1.
         23    2    1    2    0    0  0.00000000000E+00  0.35527136788E-14  0.00000000000E+00  0.91188000000E+02  0.91188000000E+02 0.  0.
    9900012    2    3    3    0    0 -0.19406343471E+02  0.15047771117E+02  0.35785220305E+02  0.47787267578E+02  0.19999984194E+02 0.  0.
        -12    1    3    3    0    0  0.19406343471E+02 -0.15047771117E+02 -0.35785220305E+02  0.43400732422E+02  0.00000000000E+00 0.  1.
         11    1    4    4    0    0 -0.47290794939E+01  0.65355150919E+01  0.38905216233E+01  0.89561883153E+01  0.51100000000E-03 0. -1.
        -11    1    4    4    0    0 -0.12718301029E+02  0.11204779990E+02  0.31082462822E+02  0.35403697138E+02  0.51100000000E-03 0.  1.
        -12    1    4    4    0    0 -0.19589629481E+01 -0.26925239653E+01  0.81223586012E+00  0.34273821246E+01  0.00000000000E+00 0.  1.
</event>
<event>
 8    1  0.6046524E-010  0.9118800E+02  0.7816164E-02  0.1184000E+00
        -11   -1    0    0    0    0  0.00000000000E+00  0.00000000000E+00  0.45593999997E+02  0.45594000000E+02  0.51100000000E-03 0. -1.
         11   -1    0    0    0    0 -0.00000000000E+00 -0.00000000000E+00 -0.45593999997E+02  0.45594000000E+02  0.51100000000E-03 0.  1.
         23    2    1    2    0    0  0.00000000000E+00 -0.35527136788E-14  0.35527136788E-14  0.91188000000E+02  0.91188000000E+02 0.  0.
    9900012    2    3    3    0    0 -0.15732034861E+02  0.28321876758E+02 -0.28879017511E+02  0.47787271016E+02  0.19999999869E+02 0.  0.
         12    1    3    3    0    0  0.15732034861E+02 -0.28321876758E+02  0.28879017511E+02  0.43400728984E+02  0.00000000000E+00 0. -1.
         11    1    4    4    0    0 -0.66517531209E+01  0.21342164073E+01 -0.62511167329E+01  0.93742818351E+01  0.51100000000E-03 0. -1.
        -11    1    4    4    0    0 -0.66337399762E+01  0.26799465140E+02 -0.22909201902E+02  0.35875470309E+02  0.51100000000E-03 0.  1.
        -12    1    4    4    0    0 -0.24465417635E+01 -0.61180478931E+00  0.28130112362E+00  0.25375188714E+01  0.00000000000E+00 0.  1.
</event>
<event>
 8    1  0.6046524E-010  0.9118800E+02  0.7816164E-02  0.1184000E+00
        -11   -1    0    0    0    0  0.00000000000E+00  0.00000000000E+00  0.45593999997E+02  0.45594000000E+02  0.51100000000E-03 0. -1.
         11   -1    0    0    0    0 -0.00000000000E+00 -0.00000000000E+00 -0.45593999997E+02  0.45594000000E+02  0.51100000000E-03 0.  1.
         23    2    1    2    0    0  0.00000000000E+00  0.00000000000E+00  0.17763568394E-14  0.91188000000E+02  0.91188000000E+02 0.  0.
    9900012    2    3    3    0    0  0.41906900344E+02  0.65185619866E+00  0.11269882612E+02  0.47787268819E+02  0.19999989852E+02 0.  0.
        -12    1    3    3    0    0 -0.41906900344E+02 -0.65185619866E+00 -0.11269882612E+02  0.43400731181E+02  0.00000000000E+00 0.  1.
         11    1    4    4    0    0  0.11367973536E+02 -0.87358008688E+00  0.39737637561E+00  0.11408412366E+02  0.51100000000E-03 0. -1.
        -11    1    4    4    0    0  0.14113414969E+02  0.57652472600E+01  0.11964619152E+02  0.19379852161E+02  0.51100000000E-03 0.  1.
        -12    1    4    4    0    0  0.16425511840E+02 -0.42398109745E+01 -0.10921129152E+01  0.16999004292E+02  0.00000000000E+00 0.  1.
</event>
<event>
 8    1  0.6046524E-010  0.9118800E+02  0.7816164E-02  0.1184000E+00
        -11   -1    0    0    0    0  0.00000000000E+00  0.00000000000E+00  0.45593999997E+02  0.45594000000E+02  0.51100000000E-03 0. -1.
         11   -1    0    0    0    0 -0.00000000000E+00 -0.00000000000E+00 -0.45593999997E+02  0.45594000000E+02  0.51100000000E-03 0.  1.
         23    2    1    2    0    0  0.35527136788E-14  0.00000000000E+00  0.00000000000E+00  0.91188000000E+02  0.91188000000E+02 0.  0.
    9900012    2    3    3    0    0 -0.23459403489E+02 -0.28288832685E+02 -0.23087252863E+02  0.47787275219E+02  0.20000019033E+02 0.  0.
         12    1    3    3    0    0  0.23459403489E+02  0.28288832685E+02  0.23087252863E+02  0.43400724781E+02  0.00000000000E+00 0. -1.
         11    1    4    4    0    0 -0.14736879770E+02 -0.16768597616E+02 -0.18810536250E+02  0.29192426512E+02  0.51100000000E-03 0. -1.
        -11    1    4    4    0    0 -0.95142734147E+01 -0.69698263500E+01 -0.65024090697E+01  0.13467783854E+02  0.51100000000E-03 0.  1.
         12    1    4    4    0    0  0.79174969631E+00 -0.45504087195E+01  0.22256924570E+01  0.51270648532E+01  0.00000000000E+00 0. -1.
</event>
<event>
 8    1  0.6046524E-010  0.9118800E+02  0.7816164E-02  0.1184000E+00
        -11   -1    0    0    0    0  0.00000000000E+00  0.00000000000E+00  0.45593999997E+02  0.45594000000E+02  0.51100000000E-03 0. -1.
         11   -1    0    0    0    0 -0.00000000000E+00 -0.00000000000E+00 -0.45593999997E+02  0.45594000000E+02  0.51100000000E-03 0.  1.
         23    2    1    2    0    0  0.00000000000E+00  0.00000000000E+00  0.00000000000E+00  0.91188000000E+02  0.91188000000E+02 0.  0.
    9900012    2    3    3    0    0  0.11646544459E+02  0.20666506005E+02  0.36343865297E+02  0.47787274050E+02  0.20000013704E+02 0.  0.
        -12    1    3    3    0    0 -0.11646544459E+02 -0.20666506005E+02 -0.36343865297E+02  0.43400725950E+02  0.00000000000E+00 0.  1.
         11    1    4    4    0    0  0.10084570829E+01  0.30272959877E+01  0.12114534786E+01  0.34130816687E+01  0.51100000000E-03 0. -1.
        -11    1    4    4    0    0 -0.38557009178E+01  0.23059501960E+00  0.23319842794E+01  0.45119568449E+01  0.51100000000E-03 0.  1.
         12    1    4    4    0    0  0.14493788293E+02  0.17408614998E+02  0.32800427539E+02  0.39862235536E+02  0.00000000000E+00 0. -1.
</event>
<event>
 8    1  0.6046524E-010  0.9118800E+02  0.7816164E-02  0.1184000E+00
        -11   -1    0    0    0    0  0.00000000000E+00  0.00000000000E+00  0.45593999997E+02  0.45594000000E+02  0.51100000000E-03 0. -1.
         11   -1    0    0    0    0 -0.00000000000E+00 -0.00000000000E+00 -0.45593999997E+02  0.45594000000E+02  0.51100000000E-03 0.  1.
         23    2    1    2    0    0 -0.35527136788E-14  0.00000000000E+00  0.00000000000E+00  0.91188000000E+02  0.91188000000E+02 0.  0.
    9900012    2    3    3    0    0  0.19149200623E+02 -0.38694622267E+02  0.44336867615E+01  0.47787271260E+02  0.20000000982E+02 0.  0.
        -12    1    3    3    0    0 -0.19149200623E+02  0.38694622267E+02 -0.44336867615E+01  0.43400728740E+02  0.00000000000E+00 0.  1.
         11    1    4    4    0    0  0.10559169083E+02 -0.84878405895E+01  0.34221245809E+01  0.13973203874E+02  0.51100000000E-03 0. -1.
        -11    1    4    4    0    0  0.20951212865E+01 -0.75741230602E+01 -0.52483838675E+01  0.94499950697E+01  0.51100000000E-03 0.  1.
        -12    1    4    4    0    0  0.64949102535E+01 -0.22632658617E+02  0.62599460482E+01  0.24364072316E+02  0.00000000000E+00 0.  1.
</event>
<event>
 8    1  0.6046524E-010  0.9118800E+02  0.7816164E-02  0.1184000E+00
        -11   -1    0    0    0    0  0.00000000000E+00  0.00000000000E+00  0.45593999997E+02  0.45594000000E+02  0.51100000000E-03 0. -1.
         11   -1    0    0    0    0 -0.00000000000E+00 -0.00000000000E+00 -0.45593999997E+02  0.45594000000E+02  0.51100000000E-03 0.  1.
         23    2    1    2    0    0 -0.17763568394E-14  0.00000000000E+00  0.71054273576E-14  0.91188000000E+02  0.91188000000E+02 0.  0.
    9900012    2    3    3    0    0 -0.12642218781E+02 -0.12832628663E+02 -0.39485709914E+02  0.47787270265E+02  0.19999996447E+02 0.  0.
         12    1    3    3    0    0  0.12642218781E+02  0.12832628663E+02  0.39485709914E+02  0.43400729735E+02  0.00000000000E+00 0. -1.
         11    1    4    4    0    0 -0.32048280787E+01 -0.34584315445E+01 -0.45154091778E+00  0.47366191766E+01  0.51100000000E-03 0. -1.
        -11    1    4    4    0    0  0.42617577925E+00  0.54387897123E+00  0.66518884837E+00  0.95911761285E+00  0.51100000000E-03 0.  1.
        -12    1    4    4    0    0 -0.98635664811E+01 -0.99180760897E+01 -0.39699357845E+02  0.42091533476E+02  0.00000000000E+00 0.  1.
</event>
<event>
 8    1  0.6046524E-010  0.9118800E+02  0.7816164E-02  0.1184000E+00
        -11   -1    0    0    0    0  0.00000000000E+00  0.00000000000E+00  0.45593999997E+02  0.45594000000E+02  0.51100000000E-03 0. -1.
         11   -1    0    0    0    0 -0.00000000000E+00 -0.00000000000E+00 -0.45593999997E+02  0.45594000000E+02  0.51100000000E-03 0.  1.
         23    2    1    2    0    0  0.00000000000E+00  0.00000000000E+00  0.00000000000E+00  0.91188000000E+02  0.91188000000E+02 0.  0.
    9900012    2    3    3    0    0 -0.32133647597E+02 -0.13156398215E+02  0.26037674315E+02  0.47787278744E+02  0.20000035103E+02 0.  0.
        -12    1    3    3    0    0  0.32133647597E+02  0.13156398215E+02 -0.26037674315E+02  0.43400721256E+02  0.00000000000E+00 0.  1.
         11    1    4    4    0    0 -0.68738102838E+01 -0.49057644355E+01 -0.25395239888E+00  0.84486853768E+01  0.51100000000E-03 0. -1.
        -11    1    4    4    0    0 -0.78366544051E+01 -0.95714350798E+00  0.12827438906E+01  0.79984191006E+01  0.51100000000E-03 0.  1.
         12    1    4    4    0    0 -0.17423182908E+02 -0.72934902713E+01  0.25008882823E+02  0.31340174266E+02  0.00000000000E+00 0. -1.
</event>
<event>
 8    1  0.6046524E-010  0.9118800E+02  0.7816164E-02  0.1184000E+00
        -11   -1    0    0    0    0  0.00000000000E+00  0.00000000000E+00  0.45593999997E+02  0.45594000000E+02  0.51100000000E-03 0. -1.
         11   -1    0    0    0    0 -0.00000000000E+00 -0.00000000000E+00 -0.45593999997E+02  0.45594000000E+02  0.51100000000E-03 0.  1.
         23    2    1    2    0    0  0.00000000000E+00  0.00000000000E+00  0.00000000000E+00  0.91188000000E+02  0.91188000000E+02 0.  0.
    9900012    2    3    3    0    0 -0.21323566308E+02 -0.84335680681E+01  0.36848383874E+02  0.47787274838E+02  0.20000017296E+02 0.  0.
        -12    1    3    3    0    0  0.21323566308E+02  0.84335680681E+01 -0.36848383874E+02  0.43400725162E+02  0.00000000000E+00 0.  1.
         11    1    4    4    0    0 -0.10808085096E+02 -0.50925551224E+01  0.27974196047E+02  0.30418817627E+02  0.51100000000E-03 0. -1.
        -11    1    4    4    0    0 -0.58980257553E+01  0.32911589501E+01  0.50186538900E+01  0.84145898399E+01  0.51100000000E-03 0.  1.
         12    1    4    4    0    0 -0.46174554567E+01 -0.66321718958E+01  0.38555339374E+01  0.89538673707E+01  0.00000000000E+00 0. -1.
</event>
<event>
 8    1  0.6046524E-010  0.9118800E+02  0.7816164E-02  0.1184000E+00
        -11   -1    0    0    0    0  0.00000000000E+00  0.00000000000E+00  0.45593999997E+02  0.45594000000E+02  0.51100000000E-03 0. -1.
         11   -1    0    0    0    0 -0.00000000000E+00 -0.00000000000E+00 -0.45593999997E+02  0.45594000000E+02  0.51100000000E-03 0.  1.
         23    2    1    2    0    0  0.35527136788E-14  0.00000000000E+00  0.35527136788E-14  0.91188000000E+02  0.91188000000E+02 0.  0.
    9900012    2    3    3    0    0 -0.29823221215E+02 -0.23851921800E+02 -0.20622424527E+02  0.47787273157E+02  0.20000009630E+02 0.  0.
         12    1    3    3    0    0  0.29823221215E+02  0.23851921800E+02  0.20622424527E+02  0.43400726843E+02  0.00000000000E+00 0. -1.
         11    1    4    4    0    0 -0.24084782622E+02 -0.17567123877E+02 -0.16949883015E+02  0.34292552103E+02  0.51100000000E-03 0.  1.
        -11    1    4    4    0    0 -0.67268462150E+01 -0.52439514935E+01  0.10176305374E+01  0.85898230156E+01  0.51100000000E-03 0. -1.
        -12    1    4    4    0    0  0.98840762154E+00 -0.10408464291E+01 -0.46901720491E+01  0.49048980382E+01  0.00000000000E+00 0.  1.
</event>
<event>
 8    1  0.6274272E-010  0.9118800E+02  0.7816164E-02  0.1184000E+00
        -11   -1    0    0    0    0  0.00000000000E+00  0.00000000000E+00  0.45593999997E+02  0.45594000000E+02  0.51100000000E-03 0. -1.
         11   -1    0    0    0    0 -0.00000000000E+00 -0.00000000000E+00 -0.45593999997E+02  0.45594000000E+02  0.51100000000E-03 0.  1.
         23    2    1    2    0    0 -0.71054273576E-14  0.00000000000E+00  0.35527136788E-14  0.91188000000E+02  0.91188000000E+02 0.  0.
    9900012    2    3    3    0    0 -0.36680491017E+02 -0.31317722354E+01 -0.22986002291E+02  0.47787277426E+02  0.20000029098E+02 0.  0.
         12    1    3    3    0    0  0.36680491017E+02  0.31317722354E+01  0.22986002291E+02  0.43400722574E+02  0.00000000000E+00 0. -1.
         11    1    4    4    0    0 -0.19849231470E+02  0.35820876300E+00 -0.53670690204E+01  0.20565158244E+02  0.51100000000E-03 0. -1.
        -11    1    4    4    0    0 -0.15611118808E+02  0.75141642811E+00 -0.16375507571E+02  0.22636892577E+02  0.51100000000E-03 0.  1.
         12    1    4    4    0    0 -0.12201407393E+01 -0.42413974265E+01 -0.12434256996E+01  0.45852266055E+01  0.00000000000E+00 0. -1.
</event>
<event>
 8    1  0.6046524E-010  0.9118800E+02  0.7816164E-02  0.1184000E+00
        -11   -1    0    0    0    0  0.00000000000E+00  0.00000000000E+00  0.45593999997E+02  0.45594000000E+02  0.51100000000E-03 0. -1.
         11   -1    0    0    0    0 -0.00000000000E+00 -0.00000000000E+00 -0.45593999997E+02  0.45594000000E+02  0.51100000000E-03 0.  1.
         23    2    1    2    0    0  0.00000000000E+00  0.00000000000E+00  0.00000000000E+00  0.91188000000E+02  0.91188000000E+02 0.  0.
    9900012    2    3    3    0    0  0.73162015095E+01 -0.28297131541E+02 -0.32083774532E+02  0.47787273667E+02  0.20000011957E+02 0.  0.
         12    1    3    3    0    0 -0.73162015095E+01  0.28297131541E+02  0.32083774532E+02  0.43400726333E+02  0.00000000000E+00 0. -1.
         11    1    4    4    0    0  0.28300463634E+01 -0.76028781584E+01 -0.42778186942E+01  0.91712949878E+01  0.51100000000E-03 0.  1.
        -11    1    4    4    0    0 -0.26281298227E+01 -0.14113280365E+02 -0.76867537008E+01  0.16284284809E+02  0.51100000000E-03 0. -1.
         12    1    4    4    0    0  0.71142849688E+01 -0.65809730184E+01 -0.20119202137E+02  0.22331693870E+02  0.00000000000E+00 0. -1.
</event>
<event>
 8    1  0.6046524E-010  0.9118800E+02  0.7816164E-02  0.1184000E+00
        -11   -1    0    0    0    0  0.00000000000E+00  0.00000000000E+00  0.45593999997E+02  0.45594000000E+02  0.51100000000E-03 0. -1.
         11   -1    0    0    0    0 -0.00000000000E+00 -0.00000000000E+00 -0.45593999997E+02  0.45594000000E+02  0.51100000000E-03 0.  1.
         23    2    1    2    0    0  0.00000000000E+00  0.00000000000E+00  0.00000000000E+00  0.91188000000E+02  0.91188000000E+02 0.  0.
    9900012    2    3    3    0    0  0.12113904715E+02  0.21834432246E+02 -0.35498366833E+02  0.47787272279E+02  0.20000005627E+02 0.  0.
         12    1    3    3    0    0 -0.12113904715E+02 -0.21834432246E+02  0.35498366833E+02  0.43400727721E+02  0.00000000000E+00 0. -1.
         11    1    4    4    0    0  0.18469710513E+01  0.43855902740E+01 -0.19861436286E+01  0.51564979288E+01  0.51100000000E-03 0. -1.
        -11    1    4    4    0    0  0.82308755002E+01  0.85414367355E+01 -0.30943903822E+02  0.33139532843E+02  0.51100000000E-03 0.  1.
        -12    1    4    4    0    0  0.20360581637E+01  0.89074052367E+01 -0.25683193816E+01  0.94912415069E+01  0.00000000000E+00 0.  1.
</event>
<event>
 8    1  0.6046524E-010  0.9118800E+02  0.7816164E-02  0.1184000E+00
        -11   -1    0    0    0    0  0.00000000000E+00  0.00000000000E+00  0.45593999997E+02  0.45594000000E+02  0.51100000000E-03 0. -1.
         11   -1    0    0    0    0 -0.00000000000E+00 -0.00000000000E+00 -0.45593999997E+02  0.45594000000E+02  0.51100000000E-03 0.  1.
         23    2    1    2    0    0  0.35527136788E-14 -0.44408920985E-15 -0.71054273576E-14  0.91188000000E+02  0.91188000000E+02 0.  0.
    9900012    2    3    3    0    0  0.19654108517E+02 -0.22743392100E+01 -0.38628573128E+02  0.47787271177E+02  0.20000000603E+02 0.  0.
         12    1    3    3    0    0 -0.19654108517E+02  0.22743392100E+01  0.38628573128E+02  0.43400728823E+02  0.00000000000E+00 0. -1.
         11    1    4    4    0    0 -0.45284414390E+00 -0.40780414959E+01 -0.51811668907E+01  0.66090832096E+01  0.51100000000E-03 0. -1.
        -11    1    4    4    0    0  0.15994578602E+02 -0.26548039846E+01 -0.30251146192E+02  0.34322097474E+02  0.51100000000E-03 0.  1.
        -12    1    4    4    0    0  0.41123740589E+01  0.44585062705E+01 -0.31962600458E+01  0.68560904928E+01  0.00000000000E+00 0.  1.
</event>
<event>
 8    1  0.6046524E-010  0.9118800E+02  0.7816164E-02  0.1184000E+00
        -11   -1    0    0    0    0  0.00000000000E+00  0.00000000000E+00  0.45593999997E+02  0.45594000000E+02  0.51100000000E-03 0. -1.
         11   -1    0    0    0    0 -0.00000000000E+00 -0.00000000000E+00 -0.45593999997E+02  0.45594000000E+02  0.51100000000E-03 0.  1.
         23    2    1    2    0    0 -0.44408920985E-15  0.00000000000E+00  0.35527136788E-14  0.91188000000E+02  0.91188000000E+02 0.  0.
    9900012    2    3    3    0    0 -0.33489533393E+01 -0.32137842020E+02  0.28975269391E+02  0.47787278641E+02  0.20000034635E+02 0.  0.
        -12    1    3    3    0    0  0.33489533393E+01  0.32137842020E+02 -0.28975269391E+02  0.43400721359E+02  0.00000000000E+00 0.  1.
         11    1    4    4    0    0 -0.38981657466E+01 -0.10738916887E+02  0.54113407253E+01  0.12641306926E+02  0.51100000000E-03 0. -1.
        -11    1    4    4    0    0  0.67785404344E+01 -0.93873171936E+01  0.62054835075E+01  0.13136908325E+02  0.51100000000E-03 0.  1.
         12    1    4    4    0    0 -0.62293280270E+01 -0.12011607939E+02  0.17358445159E+02  0.22009063389E+02  0.00000000000E+00 0. -1.
</event>
<event>
 8    1  0.6046524E-010  0.9118800E+02  0.7816164E-02  0.1184000E+00
        -11   -1    0    0    0    0  0.00000000000E+00  0.00000000000E+00  0.45593999997E+02  0.45594000000E+02  0.51100000000E-03 0. -1.
         11   -1    0    0    0    0 -0.00000000000E+00 -0.00000000000E+00 -0.45593999997E+02  0.45594000000E+02  0.51100000000E-03 0.  1.
         23    2    1    2    0    0 -0.66613381478E-15  0.00000000000E+00  0.00000000000E+00  0.91188000000E+02  0.91188000000E+02 0.  0.
    9900012    2    3    3    0    0 -0.15887915902E+01 -0.12161971512E+02 -0.41631543045E+02  0.47787272056E+02  0.20000004613E+02 0.  0.
         12    1    3    3    0    0  0.15887915902E+01  0.12161971512E+02  0.41631543045E+02  0.43400727944E+02  0.00000000000E+00 0. -1.
         11    1    4    4    0    0  0.83221785186E+01 -0.68665338924E+01 -0.21659267670E+02  0.24197764757E+02  0.51100000000E-03 0. -1.
        -11    1    4    4    0    0 -0.35827794488E+01 -0.50288882321E+01 -0.88690866427E+01  0.10806790623E+02  0.51100000000E-03 0.  1.
         12    1    4    4    0    0 -0.63281906600E+01 -0.26654938733E+00 -0.11103188732E+02  0.12782716676E+02  0.00000000000E+00 0. -1.
</event>
<event>
 8    1  0.6046524E-010  0.9118800E+02  0.7816164E-02  0.1184000E+00
        -11   -1    0    0    0    0  0.00000000000E+00  0.00000000000E+00  0.45593999997E+02  0.45594000000E+02  0.51100000000E-03 0. -1.
         11   -1    0    0    0    0 -0.00000000000E+00 -0.00000000000E+00 -0.45593999997E+02  0.45594000000E+02  0.51100000000E-03 0.  1.
         23    2    1    2    0    0  0.00000000000E+00  0.00000000000E+00  0.00000000000E+00  0.91188000000E+02  0.91188000000E+02 0.  0.
    9900012    2    3    3    0    0  0.21470514922E+02  0.31573717553E+02  0.20633480701E+02  0.47787272161E+02  0.20000005090E+02 0.  0.
        -12    1    3    3    0    0 -0.21470514922E+02 -0.31573717553E+02 -0.20633480701E+02  0.43400727839E+02  0.00000000000E+00 0.  1.
         11    1    4    4    0    0  0.13393192831E+02  0.75795449253E+01  0.11528587282E+02  0.19228505935E+02  0.51100000000E-03 0. -1.
        -11    1    4    4    0    0 -0.21237314448E+01  0.39322795370E+01  0.24107319275E+01  0.50778623745E+01  0.51100000000E-03 0.  1.
         12    1    4    4    0    0  0.10201053535E+02  0.20061893091E+02  0.66941614909E+01  0.23480903852E+02  0.00000000000E+00 0. -1.
</event>
<event>
 8    1  0.6046524E-010  0.9118800E+02  0.7816164E-02  0.1184000E+00
        -11   -1    0    0    0    0  0.00000000000E+00  0.00000000000E+00  0.45593999997E+02  0.45594000000E+02  0.51100000000E-03 0. -1.
         11   -1    0    0    0    0 -0.00000000000E+00 -0.00000000000E+00 -0.45593999997E+02  0.45594000000E+02  0.51100000000E-03 0.  1.
         23    2    1    2    0    0 -0.88817841970E-15  0.00000000000E+00  0.00000000000E+00  0.91188000000E+02  0.91188000000E+02 0.  0.
    9900012    2    3    3    0    0  0.54544650482E+01  0.24021273174E+02 -0.35733050644E+02  0.47787266571E+02  0.19999979604E+02 0.  0.
         12    1    3    3    0    0 -0.54544650482E+01 -0.24021273174E+02  0.35733050644E+02  0.43400733429E+02  0.00000000000E+00 0. -1.
         11    1    4    4    0    0  0.60370632965E+01  0.96389909614E+01 -0.76976587770E+01  0.13733544004E+02  0.51100000000E-03 0. -1.
        -11    1    4    4    0    0  0.55003220833E+01  0.26440145535E+01 -0.92848506106E+01  0.11110931874E+02  0.51100000000E-03 0.  1.
        -12    1    4    4    0    0 -0.60829203316E+01  0.11738267659E+02 -0.18750541257E+02  0.22942790693E+02  0.00000000000E+00 0.  1.
</event>
<event>
 8    1  0.6046524E-010  0.9118800E+02  0.7816164E-02  0.1184000E+00
        -11   -1    0    0    0    0  0.00000000000E+00  0.00000000000E+00  0.45593999997E+02  0.45594000000E+02  0.51100000000E-03 0. -1.
         11   -1    0    0    0    0 -0.00000000000E+00 -0.00000000000E+00 -0.45593999997E+02  0.45594000000E+02  0.51100000000E-03 0.  1.
         23    2    1    2    0    0  0.00000000000E+00  0.00000000000E+00  0.00000000000E+00  0.91188000000E+02  0.91188000000E+02 0.  0.
    9900012    2    3    3    0    0  0.21846103017E+02  0.31766285623E+02  0.19931735302E+02  0.47787271994E+02  0.20000004327E+02 0.  0.
        -12    1    3    3    0    0 -0.21846103017E+02 -0.31766285623E+02 -0.19931735302E+02  0.43400728006E+02  0.00000000000E+00 0.  1.
         11    1    4    4    0    0  0.11674096808E+02  0.27471486352E+02  0.10584497140E+02  0.31670154383E+02  0.51100000000E-03 0. -1.
        -11    1    4    4    0    0  0.12392502444E+01 -0.69687189233E+00 -0.86177646085E+00  0.16625373777E+01  0.51100000000E-03 0.  1.
         12    1    4    4    0    0  0.89327559652E+01  0.49916711633E+01  0.10209014623E+02  0.14454580233E+02  0.00000000000E+00 0. -1.
</event>
<event>
 8    1  0.6046524E-010  0.9118800E+02  0.7816164E-02  0.1184000E+00
        -11   -1    0    0    0    0  0.00000000000E+00  0.00000000000E+00  0.45593999997E+02  0.45594000000E+02  0.51100000000E-03 0. -1.
         11   -1    0    0    0    0 -0.00000000000E+00 -0.00000000000E+00 -0.45593999997E+02  0.45594000000E+02  0.51100000000E-03 0.  1.
         23    2    1    2    0    0  0.71054273576E-14  0.00000000000E+00  0.00000000000E+00  0.91188000000E+02  0.91188000000E+02 0.  0.
    9900012    2    3    3    0    0 -0.39593447915E+02 -0.16008777309E+02 -0.77266379312E+01  0.47787274171E+02  0.20000014257E+02 0.  0.
         12    1    3    3    0    0  0.39593447915E+02  0.16008777309E+02  0.77266379312E+01  0.43400725829E+02  0.00000000000E+00 0. -1.
         11    1    4    4    0    0 -0.11184952862E+02  0.21889056409E+01 -0.54011754141E+01  0.12612183576E+02  0.51100000000E-03 0. -1.
        -11    1    4    4    0    0 -0.90573276205E+01 -0.98864796298E+01 -0.41501354257E+01  0.14035714710E+02  0.51100000000E-03 0.  1.
         12    1    4    4    0    0 -0.19351167432E+02 -0.83112033201E+01  0.18246729087E+01  0.21139375886E+02  0.00000000000E+00 0. -1.
</event>
<event>
 8    1  0.6046524E-010  0.9118800E+02  0.7816164E-02  0.1184000E+00
        -11   -1    0    0    0    0  0.00000000000E+00  0.00000000000E+00  0.45593999997E+02  0.45594000000E+02  0.51100000000E-03 0. -1.
         11   -1    0    0    0    0 -0.00000000000E+00 -0.00000000000E+00 -0.45593999997E+02  0.45594000000E+02  0.51100000000E-03 0.  1.
         23    2    1    2    0    0  0.00000000000E+00  0.00000000000E+00  0.00000000000E+00  0.91188000000E+02  0.91188000000E+02 0.  0.
    9900012    2    3    3    0    0  0.99848924622E+01  0.18088838423E+02  0.38166989366E+02  0.47787271548E+02  0.20000002294E+02 0.  0.
        -12    1    3    3    0    0 -0.99848924622E+01 -0.18088838423E+02 -0.38166989366E+02  0.43400728452E+02  0.00000000000E+00 0.  1.
         11    1    4    4    0    0  0.10186141051E+01  0.18595443886E+01  0.11134299071E+02  0.11334376740E+02  0.51100000000E-03 0. -1.
        -11    1    4    4    0    0  0.58584509904E+01  0.30698929071E+01  0.45048091063E+00  0.66293758213E+01  0.51100000000E-03 0.  1.
        -12    1    4    4    0    0  0.31078273667E+01  0.13159401127E+02  0.26582209384E+02  0.29823518986E+02  0.00000000000E+00 0.  1.
</event>
<event>
 8    1  0.6046524E-010  0.9118800E+02  0.7816164E-02  0.1184000E+00
        -11   -1    0    0    0    0  0.00000000000E+00  0.00000000000E+00  0.45593999997E+02  0.45594000000E+02  0.51100000000E-03 0. -1.
         11   -1    0    0    0    0 -0.00000000000E+00 -0.00000000000E+00 -0.45593999997E+02  0.45594000000E+02  0.51100000000E-03 0.  1.
         23    2    1    2    0    0 -0.17763568394E-14  0.00000000000E+00  0.14210854715E-13  0.91188000000E+02  0.91188000000E+02 0.  0.
    9900012    2    3    3    0    0  0.11675457962E+02  0.75425209109E+01  0.41114683641E+02  0.47787272458E+02  0.20000006444E+02 0.  0.
        -12    1    3    3    0    0 -0.11675457962E+02 -0.75425209109E+01 -0.41114683641E+02  0.43400727542E+02  0.00000000000E+00 0.  1.
         11    1    4    4    0    0  0.38328055474E+01 -0.55407946336E+01  0.16690495249E+02  0.17998984290E+02  0.51100000000E-03 0. -1.
        -11    1    4    4    0    0  0.19983390825E+01  0.50554851146E+01  0.15543019771E+02  0.16466230676E+02  0.51100000000E-03 0.  1.
        -12    1    4    4    0    0  0.58443133325E+01  0.80278304300E+01  0.88811686206E+01  0.13322057492E+02  0.00000000000E+00 0.  1.
</event>
<event>
 8    1  0.6046524E-010  0.9118800E+02  0.7816164E-02  0.1184000E+00
        -11   -1    0    0    0    0  0.00000000000E+00  0.00000000000E+00  0.45593999997E+02  0.45594000000E+02  0.51100000000E-03 0. -1.
         11   -1    0    0    0    0 -0.00000000000E+00 -0.00000000000E+00 -0.45593999997E+02  0.45594000000E+02  0.51100000000E-03 0.  1.
         23    2    1    2    0    0  0.00000000000E+00  0.00000000000E+00  0.00000000000E+00  0.91188000000E+02  0.91188000000E+02 0.  0.
    9900012    2    3    3    0    0 -0.30427996188E+02 -0.11924616530E+02  0.28558079903E+02  0.47787270062E+02  0.19999995522E+02 0.  0.
        -12    1    3    3    0    0  0.30427996188E+02  0.11924616530E+02 -0.28558079903E+02  0.43400729938E+02  0.00000000000E+00 0.  1.
         11    1    4    4    0    0 -0.64400869138E+01  0.79748604495E+00  0.12470054538E+02  0.14057487823E+02  0.51100000000E-03 0. -1.
        -11    1    4    4    0    0 -0.14072162901E+02 -0.19075005191E+01  0.40947597767E+01  0.14779424374E+02  0.51100000000E-03 0.  1.
         12    1    4    4    0    0 -0.99157463728E+01 -0.10814602055E+02  0.11993265588E+02  0.18950357865E+02  0.00000000000E+00 0. -1.
</event>
<event>
 8    1  0.6046524E-010  0.9118800E+02  0.7816164E-02  0.1184000E+00
        -11   -1    0    0    0    0  0.00000000000E+00  0.00000000000E+00  0.45593999997E+02  0.45594000000E+02  0.51100000000E-03 0. -1.
         11   -1    0    0    0    0 -0.00000000000E+00 -0.00000000000E+00 -0.45593999997E+02  0.45594000000E+02  0.51100000000E-03 0.  1.
         23    2    1    2    0    0 -0.71054273576E-14  0.00000000000E+00 -0.44408920985E-15  0.91188000000E+02  0.91188000000E+02 0.  0.
    9900012    2    3    3    0    0 -0.28620312308E+02 -0.32508623173E+02 -0.27732608371E+01  0.47787264604E+02  0.19999970636E+02 0.  0.
         12    1    3    3    0    0  0.28620312308E+02  0.32508623173E+02  0.27732608371E+01  0.43400735396E+02  0.00000000000E+00 0. -1.
         11    1    4    4    0    0 -0.85862685274E+01 -0.20721580413E+01  0.92944687540E+00  0.88815380385E+01  0.51100000000E-03 0.  1.
        -11    1    4    4    0    0 -0.18876515076E+02 -0.27797075423E+02  0.74154575802E+00  0.33608780309E+02  0.51100000000E-03 0. -1.
         12    1    4    4    0    0 -0.11575287052E+01 -0.26393897085E+01 -0.44442534705E+01  0.52969462567E+01  0.00000000000E+00 0. -1.
</event>
<event>
 8    1  0.6046524E-010  0.9118800E+02  0.7816164E-02  0.1184000E+00
        -11   -1    0    0    0    0  0.00000000000E+00  0.00000000000E+00  0.45593999997E+02  0.45594000000E+02  0.51100000000E-03 0. -1.
         11   -1    0    0    0    0 -0.00000000000E+00 -0.00000000000E+00 -0.45593999997E+02  0.45594000000E+02  0.51100000000E-03 0.  1.
         23    2    1    2    0    0 -0.17763568394E-14  0.00000000000E+00  0.00000000000E+00  0.91188000000E+02  0.91188000000E+02 0.  0.
    9900012    2    3    3    0    0 -0.15508652190E+02 -0.57307652169E+01 -0.40128084755E+02  0.47787272485E+02  0.20000006569E+02 0.  0.
         12    1    3    3    0    0  0.15508652190E+02  0.57307652169E+01  0.40128084755E+02  0.43400727515E+02  0.00000000000E+00 0. -1.
         11    1    4    4    0    0 -0.37733391892E+01  0.34327341298E+01 -0.66213491981E+01  0.83584698185E+01  0.51100000000E-03 0. -1.
        -11    1    4    4    0    0 -0.11457509636E+02 -0.51814808279E+01 -0.33110009358E+02  0.35417439074E+02  0.51100000000E-03 0.  1.
         12    1    4    4    0    0 -0.27780336499E+00 -0.39820185189E+01 -0.39672619864E+00  0.40113635925E+01  0.00000000000E+00 0. -1.
</event>
<event>
 8    1  0.6046524E-010  0.9118800E+02  0.7816164E-02  0.1184000E+00
        -11   -1    0    0    0    0  0.00000000000E+00  0.00000000000E+00  0.45593999997E+02  0.45594000000E+02  0.51100000000E-03 0. -1.
         11   -1    0    0    0    0 -0.00000000000E+00 -0.00000000000E+00 -0.45593999997E+02  0.45594000000E+02  0.51100000000E-03 0.  1.
         23    2    1    2    0    0  0.00000000000E+00  0.00000000000E+00  0.00000000000E+00  0.91188000000E+02  0.91188000000E+02 0.  0.
    9900012    2    3    3    0    0  0.71581830218E+01  0.41114786377E+02  0.11914533261E+02  0.47787293257E+02  0.20000101274E+02 0.  0.
        -12    1    3    3    0    0 -0.71581830218E+01 -0.41114786377E+02 -0.11914533261E+02  0.43400706743E+02  0.00000000000E+00 0.  1.
         11    1    4    4    0    0  0.51982282061E+01  0.19220464140E+02  0.38549020241E+00  0.19914728750E+02  0.51100000000E-03 0. -1.
        -11    1    4    4    0    0 -0.45479495753E+01  0.34257414622E+01  0.15831156682E+01  0.59098058670E+01  0.51100000000E-03 0.  1.
         12    1    4    4    0    0  0.65079043910E+01  0.18468580775E+02  0.99459273906E+01  0.21962758640E+02  0.00000000000E+00 0. -1.
</event>
<event>
 8    1  0.6046524E-010  0.9118800E+02  0.7816164E-02  0.1184000E+00
        -11   -1    0    0    0    0  0.00000000000E+00  0.00000000000E+00  0.45593999997E+02  0.45594000000E+02  0.51100000000E-03 0. -1.
         11   -1    0    0    0    0 -0.00000000000E+00 -0.00000000000E+00 -0.45593999997E+02  0.45594000000E+02  0.51100000000E-03 0.  1.
         23    2    1    2    0    0  0.00000000000E+00  0.00000000000E+00  0.00000000000E+00  0.91188000000E+02  0.91188000000E+02 0.  0.
    9900012    2    3    3    0    0 -0.22047811714E+02 -0.24451060236E+02 -0.28278316302E+02  0.47787268199E+02  0.19999987024E+02 0.  0.
         12    1    3    3    0    0  0.22047811714E+02  0.24451060236E+02  0.28278316302E+02  0.43400731801E+02  0.00000000000E+00 0. -1.
         11    1    4    4    0    0  0.23250376861E+00 -0.17504089443E+01  0.66427293269E+00  0.18865970065E+01  0.51100000000E-03 0. -1.
        -11    1    4    4    0    0 -0.23353444349E+02 -0.16153853995E+02 -0.19854194211E+02  0.34648512088E+02  0.51100000000E-03 0.  1.
        -12    1    4    4    0    0  0.10731288666E+01 -0.65467972966E+01 -0.90883950230E+01  0.11252159104E+02  0.00000000000E+00 0.  1.
</event>
<event>
 8    1  0.6046524E-010  0.9118800E+02  0.7816164E-02  0.1184000E+00
        -11   -1    0    0    0    0  0.00000000000E+00  0.00000000000E+00  0.45593999997E+02  0.45594000000E+02  0.51100000000E-03 0. -1.
         11   -1    0    0    0    0 -0.00000000000E+00 -0.00000000000E+00 -0.45593999997E+02  0.45594000000E+02  0.51100000000E-03 0.  1.
         23    2    1    2    0    0  0.00000000000E+00  0.00000000000E+00  0.00000000000E+00  0.91188000000E+02  0.91188000000E+02 0.  0.
    9900012    2    3    3    0    0  0.22768967150E+02  0.12363078675E+02 -0.34818832460E+02  0.47787277964E+02  0.20000031549E+02 0.  0.
         12    1    3    3    0    0 -0.22768967150E+02 -0.12363078675E+02  0.34818832460E+02  0.43400722036E+02  0.00000000000E+00 0. -1.
         11    1    4    4    0    0  0.57152878289E+00  0.40660803210E+01 -0.31432723506E+00  0.41180646180E+01  0.51100000000E-03 0. -1.
        -11    1    4    4    0    0  0.11384565706E+02 -0.23030209101E+01 -0.14410511852E+02  0.18508784231E+02  0.51100000000E-03 0.  1.
         12    1    4    4    0    0  0.10812872661E+02  0.10600019264E+02 -0.20093993373E+02  0.25160429115E+02  0.00000000000E+00 0. -1.
</event>
<event>
 8    1  0.6046524E-010  0.9118800E+02  0.7816164E-02  0.1184000E+00
        -11   -1    0    0    0    0  0.00000000000E+00  0.00000000000E+00  0.45593999997E+02  0.45594000000E+02  0.51100000000E-03 0. -1.
         11   -1    0    0    0    0 -0.00000000000E+00 -0.00000000000E+00 -0.45593999997E+02  0.45594000000E+02  0.51100000000E-03 0.  1.
         23    2    1    2    0    0  0.00000000000E+00  0.44408920985E-15  0.00000000000E+00  0.91188000000E+02  0.91188000000E+02 0.  0.
    9900012    2    3    3    0    0 -0.34174118479E+02 -0.30768967383E+01 -0.26576038523E+02  0.47787268544E+02  0.19999988598E+02 0.  0.
         12    1    3    3    0    0  0.34174118479E+02  0.30768967383E+01  0.26576038523E+02  0.43400731456E+02  0.00000000000E+00 0. -1.
         11    1    4    4    0    0 -0.15119462617E+02  0.42997298679E+01 -0.16322350882E+02  0.22660647946E+02  0.51100000000E-03 0. -1.
        -11    1    4    4    0    0 -0.15529768997E+02 -0.73653894629E+01 -0.12221167249E+02  0.21089798867E+02  0.51100000000E-03 0.  1.
         12    1    4    4    0    0 -0.35248868651E+01 -0.11237143259E-01  0.19674796073E+01  0.40368217313E+01  0.00000000000E+00 0. -1.
</event>
<event>
 8    1  0.6046524E-010  0.9118800E+02  0.7816164E-02  0.1184000E+00
        -11   -1    0    0    0    0  0.00000000000E+00  0.00000000000E+00  0.45593999997E+02  0.45594000000E+02  0.51100000000E-03 0. -1.
         11   -1    0    0    0    0 -0.00000000000E+00 -0.00000000000E+00 -0.45593999997E+02  0.45594000000E+02  0.51100000000E-03 0.  1.
         23    2    1    2    0    0  0.35527136788E-14  0.15543122345E-14  0.00000000000E+00  0.91188000000E+02  0.91188000000E+02 0.  0.
    9900012    2    3    3    0    0  0.21307078305E+02 -0.19516030772E+01  0.37760069592E+02  0.47787271941E+02  0.20000004088E+02 0.  0.
        -12    1    3    3    0    0 -0.21307078305E+02  0.19516030772E+01 -0.37760069592E+02  0.43400728059E+02  0.00000000000E+00 0.  1.
         11    1    4    4    0    0  0.12183814334E+02 -0.92603884241E+01  0.25623817910E+02  0.29845940596E+02  0.51100000000E-03 0. -1.
        -11    1    4    4    0    0  0.73827526406E+01  0.28481271642E+01  0.98513440092E+01  0.12635895059E+02  0.51100000000E-03 0.  1.
         12    1    4    4    0    0  0.17405113307E+01  0.44606581828E+01  0.22849076722E+01  0.53054362862E+01  0.00000000000E+00 0. -1.
</event>
<event>
 8    1  0.6046524E-010  0.9118800E+02  0.7816164E-02  0.1184000E+00
        -11   -1    0    0    0    0  0.00000000000E+00  0.00000000000E+00  0.45593999997E+02  0.45594000000E+02  0.51100000000E-03 0. -1.
         11   -1    0    0    0    0 -0.00000000000E+00 -0.00000000000E+00 -0.45593999997E+02  0.45594000000E+02  0.51100000000E-03 0.  1.
         23    2    1    2    0    0  0.00000000000E+00  0.00000000000E+00  0.00000000000E+00  0.91188000000E+02  0.91188000000E+02 0.  0.
    9900012    2    3    3    0    0 -0.31281640521E+01  0.25887044446E+02  0.34694384917E+02  0.47787253171E+02  0.19999918509E+02 0.  0.
        -12    1    3    3    0    0  0.31281640521E+01 -0.25887044446E+02 -0.34694384917E+02  0.43400746829E+02  0.00000000000E+00 0.  1.
         11    1    4    4    0    0  0.83689337054E+00  0.12617662188E+02  0.77999578933E+01  0.14857494170E+02  0.51100000000E-03 0. -1.
        -11    1    4    4    0    0 -0.11847179797E+01 -0.15620685966E+01 -0.14380018487E+00  0.19657806964E+01  0.51100000000E-03 0.  1.
         12    1    4    4    0    0 -0.27803394430E+01  0.14831450854E+02  0.27038227209E+02  0.30963978305E+02  0.00000000000E+00 0. -1.
</event>
<event>
 8    1  0.6046524E-010  0.9118800E+02  0.7816164E-02  0.1184000E+00
        -11   -1    0    0    0    0  0.00000000000E+00  0.00000000000E+00  0.45593999997E+02  0.45594000000E+02  0.51100000000E-03 0. -1.
         11   -1    0    0    0    0 -0.00000000000E+00 -0.00000000000E+00 -0.45593999997E+02  0.45594000000E+02  0.51100000000E-03 0.  1.
         23    2    1    2    0    0  0.00000000000E+00  0.00000000000E+00  0.00000000000E+00  0.91188000000E+02  0.91188000000E+02 0.  0.
    9900012    2    3    3    0    0 -0.22819432466E+02 -0.19890838822E+02 -0.31100670118E+02  0.47787266724E+02  0.19999980301E+02 0.  0.
         12    1    3    3    0    0  0.22819432466E+02  0.19890838822E+02  0.31100670118E+02  0.43400733276E+02  0.00000000000E+00 0. -1.
         11    1    4    4    0    0  0.10155591722E+01 -0.67888000157E+00  0.13981205087E+01  0.18566043485E+01  0.51100000000E-03 0. -1.
        -11    1    4    4    0    0  0.88264904593E+00  0.20274253784E+00 -0.16960430441E+01  0.19226898199E+01  0.51100000000E-03 0.  1.
        -12    1    4    4    0    0 -0.24717640684E+02 -0.19414701359E+02 -0.30802747582E+02  0.44007972556E+02  0.00000000000E+00 0.  1.
</event>
<event>
 8    1  0.6046524E-010  0.9118800E+02  0.7816164E-02  0.1184000E+00
        -11   -1    0    0    0    0  0.00000000000E+00  0.00000000000E+00  0.45593999997E+02  0.45594000000E+02  0.51100000000E-03 0. -1.
         11   -1    0    0    0    0 -0.00000000000E+00 -0.00000000000E+00 -0.45593999997E+02  0.45594000000E+02  0.51100000000E-03 0.  1.
         23    2    1    2    0    0  0.00000000000E+00  0.00000000000E+00  0.00000000000E+00  0.91188000000E+02  0.91188000000E+02 0.  0.
    9900012    2    3    3    0    0 -0.10459364037E+02  0.22309081414E+02 -0.35728556985E+02  0.47787271967E+02  0.20000004205E+02 0.  0.
         12    1    3    3    0    0  0.10459364037E+02 -0.22309081414E+02  0.35728556985E+02  0.43400728033E+02  0.00000000000E+00 0. -1.
         11    1    4    4    0    0 -0.13147144044E+02  0.22536531016E+02 -0.29029414927E+02  0.39031391956E+02  0.51100000000E-03 0. -1.
        -11    1    4    4    0    0  0.81670201573E+00  0.15177493142E+00 -0.67938167994E+01  0.68444126686E+01  0.51100000000E-03 0.  1.
         12    1    4    4    0    0  0.18710779909E+01 -0.37922453345E+00  0.94674741395E-01  0.19114673425E+01  0.00000000000E+00 0. -1.
</event>
<event>
 8    1  0.6046524E-010  0.9118800E+02  0.7816164E-02  0.1184000E+00
        -11   -1    0    0    0    0  0.00000000000E+00  0.00000000000E+00  0.45593999997E+02  0.45594000000E+02  0.51100000000E-03 0. -1.
         11   -1    0    0    0    0 -0.00000000000E+00 -0.00000000000E+00 -0.45593999997E+02  0.45594000000E+02  0.51100000000E-03 0.  1.
         23    2    1    2    0    0 -0.44408920985E-15  0.00000000000E+00  0.35527136788E-14  0.91188000000E+02  0.91188000000E+02 0.  0.
    9900012    2    3    3    0    0  0.39603106261E+01  0.36008265833E+02 -0.23902767650E+02  0.47787290675E+02  0.20000089505E+02 0.  0.
         12    1    3    3    0    0 -0.39603106261E+01 -0.36008265833E+02  0.23902767650E+02  0.43400709325E+02  0.00000000000E+00 0. -1.
         11    1    4    4    0    0  0.46706344666E+00  0.12127676580E+01 -0.72690646076E+01  0.73843248971E+01  0.51100000000E-03 0. -1.
        -11    1    4    4    0    0  0.31559410329E+01  0.82409315462E+01  0.43283778582E+00  0.88351720618E+01  0.51100000000E-03 0.  1.
        -12    1    4    4    0    0  0.33730614662E+00  0.26554566629E+02 -0.17066540829E+02  0.31567793716E+02  0.00000000000E+00 0.  1.
</event>
<event>
 8    1  0.6046524E-010  0.9118800E+02  0.7816164E-02  0.1184000E+00
        -11   -1    0    0    0    0  0.00000000000E+00  0.00000000000E+00  0.45593999997E+02  0.45594000000E+02  0.51100000000E-03 0. -1.
         11   -1    0    0    0    0 -0.00000000000E+00 -0.00000000000E+00 -0.45593999997E+02  0.45594000000E+02  0.51100000000E-03 0.  1.
         23    2    1    2    0    0  0.00000000000E+00  0.35527136788E-14  0.00000000000E+00  0.91188000000E+02  0.91188000000E+02 0.  0.
    9900012    2    3    3    0    0 -0.23799660279E+02 -0.21114404359E+02 -0.29519153854E+02  0.47787281745E+02  0.20000048788E+02 0.  0.
         12    1    3    3    0    0  0.23799660279E+02  0.21114404359E+02  0.29519153854E+02  0.43400718255E+02  0.00000000000E+00 0. -1.
         11    1    4    4    0    0 -0.90717406447E+01  0.17636827023E+01 -0.10705444541E+02  0.14142616381E+02  0.51100000000E-03 0. -1.
        -11    1    4    4    0    0 -0.25765490654E+01 -0.72120089362E+01 -0.27834768270E+01  0.81485840174E+01  0.51100000000E-03 0.  1.
        -12    1    4    4    0    0 -0.12151370569E+02 -0.15666078125E+02 -0.16030232485E+02  0.25496081347E+02  0.00000000000E+00 0.  1.
</event>
<event>
 8    1  0.6046524E-010  0.9118800E+02  0.7816164E-02  0.1184000E+00
        -11   -1    0    0    0    0  0.00000000000E+00  0.00000000000E+00  0.45593999997E+02  0.45594000000E+02  0.51100000000E-03 0. -1.
         11   -1    0    0    0    0 -0.00000000000E+00 -0.00000000000E+00 -0.45593999997E+02  0.45594000000E+02  0.51100000000E-03 0.  1.
         23    2    1    2    0    0  0.00000000000E+00  0.00000000000E+00  0.35527136788E-14  0.91188000000E+02  0.91188000000E+02 0.  0.
    9900012    2    3    3    0    0 -0.67129931906E+01  0.37157620515E+02  0.21397902831E+02  0.47787270910E+02  0.19999999388E+02 0.  0.
        -12    1    3    3    0    0  0.67129931906E+01 -0.37157620515E+02 -0.21397902831E+02  0.43400729090E+02  0.00000000000E+00 0.  1.
         11    1    4    4    0    0  0.26699303124E+01  0.30595751844E+01  0.23281624238E+01  0.46807978716E+01  0.51100000000E-03 0. -1.
        -11    1    4    4    0    0 -0.93851389016E+01  0.30509693748E+02  0.10155509123E+02  0.33497113466E+02  0.51100000000E-03 0.  1.
        -12    1    4    4    0    0  0.22153986653E-02  0.35883515836E+01  0.89142312843E+01  0.96093595720E+01  0.00000000000E+00 0.  1.
</event>
<event>
 8    1  0.6046524E-010  0.9118800E+02  0.7816164E-02  0.1184000E+00
        -11   -1    0    0    0    0  0.00000000000E+00  0.00000000000E+00  0.45593999997E+02  0.45594000000E+02  0.51100000000E-03 0. -1.
         11   -1    0    0    0    0 -0.00000000000E+00 -0.00000000000E+00 -0.45593999997E+02  0.45594000000E+02  0.51100000000E-03 0.  1.
         23    2    1    2    0    0  0.00000000000E+00  0.00000000000E+00  0.00000000000E+00  0.91188000000E+02  0.91188000000E+02 0.  0.
    9900012    2    3    3    0    0  0.21434046290E+02  0.10134842454E+01  0.37725028307E+02  0.47787271303E+02  0.20000001179E+02 0.  0.
        -12    1    3    3    0    0 -0.21434046290E+02 -0.10134842454E+01 -0.37725028307E+02  0.43400728697E+02  0.00000000000E+00 0.  1.
         11    1    4    4    0    0 -0.58196674641E+00  0.20122075153E+01  0.59084308613E+01  0.62687494672E+01  0.51100000000E-03 0. -1.
        -11    1    4    4    0    0  0.13053608374E+01 -0.34043302614E+01  0.20704577951E+00  0.36518898752E+01  0.51100000000E-03 0.  1.
         12    1    4    4    0    0  0.20710652199E+02  0.24056069915E+01  0.31609551666E+02  0.37866631961E+02  0.00000000000E+00 0. -1.
</event>
<event>
 8    1  0.6046524E-010  0.9118800E+02  0.7816164E-02  0.1184000E+00
        -11   -1    0    0    0    0  0.00000000000E+00  0.00000000000E+00  0.45593999997E+02  0.45594000000E+02  0.51100000000E-03 0. -1.
         11   -1    0    0    0    0 -0.00000000000E+00 -0.00000000000E+00 -0.45593999997E+02  0.45594000000E+02  0.51100000000E-03 0.  1.
         23    2    1    2    0    0 -0.17763568394E-14  0.00000000000E+00  0.00000000000E+00  0.91188000000E+02  0.91188000000E+02 0.  0.
    9900012    2    3    3    0    0 -0.10638005018E+02  0.17662561163E+02  0.38190183853E+02  0.47787270048E+02  0.19999995458E+02 0.  0.
        -12    1    3    3    0    0  0.10638005018E+02 -0.17662561163E+02 -0.38190183853E+02  0.43400729952E+02  0.00000000000E+00 0.  1.
         11    1    4    4    0    0  0.47890896391E+01  0.64844519699E+01  0.15888674005E+02  0.17816662393E+02  0.51100000000E-03 0.  1.
        -11    1    4    4    0    0 -0.89103947133E+01  0.75140195024E+01  0.17696076292E+02  0.21189779127E+02  0.51100000000E-03 0. -1.
        -12    1    4    4    0    0 -0.65166999437E+01  0.36640896907E+01  0.46054335563E+01  0.87808285292E+01  0.00000000000E+00 0.  1.
</event>
<event>
 8    1  0.6046524E-010  0.9118800E+02  0.7816164E-02  0.1184000E+00
        -11   -1    0    0    0    0  0.00000000000E+00  0.00000000000E+00  0.45593999997E+02  0.45594000000E+02  0.51100000000E-03 0. -1.
         11   -1    0    0    0    0 -0.00000000000E+00 -0.00000000000E+00 -0.45593999997E+02  0.45594000000E+02  0.51100000000E-03 0.  1.
         23    2    1    2    0    0  0.00000000000E+00  0.88817841970E-15  0.00000000000E+00  0.91188000000E+02  0.91188000000E+02 0.  0.
    9900012    2    3    3    0    0 -0.17090220156E+02 -0.24553105928E+01  0.39818576302E+02  0.47787271967E+02  0.20000004207E+02 0.  0.
        -12    1    3    3    0    0  0.17090220156E+02  0.24553105928E+01 -0.39818576302E+02  0.43400728033E+02  0.00000000000E+00 0.  1.
         11    1    4    4    0    0 -0.26064433705E+01 -0.45773645845E+01  0.59201332065E+01  0.79242533419E+01  0.51100000000E-03 0. -1.
        -11    1    4    4    0    0 -0.56328018891E+01  0.80444074973E+01  0.11951078059E+02  0.15468329455E+02  0.51100000000E-03 0.  1.
         12    1    4    4    0    0 -0.88509748965E+01 -0.59223535056E+01  0.21947365036E+02  0.24394689170E+02  0.00000000000E+00 0. -1.
</event>
<event>
 8    1  0.6046524E-010  0.9118800E+02  0.7816164E-02  0.1184000E+00
        -11   -1    0    0    0    0  0.00000000000E+00  0.00000000000E+00  0.45593999997E+02  0.45594000000E+02  0.51100000000E-03 0.  1.
         11   -1    0    0    0    0 -0.00000000000E+00 -0.00000000000E+00 -0.45593999997E+02  0.45594000000E+02  0.51100000000E-03 0. -1.
         23    2    1    2    0    0 -0.35527136788E-14  0.35527136788E-14 -0.35527136788E-14  0.91188000000E+02  0.91188000000E+02 0.  0.
    9900012    2    3    3    0    0 -0.24584390199E+02  0.28523867835E+02 -0.21578236609E+02  0.47787267599E+02  0.19999984292E+02 0.  0.
         12    1    3    3    0    0  0.24584390199E+02 -0.28523867835E+02  0.21578236609E+02  0.43400732401E+02  0.00000000000E+00 0. -1.
         11    1    4    4    0    0 -0.18622382504E+01  0.69320742760E+01 -0.75814762743E+01  0.10440324125E+02  0.51100000000E-03 0.  1.
        -11    1    4    4    0    0 -0.22980233940E+02  0.22534664588E+02 -0.10714199292E+02  0.33921915140E+02  0.51100000000E-03 0. -1.
         12    1    4    4    0    0  0.25808199121E+00 -0.94287102884E+00 -0.32825610428E+01  0.34250283344E+01  0.00000000000E+00 0. -1.
</event>
<event>
 8    1  0.6046524E-010  0.9118800E+02  0.7816164E-02  0.1184000E+00
        -11   -1    0    0    0    0  0.00000000000E+00  0.00000000000E+00  0.45593999997E+02  0.45594000000E+02  0.51100000000E-03 0. -1.
         11   -1    0    0    0    0 -0.00000000000E+00 -0.00000000000E+00 -0.45593999997E+02  0.45594000000E+02  0.51100000000E-03 0.  1.
         23    2    1    2    0    0  0.88817841970E-15 -0.35527136788E-14  0.00000000000E+00  0.91188000000E+02  0.91188000000E+02 0.  0.
    9900012    2    3    3    0    0 -0.49183325168E+01  0.18061394892E+02  0.39156346586E+02  0.47787268921E+02  0.19999990318E+02 0.  0.
        -12    1    3    3    0    0  0.49183325168E+01 -0.18061394892E+02 -0.39156346586E+02  0.43400731079E+02  0.00000000000E+00 0.  1.
         11    1    4    4    0    0 -0.56466669644E+01  0.41543637625E+00  0.15096004645E+02  0.16122865492E+02  0.51100000000E-03 0. -1.
        -11    1    4    4    0    0  0.52933389799E+01  0.56218391643E+01  0.88355646389E+01  0.11734211345E+02  0.51100000000E-03 0.  1.
        -12    1    4    4    0    0 -0.45650045323E+01  0.12024119352E+02  0.15224777303E+02  0.19930192084E+02  0.00000000000E+00 0.  1.
</event>
<event>
 8    1  0.6046524E-010  0.9118800E+02  0.7816164E-02  0.1184000E+00
        -11   -1    0    0    0    0  0.00000000000E+00  0.00000000000E+00  0.45593999997E+02  0.45594000000E+02  0.51100000000E-03 0. -1.
         11   -1    0    0    0    0 -0.00000000000E+00 -0.00000000000E+00 -0.45593999997E+02  0.45594000000E+02  0.51100000000E-03 0.  1.
         23    2    1    2    0    0  0.00000000000E+00  0.00000000000E+00  0.00000000000E+00  0.91188000000E+02  0.91188000000E+02 0.  0.
    9900012    2    3    3    0    0  0.26622129483E+02  0.11415101885E+02 -0.32319973179E+02  0.47787274251E+02  0.20000014621E+02 0.  0.
         12    1    3    3    0    0 -0.26622129483E+02 -0.11415101885E+02  0.32319973179E+02  0.43400725749E+02  0.00000000000E+00 0. -1.
         11    1    4    4    0    0  0.88550462922E+01 -0.18706645062E+01 -0.10035346847E+02  0.13513675190E+02  0.51100000000E-03 0. -1.
        -11    1    4    4    0    0  0.17259738166E+02  0.84285302701E+01 -0.11381251093E+02  0.22326476676E+02  0.51100000000E-03 0.  1.
        -12    1    4    4    0    0  0.50734502512E+00  0.48572361208E+01 -0.10903375238E+02  0.11947122385E+02  0.00000000000E+00 0.  1.
</event>
<event>
 8    1  0.6046524E-010  0.9118800E+02  0.7816164E-02  0.1184000E+00
        -11   -1    0    0    0    0  0.00000000000E+00  0.00000000000E+00  0.45593999997E+02  0.45594000000E+02  0.51100000000E-03 0. -1.
         11   -1    0    0    0    0 -0.00000000000E+00 -0.00000000000E+00 -0.45593999997E+02  0.45594000000E+02  0.51100000000E-03 0.  1.
         23    2    1    2    0    0  0.00000000000E+00  0.00000000000E+00  0.00000000000E+00  0.91188000000E+02  0.91188000000E+02 0.  0.
    9900012    2    3    3    0    0  0.11764599860E+02  0.34770850362E+02 -0.23156120872E+02  0.47787265229E+02  0.19999973487E+02 0.  0.
         12    1    3    3    0    0 -0.11764599860E+02 -0.34770850362E+02  0.23156120872E+02  0.43400734771E+02  0.00000000000E+00 0. -1.
         11    1    4    4    0    0  0.61016740573E+01  0.21491596235E+02 -0.20528322954E+02  0.30340256732E+02  0.51100000000E-03 0. -1.
        -11    1    4    4    0    0  0.79754446905E+01  0.10616689725E+02 -0.36575249243E+01  0.13773137172E+02  0.51100000000E-03 0.  1.
         12    1    4    4    0    0 -0.23125188878E+01  0.26625644029E+01  0.10297270062E+01  0.36738713251E+01  0.00000000000E+00 0. -1.
</event>
<event>
 8    1  0.6046524E-010  0.9118800E+02  0.7816164E-02  0.1184000E+00
        -11   -1    0    0    0    0  0.00000000000E+00  0.00000000000E+00  0.45593999997E+02  0.45594000000E+02  0.51100000000E-03 0. -1.
         11   -1    0    0    0    0 -0.00000000000E+00 -0.00000000000E+00 -0.45593999997E+02  0.45594000000E+02  0.51100000000E-03 0.  1.
         23    2    1    2    0    0  0.00000000000E+00  0.88817841970E-15 -0.35527136788E-14  0.91188000000E+02  0.91188000000E+02 0.  0.
    9900012    2    3    3    0    0  0.31385950403E+02  0.46539984709E+01 -0.29612255101E+02  0.47787271474E+02  0.20000001958E+02 0.  0.
         12    1    3    3    0    0 -0.31385950403E+02 -0.46539984709E+01  0.29612255101E+02  0.43400728526E+02  0.00000000000E+00 0. -1.
         11    1    4    4    0    0  0.57215688300E+01  0.42680470927E+01 -0.49131732497E+00  0.71549960752E+01  0.51100000000E-03 0. -1.
        -11    1    4    4    0    0  0.49822118702E+01  0.31582444071E+01 -0.12958337207E+02  0.14237817469E+02  0.51100000000E-03 0.  1.
         12    1    4    4    0    0  0.20682169702E+02 -0.27722930288E+01 -0.16162600569E+02  0.26394457930E+02  0.00000000000E+00 0. -1.
</event>
<event>
 8    1  0.6046524E-010  0.9118800E+02  0.7816164E-02  0.1184000E+00
        -11   -1    0    0    0    0  0.00000000000E+00  0.00000000000E+00  0.45593999997E+02  0.45594000000E+02  0.51100000000E-03 0. -1.
         11   -1    0    0    0    0 -0.00000000000E+00 -0.00000000000E+00 -0.45593999997E+02  0.45594000000E+02  0.51100000000E-03 0.  1.
         23    2    1    2    0    0  0.00000000000E+00  0.76241096769E-15  0.00000000000E+00  0.91188000000E+02  0.91188000000E+02 0.  0.
    9900012    2    3    3    0    0 -0.63013690336E+01 -0.71509014769E-02 -0.42940848569E+02  0.47787265229E+02  0.19999973484E+02 0.  0.
         12    1    3    3    0    0  0.63013690336E+01  0.71509014769E-02  0.42940848569E+02  0.43400734771E+02  0.00000000000E+00 0. -1.
         11    1    4    4    0    0 -0.54719980241E+01  0.21645998318E+01 -0.14338114041E+02  0.15498702182E+02  0.51100000000E-03 0.  1.
        -11    1    4    4    0    0  0.61097320469E+01  0.13218913349E+01 -0.72852355505E+01  0.95995249712E+01  0.51100000000E-03 0. -1.
         12    1    4    4    0    0 -0.69391030563E+01 -0.34936420682E+01 -0.21317498978E+02  0.22689038075E+02  0.00000000000E+00 0. -1.
</event>
<event>
 8    1  0.6046524E-010  0.9118800E+02  0.7816164E-02  0.1184000E+00
        -11   -1    0    0    0    0  0.00000000000E+00  0.00000000000E+00  0.45593999997E+02  0.45594000000E+02  0.51100000000E-03 0. -1.
         11   -1    0    0    0    0 -0.00000000000E+00 -0.00000000000E+00 -0.45593999997E+02  0.45594000000E+02  0.51100000000E-03 0.  1.
         23    2    1    2    0    0  0.00000000000E+00 -0.35527136788E-14  0.00000000000E+00  0.91188000000E+02  0.91188000000E+02 0.  0.
    9900012    2    3    3    0    0  0.37395595795E+02  0.14296961162E+02 -0.16756774631E+02  0.47787272134E+02  0.20000004966E+02 0.  0.
         12    1    3    3    0    0 -0.37395595795E+02 -0.14296961162E+02  0.16756774631E+02  0.43400727866E+02  0.00000000000E+00 0. -1.
         11    1    4    4    0    0  0.31742240397E+02  0.15751499698E+02 -0.16337490691E+02  0.39020419917E+02  0.51100000000E-03 0.  1.
        -11    1    4    4    0    0  0.65500691503E+01 -0.93084062137E+00  0.13151340251E+01  0.67453278572E+01  0.51100000000E-03 0. -1.
        -12    1    4    4    0    0 -0.89671375220E+00 -0.52369791485E+00 -0.17344179652E+01  0.20215243598E+01  0.00000000000E+00 0.  1.
</event>
<event>
 8    1  0.6046524E-010  0.9118800E+02  0.7816164E-02  0.1184000E+00
        -11   -1    0    0    0    0  0.00000000000E+00  0.00000000000E+00  0.45593999997E+02  0.45594000000E+02  0.51100000000E-03 0. -1.
         11   -1    0    0    0    0 -0.00000000000E+00 -0.00000000000E+00 -0.45593999997E+02  0.45594000000E+02  0.51100000000E-03 0.  1.
         23    2    1    2    0    0  0.00000000000E+00  0.00000000000E+00  0.00000000000E+00  0.91188000000E+02  0.91188000000E+02 0.  0.
    9900012    2    3    3    0    0  0.40378290593E+02  0.78079774604E+01  0.13865511047E+02  0.47787271206E+02  0.20000000739E+02 0.  0.
        -12    1    3    3    0    0 -0.40378290593E+02 -0.78079774604E+01 -0.13865511047E+02  0.43400728794E+02  0.00000000000E+00 0.  1.
         11    1    4    4    0    0  0.23647512151E+01  0.11453845014E+01  0.53724696198E+01  0.59805839215E+01  0.51100000000E-03 0. -1.
        -11    1    4    4    0    0  0.18359939315E+02 -0.24866417906E+00 -0.20175270425E+01  0.18472130931E+02  0.51100000000E-03 0.  1.
        -12    1    4    4    0    0  0.19653600063E+02  0.69112571380E+01  0.10510568470E+02  0.23334556354E+02  0.00000000000E+00 0.  1.
</event>
<event>
 8    1  0.6046524E-010  0.9118800E+02  0.7816164E-02  0.1184000E+00
        -11   -1    0    0    0    0  0.00000000000E+00  0.00000000000E+00  0.45593999997E+02  0.45594000000E+02  0.51100000000E-03 0. -1.
         11   -1    0    0    0    0 -0.00000000000E+00 -0.00000000000E+00 -0.45593999997E+02  0.45594000000E+02  0.51100000000E-03 0.  1.
         23    2    1    2    0    0  0.88817841970E-15  0.17763568394E-14  0.00000000000E+00  0.91188000000E+02  0.91188000000E+02 0.  0.
    9900012    2    3    3    0    0  0.73551741211E+01 -0.44970185151E+01  0.42535820926E+02  0.47787333833E+02  0.20000286275E+02 0.  0.
        -12    1    3    3    0    0 -0.73551741211E+01  0.44970185151E+01 -0.42535820926E+02  0.43400666167E+02  0.00000000000E+00 0.  1.
         11    1    4    4    0    0  0.72085526223E+01  0.36464163527E+00  0.22698205305E+02  0.23818159433E+02  0.51100000000E-03 0. -1.
        -11    1    4    4    0    0 -0.22494758589E+01 -0.86655607623E+01  0.12900571598E+02  0.15702765132E+02  0.51100000000E-03 0.  1.
        -12    1    4    4    0    0  0.23960973577E+01  0.38039006119E+01  0.69370440236E+01  0.82664092687E+01  0.00000000000E+00 0.  1.
</event>
<event>
 8    1  0.6046524E-010  0.9118800E+02  0.7816164E-02  0.1184000E+00
        -11   -1    0    0    0    0  0.00000000000E+00  0.00000000000E+00  0.45593999997E+02  0.45594000000E+02  0.51100000000E-03 0. -1.
         11   -1    0    0    0    0 -0.00000000000E+00 -0.00000000000E+00 -0.45593999997E+02  0.45594000000E+02  0.51100000000E-03 0.  1.
         23    2    1    2    0    0 -0.17763568394E-14 -0.71054273576E-14 -0.35527136788E-14  0.91188000000E+02  0.91188000000E+02 0.  0.
    9900012    2    3    3    0    0  0.11268951254E+02  0.33785628098E+02  0.24802507126E+02  0.47787282402E+02  0.20000051782E+02 0.  0.
        -12    1    3    3    0    0 -0.11268951254E+02 -0.33785628098E+02 -0.24802507126E+02  0.43400717598E+02  0.00000000000E+00 0.  1.
         11    1    4    4    0    0  0.65722362057E+01  0.29270850399E+01 -0.68111643644E+00  0.72267582937E+01  0.51100000000E-03 0.  1.
        -11    1    4    4    0    0  0.29128809778E+01  0.16490872209E+02  0.10724955052E+02  0.19886135948E+02  0.51100000000E-03 0. -1.
        -12    1    4    4    0    0  0.17838340708E+01  0.14367670848E+02  0.14758668510E+02  0.20674388160E+02  0.00000000000E+00 0.  1.
</event>
<event>
 8    1  0.6046524E-010  0.9118800E+02  0.7816164E-02  0.1184000E+00
        -11   -1    0    0    0    0  0.00000000000E+00  0.00000000000E+00  0.45593999997E+02  0.45594000000E+02  0.51100000000E-03 0. -1.
         11   -1    0    0    0    0 -0.00000000000E+00 -0.00000000000E+00 -0.45593999997E+02  0.45594000000E+02  0.51100000000E-03 0.  1.
         23    2    1    2    0    0  0.00000000000E+00  0.00000000000E+00  0.00000000000E+00  0.91188000000E+02  0.91188000000E+02 0.  0.
    9900012    2    3    3    0    0 -0.21213527330E+02  0.15204547375E+02 -0.34676089990E+02  0.47787271669E+02  0.20000002848E+02 0.  0.
         12    1    3    3    0    0  0.21213527330E+02 -0.15204547375E+02  0.34676089990E+02  0.43400728331E+02  0.00000000000E+00 0. -1.
         11    1    4    4    0    0  0.94508316491E+00 -0.18135725670E+01 -0.25385093449E+01  0.32597941039E+01  0.51100000000E-03 0. -1.
        -11    1    4    4    0    0 -0.13210045242E+02  0.55657880223E+01 -0.81753502655E+01  0.16502110284E+02  0.51100000000E-03 0.  1.
         12    1    4    4    0    0 -0.89485652531E+01  0.11452331920E+02 -0.23962230380E+02  0.28025367281E+02  0.00000000000E+00 0. -1.
</event>
<event>
 8    1  0.6046524E-010  0.9118800E+02  0.7816164E-02  0.1184000E+00
        -11   -1    0    0    0    0  0.00000000000E+00  0.00000000000E+00  0.45593999997E+02  0.45594000000E+02  0.51100000000E-03 0. -1.
         11   -1    0    0    0    0 -0.00000000000E+00 -0.00000000000E+00 -0.45593999997E+02  0.45594000000E+02  0.51100000000E-03 0.  1.
         23    2    1    2    0    0 -0.17763568394E-14 -0.35527136788E-14  0.00000000000E+00  0.91188000000E+02  0.91188000000E+02 0.  0.
    9900012    2    3    3    0    0  0.14130821114E+02  0.27676767866E+02  0.30297489616E+02  0.47787291919E+02  0.20000095177E+02 0.  0.
        -12    1    3    3    0    0 -0.14130821114E+02 -0.27676767866E+02 -0.30297489616E+02  0.43400708081E+02  0.00000000000E+00 0.  1.
         11    1    4    4    0    0  0.59995876008E+01  0.24218316382E+02  0.14090046309E+02  0.28653992828E+02  0.51100000000E-03 0. -1.
        -11    1    4    4    0    0  0.11764098309E+01 -0.10465552389E+01  0.11621420889E+01  0.19569855529E+01  0.51100000000E-03 0.  1.
         12    1    4    4    0    0  0.69548236819E+01  0.45050067232E+01  0.15045301218E+02  0.17176313539E+02  0.00000000000E+00 0. -1.
</event>
<event>
 8    1  0.6046524E-010  0.9118800E+02  0.7816164E-02  0.1184000E+00
        -11   -1    0    0    0    0  0.00000000000E+00  0.00000000000E+00  0.45593999997E+02  0.45594000000E+02  0.51100000000E-03 0. -1.
         11   -1    0    0    0    0 -0.00000000000E+00 -0.00000000000E+00 -0.45593999997E+02  0.45594000000E+02  0.51100000000E-03 0.  1.
         23    2    1    2    0    0  0.00000000000E+00  0.00000000000E+00  0.00000000000E+00  0.91188000000E+02  0.91188000000E+02 0.  0.
    9900012    2    3    3    0    0  0.17206047625E+02 -0.59313930825E+01 -0.39400424714E+02  0.47787274587E+02  0.20000016152E+02 0.  0.
         12    1    3    3    0    0 -0.17206047625E+02  0.59313930825E+01  0.39400424714E+02  0.43400725413E+02  0.00000000000E+00 0. -1.
         11    1    4    4    0    0  0.16453872573E+02 -0.14099958528E+01 -0.31024442121E+02  0.35145896206E+02  0.51100000000E-03 0. -1.
        -11    1    4    4    0    0 -0.25204995669E+01 -0.12008219588E+01 -0.73571667301E+01  0.78691037608E+01  0.51100000000E-03 0.  1.
        -12    1    4    4    0    0  0.32726746186E+01 -0.33205752710E+01 -0.10188158626E+01  0.47722746203E+01  0.00000000000E+00 0.  1.
</event>
<event>
 8    1  0.6046524E-010  0.9118800E+02  0.7816164E-02  0.1184000E+00
        -11   -1    0    0    0    0  0.00000000000E+00  0.00000000000E+00  0.45593999997E+02  0.45594000000E+02  0.51100000000E-03 0. -1.
         11   -1    0    0    0    0 -0.00000000000E+00 -0.00000000000E+00 -0.45593999997E+02  0.45594000000E+02  0.51100000000E-03 0.  1.
         23    2    1    2    0    0 -0.53290705182E-14  0.88817841970E-15  0.71054273576E-14  0.91188000000E+02  0.91188000000E+02 0.  0.
    9900012    2    3    3    0    0 -0.15130060049E+02 -0.57962920023E+01  0.40262980483E+02  0.47787270566E+02  0.19999997819E+02 0.  0.
        -12    1    3    3    0    0  0.15130060049E+02  0.57962920023E+01 -0.40262980483E+02  0.43400729434E+02  0.00000000000E+00 0.  1.
         11    1    4    4    0    0 -0.11832263287E+01 -0.25821012056E+01  0.15449115095E+02  0.15708037072E+02  0.51100000000E-03 0. -1.
        -11    1    4    4    0    0 -0.16570797521E+02 -0.47335224983E+01  0.21964655635E+02  0.27918518284E+02  0.51100000000E-03 0.  1.
        -12    1    4    4    0    0  0.26239638008E+01  0.15193317016E+01  0.28492097526E+01  0.41607152104E+01  0.00000000000E+00 0.  1.
</event>
<event>
 8    1  0.6046524E-010  0.9118800E+02  0.7816164E-02  0.1184000E+00
        -11   -1    0    0    0    0  0.00000000000E+00  0.00000000000E+00  0.45593999997E+02  0.45594000000E+02  0.51100000000E-03 0. -1.
         11   -1    0    0    0    0 -0.00000000000E+00 -0.00000000000E+00 -0.45593999997E+02  0.45594000000E+02  0.51100000000E-03 0.  1.
         23    2    1    2    0    0  0.00000000000E+00 -0.88817841970E-15  0.00000000000E+00  0.91188000000E+02  0.91188000000E+02 0.  0.
    9900012    2    3    3    0    0  0.33287084787E+02 -0.53783795136E+01  0.27325195568E+02  0.47787270829E+02  0.19999999016E+02 0.  0.
        -12    1    3    3    0    0 -0.33287084787E+02  0.53783795136E+01 -0.27325195568E+02  0.43400729171E+02  0.00000000000E+00 0.  1.
         11    1    4    4    0    0  0.22104115965E+02  0.17414504945E+01  0.11672060227E+02  0.25057166293E+02  0.51100000000E-03 0. -1.
        -11    1    4    4    0    0  0.12213000287E+02 -0.55135225091E+01  0.15914043326E+02  0.20804160202E+02  0.51100000000E-03 0.  1.
        -12    1    4    4    0    0 -0.10300314654E+01 -0.16063074990E+01 -0.26090798508E+00  0.19259443340E+01  0.00000000000E+00 0.  1.
</event>
<event>
 8    1  0.6046524E-010  0.9118800E+02  0.7816164E-02  0.1184000E+00
        -11   -1    0    0    0    0  0.00000000000E+00  0.00000000000E+00  0.45593999997E+02  0.45594000000E+02  0.51100000000E-03 0. -1.
         11   -1    0    0    0    0 -0.00000000000E+00 -0.00000000000E+00 -0.45593999997E+02  0.45594000000E+02  0.51100000000E-03 0.  1.
         23    2    1    2    0    0  0.00000000000E+00  0.00000000000E+00  0.00000000000E+00  0.91188000000E+02  0.91188000000E+02 0.  0.
    9900012    2    3    3    0    0  0.10982419520E+02 -0.26536234167E+02  0.32539794764E+02  0.47787268375E+02  0.19999987830E+02 0.  0.
        -12    1    3    3    0    0 -0.10982419520E+02  0.26536234167E+02 -0.32539794764E+02  0.43400731625E+02  0.00000000000E+00 0.  1.
         11    1    4    4    0    0  0.77864067995E+01 -0.19408375225E+02  0.18246374621E+02  0.27753258310E+02  0.51100000000E-03 0. -1.
        -11    1    4    4    0    0  0.28520479091E+01 -0.22293811771E+01 -0.11741660643E+01  0.38056515757E+01  0.51100000000E-03 0.  1.
        -12    1    4    4    0    0  0.34396481126E+00 -0.48984777647E+01  0.15467586207E+02  0.16228358490E+02  0.00000000000E+00 0.  1.
</event>
<event>
 8    1  0.6046524E-010  0.9118800E+02  0.7816164E-02  0.1184000E+00
        -11   -1    0    0    0    0  0.00000000000E+00  0.00000000000E+00  0.45593999997E+02  0.45594000000E+02  0.51100000000E-03 0. -1.
         11   -1    0    0    0    0 -0.00000000000E+00 -0.00000000000E+00 -0.45593999997E+02  0.45594000000E+02  0.51100000000E-03 0.  1.
         23    2    1    2    0    0  0.00000000000E+00  0.00000000000E+00  0.00000000000E+00  0.91188000000E+02  0.91188000000E+02 0.  0.
    9900012    2    3    3    0    0  0.11588244695E+02 -0.11245511414E+02  0.40284912118E+02  0.47787273204E+02  0.20000009847E+02 0.  0.
        -12    1    3    3    0    0 -0.11588244695E+02  0.11245511414E+02 -0.40284912118E+02  0.43400726796E+02  0.00000000000E+00 0.  1.
         11    1    4    4    0    0  0.57297783510E+00 -0.15221506549E+01  0.17967914979E+02  0.18041375091E+02  0.51100000000E-03 0. -1.
        -11    1    4    4    0    0  0.11274308005E+02 -0.14330391031E+01  0.12505791991E+02  0.16898474950E+02  0.51100000000E-03 0.  1.
         12    1    4    4    0    0 -0.25904114575E+00 -0.82903216561E+01  0.98112051483E+01  0.12847423163E+02  0.00000000000E+00 0. -1.
</event>
<event>
 8    1  0.6046524E-010  0.9118800E+02  0.7816164E-02  0.1184000E+00
        -11   -1    0    0    0    0  0.00000000000E+00  0.00000000000E+00  0.45593999997E+02  0.45594000000E+02  0.51100000000E-03 0. -1.
         11   -1    0    0    0    0 -0.00000000000E+00 -0.00000000000E+00 -0.45593999997E+02  0.45594000000E+02  0.51100000000E-03 0.  1.
         23    2    1    2    0    0  0.00000000000E+00  0.00000000000E+00  0.00000000000E+00  0.91188000000E+02  0.91188000000E+02 0.  0.
    9900012    2    3    3    0    0 -0.65193682744E+01 -0.41492137393E+02  0.10932671490E+02  0.47787274959E+02  0.20000017850E+02 0.  0.
        -12    1    3    3    0    0  0.65193682744E+01  0.41492137393E+02 -0.10932671490E+02  0.43400725041E+02  0.00000000000E+00 0.  1.
         11    1    4    4    0    0 -0.30801911047E+01 -0.26886081319E+02  0.53150940912E+01  0.27578962479E+02  0.51100000000E-03 0. -1.
        -11    1    4    4    0    0  0.40994321501E+01 -0.79099977932E+01  0.47282642533E+01  0.10086123743E+02  0.51100000000E-03 0.  1.
        -12    1    4    4    0    0 -0.75386093199E+01 -0.66960582805E+01  0.88931314599E+00  0.10122188738E+02  0.00000000000E+00 0.  1.
</event>
<event>
 8    1  0.6046524E-010  0.9118800E+02  0.7816164E-02  0.1184000E+00
        -11   -1    0    0    0    0  0.00000000000E+00  0.00000000000E+00  0.45593999997E+02  0.45594000000E+02  0.51100000000E-03 0.  1.
         11   -1    0    0    0    0 -0.00000000000E+00 -0.00000000000E+00 -0.45593999997E+02  0.45594000000E+02  0.51100000000E-03 0. -1.
         23    2    1    2    0    0 -0.17763568394E-14 -0.71054273576E-14  0.00000000000E+00  0.91188000000E+02  0.91188000000E+02 0.  0.
    9900012    2    3    3    0    0 -0.15064365070E+02 -0.40443853008E+02  0.45807155040E+01  0.47787270794E+02  0.19999998858E+02 0.  0.
        -12    1    3    3    0    0  0.15064365070E+02  0.40443853008E+02 -0.45807155040E+01  0.43400729206E+02  0.00000000000E+00 0.  1.
         11    1    4    4    0    0 -0.70130889326E+01 -0.16845809856E+02 -0.46344321981E+01  0.18826648352E+02  0.51100000000E-03 0. -1.
        -11    1    4    4    0    0 -0.90535299829E+01 -0.95288048293E+01  0.62191296251E+01  0.14541048799E+02  0.51100000000E-03 0.  1.
         12    1    4    4    0    0  0.10022538455E+01 -0.14069238322E+02  0.29960180770E+01  0.14419573643E+02  0.00000000000E+00 0. -1.
</event>
<event>
 8    1  0.6046524E-010  0.9118800E+02  0.7816164E-02  0.1184000E+00
        -11   -1    0    0    0    0  0.00000000000E+00  0.00000000000E+00  0.45593999997E+02  0.45594000000E+02  0.51100000000E-03 0. -1.
         11   -1    0    0    0    0 -0.00000000000E+00 -0.00000000000E+00 -0.45593999997E+02  0.45594000000E+02  0.51100000000E-03 0.  1.
         23    2    1    2    0    0  0.17763568394E-14 -0.88817841970E-15 -0.71054273576E-14  0.91188000000E+02  0.91188000000E+02 0.  0.
    9900012    2    3    3    0    0 -0.15503792459E+02  0.66590461987E+01  0.39986410191E+02  0.47787268706E+02  0.19999989339E+02 0.  0.
        -12    1    3    3    0    0  0.15503792459E+02 -0.66590461987E+01 -0.39986410191E+02  0.43400731294E+02  0.00000000000E+00 0.  1.
         11    1    4    4    0    0 -0.20570036544E+01  0.31439589227E+00  0.13016607376E+01  0.24544713786E+01  0.51100000000E-03 0. -1.
        -11    1    4    4    0    0  0.21345175667E+01 -0.35688629710E+01  0.29194875631E+01  0.50809798308E+01  0.51100000000E-03 0.  1.
         12    1    4    4    0    0 -0.15581306372E+02  0.99135132774E+01  0.35765261890E+02  0.40251817497E+02  0.00000000000E+00 0. -1.
</event>
<event>
 8    1  0.6046524E-010  0.9118800E+02  0.7816164E-02  0.1184000E+00
        -11   -1    0    0    0    0  0.00000000000E+00  0.00000000000E+00  0.45593999997E+02  0.45594000000E+02  0.51100000000E-03 0. -1.
         11   -1    0    0    0    0 -0.00000000000E+00 -0.00000000000E+00 -0.45593999997E+02  0.45594000000E+02  0.51100000000E-03 0.  1.
         23    2    1    2    0    0  0.00000000000E+00  0.00000000000E+00  0.35527136788E-14  0.91188000000E+02  0.91188000000E+02 0.  0.
    9900012    2    3    3    0    0 -0.36756441286E+02  0.97530747654E+01  0.20915658783E+02  0.47787271599E+02  0.20000002528E+02 0.  0.
        -12    1    3    3    0    0  0.36756441286E+02 -0.97530747654E+01 -0.20915658783E+02  0.43400728401E+02  0.00000000000E+00 0.  1.
         11    1    4    4    0    0 -0.17831952587E+02  0.70538063174E+01  0.13650376199E+02  0.23538638177E+02  0.51100000000E-03 0. -1.
        -11    1    4    4    0    0  0.16436928526E+01  0.16163240748E+01  0.18396509611E+01  0.29493296914E+01  0.51100000000E-03 0.  1.
         12    1    4    4    0    0 -0.20568181552E+02  0.10829443732E+01  0.54256316232E+01  0.21299303730E+02  0.00000000000E+00 0. -1.
</event>
<event>
 8    1  0.6046524E-010  0.9118800E+02  0.7816164E-02  0.1184000E+00
        -11   -1    0    0    0    0  0.00000000000E+00  0.00000000000E+00  0.45593999997E+02  0.45594000000E+02  0.51100000000E-03 0. -1.
         11   -1    0    0    0    0 -0.00000000000E+00 -0.00000000000E+00 -0.45593999997E+02  0.45594000000E+02  0.51100000000E-03 0.  1.
         23    2    1    2    0    0  0.17763568394E-14 -0.17763568394E-14  0.00000000000E+00  0.91188000000E+02  0.91188000000E+02 0.  0.
    9900012    2    3    3    0    0  0.10455497595E+02 -0.12903579919E+02  0.40097423299E+02  0.47787272357E+02  0.20000005984E+02 0.  0.
        -12    1    3    3    0    0 -0.10455497595E+02  0.12903579919E+02 -0.40097423299E+02  0.43400727643E+02  0.00000000000E+00 0.  1.
         11    1    4    4    0    0  0.44138841305E+01 -0.16336469131E+02  0.35267303181E+02  0.39117071346E+02  0.51100000000E-03 0. -1.
        -11    1    4    4    0    0  0.11071976216E+01  0.15283328039E+01  0.96797249527E+00  0.21210041833E+01  0.51100000000E-03 0.  1.
         12    1    4    4    0    0  0.49344158430E+01  0.19045564079E+01  0.38621476230E+01  0.65491968274E+01  0.00000000000E+00 0. -1.
</event>
<event>
 8    1  0.6046524E-010  0.9118800E+02  0.7816164E-02  0.1184000E+00
        -11   -1    0    0    0    0  0.00000000000E+00  0.00000000000E+00  0.45593999997E+02  0.45594000000E+02  0.51100000000E-03 0. -1.
         11   -1    0    0    0    0 -0.00000000000E+00 -0.00000000000E+00 -0.45593999997E+02  0.45594000000E+02  0.51100000000E-03 0.  1.
         23    2    1    2    0    0 -0.71054273576E-14 -0.35527136788E-14  0.17763568394E-14  0.91188000000E+02  0.91188000000E+02 0.  0.
    9900012    2    3    3    0    0  0.34729460655E+02  0.21625202844E+02 -0.14485743969E+02  0.47787290170E+02  0.20000087201E+02 0.  0.
         12    1    3    3    0    0 -0.34729460655E+02 -0.21625202844E+02  0.14485743969E+02  0.43400709830E+02  0.00000000000E+00 0. -1.
         11    1    4    4    0    0  0.18153115309E+01 -0.17375403135E+01  0.10277442886E+01  0.27148961084E+01  0.51100000000E-03 0. -1.
        -11    1    4    4    0    0  0.23519954448E+02  0.92377790008E+01 -0.10682139604E+02  0.27434156172E+02  0.51100000000E-03 0.  1.
        -12    1    4    4    0    0  0.93941946757E+01  0.14124964157E+02 -0.48313486538E+01  0.17638237890E+02  0.00000000000E+00 0.  1.
</event>
<event>
 8    1  0.6046524E-010  0.9118800E+02  0.7816164E-02  0.1184000E+00
        -11   -1    0    0    0    0  0.00000000000E+00  0.00000000000E+00  0.45593999997E+02  0.45594000000E+02  0.51100000000E-03 0. -1.
         11   -1    0    0    0    0 -0.00000000000E+00 -0.00000000000E+00 -0.45593999997E+02  0.45594000000E+02  0.51100000000E-03 0.  1.
         23    2    1    2    0    0  0.88817841970E-15  0.00000000000E+00  0.71054273576E-14  0.91188000000E+02  0.91188000000E+02 0.  0.
    9900012    2    3    3    0    0 -0.56480437648E+01 -0.20309964145E+02  0.37937178144E+02  0.47787256602E+02  0.19999934152E+02 0.  0.
        -12    1    3    3    0    0  0.56480437648E+01  0.20309964145E+02 -0.37937178144E+02  0.43400743398E+02  0.00000000000E+00 0.  1.
         11    1    4    4    0    0  0.21446366943E+01 -0.73743516607E+01  0.84443561988E+01  0.11414362919E+02  0.51100000000E-03 0. -1.
        -11    1    4    4    0    0 -0.39608582087E+01 -0.39956253629E+00  0.19466750911E+02  0.19869636113E+02  0.51100000000E-03 0.  1.
        -12    1    4    4    0    0 -0.38318222505E+01 -0.12536049948E+02  0.10026071035E+02  0.16503257570E+02  0.00000000000E+00 0.  1.
</event>
<event>
 8    1  0.6046524E-010  0.9118800E+02  0.7816164E-02  0.1184000E+00
        -11   -1    0    0    0    0  0.00000000000E+00  0.00000000000E+00  0.45593999997E+02  0.45594000000E+02  0.51100000000E-03 0. -1.
         11   -1    0    0    0    0 -0.00000000000E+00 -0.00000000000E+00 -0.45593999997E+02  0.45594000000E+02  0.51100000000E-03 0.  1.
         23    2    1    2    0    0  0.00000000000E+00  0.35527136788E-14  0.35527136788E-14  0.91188000000E+02  0.91188000000E+02 0.  0.
    9900012    2    3    3    0    0  0.19726201197E+02  0.23868167865E+02  0.30410701675E+02  0.47787271582E+02  0.20000002450E+02 0.  0.
        -12    1    3    3    0    0 -0.19726201197E+02 -0.23868167865E+02 -0.30410701675E+02  0.43400728418E+02  0.00000000000E+00 0.  1.
         11    1    4    4    0    0  0.13114862604E+02  0.13204774786E+02  0.27472988052E+02  0.33183290540E+02  0.51100000000E-03 0. -1.
        -11    1    4    4    0    0 -0.12067115296E+01  0.34624986495E+01  0.98992263118E+00  0.37980253672E+01  0.51100000000E-03 0.  1.
         12    1    4    4    0    0  0.78180501231E+01  0.72008944290E+01  0.19477909913E+01  0.10805955675E+02  0.00000000000E+00 0. -1.
</event>
<event>
 8    1  0.6046524E-010  0.9118800E+02  0.7816164E-02  0.1184000E+00
        -11   -1    0    0    0    0  0.00000000000E+00  0.00000000000E+00  0.45593999997E+02  0.45594000000E+02  0.51100000000E-03 0. -1.
         11   -1    0    0    0    0 -0.00000000000E+00 -0.00000000000E+00 -0.45593999997E+02  0.45594000000E+02  0.51100000000E-03 0.  1.
         23    2    1    2    0    0  0.00000000000E+00 -0.17763568394E-14  0.88817841970E-15  0.91188000000E+02  0.91188000000E+02 0.  0.
    9900012    2    3    3    0    0 -0.39904667020E+02 -0.15306154050E+02 -0.75473650741E+01  0.47787268193E+02  0.19999987000E+02 0.  0.
         12    1    3    3    0    0  0.39904667020E+02  0.15306154050E+02  0.75473650741E+01  0.43400731807E+02  0.00000000000E+00 0. -1.
         11    1    4    4    0    0 -0.12476050336E+02  0.18102488618E+01 -0.97701798898E+00  0.12644500676E+02  0.51100000000E-03 0. -1.
        -11    1    4    4    0    0 -0.13520121564E+02 -0.90208324452E+01 -0.94401540151E+01  0.18795893520E+02  0.51100000000E-03 0.  1.
         12    1    4    4    0    0 -0.13908495120E+02 -0.80955704665E+01  0.28698069300E+01  0.16346873998E+02  0.00000000000E+00 0. -1.
</event>
<event>
 8    1  0.6046524E-010  0.9118800E+02  0.7816164E-02  0.1184000E+00
        -11   -1    0    0    0    0  0.00000000000E+00  0.00000000000E+00  0.45593999997E+02  0.45594000000E+02  0.51100000000E-03 0. -1.
         11   -1    0    0    0    0 -0.00000000000E+00 -0.00000000000E+00 -0.45593999997E+02  0.45594000000E+02  0.51100000000E-03 0.  1.
         23    2    1    2    0    0 -0.17763568394E-14  0.88817841970E-15  0.00000000000E+00  0.91188000000E+02  0.91188000000E+02 0.  0.
    9900012    2    3    3    0    0  0.90782976458E+01 -0.59737694730E+01  0.42018117283E+02  0.47787267404E+02  0.19999983401E+02 0.  0.
        -12    1    3    3    0    0 -0.90782976458E+01  0.59737694730E+01 -0.42018117283E+02  0.43400732596E+02  0.00000000000E+00 0.  1.
         11    1    4    4    0    0 -0.87268255192E+00 -0.99452165720E+01  0.15093281224E+02  0.18096299231E+02  0.51100000000E-03 0. -1.
        -11    1    4    4    0    0  0.12370312905E+01  0.17113658898E+01  0.12575354432E+02  0.12751413999E+02  0.51100000000E-03 0.  1.
         12    1    4    4    0    0  0.87139489073E+01  0.22600812092E+01  0.14349481627E+02  0.16939554174E+02  0.00000000000E+00 0. -1.
</event>
<event>
 8    1  0.6046524E-010  0.9118800E+02  0.7816164E-02  0.1184000E+00
        -11   -1    0    0    0    0  0.00000000000E+00  0.00000000000E+00  0.45593999997E+02  0.45594000000E+02  0.51100000000E-03 0. -1.
         11   -1    0    0    0    0 -0.00000000000E+00 -0.00000000000E+00 -0.45593999997E+02  0.45594000000E+02  0.51100000000E-03 0.  1.
         23    2    1    2    0    0  0.44408920985E-15  0.00000000000E+00  0.00000000000E+00  0.91188000000E+02  0.91188000000E+02 0.  0.
    9900012    2    3    3    0    0 -0.16759319727E+01 -0.83775993423E+01 -0.42551502417E+02  0.47787271012E+02  0.19999999854E+02 0.  0.
         12    1    3    3    0    0  0.16759319727E+01  0.83775993423E+01  0.42551502417E+02  0.43400728988E+02  0.00000000000E+00 0. -1.
         11    1    4    4    0    0 -0.98057023791E+01 -0.39656708684E+01 -0.20049203545E+02  0.22668235653E+02  0.51100000000E-03 0. -1.
        -11    1    4    4    0    0  0.34778377464E+01  0.48306575613E-01 -0.14139823046E+02  0.14561328406E+02  0.51100000000E-03 0.  1.
        -12    1    4    4    0    0  0.46519326600E+01 -0.44602350495E+01 -0.83624758262E+01  0.10557706953E+02  0.00000000000E+00 0.  1.
</event>
<event>
 8    1  0.6046524E-010  0.9118800E+02  0.7816164E-02  0.1184000E+00
        -11   -1    0    0    0    0  0.00000000000E+00  0.00000000000E+00  0.45593999997E+02  0.45594000000E+02  0.51100000000E-03 0. -1.
         11   -1    0    0    0    0 -0.00000000000E+00 -0.00000000000E+00 -0.45593999997E+02  0.45594000000E+02  0.51100000000E-03 0.  1.
         23    2    1    2    0    0  0.00000000000E+00  0.71054273576E-14  0.88817841970E-15  0.91188000000E+02  0.91188000000E+02 0.  0.
    9900012    2    3    3    0    0 -0.23546616686E+02 -0.36174065625E+02 -0.45405637375E+01  0.47787275348E+02  0.20000019623E+02 0.  0.
        -12    1    3    3    0    0  0.23546616686E+02  0.36174065625E+02  0.45405637375E+01  0.43400724652E+02  0.00000000000E+00 0.  1.
         11    1    4    4    0    0 -0.11291320278E+02 -0.22840686348E+02  0.34642341206E+01  0.25713649776E+02  0.51100000000E-03 0. -1.
        -11    1    4    4    0    0 -0.12951843535E+02 -0.97143481446E+01 -0.40935606346E+01  0.16699582323E+02  0.51100000000E-03 0.  1.
        -12    1    4    4    0    0  0.69654712593E+00 -0.36190311323E+01 -0.39112372234E+01  0.53740432500E+01  0.00000000000E+00 0.  1.
</event>
<event>
 8    1  0.6046524E-010  0.9118800E+02  0.7816164E-02  0.1184000E+00
        -11   -1    0    0    0    0  0.00000000000E+00  0.00000000000E+00  0.45593999997E+02  0.45594000000E+02  0.51100000000E-03 0. -1.
         11   -1    0    0    0    0 -0.00000000000E+00 -0.00000000000E+00 -0.45593999997E+02  0.45594000000E+02  0.51100000000E-03 0.  1.
         23    2    1    2    0    0 -0.11102230246E-14  0.00000000000E+00  0.00000000000E+00  0.91188000000E+02  0.91188000000E+02 0.  0.
    9900012    2    3    3    0    0  0.80986579041E+00 -0.14778835629E+02  0.40798940160E+02  0.47787269783E+02  0.19999994249E+02 0.  0.
        -12    1    3    3    0    0 -0.80986579041E+00  0.14778835629E+02 -0.40798940160E+02  0.43400730217E+02  0.00000000000E+00 0.  1.
         11    1    4    4    0    0 -0.33666609623E+01 -0.11756395477E+02  0.30005714066E+02  0.32402007925E+02  0.51100000000E-03 0. -1.
        -11    1    4    4    0    0 -0.24534152422E+01 -0.20956314076E+01  0.74540244496E+00  0.33115770281E+01  0.51100000000E-03 0.  1.
        -12    1    4    4    0    0  0.66299419949E+01 -0.92680874476E+00  0.10047823649E+02  0.12073684830E+02  0.00000000000E+00 0.  1.
</event>
<event>
 8    1  0.6046524E-010  0.9118800E+02  0.7816164E-02  0.1184000E+00
        -11   -1    0    0    0    0  0.00000000000E+00  0.00000000000E+00  0.45593999997E+02  0.45594000000E+02  0.51100000000E-03 0. -1.
         11   -1    0    0    0    0 -0.00000000000E+00 -0.00000000000E+00 -0.45593999997E+02  0.45594000000E+02  0.51100000000E-03 0.  1.
         23    2    1    2    0    0  0.35527136788E-14 -0.35527136788E-14 -0.71054273576E-14  0.91188000000E+02  0.91188000000E+02 0.  0.
    9900012    2    3    3    0    0 -0.11243989181E+02  0.25488466195E+02  0.33279631102E+02  0.47787273647E+02  0.20000011868E+02 0.  0.
        -12    1    3    3    0    0  0.11243989181E+02 -0.25488466195E+02 -0.33279631102E+02  0.43400726353E+02  0.00000000000E+00 0.  1.
         11    1    4    4    0    0 -0.22117818079E+01  0.12252780236E+02  0.20171374212E+02  0.23704576355E+02  0.51100000000E-03 0. -1.
        -11    1    4    4    0    0 -0.11830672078E+02  0.12692976054E+02  0.11195795941E+02  0.20649994913E+02  0.51100000000E-03 0.  1.
         12    1    4    4    0    0  0.27984647048E+01  0.54270990515E+00  0.19124609481E+01  0.34327023790E+01  0.00000000000E+00 0. -1.
</event>
<event>
 8    1  0.6046524E-010  0.9118800E+02  0.7816164E-02  0.1184000E+00
        -11   -1    0    0    0    0  0.00000000000E+00  0.00000000000E+00  0.45593999997E+02  0.45594000000E+02  0.51100000000E-03 0.  1.
         11   -1    0    0    0    0 -0.00000000000E+00 -0.00000000000E+00 -0.45593999997E+02  0.45594000000E+02  0.51100000000E-03 0. -1.
         23    2    1    2    0    0  0.00000000000E+00  0.00000000000E+00  0.44408920985E-15  0.91188000000E+02  0.91188000000E+02 0.  0.
    9900012    2    3    3    0    0  0.39395518933E+02 -0.18013234310E+02 -0.26721399996E+01  0.47787264356E+02  0.19999969504E+02 0.  0.
         12    1    3    3    0    0 -0.39395518933E+02  0.18013234310E+02  0.26721399996E+01  0.43400735644E+02  0.00000000000E+00 0. -1.
         11    1    4    4    0    0  0.29678504538E+01 -0.42796549862E+01  0.28293432774E+01  0.59269525694E+01  0.51100000000E-03 0. -1.
        -11    1    4    4    0    0  0.32976025789E+02 -0.98846852136E+01 -0.15911237814E+00  0.34426016262E+02  0.51100000000E-03 0.  1.
         12    1    4    4    0    0  0.34516426896E+01 -0.38488941102E+01 -0.53423708989E+01  0.74342955247E+01  0.00000000000E+00 0. -1.
</event>
<event>
 8    1  0.6046524E-010  0.9118800E+02  0.7816164E-02  0.1184000E+00
        -11   -1    0    0    0    0  0.00000000000E+00  0.00000000000E+00  0.45593999997E+02  0.45594000000E+02  0.51100000000E-03 0. -1.
         11   -1    0    0    0    0 -0.00000000000E+00 -0.00000000000E+00 -0.45593999997E+02  0.45594000000E+02  0.51100000000E-03 0.  1.
         23    2    1    2    0    0 -0.35527136788E-14  0.44408920985E-15  0.14210854715E-13  0.91188000000E+02  0.91188000000E+02 0.  0.
    9900012    2    3    3    0    0  0.18952250454E+02  0.35960852489E+01 -0.38877994652E+02  0.47787330713E+02  0.20000272051E+02 0.  0.
         12    1    3    3    0    0 -0.18952250454E+02 -0.35960852489E+01  0.38877994652E+02  0.43400669287E+02  0.00000000000E+00 0. -1.
         11    1    4    4    0    0  0.12080112238E+00 -0.43043140304E+01 -0.97057390578E+01  0.10618054582E+02  0.51100000000E-03 0. -1.
        -11    1    4    4    0    0  0.15138167419E+02  0.24324196514E+01 -0.25109088869E+02  0.29420182227E+02  0.51100000000E-03 0.  1.
        -12    1    4    4    0    0  0.36932819126E+01  0.54679796279E+01 -0.40631667251E+01  0.77490939040E+01  0.00000000000E+00 0.  1.
</event>
<event>
 8    1  0.6046524E-010  0.9118800E+02  0.7816164E-02  0.1184000E+00
        -11   -1    0    0    0    0  0.00000000000E+00  0.00000000000E+00  0.45593999997E+02  0.45594000000E+02  0.51100000000E-03 0. -1.
         11   -1    0    0    0    0 -0.00000000000E+00 -0.00000000000E+00 -0.45593999997E+02  0.45594000000E+02  0.51100000000E-03 0.  1.
         23    2    1    2    0    0 -0.17763568394E-14  0.00000000000E+00  0.88817841970E-15  0.91188000000E+02  0.91188000000E+02 0.  0.
    9900012    2    3    3    0    0 -0.68490245962E+01 -0.42446099227E+02  0.59196870689E+01  0.47787272212E+02  0.20000005324E+02 0.  0.
         12    1    3    3    0    0  0.68490245962E+01  0.42446099227E+02 -0.59196870689E+01  0.43400727788E+02  0.00000000000E+00 0. -1.
         11    1    4    4    0    0 -0.72951898173E+01 -0.22365266826E+02  0.83324862000E+01  0.24957068762E+02  0.51100000000E-03 0. -1.
        -11    1    4    4    0    0 -0.29548052287E+01 -0.18732258304E+02 -0.27235353475E+01  0.19158445139E+02  0.51100000000E-03 0.  1.
         12    1    4    4    0    0  0.34009704498E+01 -0.13485740978E+01  0.31073621643E+00  0.36717583109E+01  0.00000000000E+00 0. -1.
</event>
<event>
 8    1  0.6046524E-010  0.9118800E+02  0.7816164E-02  0.1184000E+00
        -11   -1    0    0    0    0  0.00000000000E+00  0.00000000000E+00  0.45593999997E+02  0.45594000000E+02  0.51100000000E-03 0. -1.
         11   -1    0    0    0    0 -0.00000000000E+00 -0.00000000000E+00 -0.45593999997E+02  0.45594000000E+02  0.51100000000E-03 0.  1.
         23    2    1    2    0    0 -0.13322676296E-14  0.00000000000E+00  0.00000000000E+00  0.91188000000E+02  0.91188000000E+02 0.  0.
    9900012    2    3    3    0    0  0.50010004323E+00  0.39506562743E+02  0.17961191328E+02  0.47787274272E+02  0.20000014717E+02 0.  0.
        -12    1    3    3    0    0 -0.50010004323E+00 -0.39506562743E+02 -0.17961191328E+02  0.43400725728E+02  0.00000000000E+00 0.  1.
         11    1    4    4    0    0 -0.24684329746E+01  0.82964927031E+01  0.58531142392E+01  0.10449109966E+02  0.51100000000E-03 0. -1.
        -11    1    4    4    0    0 -0.42848720379E+01  0.22562749441E+02  0.12294879521E+02  0.26049987590E+02  0.51100000000E-03 0.  1.
        -12    1    4    4    0    0  0.72534050558E+01  0.86473205982E+01 -0.18680243273E+00  0.11288176716E+02  0.00000000000E+00 0.  1.
</event>
<event>
 8    1  0.6046524E-010  0.9118800E+02  0.7816164E-02  0.1184000E+00
        -11   -1    0    0    0    0  0.00000000000E+00  0.00000000000E+00  0.45593999997E+02  0.45594000000E+02  0.51100000000E-03 0. -1.
         11   -1    0    0    0    0 -0.00000000000E+00 -0.00000000000E+00 -0.45593999997E+02  0.45594000000E+02  0.51100000000E-03 0.  1.
         23    2    1    2    0    0  0.17763568394E-14  0.35527136788E-14 -0.71054273576E-14  0.91188000000E+02  0.91188000000E+02 0.  0.
    9900012    2    3    3    0    0 -0.13485357401E+02 -0.18372941821E+02  0.36935129793E+02  0.47787266501E+02  0.19999979285E+02 0.  0.
        -12    1    3    3    0    0  0.13485357401E+02  0.18372941821E+02 -0.36935129793E+02  0.43400733499E+02  0.00000000000E+00 0.  1.
         11    1    4    4    0    0 -0.50321856228E+01 -0.10127178886E+02  0.23535592094E+02  0.26111429295E+02  0.51100000000E-03 0. -1.
        -11    1    4    4    0    0 -0.45854977522E+01 -0.18330393072E+01  0.13299115565E+02  0.14186377192E+02  0.51100000000E-03 0.  1.
        -12    1    4    4    0    0 -0.38676740264E+01 -0.64127236280E+01  0.10042213306E+00  0.74894600144E+01  0.00000000000E+00 0.  1.
</event>
<event>
 8    1  0.6046524E-010  0.9118800E+02  0.7816164E-02  0.1184000E+00
        -11   -1    0    0    0    0  0.00000000000E+00  0.00000000000E+00  0.45593999997E+02  0.45594000000E+02  0.51100000000E-03 0. -1.
         11   -1    0    0    0    0 -0.00000000000E+00 -0.00000000000E+00 -0.45593999997E+02  0.45594000000E+02  0.51100000000E-03 0.  1.
         23    2    1    2    0    0 -0.17763568394E-14  0.00000000000E+00  0.35527136788E-14  0.91188000000E+02  0.91188000000E+02 0.  0.
    9900012    2    3    3    0    0  0.14627906598E+02 -0.34852038576E+02 -0.21330340983E+02  0.47787266241E+02  0.19999978099E+02 0.  0.
         12    1    3    3    0    0 -0.14627906598E+02  0.34852038576E+02  0.21330340983E+02  0.43400733759E+02  0.00000000000E+00 0. -1.
         11    1    4    4    0    0 -0.41542293748E+01 -0.43010237885E+01 -0.42732825934E+01  0.73496511286E+01  0.51100000000E-03 0. -1.
        -11    1    4    4    0    0  0.66729812275E+01 -0.12640644785E+02 -0.28713826503E+01  0.14579417602E+02  0.51100000000E-03 0.  1.
        -12    1    4    4    0    0  0.12109154746E+02 -0.17910370003E+02 -0.14185675739E+02  0.25858197510E+02  0.00000000000E+00 0.  1.
</event>
<event>
 8    1  0.6046524E-010  0.9118800E+02  0.7816164E-02  0.1184000E+00
        -11   -1    0    0    0    0  0.00000000000E+00  0.00000000000E+00  0.45593999997E+02  0.45594000000E+02  0.51100000000E-03 0. -1.
         11   -1    0    0    0    0 -0.00000000000E+00 -0.00000000000E+00 -0.45593999997E+02  0.45594000000E+02  0.51100000000E-03 0.  1.
         23    2    1    2    0    0  0.00000000000E+00  0.71054273576E-14  0.00000000000E+00  0.91188000000E+02  0.91188000000E+02 0.  0.
    9900012    2    3    3    0    0  0.26979788629E+02  0.29636922144E+02 -0.16654374477E+02  0.47787258787E+02  0.19999944112E+02 0.  0.
         12    1    3    3    0    0 -0.26979788629E+02 -0.29636922144E+02  0.16654374477E+02  0.43400741213E+02  0.00000000000E+00 0. -1.
         11    1    4    4    0    0  0.76839363106E+01  0.13119785147E+02  0.58514095534E+00  0.15215585093E+02  0.51100000000E-03 0. -1.
        -11    1    4    4    0    0  0.13779567942E+02  0.17025637843E+02 -0.15234550828E+02  0.26680336876E+02  0.51100000000E-03 0.  1.
        -12    1    4    4    0    0  0.55162843766E+01 -0.50850084598E+00 -0.20049646038E+01  0.58913368174E+01  0.00000000000E+00 0.  1.
</event>
<event>
 8    1  0.6046524E-010  0.9118800E+02  0.7816164E-02  0.1184000E+00
        -11   -1    0    0    0    0  0.00000000000E+00  0.00000000000E+00  0.45593999997E+02  0.45594000000E+02  0.51100000000E-03 0. -1.
         11   -1    0    0    0    0 -0.00000000000E+00 -0.00000000000E+00 -0.45593999997E+02  0.45594000000E+02  0.51100000000E-03 0.  1.
         23    2    1    2    0    0  0.00000000000E+00  0.17763568394E-14  0.71054273576E-14  0.91188000000E+02  0.91188000000E+02 0.  0.
    9900012    2    3    3    0    0  0.71405378814E+01 -0.15620989977E+02 -0.39857496058E+02  0.47787278795E+02  0.20000035338E+02 0.  0.
         12    1    3    3    0    0 -0.71405378814E+01  0.15620989977E+02  0.39857496058E+02  0.43400721205E+02  0.00000000000E+00 0. -1.
         11    1    4    4    0    0 -0.43083477782E+01 -0.11152618180E+02 -0.12935521177E+02  0.17614495770E+02  0.51100000000E-03 0. -1.
        -11    1    4    4    0    0  0.12770172148E+01 -0.28497357574E+01 -0.42795066859E+01  0.52977301356E+01  0.51100000000E-03 0.  1.
        -12    1    4    4    0    0  0.10171868445E+02 -0.16186360396E+01 -0.22642468195E+02  0.24875052889E+02  0.00000000000E+00 0.  1.
</event>
<event>
 8    1  0.6046524E-010  0.9118800E+02  0.7816164E-02  0.1184000E+00
        -11   -1    0    0    0    0  0.00000000000E+00  0.00000000000E+00  0.45593999997E+02  0.45594000000E+02  0.51100000000E-03 0. -1.
         11   -1    0    0    0    0 -0.00000000000E+00 -0.00000000000E+00 -0.45593999997E+02  0.45594000000E+02  0.51100000000E-03 0.  1.
         23    2    1    2    0    0  0.35527136788E-14 -0.17763568394E-14  0.00000000000E+00  0.91188000000E+02  0.91188000000E+02 0.  0.
    9900012    2    3    3    0    0 -0.15240211526E+02 -0.10536177683E+02 -0.39247260338E+02  0.47787279596E+02  0.20000038991E+02 0.  0.
         12    1    3    3    0    0  0.15240211526E+02  0.10536177683E+02  0.39247260338E+02  0.43400720404E+02  0.00000000000E+00 0. -1.
         11    1    4    4    0    0 -0.21061945858E+01  0.74646764744E+00 -0.20574472851E+01  0.30374922508E+01  0.51100000000E-03 0. -1.
        -11    1    4    4    0    0 -0.17373982794E+02 -0.90028760857E+01 -0.25774840489E+02  0.32361233884E+02  0.51100000000E-03 0.  1.
         12    1    4    4    0    0  0.42399658539E+01 -0.22797692443E+01 -0.11414972564E+02  0.12388553462E+02  0.00000000000E+00 0. -1.
</event>
<event>
 8    1  0.6046524E-010  0.9118800E+02  0.7816164E-02  0.1184000E+00
        -11   -1    0    0    0    0  0.00000000000E+00  0.00000000000E+00  0.45593999997E+02  0.45594000000E+02  0.51100000000E-03 0. -1.
         11   -1    0    0    0    0 -0.00000000000E+00 -0.00000000000E+00 -0.45593999997E+02  0.45594000000E+02  0.51100000000E-03 0.  1.
         23    2    1    2    0    0 -0.35527136788E-14  0.00000000000E+00  0.00000000000E+00  0.91188000000E+02  0.91188000000E+02 0.  0.
    9900012    2    3    3    0    0 -0.31629235060E+02 -0.22652163230E+02  0.19237838995E+02  0.47787268916E+02  0.19999990295E+02 0.  0.
        -12    1    3    3    0    0  0.31629235060E+02  0.22652163230E+02 -0.19237838995E+02  0.43400731084E+02  0.00000000000E+00 0.  1.
         11    1    4    4    0    0 -0.53128591894E+01 -0.33496529252E+01  0.10074483388E+02  0.11871893837E+02  0.51100000000E-03 0. -1.
        -11    1    4    4    0    0 -0.10733069933E+02 -0.19227844633E+01  0.18568614448E+00  0.10905520156E+02  0.51100000000E-03 0.  1.
        -12    1    4    4    0    0 -0.15583305937E+02 -0.17379725841E+02  0.89776694626E+01  0.25009854922E+02  0.00000000000E+00 0.  1.
</event>
<event>
 8    1  0.6046524E-010  0.9118800E+02  0.7816164E-02  0.1184000E+00
        -11   -1    0    0    0    0  0.00000000000E+00  0.00000000000E+00  0.45593999997E+02  0.45594000000E+02  0.51100000000E-03 0. -1.
         11   -1    0    0    0    0 -0.00000000000E+00 -0.00000000000E+00 -0.45593999997E+02  0.45594000000E+02  0.51100000000E-03 0.  1.
         23    2    1    2    0    0 -0.71054273576E-14  0.00000000000E+00  0.00000000000E+00  0.91188000000E+02  0.91188000000E+02 0.  0.
    9900012    2    3    3    0    0 -0.39026967712E+02  0.17836522905E+02  0.65098091447E+01  0.47787269899E+02  0.19999994779E+02 0.  0.
        -12    1    3    3    0    0  0.39026967712E+02 -0.17836522905E+02 -0.65098091447E+01  0.43400730101E+02  0.00000000000E+00 0.  1.
         11    1    4    4    0    0 -0.26081885053E+02  0.92335573808E+01  0.55220908444E+01  0.28213769641E+02  0.51100000000E-03 0. -1.
        -11    1    4    4    0    0 -0.17904271889E+01  0.92404243708E+00  0.50483616918E+01  0.54355717250E+01  0.51100000000E-03 0.  1.
         12    1    4    4    0    0 -0.11154655471E+02  0.76789230876E+01 -0.40606433915E+01  0.14137928533E+02  0.00000000000E+00 0. -1.
</event>
<event>
 8    1  0.6046524E-010  0.9118800E+02  0.7816164E-02  0.1184000E+00
        -11   -1    0    0    0    0  0.00000000000E+00  0.00000000000E+00  0.45593999997E+02  0.45594000000E+02  0.51100000000E-03 0.  1.
         11   -1    0    0    0    0 -0.00000000000E+00 -0.00000000000E+00 -0.45593999997E+02  0.45594000000E+02  0.51100000000E-03 0. -1.
         23    2    1    2    0    0  0.00000000000E+00  0.35527136788E-14  0.00000000000E+00  0.91188000000E+02  0.91188000000E+02 0.  0.
    9900012    2    3    3    0    0  0.29949009424E+02  0.25088949726E+02 -0.18900386780E+02  0.47787272077E+02  0.20000004706E+02 0.  0.
        -12    1    3    3    0    0 -0.29949009424E+02 -0.25088949726E+02  0.18900386780E+02  0.43400727923E+02  0.00000000000E+00 0.  1.
         11    1    4    4    0    0  0.12605569094E+02  0.54831099170E+01 -0.51294609062E+01  0.14672294844E+02  0.51100000000E-03 0.  1.
        -11    1    4    4    0    0  0.57262112854E+01  0.14173113510E+02 -0.13331181045E+02  0.20282678092E+02  0.51100000000E-03 0. -1.
         12    1    4    4    0    0  0.11617229045E+02  0.54327262986E+01 -0.43974482888E+00  0.12832299141E+02  0.00000000000E+00 0. -1.
</event>
<event>
 8    1  0.6046524E-010  0.9118800E+02  0.7816164E-02  0.1184000E+00
        -11   -1    0    0    0    0  0.00000000000E+00  0.00000000000E+00  0.45593999997E+02  0.45594000000E+02  0.51100000000E-03 0. -1.
         11   -1    0    0    0    0 -0.00000000000E+00 -0.00000000000E+00 -0.45593999997E+02  0.45594000000E+02  0.51100000000E-03 0.  1.
         23    2    1    2    0    0  0.71054273576E-14  0.17763568394E-14  0.00000000000E+00  0.91188000000E+02  0.91188000000E+02 0.  0.
    9900012    2    3    3    0    0 -0.37787055304E+02 -0.95083006165E+01  0.19114236594E+02  0.47787269940E+02  0.19999994967E+02 0.  0.
        -12    1    3    3    0    0  0.37787055304E+02  0.95083006165E+01 -0.19114236594E+02  0.43400730060E+02  0.00000000000E+00 0.  1.
         11    1    4    4    0    0 -0.19160650277E+02 -0.55369389131E+01  0.15041309627E+02  0.24980576597E+02  0.51100000000E-03 0. -1.
        -11    1    4    4    0    0 -0.10231997037E+02  0.37822055744E+01  0.30863142884E+01  0.11336850467E+02  0.51100000000E-03 0.  1.
        -12    1    4    4    0    0 -0.83944079896E+01 -0.77535672778E+01  0.98661267880E+00  0.11469842876E+02  0.00000000000E+00 0.  1.
</event>
<event>
 8    1  0.6046524E-010  0.9118800E+02  0.7816164E-02  0.1184000E+00
        -11   -1    0    0    0    0  0.00000000000E+00  0.00000000000E+00  0.45593999997E+02  0.45594000000E+02  0.51100000000E-03 0. -1.
         11   -1    0    0    0    0 -0.00000000000E+00 -0.00000000000E+00 -0.45593999997E+02  0.45594000000E+02  0.51100000000E-03 0.  1.
         23    2    1    2    0    0  0.00000000000E+00 -0.88817841970E-15 -0.35527136788E-14  0.91188000000E+02  0.91188000000E+02 0.  0.
    9900012    2    3    3    0    0 -0.34210979272E+02 -0.59521398234E+01  0.26034673379E+02  0.47787270868E+02  0.19999999193E+02 0.  0.
        -12    1    3    3    0    0  0.34210979272E+02  0.59521398234E+01 -0.26034673379E+02  0.43400729132E+02  0.00000000000E+00 0.  1.
         11    1    4    4    0    0 -0.18517361699E+02  0.22580831200E+01  0.17709214066E+02  0.25721739575E+02  0.51100000000E-03 0. -1.
        -11    1    4    4    0    0  0.13711560523E+01 -0.93484594737E+00  0.16767015834E+01  0.23590960824E+01  0.51100000000E-03 0.  1.
         12    1    4    4    0    0 -0.17064773626E+02 -0.72753769960E+01  0.66487577296E+01  0.19706435210E+02  0.00000000000E+00 0. -1.
</event>
<event>
 8    1  0.6046524E-010  0.9118800E+02  0.7816164E-02  0.1184000E+00
        -11   -1    0    0    0    0  0.00000000000E+00  0.00000000000E+00  0.45593999997E+02  0.45594000000E+02  0.51100000000E-03 0.  1.
         11   -1    0    0    0    0 -0.00000000000E+00 -0.00000000000E+00 -0.45593999997E+02  0.45594000000E+02  0.51100000000E-03 0. -1.
         23    2    1    2    0    0  0.00000000000E+00 -0.71054273576E-14  0.00000000000E+00  0.91188000000E+02  0.91188000000E+02 0.  0.
    9900012    2    3    3    0    0 -0.18961911535E+02  0.38773278690E+02 -0.45499805141E+01  0.47787267839E+02  0.19999985386E+02 0.  0.
         12    1    3    3    0    0  0.18961911535E+02 -0.38773278690E+02  0.45499805141E+01  0.43400732161E+02  0.00000000000E+00 0. -1.
         11    1    4    4    0    0 -0.49832364986E+01  0.21127378403E+02  0.41365596207E+01  0.22097734951E+02  0.51100000000E-03 0.  1.
        -11    1    4    4    0    0 -0.13860871162E+02  0.16475032018E+02 -0.53977318858E+01  0.22196529889E+02  0.51100000000E-03 0. -1.
        -12    1    4    4    0    0 -0.11780387435E+00  0.11708682692E+01 -0.32888082490E+01  0.34930029996E+01  0.00000000000E+00 0.  1.
</event>
<event>
 8    1  0.6046524E-010  0.9118800E+02  0.7816164E-02  0.1184000E+00
        -11   -1    0    0    0    0  0.00000000000E+00  0.00000000000E+00  0.45593999997E+02  0.45594000000E+02  0.51100000000E-03 0. -1.
         11   -1    0    0    0    0 -0.00000000000E+00 -0.00000000000E+00 -0.45593999997E+02  0.45594000000E+02  0.51100000000E-03 0.  1.
         23    2    1    2    0    0  0.35527136788E-14  0.00000000000E+00  0.00000000000E+00  0.91188000000E+02  0.91188000000E+02 0.  0.
    9900012    2    3    3    0    0 -0.18382595703E+02 -0.19156633667E+02  0.34332591967E+02  0.47787270635E+02  0.19999998133E+02 0.  0.
        -12    1    3    3    0    0  0.18382595703E+02  0.19156633667E+02 -0.34332591967E+02  0.43400729365E+02  0.00000000000E+00 0.  1.
         11    1    4    4    0    0 -0.16628536040E+02 -0.61581470208E+01  0.21198944593E+02  0.27637406493E+02  0.51100000000E-03 0. -1.
        -11    1    4    4    0    0 -0.57197438601E+00 -0.55162222784E+01  0.10937049547E+02  0.12262745042E+02  0.51100000000E-03 0.  1.
         12    1    4    4    0    0 -0.11820852764E+01 -0.74822643675E+01  0.21965978278E+01  0.78871190990E+01  0.00000000000E+00 0. -1.
</event>
<event>
 8    1  0.6046524E-010  0.9118800E+02  0.7816164E-02  0.1184000E+00
        -11   -1    0    0    0    0  0.00000000000E+00  0.00000000000E+00  0.45593999997E+02  0.45594000000E+02  0.51100000000E-03 0. -1.
         11   -1    0    0    0    0 -0.00000000000E+00 -0.00000000000E+00 -0.45593999997E+02  0.45594000000E+02  0.51100000000E-03 0.  1.
         23    2    1    2    0    0 -0.22204460493E-15 -0.35527136788E-14 -0.71054273576E-14  0.91188000000E+02  0.91188000000E+02 0.  0.
    9900012    2    3    3    0    0  0.19513139812E+01 -0.24316453016E+02 -0.35896035013E+02  0.47787276007E+02  0.20000022625E+02 0.  0.
         12    1    3    3    0    0 -0.19513139812E+01  0.24316453016E+02  0.35896035013E+02  0.43400723993E+02  0.00000000000E+00 0. -1.
         11    1    4    4    0    0  0.35889624646E+01 -0.13532508618E+02 -0.12852898375E+02  0.19005431802E+02  0.51100000000E-03 0. -1.
        -11    1    4    4    0    0  0.15753086504E+01 -0.70637999037E+01 -0.22732192277E+02  0.23856475691E+02  0.51100000000E-03 0.  1.
        -12    1    4    4    0    0 -0.32129571338E+01 -0.37201444933E+01 -0.31094436014E+00  0.49253685131E+01  0.00000000000E+00 0.  1.
</event>
<event>
 8    1  0.6046524E-010  0.9118800E+02  0.7816164E-02  0.1184000E+00
        -11   -1    0    0    0    0  0.00000000000E+00  0.00000000000E+00  0.45593999997E+02  0.45594000000E+02  0.51100000000E-03 0. -1.
         11   -1    0    0    0    0 -0.00000000000E+00 -0.00000000000E+00 -0.45593999997E+02  0.45594000000E+02  0.51100000000E-03 0.  1.
         23    2    1    2    0    0  0.00000000000E+00  0.35527136788E-14  0.00000000000E+00  0.91188000000E+02  0.91188000000E+02 0.  0.
    9900012    2    3    3    0    0 -0.17624998658E+02 -0.18882803966E+02  0.34877245816E+02  0.47787272598E+02  0.20000007085E+02 0.  0.
        -12    1    3    3    0    0  0.17624998658E+02  0.18882803966E+02 -0.34877245816E+02  0.43400727402E+02  0.00000000000E+00 0.  1.
         11    1    4    4    0    0 -0.29639877241E+01 -0.51820893899E+01  0.41034353425E+00  0.59839498453E+01  0.51100000000E-03 0. -1.
        -11    1    4    4    0    0 -0.81518541825E+01  0.29028085227E+00  0.13442142433E+02  0.15723491440E+02  0.51100000000E-03 0.  1.
         12    1    4    4    0    0 -0.65091567511E+01 -0.13990995428E+02  0.21024759848E+02  0.26079831314E+02  0.00000000000E+00 0. -1.
</event>
<event>
 8    1  0.6046524E-010  0.9118800E+02  0.7816164E-02  0.1184000E+00
        -11   -1    0    0    0    0  0.00000000000E+00  0.00000000000E+00  0.45593999997E+02  0.45594000000E+02  0.51100000000E-03 0. -1.
         11   -1    0    0    0    0 -0.00000000000E+00 -0.00000000000E+00 -0.45593999997E+02  0.45594000000E+02  0.51100000000E-03 0.  1.
         23    2    1    2    0    0 -0.88817841970E-15  0.71054273576E-14  0.00000000000E+00  0.91188000000E+02  0.91188000000E+02 0.  0.
    9900012    2    3    3    0    0 -0.47963869992E+01  0.32290651626E+02  0.28599505363E+02  0.47787271692E+02  0.20000002951E+02 0.  0.
        -12    1    3    3    0    0  0.47963869992E+01 -0.32290651626E+02 -0.28599505363E+02  0.43400728308E+02  0.00000000000E+00 0.  1.
         11    1    4    4    0    0 -0.58414895227E+01  0.98113270806E+01  0.44203831977E+01  0.12244383480E+02  0.51100000000E-03 0. -1.
        -11    1    4    4    0    0  0.18993746673E+01  0.23907173741E+02  0.20676301681E+02  0.31664965370E+02  0.51100000000E-03 0.  1.
         12    1    4    4    0    0 -0.85427214375E+00 -0.14278491955E+01  0.35028204847E+01  0.38779228421E+01  0.00000000000E+00 0. -1.
</event>
<event>
 8    1  0.6046524E-010  0.9118800E+02  0.7816164E-02  0.1184000E+00
        -11   -1    0    0    0    0  0.00000000000E+00  0.00000000000E+00  0.45593999997E+02  0.45594000000E+02  0.51100000000E-03 0. -1.
         11   -1    0    0    0    0 -0.00000000000E+00 -0.00000000000E+00 -0.45593999997E+02  0.45594000000E+02  0.51100000000E-03 0.  1.
         23    2    1    2    0    0  0.00000000000E+00 -0.35527136788E-14 -0.35527136788E-14  0.91188000000E+02  0.91188000000E+02 0.  0.
    9900012    2    3    3    0    0 -0.12843156553E+02  0.30062164334E+02  0.28547197152E+02  0.47787275813E+02  0.20000021743E+02 0.  0.
        -12    1    3    3    0    0  0.12843156553E+02 -0.30062164334E+02 -0.28547197152E+02  0.43400724187E+02  0.00000000000E+00 0.  1.
         11    1    4    4    0    0 -0.62325701194E+01  0.70828903986E+01  0.81682655092E+01  0.12479295989E+02  0.51100000000E-03 0. -1.
        -11    1    4    4    0    0  0.41712428401E+01  0.88043540935E+01  0.12461674723E+02  0.15818004140E+02  0.51100000000E-03 0.  1.
        -12    1    4    4    0    0 -0.10781829274E+02  0.14174919842E+02  0.79172569207E+01  0.19489975684E+02  0.00000000000E+00 0.  1.
</event>
<event>
 8    1  0.6046524E-010  0.9118800E+02  0.7816164E-02  0.1184000E+00
        -11   -1    0    0    0    0  0.00000000000E+00  0.00000000000E+00  0.45593999997E+02  0.45594000000E+02  0.51100000000E-03 0. -1.
         11   -1    0    0    0    0 -0.00000000000E+00 -0.00000000000E+00 -0.45593999997E+02  0.45594000000E+02  0.51100000000E-03 0.  1.
         23    2    1    2    0    0  0.17763568394E-14  0.44408920985E-15  0.71054273576E-14  0.91188000000E+02  0.91188000000E+02 0.  0.
    9900012    2    3    3    0    0 -0.14163441908E+02  0.18006738036E+01 -0.40985093779E+02  0.47787269304E+02  0.19999992067E+02 0.  0.
         12    1    3    3    0    0  0.14163441908E+02 -0.18006738036E+01  0.40985093779E+02  0.43400730696E+02  0.00000000000E+00 0. -1.
         11    1    4    4    0    0 -0.73541436841E+01  0.93853137057E+01 -0.24892884869E+02  0.27601145991E+02  0.51100000000E-03 0. -1.
        -11    1    4    4    0    0 -0.61843248556E+01 -0.72880155943E+01 -0.16715236657E+02  0.19255133913E+02  0.51100000000E-03 0.  1.
         12    1    4    4    0    0 -0.62497336802E+00 -0.29662430788E+00  0.62302774684E+00  0.93098940063E+00  0.00000000000E+00 0. -1.
</event>
<event>
 8    1  0.6046524E-010  0.9118800E+02  0.7816164E-02  0.1184000E+00
        -11   -1    0    0    0    0  0.00000000000E+00  0.00000000000E+00  0.45593999997E+02  0.45594000000E+02  0.51100000000E-03 0. -1.
         11   -1    0    0    0    0 -0.00000000000E+00 -0.00000000000E+00 -0.45593999997E+02  0.45594000000E+02  0.51100000000E-03 0.  1.
         23    2    1    2    0    0 -0.35527136788E-14  0.00000000000E+00 -0.35527136788E-14  0.91188000000E+02  0.91188000000E+02 0.  0.
    9900012    2    3    3    0    0 -0.28054112998E+02 -0.21899054704E+02 -0.24839908435E+02  0.47787275304E+02  0.20000019423E+02 0.  0.
         12    1    3    3    0    0  0.28054112998E+02  0.21899054704E+02  0.24839908435E+02  0.43400724696E+02  0.00000000000E+00 0. -1.
         11    1    4    4    0    0 -0.22170360203E+01 -0.48869942608E+01  0.42320397742E+00  0.53830347842E+01  0.51100000000E-03 0. -1.
        -11    1    4    4    0    0 -0.10096213470E+02  0.65184266621E+00 -0.10140111892E+02  0.14324115845E+02  0.51100000000E-03 0.  1.
        -12    1    4    4    0    0 -0.15740863507E+02 -0.17663903110E+02 -0.15123000521E+02  0.28080124675E+02  0.00000000000E+00 0.  1.
</event>
<event>
 8    1  0.6046524E-010  0.9118800E+02  0.7816164E-02  0.1184000E+00
        -11   -1    0    0    0    0  0.00000000000E+00  0.00000000000E+00  0.45593999997E+02  0.45594000000E+02  0.51100000000E-03 0. -1.
         11   -1    0    0    0    0 -0.00000000000E+00 -0.00000000000E+00 -0.45593999997E+02  0.45594000000E+02  0.51100000000E-03 0.  1.
         23    2    1    2    0    0  0.17763568394E-14  0.00000000000E+00  0.00000000000E+00  0.91188000000E+02  0.91188000000E+02 0.  0.
    9900012    2    3    3    0    0 -0.13264374166E+02 -0.11314640828E+02  0.39744910255E+02  0.47787278689E+02  0.20000034856E+02 0.  0.
        -12    1    3    3    0    0  0.13264374166E+02  0.11314640828E+02 -0.39744910255E+02  0.43400721311E+02  0.00000000000E+00 0.  1.
         11    1    4    4    0    0  0.21053468131E+01 -0.86930827082E+01  0.10353617024E+02  0.13682088946E+02  0.51100000000E-03 0. -1.
        -11    1    4    4    0    0 -0.42460406309E+01 -0.15639586388E+01  0.16187019994E+02  0.16807571038E+02  0.51100000000E-03 0.  1.
        -12    1    4    4    0    0 -0.11123680348E+02 -0.10575994810E+01  0.13204273237E+02  0.17297618705E+02  0.00000000000E+00 0.  1.
</event>
<event>
 8    1  0.6046524E-010  0.9118800E+02  0.7816164E-02  0.1184000E+00
        -11   -1    0    0    0    0  0.00000000000E+00  0.00000000000E+00  0.45593999997E+02  0.45594000000E+02  0.51100000000E-03 0. -1.
         11   -1    0    0    0    0 -0.00000000000E+00 -0.00000000000E+00 -0.45593999997E+02  0.45594000000E+02  0.51100000000E-03 0.  1.
         23    2    1    2    0    0  0.00000000000E+00  0.00000000000E+00  0.71054273576E-14  0.91188000000E+02  0.91188000000E+02 0.  0.
    9900012    2    3    3    0    0 -0.88779954814E+01  0.69752682632E+01  0.41906448523E+02  0.47787267300E+02  0.19999982926E+02 0.  0.
        -12    1    3    3    0    0  0.88779954814E+01 -0.69752682632E+01 -0.41906448523E+02  0.43400732700E+02  0.00000000000E+00 0.  1.
         11    1    4    4    0    0 -0.11304944206E+02  0.78620793674E+01  0.40098419998E+02  0.42396902506E+02  0.51100000000E-03 0. -1.
        -11    1    4    4    0    0 -0.12035002100E+01 -0.30763675062E+00  0.10725444552E+01  0.16411596495E+01  0.51100000000E-03 0.  1.
        -12    1    4    4    0    0  0.36304489345E+01 -0.57917435357E+00  0.73548406968E+00  0.37492051443E+01  0.00000000000E+00 0.  1.
</event>
<event>
 8    1  0.6046524E-010  0.9118800E+02  0.7816164E-02  0.1184000E+00
        -11   -1    0    0    0    0  0.00000000000E+00  0.00000000000E+00  0.45593999997E+02  0.45594000000E+02  0.51100000000E-03 0. -1.
         11   -1    0    0    0    0 -0.00000000000E+00 -0.00000000000E+00 -0.45593999997E+02  0.45594000000E+02  0.51100000000E-03 0.  1.
         23    2    1    2    0    0  0.00000000000E+00  0.17763568394E-14  0.00000000000E+00  0.91188000000E+02  0.91188000000E+02 0.  0.
    9900012    2    3    3    0    0  0.19459547812E+02  0.15638334927E+02  0.35501997161E+02  0.47787270481E+02  0.19999997433E+02 0.  0.
        -12    1    3    3    0    0 -0.19459547812E+02 -0.15638334927E+02 -0.35501997161E+02  0.43400729519E+02  0.00000000000E+00 0.  1.
         11    1    4    4    0    0 -0.17277210015E+01 -0.28402339421E+01  0.36919024803E+01  0.49681075764E+01  0.51100000000E-03 0.  1.
        -11    1    4    4    0    0  0.64353231312E+01  0.87590502580E+01  0.10182815922E+02  0.14893759955E+02  0.51100000000E-03 0. -1.
         12    1    4    4    0    0  0.14751945682E+02  0.97195186110E+01  0.21627278758E+02  0.27925402950E+02  0.00000000000E+00 0. -1.
</event>
<event>
 8    1  0.6046524E-010  0.9118800E+02  0.7816164E-02  0.1184000E+00
        -11   -1    0    0    0    0  0.00000000000E+00  0.00000000000E+00  0.45593999997E+02  0.45594000000E+02  0.51100000000E-03 0. -1.
         11   -1    0    0    0    0 -0.00000000000E+00 -0.00000000000E+00 -0.45593999997E+02  0.45594000000E+02  0.51100000000E-03 0.  1.
         23    2    1    2    0    0  0.00000000000E+00  0.17763568394E-14 -0.71054273576E-14  0.91188000000E+02  0.91188000000E+02 0.  0.
    9900012    2    3    3    0    0 -0.17659648063E+02 -0.80788591805E+01  0.38813556066E+02  0.47787271091E+02  0.20000000211E+02 0.  0.
        -12    1    3    3    0    0  0.17659648063E+02  0.80788591805E+01 -0.38813556066E+02  0.43400728909E+02  0.00000000000E+00 0.  1.
         11    1    4    4    0    0 -0.94292783894E+01 -0.15769589039E+01  0.24979325769E+02  0.26746304539E+02  0.51100000000E-03 0. -1.
        -11    1    4    4    0    0 -0.10596974122E+02 -0.22573805800E+01  0.10875191067E+02  0.15351267330E+02  0.51100000000E-03 0.  1.
        -12    1    4    4    0    0  0.23666044487E+01 -0.42445196966E+01  0.29590392295E+01  0.56896992217E+01  0.00000000000E+00 0.  1.
</event>
<event>
 8    1  0.6046524E-010  0.9118800E+02  0.7816164E-02  0.1184000E+00
        -11   -1    0    0    0    0  0.00000000000E+00  0.00000000000E+00  0.45593999997E+02  0.45594000000E+02  0.51100000000E-03 0. -1.
         11   -1    0    0    0    0 -0.00000000000E+00 -0.00000000000E+00 -0.45593999997E+02  0.45594000000E+02  0.51100000000E-03 0.  1.
         23    2    1    2    0    0  0.00000000000E+00 -0.17763568394E-14  0.00000000000E+00  0.91188000000E+02  0.91188000000E+02 0.  0.
    9900012    2    3    3    0    0  0.20799733851E+02 -0.12877527588E+02 -0.35849178879E+02  0.47787271074E+02  0.20000000134E+02 0.  0.
         12    1    3    3    0    0 -0.20799733851E+02  0.12877527588E+02  0.35849178879E+02  0.43400728926E+02  0.00000000000E+00 0. -1.
         11    1    4    4    0    0  0.64105287626E+01 -0.49894175651E+01 -0.24631174836E+01  0.84885873179E+01  0.51100000000E-03 0. -1.
        -11    1    4    4    0    0  0.13463428415E+02 -0.10585968279E+02 -0.23968815174E+02  0.29458966890E+02  0.51100000000E-03 0.  1.
         12    1    4    4    0    0  0.92577667303E+00  0.26978582564E+01 -0.94172462207E+01  0.98397168659E+01  0.00000000000E+00 0. -1.
</event>
<event>
 8    1  0.6046524E-010  0.9118800E+02  0.7816164E-02  0.1184000E+00
        -11   -1    0    0    0    0  0.00000000000E+00  0.00000000000E+00  0.45593999997E+02  0.45594000000E+02  0.51100000000E-03 0. -1.
         11   -1    0    0    0    0 -0.00000000000E+00 -0.00000000000E+00 -0.45593999997E+02  0.45594000000E+02  0.51100000000E-03 0.  1.
         23    2    1    2    0    0 -0.35527136788E-14  0.00000000000E+00  0.71054273576E-14  0.91188000000E+02  0.91188000000E+02 0.  0.
    9900012    2    3    3    0    0 -0.20122438441E+02  0.23533213981E+02  0.30412109068E+02  0.47787296468E+02  0.20000115918E+02 0.  0.
        -12    1    3    3    0    0  0.20122438441E+02 -0.23533213981E+02 -0.30412109068E+02  0.43400703532E+02  0.00000000000E+00 0.  1.
         11    1    4    4    0    0 -0.17445513524E+02  0.10138767188E+02  0.14461341163E+02  0.24824804747E+02  0.51100000000E-03 0. -1.
        -11    1    4    4    0    0 -0.16421579837E+00  0.22487399938E+01  0.96601207174E+01  0.99197646607E+01  0.51100000000E-03 0.  1.
        -12    1    4    4    0    0 -0.25127091191E+01  0.11145706799E+02  0.62906471870E+01  0.13042727061E+02  0.00000000000E+00 0.  1.
</event>
<event>
 8    1  0.6046524E-010  0.9118800E+02  0.7816164E-02  0.1184000E+00
        -11   -1    0    0    0    0  0.00000000000E+00  0.00000000000E+00  0.45593999997E+02  0.45594000000E+02  0.51100000000E-03 0. -1.
         11   -1    0    0    0    0 -0.00000000000E+00 -0.00000000000E+00 -0.45593999997E+02  0.45594000000E+02  0.51100000000E-03 0.  1.
         23    2    1    2    0    0  0.00000000000E+00  0.44408920985E-15  0.00000000000E+00  0.91188000000E+02  0.91188000000E+02 0.  0.
    9900012    2    3    3    0    0 -0.17810568473E+02  0.25148299105E+01 -0.39497879964E+02  0.47787271430E+02  0.20000001757E+02 0.  0.
         12    1    3    3    0    0  0.17810568473E+02 -0.25148299105E+01  0.39497879964E+02  0.43400728570E+02  0.00000000000E+00 0. -1.
         11    1    4    4    0    0 -0.32249190808E+01 -0.42957774754E+01 -0.44257882838E+01  0.69599863067E+01  0.51100000000E-03 0. -1.
        -11    1    4    4    0    0 -0.13050162513E+02  0.89652119161E+00 -0.30528458117E+02  0.33212907839E+02  0.51100000000E-03 0.  1.
         12    1    4    4    0    0 -0.15354868795E+01  0.59140861943E+01 -0.45436335627E+01  0.76143772840E+01  0.00000000000E+00 0. -1.
</event>
<event>
 8    1  0.6046524E-010  0.9118800E+02  0.7816164E-02  0.1184000E+00
        -11   -1    0    0    0    0  0.00000000000E+00  0.00000000000E+00  0.45593999997E+02  0.45594000000E+02  0.51100000000E-03 0. -1.
         11   -1    0    0    0    0 -0.00000000000E+00 -0.00000000000E+00 -0.45593999997E+02  0.45594000000E+02  0.51100000000E-03 0.  1.
         23    2    1    2    0    0  0.00000000000E+00  0.00000000000E+00 -0.71054273576E-14  0.91188000000E+02  0.91188000000E+02 0.  0.
    9900012    2    3    3    0    0 -0.87625815712E+01 -0.77980394442E+01  0.41785537613E+02  0.47787269493E+02  0.19999992925E+02 0.  0.
        -12    1    3    3    0    0  0.87625815712E+01  0.77980394442E+01 -0.41785537613E+02  0.43400730507E+02  0.00000000000E+00 0.  1.
         11    1    4    4    0    0 -0.15588060051E+00 -0.43029774676E+01  0.22533690919E+02  0.22941384887E+02  0.51100000000E-03 0. -1.
        -11    1    4    4    0    0 -0.11100775002E+02 -0.55880715211E+01  0.15776606994E+02  0.20083701787E+02  0.51100000000E-03 0.  1.
         12    1    4    4    0    0  0.24940740309E+01  0.20930095445E+01  0.34752397005E+01  0.47621828190E+01  0.00000000000E+00 0. -1.
</event>
<event>
 8    1  0.6046524E-010  0.9118800E+02  0.7816164E-02  0.1184000E+00
        -11   -1    0    0    0    0  0.00000000000E+00  0.00000000000E+00  0.45593999997E+02  0.45594000000E+02  0.51100000000E-03 0. -1.
         11   -1    0    0    0    0 -0.00000000000E+00 -0.00000000000E+00 -0.45593999997E+02  0.45594000000E+02  0.51100000000E-03 0.  1.
         23    2    1    2    0    0  0.71054273576E-14 -0.88817841970E-15  0.00000000000E+00  0.91188000000E+02  0.91188000000E+02 0.  0.
    9900012    2    3    3    0    0 -0.32968723832E+02  0.34498022312E+01  0.28014017972E+02  0.47787273169E+02  0.20000009687E+02 0.  0.
        -12    1    3    3    0    0  0.32968723832E+02 -0.34498022312E+01 -0.28014017972E+02  0.43400726831E+02  0.00000000000E+00 0.  1.
         11    1    4    4    0    0 -0.24694194901E+00 -0.10162825329E+01  0.48673804553E+01  0.49784739902E+01  0.51100000000E-03 0. -1.
        -11    1    4    4    0    0 -0.51752524972E+01 -0.58264009680E+00  0.11219654442E+02  0.12369452452E+02  0.51100000000E-03 0.  1.
         12    1    4    4    0    0 -0.27546529386E+02  0.50487248609E+01  0.11926983074E+02  0.30439346727E+02  0.00000000000E+00 0. -1.
</event>
<event>
 8    1  0.6046524E-010  0.9118800E+02  0.7816164E-02  0.1184000E+00
        -11   -1    0    0    0    0  0.00000000000E+00  0.00000000000E+00  0.45593999997E+02  0.45594000000E+02  0.51100000000E-03 0. -1.
         11   -1    0    0    0    0 -0.00000000000E+00 -0.00000000000E+00 -0.45593999997E+02  0.45594000000E+02  0.51100000000E-03 0.  1.
         23    2    1    2    0    0 -0.35527136788E-14  0.00000000000E+00  0.00000000000E+00  0.91188000000E+02  0.91188000000E+02 0.  0.
    9900012    2    3    3    0    0 -0.29556594685E+02  0.56186516294E+01  0.31280369441E+02  0.47787273648E+02  0.20000011870E+02 0.  0.
        -12    1    3    3    0    0  0.29556594685E+02 -0.56186516294E+01 -0.31280369441E+02  0.43400726352E+02  0.00000000000E+00 0.  1.
         11    1    4    4    0    0 -0.15732033870E+02  0.46093285453E+01  0.11280750755E+02  0.19899701937E+02  0.51100000000E-03 0. -1.
        -11    1    4    4    0    0 -0.70654863090E+01 -0.14004007305E+01  0.19391525220E+02  0.20686069458E+02  0.51100000000E-03 0.  1.
         12    1    4    4    0    0 -0.67590745056E+01  0.24097238146E+01  0.60809346647E+00  0.72015022529E+01  0.00000000000E+00 0. -1.
</event>
<event>
 8    1  0.6046524E-010  0.9118800E+02  0.7816164E-02  0.1184000E+00
        -11   -1    0    0    0    0  0.00000000000E+00  0.00000000000E+00  0.45593999997E+02  0.45594000000E+02  0.51100000000E-03 0. -1.
         11   -1    0    0    0    0 -0.00000000000E+00 -0.00000000000E+00 -0.45593999997E+02  0.45594000000E+02  0.51100000000E-03 0.  1.
         23    2    1    2    0    0  0.00000000000E+00  0.00000000000E+00  0.00000000000E+00  0.91188000000E+02  0.91188000000E+02 0.  0.
    9900012    2    3    3    0    0  0.18589264629E+02 -0.99737761541E+01 -0.37928705418E+02  0.47787266539E+02  0.19999979458E+02 0.  0.
         12    1    3    3    0    0 -0.18589264629E+02  0.99737761541E+01  0.37928705418E+02  0.43400733461E+02  0.00000000000E+00 0. -1.
         11    1    4    4    0    0  0.33316934187E+01 -0.50318148899E+00  0.14633800220E+01  0.36735342651E+01  0.51100000000E-03 0. -1.
        -11    1    4    4    0    0  0.10542273862E+02 -0.58324247812E+01 -0.16320508965E+02  0.20285850492E+02  0.51100000000E-03 0.  1.
        -12    1    4    4    0    0  0.47152973480E+01 -0.36381698840E+01 -0.23071576475E+02  0.23827881782E+02  0.00000000000E+00 0.  1.
</event>
<event>
 8    1  0.6046524E-010  0.9118800E+02  0.7816164E-02  0.1184000E+00
        -11   -1    0    0    0    0  0.00000000000E+00  0.00000000000E+00  0.45593999997E+02  0.45594000000E+02  0.51100000000E-03 0. -1.
         11   -1    0    0    0    0 -0.00000000000E+00 -0.00000000000E+00 -0.45593999997E+02  0.45594000000E+02  0.51100000000E-03 0.  1.
         23    2    1    2    0    0 -0.35527136788E-14  0.00000000000E+00  0.35527136788E-14  0.91188000000E+02  0.91188000000E+02 0.  0.
    9900012    2    3    3    0    0 -0.19686286755E+02  0.24486173107E+02  0.29941625303E+02  0.47787268607E+02  0.19999988888E+02 0.  0.
        -12    1    3    3    0    0  0.19686286755E+02 -0.24486173107E+02 -0.29941625303E+02  0.43400731393E+02  0.00000000000E+00 0.  1.
         11    1    4    4    0    0 -0.43460359152E+01  0.34381813282E+01  0.10414922067E+02  0.11797445526E+02  0.51100000000E-03 0. -1.
        -11    1    4    4    0    0 -0.85932870206E+01  0.49645825394E+01  0.15795055051E+00  0.99255533975E+01  0.51100000000E-03 0.  1.
         12    1    4    4    0    0 -0.67469638193E+01  0.16083409240E+02  0.19368752685E+02  0.26064269684E+02  0.00000000000E+00 0. -1.
</event>
<event>
 8    1  0.6046524E-010  0.9118800E+02  0.7816164E-02  0.1184000E+00
        -11   -1    0    0    0    0  0.00000000000E+00  0.00000000000E+00  0.45593999997E+02  0.45594000000E+02  0.51100000000E-03 0. -1.
         11   -1    0    0    0    0 -0.00000000000E+00 -0.00000000000E+00 -0.45593999997E+02  0.45594000000E+02  0.51100000000E-03 0.  1.
         23    2    1    2    0    0  0.00000000000E+00  0.00000000000E+00  0.00000000000E+00  0.91188000000E+02  0.91188000000E+02 0.  0.
    9900012    2    3    3    0    0 -0.18873240786E+02 -0.17952936174E+02  0.34714778435E+02  0.47787274466E+02  0.20000015602E+02 0.  0.
        -12    1    3    3    0    0  0.18873240786E+02  0.17952936174E+02 -0.34714778435E+02  0.43400725534E+02  0.00000000000E+00 0.  1.
         11    1    4    4    0    0 -0.52901961811E+01  0.19399452981E+00  0.14412977184E+02  0.15354403964E+02  0.51100000000E-03 0. -1.
        -11    1    4    4    0    0 -0.12975702219E+02 -0.92659092360E+01  0.10013478649E+02  0.18828055581E+02  0.51100000000E-03 0.  1.
         12    1    4    4    0    0 -0.60734238558E+00 -0.88810214674E+01  0.10288322602E+02  0.13604814921E+02  0.00000000000E+00 0. -1.
</event>
<event>
 8    1  0.6046524E-010  0.9118800E+02  0.7816164E-02  0.1184000E+00
        -11   -1    0    0    0    0  0.00000000000E+00  0.00000000000E+00  0.45593999997E+02  0.45594000000E+02  0.51100000000E-03 0. -1.
         11   -1    0    0    0    0 -0.00000000000E+00 -0.00000000000E+00 -0.45593999997E+02  0.45594000000E+02  0.51100000000E-03 0.  1.
         23    2    1    2    0    0 -0.88817841970E-15  0.00000000000E+00  0.00000000000E+00  0.91188000000E+02  0.91188000000E+02 0.  0.
    9900012    2    3    3    0    0 -0.76564323227E+01 -0.11225826012E+02  0.41218725718E+02  0.47787268723E+02  0.19999989414E+02 0.  0.
        -12    1    3    3    0    0  0.76564323227E+01  0.11225826012E+02 -0.41218725718E+02  0.43400731277E+02  0.00000000000E+00 0.  1.
         11    1    4    4    0    0  0.47558613700E+01  0.90818970831E+00  0.77308187681E+01  0.91218739853E+01  0.51100000000E-03 0. -1.
        -11    1    4    4    0    0 -0.37568984966E+01 -0.79460154091E+01  0.10164211331E+02  0.13437434258E+02  0.51100000000E-03 0.  1.
         12    1    4    4    0    0 -0.86553951960E+01 -0.41880003114E+01  0.23323695620E+02  0.25227960480E+02  0.00000000000E+00 0. -1.
</event>
<event>
 8    1  0.6046524E-010  0.9118800E+02  0.7816164E-02  0.1184000E+00
        -11   -1    0    0    0    0  0.00000000000E+00  0.00000000000E+00  0.45593999997E+02  0.45594000000E+02  0.51100000000E-03 0.  1.
         11   -1    0    0    0    0 -0.00000000000E+00 -0.00000000000E+00 -0.45593999997E+02  0.45594000000E+02  0.51100000000E-03 0. -1.
         23    2    1    2    0    0 -0.44408920985E-15 -0.71054273576E-14  0.35527136788E-14  0.91188000000E+02  0.91188000000E+02 0.  0.
    9900012    2    3    3    0    0  0.34900529806E+01  0.30208332940E+02 -0.30966104170E+02  0.47787268943E+02  0.19999990418E+02 0.  0.
         12    1    3    3    0    0 -0.34900529806E+01 -0.30208332940E+02  0.30966104170E+02  0.43400731057E+02  0.00000000000E+00 0. -1.
         11    1    4    4    0    0 -0.76013540361E+00  0.91750725424E+01 -0.10141058583E+02  0.13696745287E+02  0.51100000000E-03 0. -1.
        -11    1    4    4    0    0  0.37972347344E+01  0.19231023731E+02 -0.23644715831E+02  0.30713577654E+02  0.51100000000E-03 0.  1.
        -12    1    4    4    0    0  0.45295364985E+00  0.18022366672E+01  0.28196702442E+01  0.33769460018E+01  0.00000000000E+00 0.  1.
</event>
<event>
 8    1  0.6046524E-010  0.9118800E+02  0.7816164E-02  0.1184000E+00
        -11   -1    0    0    0    0  0.00000000000E+00  0.00000000000E+00  0.45593999997E+02  0.45594000000E+02  0.51100000000E-03 0. -1.
         11   -1    0    0    0    0 -0.00000000000E+00 -0.00000000000E+00 -0.45593999997E+02  0.45594000000E+02  0.51100000000E-03 0.  1.
         23    2    1    2    0    0  0.00000000000E+00  0.88817841970E-15  0.00000000000E+00  0.91188000000E+02  0.91188000000E+02 0.  0.
    9900012    2    3    3    0    0  0.13212064030E+02 -0.47525125721E+01 -0.41066752881E+02  0.47787271851E+02  0.20000003677E+02 0.  0.
         12    1    3    3    0    0 -0.13212064030E+02  0.47525125721E+01  0.41066752881E+02  0.43400728149E+02  0.00000000000E+00 0. -1.
         11    1    4    4    0    0  0.48336761161E+01  0.59035374609E+01 -0.55689751974E+01  0.94461454762E+01  0.51100000000E-03 0. -1.
        -11    1    4    4    0    0  0.87798276983E+00 -0.47489364330E+01 -0.97558468056E+01  0.10885761257E+02  0.51100000000E-03 0.  1.
        -12    1    4    4    0    0  0.75004051440E+01 -0.59071135999E+01 -0.25741930878E+02  0.27455365118E+02  0.00000000000E+00 0.  1.
</event>
<event>
 8    1  0.6046524E-010  0.9118800E+02  0.7816164E-02  0.1184000E+00
        -11   -1    0    0    0    0  0.00000000000E+00  0.00000000000E+00  0.45593999997E+02  0.45594000000E+02  0.51100000000E-03 0. -1.
         11   -1    0    0    0    0 -0.00000000000E+00 -0.00000000000E+00 -0.45593999997E+02  0.45594000000E+02  0.51100000000E-03 0.  1.
         23    2    1    2    0    0  0.00000000000E+00  0.38857805862E-15  0.71054273576E-14  0.91188000000E+02  0.91188000000E+02 0.  0.
    9900012    2    3    3    0    0  0.27711535885E+02 -0.38044032980E+00  0.33399839984E+02  0.47787271125E+02  0.20000000368E+02 0.  0.
        -12    1    3    3    0    0 -0.27711535885E+02  0.38044032980E+00 -0.33399839984E+02  0.43400728875E+02  0.00000000000E+00 0.  1.
         11    1    4    4    0    0  0.58434546176E+00 -0.41059754271E+01  0.37940863363E+01  0.56209950378E+01  0.51100000000E-03 0. -1.
        -11    1    4    4    0    0  0.45287170483E+01  0.10725908044E+01  0.13526159603E+02  0.14304430188E+02  0.51100000000E-03 0.  1.
        -12    1    4    4    0    0  0.22598473375E+02  0.26529442929E+01  0.16079594045E+02  0.27861845900E+02  0.00000000000E+00 0.  1.
</event>
<event>
 8    1  0.6046524E-010  0.9118800E+02  0.7816164E-02  0.1184000E+00
        -11   -1    0    0    0    0  0.00000000000E+00  0.00000000000E+00  0.45593999997E+02  0.45594000000E+02  0.51100000000E-03 0. -1.
         11   -1    0    0    0    0 -0.00000000000E+00 -0.00000000000E+00 -0.45593999997E+02  0.45594000000E+02  0.51100000000E-03 0.  1.
         23    2    1    2    0    0  0.88817841970E-15 -0.17763568394E-14 -0.71054273576E-14  0.91188000000E+02  0.91188000000E+02 0.  0.
    9900012    2    3    3    0    0 -0.62648804193E+01 -0.11772716996E+02 -0.41301062387E+02  0.47787270208E+02  0.19999996186E+02 0.  0.
         12    1    3    3    0    0  0.62648804193E+01  0.11772716996E+02  0.41301062387E+02  0.43400729792E+02  0.00000000000E+00 0. -1.
         11    1    4    4    0    0 -0.12403022478E+02 -0.91442797016E+01 -0.35688171464E+02  0.38872849144E+02  0.51100000000E-03 0. -1.
        -11    1    4    4    0    0  0.25215383342E+01 -0.16658539117E+01 -0.34711778822E+01  0.46024233809E+01  0.51100000000E-03 0.  1.
         12    1    4    4    0    0  0.36166037244E+01 -0.96258338311E+00 -0.21417130407E+01  0.43119976830E+01  0.00000000000E+00 0. -1.
</event>
<event>
 8    1  0.6046524E-010  0.9118800E+02  0.7816164E-02  0.1184000E+00
        -11   -1    0    0    0    0  0.00000000000E+00  0.00000000000E+00  0.45593999997E+02  0.45594000000E+02  0.51100000000E-03 0. -1.
         11   -1    0    0    0    0 -0.00000000000E+00 -0.00000000000E+00 -0.45593999997E+02  0.45594000000E+02  0.51100000000E-03 0.  1.
         23    2    1    2    0    0  0.00000000000E+00 -0.71054273576E-14  0.00000000000E+00  0.91188000000E+02  0.91188000000E+02 0.  0.
    9900012    2    3    3    0    0 -0.99478995457E+01 -0.31545494165E+02  0.28098805464E+02  0.47787288300E+02  0.20000078676E+02 0.  0.
        -12    1    3    3    0    0  0.99478995457E+01  0.31545494165E+02 -0.28098805464E+02  0.43400711700E+02  0.00000000000E+00 0.  1.
         11    1    4    4    0    0  0.52844688864E+00 -0.75616046448E+00 -0.72461602544E-01  0.92535707007E+00  0.51100000000E-03 0. -1.
        -11    1    4    4    0    0  0.54054910317E+01 -0.86805729930E+01  0.78461892090E+01  0.12889312090E+02  0.51100000000E-03 0.  1.
         12    1    4    4    0    0 -0.15881837466E+02 -0.22108760708E+02  0.20325077858E+02  0.33972619141E+02  0.00000000000E+00 0. -1.
</event>
<event>
 8    1  0.6046524E-010  0.9118800E+02  0.7816164E-02  0.1184000E+00
        -11   -1    0    0    0    0  0.00000000000E+00  0.00000000000E+00  0.45593999997E+02  0.45594000000E+02  0.51100000000E-03 0. -1.
         11   -1    0    0    0    0 -0.00000000000E+00 -0.00000000000E+00 -0.45593999997E+02  0.45594000000E+02  0.51100000000E-03 0.  1.
         23    2    1    2    0    0  0.00000000000E+00  0.00000000000E+00 -0.71054273576E-14  0.91188000000E+02  0.91188000000E+02 0.  0.
    9900012    2    3    3    0    0 -0.53989691945E+01 -0.71691486825E+01  0.42462661373E+02  0.47787272217E+02  0.20000005346E+02 0.  0.
        -12    1    3    3    0    0  0.53989691945E+01  0.71691486825E+01 -0.42462661373E+02  0.43400727783E+02  0.00000000000E+00 0.  1.
         11    1    4    4    0    0 -0.85050243973E+00  0.25763014921E+00  0.25429806985E+02  0.25445329851E+02  0.51100000000E-03 0. -1.
        -11    1    4    4    0    0  0.18723225549E+00  0.28482466819E+01  0.54392784099E+01  0.61427449044E+01  0.51100000000E-03 0.  1.
         12    1    4    4    0    0 -0.47356990102E+01 -0.10275025514E+02  0.11593575979E+02  0.16199197461E+02  0.00000000000E+00 0. -1.
</event>
<event>
 8    1  0.6046524E-010  0.9118800E+02  0.7816164E-02  0.1184000E+00
        -11   -1    0    0    0    0  0.00000000000E+00  0.00000000000E+00  0.45593999997E+02  0.45594000000E+02  0.51100000000E-03 0. -1.
         11   -1    0    0    0    0 -0.00000000000E+00 -0.00000000000E+00 -0.45593999997E+02  0.45594000000E+02  0.51100000000E-03 0.  1.
         23    2    1    2    0    0 -0.17763568394E-14  0.00000000000E+00 -0.14210854715E-13  0.91188000000E+02  0.91188000000E+02 0.  0.
    9900012    2    3    3    0    0 -0.13813189992E+02  0.34845496980E+01 -0.40996059563E+02  0.47787271849E+02  0.20000003667E+02 0.  0.
         12    1    3    3    0    0  0.13813189992E+02 -0.34845496980E+01  0.40996059563E+02  0.43400728151E+02  0.00000000000E+00 0. -1.
         11    1    4    4    0    0 -0.54397118902E+01  0.68500466641E+01 -0.11326444236E+02  0.14310902978E+02  0.51100000000E-03 0. -1.
        -11    1    4    4    0    0 -0.11261272146E+02 -0.18005727149E+01 -0.26758630755E+02  0.29087499594E+02  0.51100000000E-03 0.  1.
         12    1    4    4    0    0  0.28877940444E+01 -0.15649242512E+01 -0.29109845717E+01  0.43888692771E+01  0.00000000000E+00 0. -1.
</event>
<event>
 8    1  0.6046524E-010  0.9118800E+02  0.7816164E-02  0.1184000E+00
        -11   -1    0    0    0    0  0.00000000000E+00  0.00000000000E+00  0.45593999997E+02  0.45594000000E+02  0.51100000000E-03 0. -1.
         11   -1    0    0    0    0 -0.00000000000E+00 -0.00000000000E+00 -0.45593999997E+02  0.45594000000E+02  0.51100000000E-03 0.  1.
         23    2    1    2    0    0  0.71054273576E-14  0.88817841970E-15 -0.35527136788E-14  0.91188000000E+02  0.91188000000E+02 0.  0.
    9900012    2    3    3    0    0 -0.36097226420E+02 -0.71662665825E+01  0.23005608637E+02  0.47787272348E+02  0.20000005942E+02 0.  0.
        -12    1    3    3    0    0  0.36097226420E+02  0.71662665825E+01 -0.23005608637E+02  0.43400727652E+02  0.00000000000E+00 0.  1.
         11    1    4    4    0    0 -0.19463545799E+02 -0.39926415372E+01  0.10847153191E+02  0.22636950637E+02  0.51100000000E-03 0. -1.
        -11    1    4    4    0    0 -0.55508184135E+01 -0.80789325372E+01  0.65973533291E+01  0.11815490138E+02  0.51100000000E-03 0.  1.
         12    1    4    4    0    0 -0.11082862208E+02  0.49053074918E+01  0.55611021170E+01  0.13334831572E+02  0.00000000000E+00 0. -1.
</event>
<event>
 8    1  0.6046524E-010  0.9118800E+02  0.7816164E-02  0.1184000E+00
        -11   -1    0    0    0    0  0.00000000000E+00  0.00000000000E+00  0.45593999997E+02  0.45594000000E+02  0.51100000000E-03 0. -1.
         11   -1    0    0    0    0 -0.00000000000E+00 -0.00000000000E+00 -0.45593999997E+02  0.45594000000E+02  0.51100000000E-03 0.  1.
         23    2    1    2    0    0 -0.35527136788E-14  0.35527136788E-14  0.00000000000E+00  0.91188000000E+02  0.91188000000E+02 0.  0.
    9900012    2    3    3    0    0 -0.25430425840E+02  0.23000886520E+02 -0.26605940350E+02  0.47787269580E+02  0.19999993322E+02 0.  0.
         12    1    3    3    0    0  0.25430425840E+02 -0.23000886520E+02  0.26605940350E+02  0.43400730420E+02  0.00000000000E+00 0. -1.
         11    1    4    4    0    0 -0.11986774687E+02  0.46093161847E+01 -0.83342472615E+01  0.15309743328E+02  0.51100000000E-03 0. -1.
        -11    1    4    4    0    0 -0.30319708085E+01  0.11908025603E+02 -0.15714489433E+02  0.19948410943E+02  0.51100000000E-03 0.  1.
        -12    1    4    4    0    0 -0.10411680344E+02  0.64835447323E+01 -0.25572036553E+01  0.12529115309E+02  0.00000000000E+00 0.  1.
</event>
<event>
 8    1  0.6046524E-010  0.9118800E+02  0.7816164E-02  0.1184000E+00
        -11   -1    0    0    0    0  0.00000000000E+00  0.00000000000E+00  0.45593999997E+02  0.45594000000E+02  0.51100000000E-03 0. -1.
         11   -1    0    0    0    0 -0.00000000000E+00 -0.00000000000E+00 -0.45593999997E+02  0.45594000000E+02  0.51100000000E-03 0.  1.
         23    2    1    2    0    0  0.35527136788E-14  0.00000000000E+00  0.00000000000E+00  0.91188000000E+02  0.91188000000E+02 0.  0.
    9900012    2    3    3    0    0  0.17314269110E+02 -0.21708617005E+02 -0.33355288298E+02  0.47787271613E+02  0.20000002591E+02 0.  0.
         12    1    3    3    0    0 -0.17314269110E+02  0.21708617005E+02  0.33355288298E+02  0.43400728387E+02  0.00000000000E+00 0. -1.
         11    1    4    4    0    0  0.61109442955E+01 -0.10910018705E+02 -0.16995080117E+02  0.21099879070E+02  0.51100000000E-03 0.  1.
        -11    1    4    4    0    0  0.13698030001E+02 -0.51814545940E+01 -0.94023806424E+01  0.17403685231E+02  0.51100000000E-03 0. -1.
         12    1    4    4    0    0 -0.24947051868E+01 -0.56171437067E+01 -0.69578275386E+01  0.92837073116E+01  0.00000000000E+00 0. -1.
</event>
<event>
 8    1  0.6046524E-010  0.9118800E+02  0.7816164E-02  0.1184000E+00
        -11   -1    0    0    0    0  0.00000000000E+00  0.00000000000E+00  0.45593999997E+02  0.45594000000E+02  0.51100000000E-03 0. -1.
         11   -1    0    0    0    0 -0.00000000000E+00 -0.00000000000E+00 -0.45593999997E+02  0.45594000000E+02  0.51100000000E-03 0.  1.
         23    2    1    2    0    0  0.17763568394E-14  0.00000000000E+00  0.00000000000E+00  0.91188000000E+02  0.91188000000E+02 0.  0.
    9900012    2    3    3    0    0 -0.14669769558E+02  0.39741291452E+02  0.94366753247E+01  0.47787271592E+02  0.20000002496E+02 0.  0.
        -12    1    3    3    0    0  0.14669769558E+02 -0.39741291452E+02 -0.94366753247E+01  0.43400728408E+02  0.00000000000E+00 0.  1.
         11    1    4    4    0    0  0.26858381862E-01  0.81409830136E+01  0.92017308370E+00  0.81928654673E+01  0.51100000000E-03 0. -1.
        -11    1    4    4    0    0 -0.16224361528E+02  0.15379140658E+02  0.43023177539E+01  0.22765276469E+02  0.51100000000E-03 0.  1.
         12    1    4    4    0    0  0.15277335884E+01  0.16221167780E+02  0.42141844871E+01  0.16829129656E+02  0.00000000000E+00 0. -1.
</event>
<event>
 8    1  0.6046524E-010  0.9118800E+02  0.7816164E-02  0.1184000E+00
        -11   -1    0    0    0    0  0.00000000000E+00  0.00000000000E+00  0.45593999997E+02  0.45594000000E+02  0.51100000000E-03 0. -1.
         11   -1    0    0    0    0 -0.00000000000E+00 -0.00000000000E+00 -0.45593999997E+02  0.45594000000E+02  0.51100000000E-03 0.  1.
         23    2    1    2    0    0  0.35527136788E-14 -0.71054273576E-14  0.00000000000E+00  0.91188000000E+02  0.91188000000E+02 0.  0.
    9900012    2    3    3    0    0  0.20175595451E+02 -0.37044450700E+02 -0.10211626341E+02  0.47787270835E+02  0.19999999047E+02 0.  0.
         12    1    3    3    0    0 -0.20175595451E+02  0.37044450700E+02  0.10211626341E+02  0.43400729165E+02  0.00000000000E+00 0. -1.
         11    1    4    4    0    0  0.82693584984E+01 -0.19747769277E+02  0.17810144912E+01  0.21483218899E+02  0.51100000000E-03 0. -1.
        -11    1    4    4    0    0  0.85879370748E+01 -0.18024876649E+02 -0.96389938082E+01  0.22171130853E+02  0.51100000000E-03 0.  1.
         12    1    4    4    0    0  0.33182998779E+01  0.72819522581E+00 -0.23536470238E+01  0.41329210831E+01  0.00000000000E+00 0. -1.
</event>
<event>
 8    1  0.6046524E-010  0.9118800E+02  0.7816164E-02  0.1184000E+00
        -11   -1    0    0    0    0  0.00000000000E+00  0.00000000000E+00  0.45593999997E+02  0.45594000000E+02  0.51100000000E-03 0. -1.
         11   -1    0    0    0    0 -0.00000000000E+00 -0.00000000000E+00 -0.45593999997E+02  0.45594000000E+02  0.51100000000E-03 0.  1.
         23    2    1    2    0    0 -0.35527136788E-14  0.22204460493E-15  0.00000000000E+00  0.91188000000E+02  0.91188000000E+02 0.  0.
    9900012    2    3    3    0    0  0.21938072708E+02 -0.16218413426E+01 -0.37412749322E+02  0.47787271719E+02  0.20000003076E+02 0.  0.
         12    1    3    3    0    0 -0.21938072708E+02  0.16218413426E+01  0.37412749322E+02  0.43400728281E+02  0.00000000000E+00 0. -1.
         11    1    4    4    0    0  0.17454776465E+02  0.23013989543E+01 -0.35834408209E+02  0.39925812084E+02  0.51100000000E-03 0. -1.
        -11    1    4    4    0    0  0.23156950878E+01 -0.34162477754E+01 -0.31028138713E+01  0.51633948894E+01  0.51100000000E-03 0.  1.
        -12    1    4    4    0    0  0.21676011550E+01 -0.50699252144E+00  0.15244727581E+01  0.26980647461E+01  0.00000000000E+00 0.  1.
</event>
<event>
 8    1  0.6046524E-010  0.9118800E+02  0.7816164E-02  0.1184000E+00
        -11   -1    0    0    0    0  0.00000000000E+00  0.00000000000E+00  0.45593999997E+02  0.45594000000E+02  0.51100000000E-03 0. -1.
         11   -1    0    0    0    0 -0.00000000000E+00 -0.00000000000E+00 -0.45593999997E+02  0.45594000000E+02  0.51100000000E-03 0.  1.
         23    2    1    2    0    0 -0.17763568394E-14 -0.35527136788E-14 -0.35527136788E-14  0.91188000000E+02  0.91188000000E+02 0.  0.
    9900012    2    3    3    0    0  0.11439009120E+02 -0.31821951349E+02  0.27205441054E+02  0.47787267976E+02  0.19999986008E+02 0.  0.
        -12    1    3    3    0    0 -0.11439009120E+02  0.31821951349E+02 -0.27205441054E+02  0.43400732024E+02  0.00000000000E+00 0.  1.
         11    1    4    4    0    0  0.13777208912E+02 -0.23909293887E+02  0.27128010618E+02  0.38696185599E+02  0.51100000000E-03 0. -1.
        -11    1    4    4    0    0 -0.17682011712E+01 -0.11216304337E+01  0.79221550727E+00  0.22387933989E+01  0.51100000000E-03 0.  1.
         12    1    4    4    0    0 -0.56999862050E+00 -0.67910270286E+01 -0.71478507155E+00  0.68522889774E+01  0.00000000000E+00 0. -1.
</event>
<event>
 8    1  0.6046524E-010  0.9118800E+02  0.7816164E-02  0.1184000E+00
        -11   -1    0    0    0    0  0.00000000000E+00  0.00000000000E+00  0.45593999997E+02  0.45594000000E+02  0.51100000000E-03 0.  1.
         11   -1    0    0    0    0 -0.00000000000E+00 -0.00000000000E+00 -0.45593999997E+02  0.45594000000E+02  0.51100000000E-03 0. -1.
         23    2    1    2    0    0 -0.44408920985E-15  0.00000000000E+00  0.00000000000E+00  0.91188000000E+02  0.91188000000E+02 0.  0.
    9900012    2    3    3    0    0  0.37071713431E+01 -0.41220197395E+02 -0.13068103735E+02  0.47787272726E+02  0.20000007667E+02 0.  0.
         12    1    3    3    0    0 -0.37071713431E+01  0.41220197395E+02  0.13068103735E+02  0.43400727274E+02  0.00000000000E+00 0. -1.
         11    1    4    4    0    0  0.78839691658E+01 -0.16834111496E+02 -0.56013020061E+01  0.19414398371E+02  0.51100000000E-03 0. -1.
        -11    1    4    4    0    0 -0.13420252174E+01 -0.14702417497E+02  0.15451979682E+01  0.14844182327E+02  0.51100000000E-03 0.  1.
         12    1    4    4    0    0 -0.28347726053E+01 -0.96836684020E+01 -0.90119996973E+01  0.13528692028E+02  0.00000000000E+00 0. -1.
</event>
<event>
 8    1  0.6046524E-010  0.9118800E+02  0.7816164E-02  0.1184000E+00
        -11   -1    0    0    0    0  0.00000000000E+00  0.00000000000E+00  0.45593999997E+02  0.45594000000E+02  0.51100000000E-03 0. -1.
         11   -1    0    0    0    0 -0.00000000000E+00 -0.00000000000E+00 -0.45593999997E+02  0.45594000000E+02  0.51100000000E-03 0.  1.
         23    2    1    2    0    0  0.00000000000E+00  0.00000000000E+00  0.00000000000E+00  0.91188000000E+02  0.91188000000E+02 0.  0.
    9900012    2    3    3    0    0  0.31574875254E+02  0.16555781417E+02  0.24749871277E+02  0.47787276805E+02  0.20000026265E+02 0.  0.
        -12    1    3    3    0    0 -0.31574875254E+02 -0.16555781417E+02 -0.24749871277E+02  0.43400723195E+02  0.00000000000E+00 0.  1.
         11    1    4    4    0    0  0.11364610323E+02  0.49238397049E+01  0.15516353450E+02  0.19853357144E+02  0.51100000000E-03 0. -1.
        -11    1    4    4    0    0  0.64885639533E+01  0.10340630481E+02  0.20060879863E+01  0.12371519316E+02  0.51100000000E-03 0.  1.
         12    1    4    4    0    0  0.13721700977E+02  0.12913112315E+01  0.72274298400E+01  0.15562400345E+02  0.00000000000E+00 0. -1.
</event>
<event>
 8    1  0.6046524E-010  0.9118800E+02  0.7816164E-02  0.1184000E+00
        -11   -1    0    0    0    0  0.00000000000E+00  0.00000000000E+00  0.45593999997E+02  0.45594000000E+02  0.51100000000E-03 0. -1.
         11   -1    0    0    0    0 -0.00000000000E+00 -0.00000000000E+00 -0.45593999997E+02  0.45594000000E+02  0.51100000000E-03 0.  1.
         23    2    1    2    0    0 -0.88817841970E-15  0.00000000000E+00  0.00000000000E+00  0.91188000000E+02  0.91188000000E+02 0.  0.
    9900012    2    3    3    0    0 -0.51828505523E+01 -0.24984227820E+02  0.35107684387E+02  0.47787273248E+02  0.20000010047E+02 0.  0.
        -12    1    3    3    0    0  0.51828505523E+01  0.24984227820E+02 -0.35107684387E+02  0.43400726752E+02  0.00000000000E+00 0.  1.
         11    1    4    4    0    0 -0.59949585408E+01 -0.35400306626E+01  0.12748083373E+02  0.14525321854E+02  0.51100000000E-03 0. -1.
        -11    1    4    4    0    0  0.32614138601E+01 -0.51891251592E+01  0.84631081485E+00  0.61870899897E+01  0.51100000000E-03 0.  1.
         12    1    4    4    0    0 -0.24493058716E+01 -0.16255071998E+02  0.21513290198E+02  0.27074861405E+02  0.00000000000E+00 0. -1.
</event>
<event>
 8    1  0.6046524E-010  0.9118800E+02  0.7816164E-02  0.1184000E+00
        -11   -1    0    0    0    0  0.00000000000E+00  0.00000000000E+00  0.45593999997E+02  0.45594000000E+02  0.51100000000E-03 0. -1.
         11   -1    0    0    0    0 -0.00000000000E+00 -0.00000000000E+00 -0.45593999997E+02  0.45594000000E+02  0.51100000000E-03 0.  1.
         23    2    1    2    0    0 -0.88817841970E-15 -0.44408920985E-15  0.71054273576E-14  0.91188000000E+02  0.91188000000E+02 0.  0.
    9900012    2    3    3    0    0  0.63930301811E+01  0.30518510669E+01 -0.42818674202E+02  0.47787268551E+02  0.19999988632E+02 0.  0.
         12    1    3    3    0    0 -0.63930301811E+01 -0.30518510669E+01  0.42818674202E+02  0.43400731449E+02  0.00000000000E+00 0. -1.
         11    1    4    4    0    0 -0.38740318639E+01  0.71410170569E+01 -0.17296772081E+02  0.19109698380E+02  0.51100000000E-03 0. -1.
        -11    1    4    4    0    0  0.21519412763E+01 -0.31211211928E+01 -0.33928953730E+01  0.50876308858E+01  0.51100000000E-03 0.  1.
        -12    1    4    4    0    0  0.81151207687E+01 -0.96804479719E+00 -0.22129006749E+02  0.23589939286E+02  0.00000000000E+00 0.  1.
</event>
<event>
 8    1  0.6046524E-010  0.9118800E+02  0.7816164E-02  0.1184000E+00
        -11   -1    0    0    0    0  0.00000000000E+00  0.00000000000E+00  0.45593999997E+02  0.45594000000E+02  0.51100000000E-03 0. -1.
         11   -1    0    0    0    0 -0.00000000000E+00 -0.00000000000E+00 -0.45593999997E+02  0.45594000000E+02  0.51100000000E-03 0.  1.
         23    2    1    2    0    0  0.35527136788E-14  0.00000000000E+00  0.00000000000E+00  0.91188000000E+02  0.91188000000E+02 0.  0.
    9900012    2    3    3    0    0  0.24541749931E+02 -0.50687815884E+01  0.35434913089E+02  0.47787273023E+02  0.20000009022E+02 0.  0.
        -12    1    3    3    0    0 -0.24541749931E+02  0.50687815884E+01 -0.35434913089E+02  0.43400726977E+02  0.00000000000E+00 0.  1.
         11    1    4    4    0    0  0.27748278367E+00 -0.35816451018E+01  0.65125777464E+01  0.74376641155E+01  0.51100000000E-03 0. -1.
        -11    1    4    4    0    0  0.13971112802E+02 -0.19360905340E+01  0.62129873948E+01  0.15412386321E+02  0.51100000000E-03 0.  1.
        -12    1    4    4    0    0  0.10293154346E+02  0.44895404733E+00  0.22709347948E+02  0.24937222587E+02  0.00000000000E+00 0.  1.
</event>
<event>
 8    1  0.6046524E-010  0.9118800E+02  0.7816164E-02  0.1184000E+00
        -11   -1    0    0    0    0  0.00000000000E+00  0.00000000000E+00  0.45593999997E+02  0.45594000000E+02  0.51100000000E-03 0. -1.
         11   -1    0    0    0    0 -0.00000000000E+00 -0.00000000000E+00 -0.45593999997E+02  0.45594000000E+02  0.51100000000E-03 0.  1.
         23    2    1    2    0    0 -0.17763568394E-14 -0.17763568394E-14  0.00000000000E+00  0.91188000000E+02  0.91188000000E+02 0.  0.
    9900012    2    3    3    0    0 -0.12090877422E+02  0.13309588304E+02 -0.39500487709E+02  0.47787274351E+02  0.20000015074E+02 0.  0.
         12    1    3    3    0    0  0.12090877422E+02 -0.13309588304E+02  0.39500487709E+02  0.43400725649E+02  0.00000000000E+00 0. -1.
         11    1    4    4    0    0  0.14534418495E+01  0.29709001851E+01  0.21694930324E-01  0.33074479664E+01  0.51100000000E-03 0. -1.
        -11    1    4    4    0    0 -0.44760055973E+01 -0.54818229989E+00 -0.19091091559E+02  0.19616444814E+02  0.51100000000E-03 0.  1.
        -12    1    4    4    0    0 -0.90683136737E+01  0.10886870419E+02 -0.20431091080E+02  0.24863381570E+02  0.00000000000E+00 0.  1.
</event>
<event>
 8    1  0.6046524E-010  0.9118800E+02  0.7816164E-02  0.1184000E+00
        -11   -1    0    0    0    0  0.00000000000E+00  0.00000000000E+00  0.45593999997E+02  0.45594000000E+02  0.51100000000E-03 0. -1.
         11   -1    0    0    0    0 -0.00000000000E+00 -0.00000000000E+00 -0.45593999997E+02  0.45594000000E+02  0.51100000000E-03 0.  1.
         23    2    1    2    0    0  0.00000000000E+00  0.00000000000E+00  0.00000000000E+00  0.91188000000E+02  0.91188000000E+02 0.  0.
    9900012    2    3    3    0    0 -0.11158173697E+02  0.17376810795E+02  0.38172830068E+02  0.47787270179E+02  0.19999996052E+02 0.  0.
        -12    1    3    3    0    0  0.11158173697E+02 -0.17376810795E+02 -0.38172830068E+02  0.43400729821E+02  0.00000000000E+00 0.  1.
         11    1    4    4    0    0  0.28694480124E+01 -0.83993358086E+00  0.20489729634E+01  0.36245704272E+01  0.51100000000E-03 0. -1.
        -11    1    4    4    0    0 -0.48580599827E+01  0.41921020819E+01  0.30897666117E+01  0.71218764828E+01  0.51100000000E-03 0.  1.
         12    1    4    4    0    0 -0.91695617265E+01  0.14024642294E+02  0.33034090493E+02  0.37040823268E+02  0.00000000000E+00 0. -1.
</event>
<event>
 8    1  0.6046524E-010  0.9118800E+02  0.7816164E-02  0.1184000E+00
        -11   -1    0    0    0    0  0.00000000000E+00  0.00000000000E+00  0.45593999997E+02  0.45594000000E+02  0.51100000000E-03 0. -1.
         11   -1    0    0    0    0 -0.00000000000E+00 -0.00000000000E+00 -0.45593999997E+02  0.45594000000E+02  0.51100000000E-03 0.  1.
         23    2    1    2    0    0  0.17763568394E-14  0.44408920985E-15  0.00000000000E+00  0.91188000000E+02  0.91188000000E+02 0.  0.
    9900012    2    3    3    0    0 -0.90448068016E+01 -0.39424565617E+01 -0.42264313097E+02  0.47787266650E+02  0.19999979963E+02 0.  0.
         12    1    3    3    0    0  0.90448068016E+01  0.39424565617E+01  0.42264313097E+02  0.43400733350E+02  0.00000000000E+00 0. -1.
         11    1    4    4    0    0  0.77115418124E+00  0.36754540993E+01 -0.58932185443E+01  0.69881089487E+01  0.51100000000E-03 0.  1.
        -11    1    4    4    0    0 -0.72866161674E+01 -0.60666958426E+01 -0.83883415532E+01  0.12659535848E+02  0.51100000000E-03 0. -1.
        -12    1    4    4    0    0 -0.25293448155E+01 -0.15512148183E+01 -0.27982752999E+02  0.28139621853E+02  0.00000000000E+00 0.  1.
</event>
<event>
 8    1  0.6046524E-010  0.9118800E+02  0.7816164E-02  0.1184000E+00
        -11   -1    0    0    0    0  0.00000000000E+00  0.00000000000E+00  0.45593999997E+02  0.45594000000E+02  0.51100000000E-03 0. -1.
         11   -1    0    0    0    0 -0.00000000000E+00 -0.00000000000E+00 -0.45593999997E+02  0.45594000000E+02  0.51100000000E-03 0.  1.
         23    2    1    2    0    0  0.00000000000E+00 -0.71054273576E-14 -0.44408920985E-15  0.91188000000E+02  0.91188000000E+02 0.  0.
    9900012    2    3    3    0    0  0.16356893588E+02  0.40105749636E+02  0.27575495715E+01  0.47787271880E+02  0.20000003810E+02 0.  0.
         12    1    3    3    0    0 -0.16356893588E+02 -0.40105749636E+02 -0.27575495715E+01  0.43400728120E+02  0.00000000000E+00 0. -1.
         11    1    4    4    0    0  0.21313671368E+01  0.20026391239E+02 -0.30496636342E+01  0.20369082465E+02  0.51100000000E-03 0. -1.
        -11    1    4    4    0    0  0.98006485995E+00  0.68425860192E+01  0.52570193729E+01  0.86843401308E+01  0.51100000000E-03 0.  1.
        -12    1    4    4    0    0  0.13245461591E+02  0.13236772378E+02  0.55019383282E+00  0.18733849284E+02  0.00000000000E+00 0.  1.
</event>
<event>
 8    1  0.6046524E-010  0.9118800E+02  0.7816164E-02  0.1184000E+00
        -11   -1    0    0    0    0  0.00000000000E+00  0.00000000000E+00  0.45593999997E+02  0.45594000000E+02  0.51100000000E-03 0. -1.
         11   -1    0    0    0    0 -0.00000000000E+00 -0.00000000000E+00 -0.45593999997E+02  0.45594000000E+02  0.51100000000E-03 0.  1.
         23    2    1    2    0    0  0.00000000000E+00  0.00000000000E+00  0.71054273576E-14  0.91188000000E+02  0.91188000000E+02 0.  0.
    9900012    2    3    3    0    0  0.22673136783E+02 -0.10296066207E+02 -0.35546358368E+02  0.47787266088E+02  0.19999977401E+02 0.  0.
         12    1    3    3    0    0 -0.22673136783E+02  0.10296066207E+02  0.35546358368E+02  0.43400733912E+02  0.00000000000E+00 0. -1.
         11    1    4    4    0    0 -0.44956258184E+00  0.62227572610E+00 -0.46459157985E+01  0.47089136180E+01  0.51100000000E-03 0. -1.
        -11    1    4    4    0    0  0.15946206176E+02 -0.40926770061E+01 -0.28458998096E+02  0.32877744287E+02  0.51100000000E-03 0.  1.
         12    1    4    4    0    0  0.71764931888E+01 -0.68256649275E+01 -0.24414444727E+01  0.10200608183E+02  0.00000000000E+00 0. -1.
</event>
<event>
 8    1  0.6046524E-010  0.9118800E+02  0.7816164E-02  0.1184000E+00
        -11   -1    0    0    0    0  0.00000000000E+00  0.00000000000E+00  0.45593999997E+02  0.45594000000E+02  0.51100000000E-03 0. -1.
         11   -1    0    0    0    0 -0.00000000000E+00 -0.00000000000E+00 -0.45593999997E+02  0.45594000000E+02  0.51100000000E-03 0.  1.
         23    2    1    2    0    0  0.35527136788E-14  0.00000000000E+00  0.88817841970E-15  0.91188000000E+02  0.91188000000E+02 0.  0.
    9900012    2    3    3    0    0  0.25444279247E+02  0.35077175583E+02 -0.24092552227E+01  0.47787261481E+02  0.19999956396E+02 0.  0.
         12    1    3    3    0    0 -0.25444279247E+02 -0.35077175583E+02  0.24092552227E+01  0.43400738519E+02  0.00000000000E+00 0. -1.
         11    1    4    4    0    0  0.10713263794E+02  0.72266788301E+01  0.52938549932E+01  0.13965092516E+02  0.51100000000E-03 0. -1.
        -11    1    4    4    0    0  0.86289082510E+01  0.67408582478E+01 -0.21775393345E+01  0.11164179564E+02  0.51100000000E-03 0.  1.
        -12    1    4    4    0    0  0.61021072013E+01  0.21109638505E+02 -0.55255708815E+01  0.22657989401E+02  0.00000000000E+00 0.  1.
</event>
<event>
 8    1  0.6046524E-010  0.9118800E+02  0.7816164E-02  0.1184000E+00
        -11   -1    0    0    0    0  0.00000000000E+00  0.00000000000E+00  0.45593999997E+02  0.45594000000E+02  0.51100000000E-03 0.  1.
         11   -1    0    0    0    0 -0.00000000000E+00 -0.00000000000E+00 -0.45593999997E+02  0.45594000000E+02  0.51100000000E-03 0. -1.
         23    2    1    2    0    0  0.00000000000E+00  0.00000000000E+00  0.00000000000E+00  0.91188000000E+02  0.91188000000E+02 0.  0.
    9900012    2    3    3    0    0  0.29926155416E+02  0.22641234141E+02  0.21804200743E+02  0.47787269229E+02  0.19999991721E+02 0.  0.
        -12    1    3    3    0    0 -0.29926155416E+02 -0.22641234141E+02 -0.21804200743E+02  0.43400730771E+02  0.00000000000E+00 0.  1.
         11    1    4    4    0    0 -0.16537755393E+01  0.40441218552E+01  0.63188482872E+01  0.76823003750E+01  0.51100000000E-03 0. -1.
        -11    1    4    4    0    0  0.54373820867E+01  0.18645335560E+01  0.93066782833E+00  0.58230363391E+01  0.51100000000E-03 0.  1.
        -12    1    4    4    0    0  0.26142548869E+02  0.16732578730E+02  0.14554684627E+02  0.34281932515E+02  0.00000000000E+00 0.  1.
</event>
<event>
 8    1  0.6046524E-010  0.9118800E+02  0.7816164E-02  0.1184000E+00
        -11   -1    0    0    0    0  0.00000000000E+00  0.00000000000E+00  0.45593999997E+02  0.45594000000E+02  0.51100000000E-03 0. -1.
         11   -1    0    0    0    0 -0.00000000000E+00 -0.00000000000E+00 -0.45593999997E+02  0.45594000000E+02  0.51100000000E-03 0.  1.
         23    2    1    2    0    0  0.35527136788E-14 -0.35527136788E-14  0.00000000000E+00  0.91188000000E+02  0.91188000000E+02 0.  0.
    9900012    2    3    3    0    0 -0.18855208740E+02  0.20059812375E+02 -0.33551577476E+02  0.47787270510E+02  0.19999997561E+02 0.  0.
         12    1    3    3    0    0  0.18855208740E+02 -0.20059812375E+02  0.33551577476E+02  0.43400729490E+02  0.00000000000E+00 0. -1.
         11    1    4    4    0    0 -0.26691480539E+01  0.15147285769E+00 -0.30952519376E+01  0.40899731269E+01  0.51100000000E-03 0. -1.
        -11    1    4    4    0    0 -0.22502586399E+01  0.16773167640E+02 -0.18465209089E+02  0.25047290544E+02  0.51100000000E-03 0.  1.
        -12    1    4    4    0    0 -0.13935802047E+02  0.31351718778E+01 -0.11991116449E+02  0.18650006839E+02  0.00000000000E+00 0.  1.
</event>
<event>
 8    1  0.6046524E-010  0.9118800E+02  0.7816164E-02  0.1184000E+00
        -11   -1    0    0    0    0  0.00000000000E+00  0.00000000000E+00  0.45593999997E+02  0.45594000000E+02  0.51100000000E-03 0. -1.
         11   -1    0    0    0    0 -0.00000000000E+00 -0.00000000000E+00 -0.45593999997E+02  0.45594000000E+02  0.51100000000E-03 0.  1.
         23    2    1    2    0    0  0.00000000000E+00  0.00000000000E+00  0.00000000000E+00  0.91188000000E+02  0.91188000000E+02 0.  0.
    9900012    2    3    3    0    0 -0.10083051497E+02  0.25672312598E+01  0.42135086131E+02  0.47787261676E+02  0.19999957285E+02 0.  0.
        -12    1    3    3    0    0  0.10083051497E+02 -0.25672312598E+01 -0.42135086131E+02  0.43400738324E+02  0.00000000000E+00 0.  1.
         11    1    4    4    0    0 -0.75823029174E+01  0.10739123972E+02  0.22737927200E+02  0.26264680368E+02  0.51100000000E-03 0. -1.
        -11    1    4    4    0    0 -0.86848799101E+00 -0.26234996142E+01  0.27469327744E+01  0.38964934934E+01  0.51100000000E-03 0.  1.
         12    1    4    4    0    0 -0.16322605882E+01 -0.55483930977E+01  0.16650226156E+02  0.17626087814E+02  0.00000000000E+00 0. -1.
</event>
<event>
 8    1  0.6046524E-010  0.9118800E+02  0.7816164E-02  0.1184000E+00
        -11   -1    0    0    0    0  0.00000000000E+00  0.00000000000E+00  0.45593999997E+02  0.45594000000E+02  0.51100000000E-03 0. -1.
         11   -1    0    0    0    0 -0.00000000000E+00 -0.00000000000E+00 -0.45593999997E+02  0.45594000000E+02  0.51100000000E-03 0.  1.
         23    2    1    2    0    0  0.00000000000E+00  0.00000000000E+00  0.00000000000E+00  0.91188000000E+02  0.91188000000E+02 0.  0.
    9900012    2    3    3    0    0  0.16671850614E+02  0.61285675221E+01  0.39599408407E+02  0.47787273175E+02  0.20000009713E+02 0.  0.
        -12    1    3    3    0    0 -0.16671850614E+02 -0.61285675221E+01 -0.39599408407E+02  0.43400726825E+02  0.00000000000E+00 0.  1.
         11    1    4    4    0    0  0.20126874601E+01  0.67726236397E+01  0.15491634377E+02  0.17026745952E+02  0.51100000000E-03 0. -1.
        -11    1    4    4    0    0  0.70125338438E+01 -0.43458225148E+01  0.45137358202E+01  0.94040212439E+01  0.51100000000E-03 0.  1.
         12    1    4    4    0    0  0.76466293105E+01  0.37017663971E+01  0.19594038209E+02  0.21356505979E+02  0.00000000000E+00 0. -1.
</event>
<event>
 8    1  0.6046524E-010  0.9118800E+02  0.7816164E-02  0.1184000E+00
        -11   -1    0    0    0    0  0.00000000000E+00  0.00000000000E+00  0.45593999997E+02  0.45594000000E+02  0.51100000000E-03 0. -1.
         11   -1    0    0    0    0 -0.00000000000E+00 -0.00000000000E+00 -0.45593999997E+02  0.45594000000E+02  0.51100000000E-03 0.  1.
         23    2    1    2    0    0  0.00000000000E+00  0.00000000000E+00 -0.22204460493E-15  0.91188000000E+02  0.91188000000E+02 0.  0.
    9900012    2    3    3    0    0 -0.23313884182E+02 -0.36563586755E+02  0.17862462481E+01  0.47787265586E+02  0.19999975112E+02 0.  0.
        -12    1    3    3    0    0  0.23313884182E+02  0.36563586755E+02 -0.17862462481E+01  0.43400734414E+02  0.00000000000E+00 0.  1.
         11    1    4    4    0    0 -0.10731912024E+02 -0.10192164472E+02 -0.45833902731E+01  0.15493922001E+02  0.51100000000E-03 0.  1.
        -11    1    4    4    0    0 -0.79639600662E+01 -0.80165126116E+01  0.71121606369E+01  0.13351852440E+02  0.51100000000E-03 0. -1.
         12    1    4    4    0    0 -0.46180120913E+01 -0.18354909672E+02 -0.74252411564E+00  0.18941491145E+02  0.00000000000E+00 0. -1.
</event>
<event>
 8    1  0.6046524E-010  0.9118800E+02  0.7816164E-02  0.1184000E+00
        -11   -1    0    0    0    0  0.00000000000E+00  0.00000000000E+00  0.45593999997E+02  0.45594000000E+02  0.51100000000E-03 0.  1.
         11   -1    0    0    0    0 -0.00000000000E+00 -0.00000000000E+00 -0.45593999997E+02  0.45594000000E+02  0.51100000000E-03 0. -1.
         23    2    1    2    0    0  0.88817841970E-15 -0.71054273576E-14  0.00000000000E+00  0.91188000000E+02  0.91188000000E+02 0.  0.
    9900012    2    3    3    0    0  0.65401295413E+01 -0.39426877639E+02 -0.16922486333E+02  0.47787279747E+02  0.20000039677E+02 0.  0.
         12    1    3    3    0    0 -0.65401295413E+01  0.39426877639E+02  0.16922486333E+02  0.43400720253E+02  0.00000000000E+00 0. -1.
         11    1    4    4    0    0  0.63154990083E+01 -0.32731051555E+01 -0.30940749588E+01  0.77570642124E+01  0.51100000000E-03 0. -1.
        -11    1    4    4    0    0  0.21050749566E+01 -0.16400451291E+02 -0.13498856912E+01  0.16590007075E+02  0.51100000000E-03 0.  1.
        -12    1    4    4    0    0 -0.18804444237E+01 -0.19753321193E+02 -0.12478525683E+02  0.23440208459E+02  0.00000000000E+00 0.  1.
</event>
<event>
 8    1  0.6046524E-010  0.9118800E+02  0.7816164E-02  0.1184000E+00
        -11   -1    0    0    0    0  0.00000000000E+00  0.00000000000E+00  0.45593999997E+02  0.45594000000E+02  0.51100000000E-03 0. -1.
         11   -1    0    0    0    0 -0.00000000000E+00 -0.00000000000E+00 -0.45593999997E+02  0.45594000000E+02  0.51100000000E-03 0.  1.
         23    2    1    2    0    0  0.17763568394E-14  0.00000000000E+00  0.00000000000E+00  0.91188000000E+02  0.91188000000E+02 0.  0.
    9900012    2    3    3    0    0 -0.14199863114E+02 -0.82932188263E+01  0.40164849483E+02  0.47787208246E+02  0.19999713673E+02 0.  0.
        -12    1    3    3    0    0  0.14199863114E+02  0.82932188263E+01 -0.40164849483E+02  0.43400791754E+02  0.00000000000E+00 0.  1.
         11    1    4    4    0    0 -0.57008921265E+01 -0.99708598184E+01  0.25768959511E+02  0.28212718605E+02  0.51100000000E-03 0. -1.
        -11    1    4    4    0    0 -0.52672227572E+01 -0.39714750309E+01  0.87541824933E+01  0.10961384989E+02  0.51100000000E-03 0.  1.
        -12    1    4    4    0    0 -0.32317482299E+01  0.56491160229E+01  0.56417074788E+01  0.86131046515E+01  0.00000000000E+00 0.  1.
</event>
<event>
 8    1  0.6046524E-010  0.9118800E+02  0.7816164E-02  0.1184000E+00
        -11   -1    0    0    0    0  0.00000000000E+00  0.00000000000E+00  0.45593999997E+02  0.45594000000E+02  0.51100000000E-03 0.  1.
         11   -1    0    0    0    0 -0.00000000000E+00 -0.00000000000E+00 -0.45593999997E+02  0.45594000000E+02  0.51100000000E-03 0. -1.
         23    2    1    2    0    0  0.17763568394E-14  0.00000000000E+00  0.00000000000E+00  0.91188000000E+02  0.91188000000E+02 0.  0.
    9900012    2    3    3    0    0  0.95345437810E+01 -0.33790044332E+02 -0.25513694844E+02  0.47787271370E+02  0.20000001484E+02 0.  0.
         12    1    3    3    0    0 -0.95345437810E+01  0.33790044332E+02  0.25513694844E+02  0.43400728630E+02  0.00000000000E+00 0. -1.
         11    1    4    4    0    0 -0.79897714089E+00  0.29231399964E+00 -0.29524001612E+01  0.30725362356E+01  0.51100000000E-03 0. -1.
        -11    1    4    4    0    0  0.29978357092E-01 -0.11437782575E+02 -0.14696154187E+02  0.18622586208E+02  0.51100000000E-03 0.  1.
         12    1    4    4    0    0  0.10303542565E+02 -0.22644575757E+02 -0.78651404958E+01  0.26092148926E+02  0.00000000000E+00 0. -1.
</event>
<event>
 8    1  0.6046524E-010  0.9118800E+02  0.7816164E-02  0.1184000E+00
        -11   -1    0    0    0    0  0.00000000000E+00  0.00000000000E+00  0.45593999997E+02  0.45594000000E+02  0.51100000000E-03 0.  1.
         11   -1    0    0    0    0 -0.00000000000E+00 -0.00000000000E+00 -0.45593999997E+02  0.45594000000E+02  0.51100000000E-03 0. -1.
         23    2    1    2    0    0  0.00000000000E+00  0.00000000000E+00  0.00000000000E+00  0.91188000000E+02  0.91188000000E+02 0.  0.
    9900012    2    3    3    0    0 -0.12511763466E+02  0.39373948868E+02 -0.13295491311E+02  0.47787283834E+02  0.20000058314E+02 0.  0.
         12    1    3    3    0    0  0.12511763466E+02 -0.39373948868E+02  0.13295491311E+02  0.43400716166E+02  0.00000000000E+00 0. -1.
         11    1    4    4    0    0 -0.19226054475E+00  0.19282677908E+02 -0.12461414576E+02  0.22959649059E+02  0.51100000000E-03 0. -1.
        -11    1    4    4    0    0 -0.30779753422E+01  0.65723645794E+00  0.79617246103E+00  0.32465031676E+01  0.51100000000E-03 0.  1.
        -12    1    4    4    0    0 -0.92415275787E+01  0.19434034502E+02 -0.16302491959E+01  0.21581131607E+02  0.00000000000E+00 0.  1.
</event>
<event>
 8    1 -0.6046524E-010  0.9118800E+02  0.7816164E-02  0.1184000E+00
        -11   -1    0    0    0    0  0.00000000000E+00  0.00000000000E+00  0.45593999997E+02  0.45594000000E+02  0.51100000000E-03 0.  1.
         11   -1    0    0    0    0 -0.00000000000E+00 -0.00000000000E+00 -0.45593999997E+02  0.45594000000E+02  0.51100000000E-03 0. -1.
         23    2    1    2    0    0 -0.71054273576E-14  0.00000000000E+00  0.00000000000E+00  0.91188000000E+02  0.91188000000E+02 0.  0.
    9900012    2    3    3    0    0  0.39394278428E+02  0.17516497330E+02 -0.49888681401E+01  0.47787243591E+02  0.19999874828E+02 0.  0.
        -12    1    3    3    0    0 -0.39394278428E+02 -0.17516497330E+02  0.49888681401E+01  0.43400756409E+02  0.00000000000E+00 0.  1.
         11    1    4    4    0    0  0.17432599671E+02  0.36869922628E+01  0.54081086920E+00  0.17826438789E+02  0.51100000000E-03 0. -1.
        -11    1    4    4    0    0  0.10354773877E+02  0.12503507996E+02  0.15374348970E+01  0.16307138331E+02  0.51100000000E-03 0.  1.
        -12    1    4    4    0    0  0.11606904880E+02  0.13259970717E+01 -0.70671139063E+01  0.13653666471E+02  0.00000000000E+00 0.  1.
</event>
<event>
 8    1  0.6046524E-010  0.9118800E+02  0.7816164E-02  0.1184000E+00
        -11   -1    0    0    0    0  0.00000000000E+00  0.00000000000E+00  0.45593999997E+02  0.45594000000E+02  0.51100000000E-03 0. -1.
         11   -1    0    0    0    0 -0.00000000000E+00 -0.00000000000E+00 -0.45593999997E+02  0.45594000000E+02  0.51100000000E-03 0.  1.
         23    2    1    2    0    0 -0.71054273576E-14  0.00000000000E+00  0.00000000000E+00  0.91188000000E+02  0.91188000000E+02 0.  0.
    9900012    2    3    3    0    0  0.33462957094E+02  0.19352589550E+02  0.19731462151E+02  0.47787276292E+02  0.20000023925E+02 0.  0.
        -12    1    3    3    0    0 -0.33462957094E+02 -0.19352589550E+02 -0.19731462151E+02  0.43400723708E+02  0.00000000000E+00 0.  1.
         11    1    4    4    0    0  0.11858347755E+02  0.97438064210E+01  0.15460274460E+01  0.15425705047E+02  0.51100000000E-03 0. -1.
        -11    1    4    4    0    0  0.74746091921E+01  0.55597274464E+01  0.44942978099E+00  0.93264322890E+01  0.51100000000E-03 0.  1.
         12    1    4    4    0    0  0.14130000147E+02  0.40490556823E+01  0.17736004924E+02  0.23035138956E+02  0.00000000000E+00 0. -1.
</event>
<event>
 8    1  0.6046524E-010  0.9118800E+02  0.7816164E-02  0.1184000E+00
        -11   -1    0    0    0    0  0.00000000000E+00  0.00000000000E+00  0.45593999997E+02  0.45594000000E+02  0.51100000000E-03 0. -1.
         11   -1    0    0    0    0 -0.00000000000E+00 -0.00000000000E+00 -0.45593999997E+02  0.45594000000E+02  0.51100000000E-03 0.  1.
         23    2    1    2    0    0  0.00000000000E+00  0.00000000000E+00  0.35527136788E-14  0.91188000000E+02  0.91188000000E+02 0.  0.
    9900012    2    3    3    0    0 -0.25942289417E+02 -0.15909295345E+02  0.30943746547E+02  0.47787268337E+02  0.19999987654E+02 0.  0.
        -12    1    3    3    0    0  0.25942289417E+02  0.15909295345E+02 -0.30943746547E+02  0.43400731663E+02  0.00000000000E+00 0.  1.
         11    1    4    4    0    0 -0.13449756465E+02 -0.48653526528E+01  0.19613796078E+02  0.24274855350E+02  0.51100000000E-03 0. -1.
        -11    1    4    4    0    0 -0.65173358621E+01  0.15166342578E+01  0.35388595349E+01  0.75696349503E+01  0.51100000000E-03 0.  1.
        -12    1    4    4    0    0 -0.59751970898E+01 -0.12560576950E+02  0.77910909335E+01  0.15942778036E+02  0.00000000000E+00 0.  1.
</event>
<event>
 8    1  0.6046524E-010  0.9118800E+02  0.7816164E-02  0.1184000E+00
        -11   -1    0    0    0    0  0.00000000000E+00  0.00000000000E+00  0.45593999997E+02  0.45594000000E+02  0.51100000000E-03 0. -1.
         11   -1    0    0    0    0 -0.00000000000E+00 -0.00000000000E+00 -0.45593999997E+02  0.45594000000E+02  0.51100000000E-03 0.  1.
         23    2    1    2    0    0  0.00000000000E+00  0.00000000000E+00  0.00000000000E+00  0.91188000000E+02  0.91188000000E+02 0.  0.
    9900012    2    3    3    0    0 -0.41468499605E+02 -0.53768325212E+01  0.11622240176E+02  0.47787271271E+02  0.20000001035E+02 0.  0.
        -12    1    3    3    0    0  0.41468499605E+02  0.53768325212E+01 -0.11622240176E+02  0.43400728729E+02  0.00000000000E+00 0.  1.
         11    1    4    4    0    0 -0.24253595193E+02 -0.89359690380E+01  0.43266424401E+01  0.26207026873E+02  0.51100000000E-03 0.  1.
        -11    1    4    4    0    0 -0.12361519253E+01 -0.13846848358E+01  0.41702234087E+01  0.45646672624E+01  0.51100000000E-03 0. -1.
         12    1    4    4    0    0 -0.15978752487E+02  0.49438213526E+01  0.31253743270E+01  0.17015577136E+02  0.00000000000E+00 0. -1.
</event>
<event>
 8    1  0.6046524E-010  0.9118800E+02  0.7816164E-02  0.1184000E+00
        -11   -1    0    0    0    0  0.00000000000E+00  0.00000000000E+00  0.45593999997E+02  0.45594000000E+02  0.51100000000E-03 0. -1.
         11   -1    0    0    0    0 -0.00000000000E+00 -0.00000000000E+00 -0.45593999997E+02  0.45594000000E+02  0.51100000000E-03 0.  1.
         23    2    1    2    0    0  0.35527136788E-14  0.00000000000E+00  0.88817841970E-15  0.91188000000E+02  0.91188000000E+02 0.  0.
    9900012    2    3    3    0    0  0.27618556311E+02 -0.33185902638E+02  0.44197994699E+01  0.47787269431E+02  0.19999992642E+02 0.  0.
        -12    1    3    3    0    0 -0.27618556311E+02  0.33185902638E+02 -0.44197994699E+01  0.43400730569E+02  0.00000000000E+00 0.  1.
         11    1    4    4    0    0  0.49599466354E+01 -0.91401226072E+01 -0.13106907306E+00  0.10400004388E+02  0.51100000000E-03 0. -1.
        -11    1    4    4    0    0  0.17863377800E+02 -0.24976136313E+02  0.75944380828E+01  0.31631995537E+02  0.51100000000E-03 0.  1.
        -12    1    4    4    0    0  0.47952318750E+01  0.93035628235E+00 -0.30435695399E+01  0.57552695064E+01  0.00000000000E+00 0.  1.
</event>
<event>
 8    1  0.6046524E-010  0.9118800E+02  0.7816164E-02  0.1184000E+00
        -11   -1    0    0    0    0  0.00000000000E+00  0.00000000000E+00  0.45593999997E+02  0.45594000000E+02  0.51100000000E-03 0. -1.
         11   -1    0    0    0    0 -0.00000000000E+00 -0.00000000000E+00 -0.45593999997E+02  0.45594000000E+02  0.51100000000E-03 0.  1.
         23    2    1    2    0    0  0.17763568394E-14  0.00000000000E+00  0.00000000000E+00  0.91188000000E+02  0.91188000000E+02 0.  0.
    9900012    2    3    3    0    0  0.13016913883E+02 -0.40223866071E+02  0.98093669776E+01  0.47787272711E+02  0.20000007598E+02 0.  0.
        -12    1    3    3    0    0 -0.13016913883E+02  0.40223866071E+02 -0.98093669776E+01  0.43400727289E+02  0.00000000000E+00 0.  1.
         11    1    4    4    0    0  0.57235797938E+01 -0.60782211189E+01  0.20660628219E+01  0.86007414490E+01  0.51100000000E-03 0. -1.
        -11    1    4    4    0    0  0.41410862346E+01 -0.34437259812E+02  0.89120267034E+01  0.35811976750E+02  0.51100000000E-03 0.  1.
        -12    1    4    4    0    0  0.31522478541E+01  0.29161485953E+00 -0.11687225476E+01  0.33745545118E+01  0.00000000000E+00 0.  1.
</event>
<event>
 8    1  0.6046524E-010  0.9118800E+02  0.7816164E-02  0.1184000E+00
        -11   -1    0    0    0    0  0.00000000000E+00  0.00000000000E+00  0.45593999997E+02  0.45594000000E+02  0.51100000000E-03 0.  1.
         11   -1    0    0    0    0 -0.00000000000E+00 -0.00000000000E+00 -0.45593999997E+02  0.45594000000E+02  0.51100000000E-03 0. -1.
         23    2    1    2    0    0  0.00000000000E+00  0.71054273576E-14  0.00000000000E+00  0.91188000000E+02  0.91188000000E+02 0.  0.
    9900012    2    3    3    0    0 -0.26935593679E+02  0.31962668039E+02  0.11682671902E+02  0.47787272151E+02  0.20000005047E+02 0.  0.
        -12    1    3    3    0    0  0.26935593679E+02 -0.31962668039E+02 -0.11682671902E+02  0.43400727849E+02  0.00000000000E+00 0.  1.
         11    1    4    4    0    0 -0.11975765400E+02  0.13431580514E+02 -0.25908024944E+01  0.18180719728E+02  0.51100000000E-03 0. -1.
        -11    1    4    4    0    0 -0.88645426598E+01  0.17237981417E+02  0.86998803072E+01  0.21246553544E+02  0.51100000000E-03 0.  1.
        -12    1    4    4    0    0 -0.60952856192E+01  0.12931061090E+01  0.55735940890E+01  0.83599988790E+01  0.00000000000E+00 0.  1.
</event>
<event>
 8    1  0.6496705E-010  0.9118800E+02  0.7816164E-02  0.1184000E+00
        -11   -1    0    0    0    0  0.00000000000E+00  0.00000000000E+00  0.45593999997E+02  0.45594000000E+02  0.51100000000E-03 0. -1.
         11   -1    0    0    0    0 -0.00000000000E+00 -0.00000000000E+00 -0.45593999997E+02  0.45594000000E+02  0.51100000000E-03 0.  1.
         23    2    1    2    0    0  0.00000000000E+00  0.00000000000E+00  0.35527136788E-14  0.91188000000E+02  0.91188000000E+02 0.  0.
    9900012    2    3    3    0    0 -0.35519698703E+02  0.11792311791E+02 -0.21975342428E+02  0.47787270879E+02  0.19999999248E+02 0.  0.
         12    1    3    3    0    0  0.35519698703E+02 -0.11792311791E+02  0.21975342428E+02  0.43400729121E+02  0.00000000000E+00 0. -1.
         11    1    4    4    0    0 -0.47796982322E+01  0.84709244657E+01 -0.53806911053E+01  0.11115480805E+02  0.51100000000E-03 0. -1.
        -11    1    4    4    0    0 -0.25684557939E+02  0.67952639592E+01 -0.13508635484E+02  0.29805290834E+02  0.51100000000E-03 0.  1.
         12    1    4    4    0    0 -0.50554425321E+01 -0.34738766336E+01 -0.30860158391E+01  0.68664992405E+01  0.00000000000E+00 0. -1.
</event>
<event>
 8    1  0.6046524E-010  0.9118800E+02  0.7816164E-02  0.1184000E+00
        -11   -1    0    0    0    0  0.00000000000E+00  0.00000000000E+00  0.45593999997E+02  0.45594000000E+02  0.51100000000E-03 0. -1.
         11   -1    0    0    0    0 -0.00000000000E+00 -0.00000000000E+00 -0.45593999997E+02  0.45594000000E+02  0.51100000000E-03 0.  1.
         23    2    1    2    0    0 -0.35527136788E-14 -0.44408920985E-15  0.71054273576E-14  0.91188000000E+02  0.91188000000E+02 0.  0.
    9900012    2    3    3    0    0  0.24261990261E+02  0.31123997164E+01 -0.35851036695E+02  0.47787216187E+02  0.19999749883E+02 0.  0.
         12    1    3    3    0    0 -0.24261990261E+02 -0.31123997164E+01  0.35851036695E+02  0.43400783813E+02  0.00000000000E+00 0. -1.
         11    1    4    4    0    0 -0.96273013164E+00  0.45049087139E+01 -0.10607884479E+01  0.47271898861E+01  0.51100000000E-03 0. -1.
        -11    1    4    4    0    0  0.99183499368E+01 -0.12349002980E+00 -0.15500703363E+02  0.18402736760E+02  0.51100000000E-03 0.  1.
         12    1    4    4    0    0  0.15306370456E+02 -0.12690189677E+01 -0.19289544885E+02  0.24657289542E+02  0.00000000000E+00 0. -1.
</event>
<event>
 8    1  0.6046524E-010  0.9118800E+02  0.7816164E-02  0.1184000E+00
        -11   -1    0    0    0    0  0.00000000000E+00  0.00000000000E+00  0.45593999997E+02  0.45594000000E+02  0.51100000000E-03 0. -1.
         11   -1    0    0    0    0 -0.00000000000E+00 -0.00000000000E+00 -0.45593999997E+02  0.45594000000E+02  0.51100000000E-03 0.  1.
         23    2    1    2    0    0 -0.44408920985E-15 -0.35527136788E-14  0.00000000000E+00  0.91188000000E+02  0.91188000000E+02 0.  0.
    9900012    2    3    3    0    0 -0.23052102875E+01  0.16347462753E+02  0.40138132567E+02  0.47787271678E+02  0.20000002888E+02 0.  0.
        -12    1    3    3    0    0  0.23052102875E+01 -0.16347462753E+02 -0.40138132567E+02  0.43400728322E+02  0.00000000000E+00 0.  1.
         11    1    4    4    0    0 -0.53192136762E+01  0.11303739731E+02  0.10229099216E+02  0.16146301034E+02  0.51100000000E-03 0. -1.
        -11    1    4    4    0    0  0.55302881938E+01  0.37157146304E+01  0.14315651707E+02  0.15790139543E+02  0.51100000000E-03 0.  1.
        -12    1    4    4    0    0 -0.25162848051E+01  0.13280083915E+01  0.15593381644E+02  0.15850831101E+02  0.00000000000E+00 0.  1.
</event>
<event>
 8    1  0.6046524E-010  0.9118800E+02  0.7816164E-02  0.1184000E+00
        -11   -1    0    0    0    0  0.00000000000E+00  0.00000000000E+00  0.45593999997E+02  0.45594000000E+02  0.51100000000E-03 0. -1.
         11   -1    0    0    0    0 -0.00000000000E+00 -0.00000000000E+00 -0.45593999997E+02  0.45594000000E+02  0.51100000000E-03 0.  1.
         23    2    1    2    0    0  0.00000000000E+00  0.00000000000E+00  0.00000000000E+00  0.91188000000E+02  0.91188000000E+02 0.  0.
    9900012    2    3    3    0    0  0.17965820689E+02 -0.24616415629E+02  0.30901206970E+02  0.47787271623E+02  0.20000002638E+02 0.  0.
        -12    1    3    3    0    0 -0.17965820689E+02  0.24616415629E+02 -0.30901206970E+02  0.43400728377E+02  0.00000000000E+00 0.  1.
         11    1    4    4    0    0  0.14022339444E+02 -0.98925779447E+01  0.15282675274E+02  0.22979322568E+02  0.51100000000E-03 0. -1.
        -11    1    4    4    0    0 -0.38782710169E+00  0.67915612894E+00  0.61837924980E+01  0.62330532508E+01  0.51100000000E-03 0.  1.
        -12    1    4    4    0    0  0.43313083463E+01 -0.15402993813E+02  0.94347391981E+01  0.18574895804E+02  0.00000000000E+00 0.  1.
</event>
<event>
 8    1  0.6046524E-010  0.9118800E+02  0.7816164E-02  0.1184000E+00
        -11   -1    0    0    0    0  0.00000000000E+00  0.00000000000E+00  0.45593999997E+02  0.45594000000E+02  0.51100000000E-03 0.  1.
         11   -1    0    0    0    0 -0.00000000000E+00 -0.00000000000E+00 -0.45593999997E+02  0.45594000000E+02  0.51100000000E-03 0. -1.
         23    2    1    2    0    0  0.00000000000E+00 -0.35527136788E-14  0.11102230246E-14  0.91188000000E+02  0.91188000000E+02 0.  0.
    9900012    2    3    3    0    0  0.34886268680E+02 -0.25811531690E+02 -0.58001352597E+00  0.47787270441E+02  0.19999997247E+02 0.  0.
        -12    1    3    3    0    0 -0.34886268680E+02  0.25811531690E+02  0.58001352597E+00  0.43400729559E+02  0.00000000000E+00 0.  1.
         11    1    4    4    0    0  0.21771631608E+02 -0.18565404988E+02  0.59532055217E+01  0.29225312000E+02  0.51100000000E-03 0. -1.
        -11    1    4    4    0    0  0.77091309792E+01 -0.71163018785E+01 -0.56224749587E+00  0.10506596756E+02  0.51100000000E-03 0.  1.
        -12    1    4    4    0    0  0.54055060925E+01 -0.12982482360E+00 -0.59709715518E+01  0.80553616848E+01  0.00000000000E+00 0.  1.
</event>
<event>
 8    1  0.6046524E-010  0.9118800E+02  0.7816164E-02  0.1184000E+00
        -11   -1    0    0    0    0  0.00000000000E+00  0.00000000000E+00  0.45593999997E+02  0.45594000000E+02  0.51100000000E-03 0. -1.
         11   -1    0    0    0    0 -0.00000000000E+00 -0.00000000000E+00 -0.45593999997E+02  0.45594000000E+02  0.51100000000E-03 0.  1.
         23    2    1    2    0    0  0.00000000000E+00  0.00000000000E+00  0.00000000000E+00  0.91188000000E+02  0.91188000000E+02 0.  0.
    9900012    2    3    3    0    0 -0.32778759442E+02 -0.22344982683E+02  0.17603367539E+02  0.47787264173E+02  0.19999968669E+02 0.  0.
        -12    1    3    3    0    0  0.32778759442E+02  0.22344982683E+02 -0.17603367539E+02  0.43400735827E+02  0.00000000000E+00 0.  1.
         11    1    4    4    0    0  0.23877952361E+01 -0.18281943810E+01  0.18406818405E+01  0.35258999821E+01  0.51100000000E-03 0. -1.
        -11    1    4    4    0    0 -0.17756350024E+02 -0.90328094665E+01  0.40100868566E+01  0.20321427359E+02  0.51100000000E-03 0.  1.
        -12    1    4    4    0    0 -0.17410204653E+02 -0.11483978835E+02  0.11752598842E+02  0.23939936832E+02  0.00000000000E+00 0.  1.
</event>
<event>
 8    1  0.6046524E-010  0.9118800E+02  0.7816164E-02  0.1184000E+00
        -11   -1    0    0    0    0  0.00000000000E+00  0.00000000000E+00  0.45593999997E+02  0.45594000000E+02  0.51100000000E-03 0. -1.
         11   -1    0    0    0    0 -0.00000000000E+00 -0.00000000000E+00 -0.45593999997E+02  0.45594000000E+02  0.51100000000E-03 0.  1.
         23    2    1    2    0    0  0.00000000000E+00  0.71054273576E-14 -0.35527136788E-14  0.91188000000E+02  0.91188000000E+02 0.  0.
    9900012    2    3    3    0    0  0.97789334720E+00  0.34649345486E+02 -0.26116847589E+02  0.47787272518E+02  0.20000006717E+02 0.  0.
         12    1    3    3    0    0 -0.97789334720E+00 -0.34649345486E+02  0.26116847589E+02  0.43400727482E+02  0.00000000000E+00 0. -1.
         11    1    4    4    0    0  0.85700879815E+00  0.64052170165E+00 -0.95097197587E+01  0.95697179833E+01  0.51100000000E-03 0. -1.
        -11    1    4    4    0    0 -0.55535595142E+00  0.19238917948E+02 -0.12206060589E+02  0.22791057444E+02  0.51100000000E-03 0.  1.
         12    1    4    4    0    0  0.67624050047E+00  0.14769905836E+02 -0.44010672414E+01  0.15426497090E+02  0.00000000000E+00 0. -1.
</event>
<event>
 8    1  0.6046524E-010  0.9118800E+02  0.7816164E-02  0.1184000E+00
        -11   -1    0    0    0    0  0.00000000000E+00  0.00000000000E+00  0.45593999997E+02  0.45594000000E+02  0.51100000000E-03 0. -1.
         11   -1    0    0    0    0 -0.00000000000E+00 -0.00000000000E+00 -0.45593999997E+02  0.45594000000E+02  0.51100000000E-03 0.  1.
         23    2    1    2    0    0  0.00000000000E+00  0.00000000000E+00  0.00000000000E+00  0.91188000000E+02  0.91188000000E+02 0.  0.
    9900012    2    3    3    0    0  0.81926288937E+01 -0.16170355216E+02  0.39433788378E+02  0.47787271644E+02  0.20000002732E+02 0.  0.
        -12    1    3    3    0    0 -0.81926288937E+01  0.16170355216E+02 -0.39433788378E+02  0.43400728356E+02  0.00000000000E+00 0.  1.
         11    1    4    4    0    0 -0.62469887633E+00 -0.97103564378E+01  0.25638435964E+02  0.27422812944E+02  0.51100000000E-03 0. -1.
        -11    1    4    4    0    0  0.85567908087E+00  0.26539146469E+01  0.17630032534E+01  0.32990347642E+01  0.51100000000E-03 0.  1.
        -12    1    4    4    0    0  0.79616486891E+01 -0.91139134247E+01  0.12032349161E+02  0.17065423936E+02  0.00000000000E+00 0.  1.
</event>
<event>
 8    1  0.6046524E-010  0.9118800E+02  0.7816164E-02  0.1184000E+00
        -11   -1    0    0    0    0  0.00000000000E+00  0.00000000000E+00  0.45593999997E+02  0.45594000000E+02  0.51100000000E-03 0. -1.
         11   -1    0    0    0    0 -0.00000000000E+00 -0.00000000000E+00 -0.45593999997E+02  0.45594000000E+02  0.51100000000E-03 0.  1.
         23    2    1    2    0    0  0.00000000000E+00 -0.69388939039E-15 -0.71054273576E-14  0.91188000000E+02  0.91188000000E+02 0.  0.
    9900012    2    3    3    0    0 -0.29229833274E+02 -0.24262468691E+00  0.32080855972E+02  0.47787270284E+02  0.19999996533E+02 0.  0.
        -12    1    3    3    0    0  0.29229833274E+02  0.24262468691E+00 -0.32080855972E+02  0.43400729716E+02  0.00000000000E+00 0.  1.
         11    1    4    4    0    0 -0.86348657170E+01 -0.16838570956E+01  0.15151438315E+02  0.17520341433E+02  0.51100000000E-03 0. -1.
        -11    1    4    4    0    0 -0.80940613343E+01 -0.60556605024E+01  0.96440910053E+01  0.13971161175E+02  0.51100000000E-03 0.  1.
        -12    1    4    4    0    0 -0.12500906223E+02  0.74968929111E+01  0.72853266522E+01  0.16295767676E+02  0.00000000000E+00 0.  1.
</event>
<event>
 8    1  0.6046524E-010  0.9118800E+02  0.7816164E-02  0.1184000E+00
        -11   -1    0    0    0    0  0.00000000000E+00  0.00000000000E+00  0.45593999997E+02  0.45594000000E+02  0.51100000000E-03 0.  1.
         11   -1    0    0    0    0 -0.00000000000E+00 -0.00000000000E+00 -0.45593999997E+02  0.45594000000E+02  0.51100000000E-03 0. -1.
         23    2    1    2    0    0  0.00000000000E+00  0.00000000000E+00  0.00000000000E+00  0.91188000000E+02  0.91188000000E+02 0.  0.
    9900012    2    3    3    0    0 -0.37418594451E+02  0.92255121801E+01  0.19959009839E+02  0.47787270059E+02  0.19999995507E+02 0.  0.
        -12    1    3    3    0    0  0.37418594451E+02 -0.92255121801E+01 -0.19959009839E+02  0.43400729941E+02  0.00000000000E+00 0.  1.
         11    1    4    4    0    0 -0.33001181340E+01  0.28380804202E+01  0.66346810958E+01  0.79350156694E+01  0.51100000000E-03 0. -1.
        -11    1    4    4    0    0 -0.18702420781E+02 -0.35533155290E+01  0.48439135432E+01  0.19643576380E+02  0.51100000000E-03 0.  1.
         12    1    4    4    0    0 -0.15416055536E+02  0.99407472888E+01  0.84804151998E+01  0.20208678010E+02  0.00000000000E+00 0. -1.
</event>
<event>
 8    1  0.6046524E-010  0.9118800E+02  0.7816164E-02  0.1184000E+00
        -11   -1    0    0    0    0  0.00000000000E+00  0.00000000000E+00  0.45593999997E+02  0.45594000000E+02  0.51100000000E-03 0. -1.
         11   -1    0    0    0    0 -0.00000000000E+00 -0.00000000000E+00 -0.45593999997E+02  0.45594000000E+02  0.51100000000E-03 0.  1.
         23    2    1    2    0    0 -0.88817841970E-15  0.22204460493E-15  0.71054273576E-14  0.91188000000E+02  0.91188000000E+02 0.  0.
    9900012    2    3    3    0    0 -0.57758946068E+01 -0.17709611777E+01  0.42978202623E+02  0.47787272325E+02  0.20000005839E+02 0.  0.
        -12    1    3    3    0    0  0.57758946068E+01  0.17709611777E+01 -0.42978202623E+02  0.43400727675E+02  0.00000000000E+00 0.  1.
         11    1    4    4    0    0  0.10684736673E+01  0.26020617162E+01  0.18118341105E+02  0.18335393255E+02  0.51100000000E-03 0. -1.
        -11    1    4    4    0    0  0.15526321959E+01 -0.41096050713E+00 -0.10565616820E+01  0.19224666767E+01  0.51100000000E-03 0.  1.
        -12    1    4    4    0    0 -0.83970004700E+01 -0.39620623868E+01  0.25916423200E+02  0.27529412394E+02  0.00000000000E+00 0.  1.
</event>
<event>
 8    1  0.6046524E-010  0.9118800E+02  0.7816164E-02  0.1184000E+00
        -11   -1    0    0    0    0  0.00000000000E+00  0.00000000000E+00  0.45593999997E+02  0.45594000000E+02  0.51100000000E-03 0. -1.
         11   -1    0    0    0    0 -0.00000000000E+00 -0.00000000000E+00 -0.45593999997E+02  0.45594000000E+02  0.51100000000E-03 0.  1.
         23    2    1    2    0    0  0.00000000000E+00  0.14432899320E-14  0.00000000000E+00  0.91188000000E+02  0.91188000000E+02 0.  0.
    9900012    2    3    3    0    0 -0.25754089796E+02  0.98571696866E+00 -0.34919603080E+02  0.47787268918E+02  0.19999990305E+02 0.  0.
         12    1    3    3    0    0  0.25754089796E+02 -0.98571696866E+00  0.34919603080E+02  0.43400731082E+02  0.00000000000E+00 0. -1.
         11    1    4    4    0    0 -0.13407865835E+02  0.22348155674E+01 -0.24845431330E+02  0.28320676636E+02  0.51100000000E-03 0. -1.
        -11    1    4    4    0    0 -0.55687145989E+01  0.45831492500E+01 -0.21678992615E+01  0.75309778117E+01  0.51100000000E-03 0.  1.
         12    1    4    4    0    0 -0.67775093620E+01 -0.58322478488E+01 -0.79062724883E+01  0.11935614470E+02  0.00000000000E+00 0. -1.
</event>
<event>
 8    1  0.6046524E-010  0.9118800E+02  0.7816164E-02  0.1184000E+00
        -11   -1    0    0    0    0  0.00000000000E+00  0.00000000000E+00  0.45593999997E+02  0.45594000000E+02  0.51100000000E-03 0. -1.
         11   -1    0    0    0    0 -0.00000000000E+00 -0.00000000000E+00 -0.45593999997E+02  0.45594000000E+02  0.51100000000E-03 0.  1.
         23    2    1    2    0    0  0.00000000000E+00 -0.88817841970E-15 -0.71054273576E-14  0.91188000000E+02  0.91188000000E+02 0.  0.
    9900012    2    3    3    0    0 -0.28066445733E+02 -0.52801014068E+01  0.32680528352E+02  0.47787288251E+02  0.20000078452E+02 0.  0.
        -12    1    3    3    0    0  0.28066445733E+02  0.52801014068E+01 -0.32680528352E+02  0.43400711749E+02  0.00000000000E+00 0.  1.
         11    1    4    4    0    0 -0.18508062254E+02 -0.54078686026E+01  0.16988918666E+02  0.25698575231E+02  0.51100000000E-03 0. -1.
        -11    1    4    4    0    0  0.54186790299E-01 -0.47572325871E+01  0.45221290945E+01  0.65638289058E+01  0.51100000000E-03 0.  1.
        -12    1    4    4    0    0 -0.96125702690E+01  0.48849997829E+01  0.11169480592E+02  0.15524884114E+02  0.00000000000E+00 0.  1.
</event>
<event>
 8    1  0.6046524E-010  0.9118800E+02  0.7816164E-02  0.1184000E+00
        -11   -1    0    0    0    0  0.00000000000E+00  0.00000000000E+00  0.45593999997E+02  0.45594000000E+02  0.51100000000E-03 0. -1.
         11   -1    0    0    0    0 -0.00000000000E+00 -0.00000000000E+00 -0.45593999997E+02  0.45594000000E+02  0.51100000000E-03 0.  1.
         23    2    1    2    0    0  0.00000000000E+00 -0.17763568394E-14  0.00000000000E+00  0.91188000000E+02  0.91188000000E+02 0.  0.
    9900012    2    3    3    0    0 -0.81005917039E+01 -0.12106938614E+02 -0.40883072911E+02  0.47787271904E+02  0.20000003921E+02 0.  0.
         12    1    3    3    0    0  0.81005917039E+01  0.12106938614E+02  0.40883072911E+02  0.43400728096E+02  0.00000000000E+00 0. -1.
         11    1    4    4    0    0 -0.45714307131E+01  0.16284859042E+01 -0.10421834214E+01  0.49634757630E+01  0.51100000000E-03 0. -1.
        -11    1    4    4    0    0 -0.24236851422E+01 -0.27611946454E+01 -0.17822842875E+02  0.18197587036E+02  0.51100000000E-03 0.  1.
         12    1    4    4    0    0 -0.11054758486E+01 -0.10974229872E+02 -0.22018046615E+02  0.24626209105E+02  0.00000000000E+00 0. -1.
</event>
<event>
 8    1  0.6046524E-010  0.9118800E+02  0.7816164E-02  0.1184000E+00
        -11   -1    0    0    0    0  0.00000000000E+00  0.00000000000E+00  0.45593999997E+02  0.45594000000E+02  0.51100000000E-03 0. -1.
         11   -1    0    0    0    0 -0.00000000000E+00 -0.00000000000E+00 -0.45593999997E+02  0.45594000000E+02  0.51100000000E-03 0.  1.
         23    2    1    2    0    0  0.35527136788E-14  0.00000000000E+00  0.00000000000E+00  0.91188000000E+02  0.91188000000E+02 0.  0.
    9900012    2    3    3    0    0 -0.21684461790E+02  0.10491557301E+02 -0.36101719677E+02  0.47787276258E+02  0.20000023771E+02 0.  0.
         12    1    3    3    0    0  0.21684461790E+02 -0.10491557301E+02  0.36101719677E+02  0.43400723742E+02  0.00000000000E+00 0. -1.
         11    1    4    4    0    0 -0.12259126986E+02  0.38221948316E+01 -0.10527541105E+02  0.16604953772E+02  0.51100000000E-03 0. -1.
        -11    1    4    4    0    0 -0.67075175687E+00  0.87654410891E+01 -0.13777272980E+02  0.16343075489E+02  0.51100000000E-03 0.  1.
         12    1    4    4    0    0 -0.87545830470E+01 -0.20960786201E+01 -0.11796905591E+02  0.14839246997E+02  0.00000000000E+00 0. -1.
</event>
<event>
 8    1  0.6046524E-010  0.9118800E+02  0.7816164E-02  0.1184000E+00
        -11   -1    0    0    0    0  0.00000000000E+00  0.00000000000E+00  0.45593999997E+02  0.45594000000E+02  0.51100000000E-03 0. -1.
         11   -1    0    0    0    0 -0.00000000000E+00 -0.00000000000E+00 -0.45593999997E+02  0.45594000000E+02  0.51100000000E-03 0.  1.
         23    2    1    2    0    0  0.00000000000E+00 -0.17763568394E-14 -0.71054273576E-14  0.91188000000E+02  0.91188000000E+02 0.  0.
    9900012    2    3    3    0    0  0.22049282654E+02  0.12114900887E+02 -0.35364974036E+02  0.47787273306E+02  0.20000010310E+02 0.  0.
         12    1    3    3    0    0 -0.22049282654E+02 -0.12114900887E+02  0.35364974036E+02  0.43400726694E+02  0.00000000000E+00 0. -1.
         11    1    4    4    0    0  0.58692885440E+01  0.70159246988E+01 -0.21816318258E+02  0.23656362569E+02  0.51100000000E-03 0. -1.
        -11    1    4    4    0    0  0.11035391722E+02  0.83739276382E+01 -0.98602843480E+01  0.17003756710E+02  0.51100000000E-03 0.  1.
         12    1    4    4    0    0  0.51446023873E+01 -0.32749514501E+01 -0.36883714295E+01  0.71271540271E+01  0.00000000000E+00 0. -1.
</event>
<event>
 8    1  0.6046524E-010  0.9118800E+02  0.7816164E-02  0.1184000E+00
        -11   -1    0    0    0    0  0.00000000000E+00  0.00000000000E+00  0.45593999997E+02  0.45594000000E+02  0.51100000000E-03 0. -1.
         11   -1    0    0    0    0 -0.00000000000E+00 -0.00000000000E+00 -0.45593999997E+02  0.45594000000E+02  0.51100000000E-03 0.  1.
         23    2    1    2    0    0 -0.44408920985E-15  0.00000000000E+00  0.00000000000E+00  0.91188000000E+02  0.91188000000E+02 0.  0.
    9900012    2    3    3    0    0 -0.12040805237E+01  0.96659342752E+01  0.42293537605E+02  0.47787269379E+02  0.19999992405E+02 0.  0.
        -12    1    3    3    0    0  0.12040805237E+01 -0.96659342752E+01 -0.42293537605E+02  0.43400730621E+02  0.00000000000E+00 0.  1.
         11    1    4    4    0    0  0.74734126251E+01 -0.76275274537E+00  0.10862178372E+02  0.13206839412E+02  0.51100000000E-03 0. -1.
        -11    1    4    4    0    0 -0.20161568295E+01  0.61876630158E+01  0.14940367636E+02  0.16296215736E+02  0.51100000000E-03 0.  1.
         12    1    4    4    0    0 -0.66613363193E+01  0.42410240048E+01  0.16490991597E+02  0.18284214230E+02  0.00000000000E+00 0. -1.
</event>
<event>
 8    1  0.6046524E-010  0.9118800E+02  0.7816164E-02  0.1184000E+00
        -11   -1    0    0    0    0  0.00000000000E+00  0.00000000000E+00  0.45593999997E+02  0.45594000000E+02  0.51100000000E-03 0. -1.
         11   -1    0    0    0    0 -0.00000000000E+00 -0.00000000000E+00 -0.45593999997E+02  0.45594000000E+02  0.51100000000E-03 0.  1.
         23    2    1    2    0    0 -0.17763568394E-14 -0.44408920985E-15  0.00000000000E+00  0.91188000000E+02  0.91188000000E+02 0.  0.
    9900012    2    3    3    0    0  0.77240375652E+01 -0.16539588991E+01  0.42675834663E+02  0.47787271889E+02  0.20000003851E+02 0.  0.
        -12    1    3    3    0    0 -0.77240375652E+01  0.16539588991E+01 -0.42675834663E+02  0.43400728111E+02  0.00000000000E+00 0.  1.
         11    1    4    4    0    0  0.47164864734E+01  0.61182195305E+01  0.19848753094E+02  0.21299081072E+02  0.51100000000E-03 0. -1.
        -11    1    4    4    0    0  0.37148741842E+01 -0.37141392820E+01  0.26288064215E+01  0.58741590269E+01  0.51100000000E-03 0.  1.
        -12    1    4    4    0    0 -0.70732309244E+00 -0.40580391476E+01  0.20198275148E+02  0.20614031790E+02  0.00000000000E+00 0.  1.
</event>
<event>
 8    1  0.6046524E-010  0.9118800E+02  0.7816164E-02  0.1184000E+00
        -11   -1    0    0    0    0  0.00000000000E+00  0.00000000000E+00  0.45593999997E+02  0.45594000000E+02  0.51100000000E-03 0. -1.
         11   -1    0    0    0    0 -0.00000000000E+00 -0.00000000000E+00 -0.45593999997E+02  0.45594000000E+02  0.51100000000E-03 0.  1.
         23    2    1    2    0    0  0.00000000000E+00 -0.35527136788E-14  0.00000000000E+00  0.91188000000E+02  0.91188000000E+02 0.  0.
    9900012    2    3    3    0    0 -0.19516831630E+02 -0.28082144717E+02  0.26722830307E+02  0.47787271568E+02  0.20000002389E+02 0.  0.
        -12    1    3    3    0    0  0.19516831630E+02  0.28082144717E+02 -0.26722830307E+02  0.43400728432E+02  0.00000000000E+00 0.  1.
         11    1    4    4    0    0 -0.18828949407E+01 -0.34818933209E+01  0.54817244824E+00  0.39961691343E+01  0.51100000000E-03 0. -1.
        -11    1    4    4    0    0 -0.11258868223E+02 -0.45892202834E+01  0.30142788753E+01  0.12526329625E+02  0.51100000000E-03 0.  1.
         12    1    4    4    0    0 -0.63750684658E+01 -0.20011031113E+02  0.23160378983E+02  0.31264772809E+02  0.00000000000E+00 0. -1.
</event>
<event>
 8    1  0.6046524E-010  0.9118800E+02  0.7816164E-02  0.1184000E+00
        -11   -1    0    0    0    0  0.00000000000E+00  0.00000000000E+00  0.45593999997E+02  0.45594000000E+02  0.51100000000E-03 0.  1.
         11   -1    0    0    0    0 -0.00000000000E+00 -0.00000000000E+00 -0.45593999997E+02  0.45594000000E+02  0.51100000000E-03 0. -1.
         23    2    1    2    0    0 -0.71054273576E-14  0.00000000000E+00  0.00000000000E+00  0.91188000000E+02  0.91188000000E+02 0.  0.
    9900012    2    3    3    0    0  0.41031295920E+02  0.13334667864E+02  0.47162069049E+01  0.47787271671E+02  0.20000002855E+02 0.  0.
         12    1    3    3    0    0 -0.41031295920E+02 -0.13334667864E+02 -0.47162069049E+01  0.43400728329E+02  0.00000000000E+00 0. -1.
         11    1    4    4    0    0  0.91495046166E+01 -0.73667520945E+00  0.44402756421E+01  0.10196674611E+02  0.51100000000E-03 0. -1.
        -11    1    4    4    0    0  0.32580621696E+02  0.11651944006E+02  0.17977529764E+01  0.34648183578E+02  0.51100000000E-03 0.  1.
         12    1    4    4    0    0 -0.69883039241E+00  0.24193990678E+01 -0.15218217137E+01  0.29424134813E+01  0.00000000000E+00 0. -1.
</event>
<event>
 8    1  0.6046524E-010  0.9118800E+02  0.7816164E-02  0.1184000E+00
        -11   -1    0    0    0    0  0.00000000000E+00  0.00000000000E+00  0.45593999997E+02  0.45594000000E+02  0.51100000000E-03 0. -1.
         11   -1    0    0    0    0 -0.00000000000E+00 -0.00000000000E+00 -0.45593999997E+02  0.45594000000E+02  0.51100000000E-03 0.  1.
         23    2    1    2    0    0 -0.17763568394E-14  0.00000000000E+00  0.00000000000E+00  0.91188000000E+02  0.91188000000E+02 0.  0.
    9900012    2    3    3    0    0  0.55333030988E+01 -0.14135083166E+02  0.40659630550E+02  0.47787267567E+02  0.19999984143E+02 0.  0.
        -12    1    3    3    0    0 -0.55333030988E+01  0.14135083166E+02 -0.40659630550E+02  0.43400732433E+02  0.00000000000E+00 0.  1.
         11    1    4    4    0    0  0.90366589595E+01 -0.16326358842E+02  0.33953380544E+02  0.38743299406E+02  0.51100000000E-03 0. -1.
        -11    1    4    4    0    0 -0.17223190707E+01 -0.78170708256E+00  0.53406709050E+00  0.19653693960E+01  0.51100000000E-03 0.  1.
         12    1    4    4    0    0 -0.17810367899E+01  0.29729827592E+01  0.61721829153E+01  0.70785987649E+01  0.00000000000E+00 0. -1.
</event>
<event>
 8    1  0.6046524E-010  0.9118800E+02  0.7816164E-02  0.1184000E+00
        -11   -1    0    0    0    0  0.00000000000E+00  0.00000000000E+00  0.45593999997E+02  0.45594000000E+02  0.51100000000E-03 0. -1.
         11   -1    0    0    0    0 -0.00000000000E+00 -0.00000000000E+00 -0.45593999997E+02  0.45594000000E+02  0.51100000000E-03 0.  1.
         23    2    1    2    0    0  0.00000000000E+00  0.00000000000E+00  0.00000000000E+00  0.91188000000E+02  0.91188000000E+02 0.  0.
    9900012    2    3    3    0    0 -0.22369928539E+02 -0.18228187039E+02 -0.32418253219E+02  0.47787266742E+02  0.19999980383E+02 0.  0.
         12    1    3    3    0    0  0.22369928539E+02  0.18228187039E+02  0.32418253219E+02  0.43400733258E+02  0.00000000000E+00 0. -1.
         11    1    4    4    0    0 -0.39240776412E+01 -0.94108555951E+01 -0.15167406202E+02  0.18276017059E+02  0.51100000000E-03 0. -1.
        -11    1    4    4    0    0 -0.14910358066E+02 -0.11450727377E+02 -0.10749445249E+02  0.21656142513E+02  0.51100000000E-03 0.  1.
        -12    1    4    4    0    0 -0.35354928321E+01  0.26333959336E+01 -0.65014017678E+01  0.78551071702E+01  0.00000000000E+00 0.  1.
</event>
<event>
 8    1  0.6046524E-010  0.9118800E+02  0.7816164E-02  0.1184000E+00
        -11   -1    0    0    0    0  0.00000000000E+00  0.00000000000E+00  0.45593999997E+02  0.45594000000E+02  0.51100000000E-03 0. -1.
         11   -1    0    0    0    0 -0.00000000000E+00 -0.00000000000E+00 -0.45593999997E+02  0.45594000000E+02  0.51100000000E-03 0.  1.
         23    2    1    2    0    0  0.00000000000E+00  0.71054273576E-14  0.00000000000E+00  0.91188000000E+02  0.91188000000E+02 0.  0.
    9900012    2    3    3    0    0  0.18489029895E+02 -0.35831222963E+02 -0.16059332781E+02  0.47787274950E+02  0.20000017807E+02 0.  0.
         12    1    3    3    0    0 -0.18489029895E+02  0.35831222963E+02  0.16059332781E+02  0.43400725050E+02  0.00000000000E+00 0. -1.
         11    1    4    4    0    0  0.30557824358E+01 -0.39090847128E+01  0.16599470824E+01  0.52320334636E+01  0.51100000000E-03 0. -1.
        -11    1    4    4    0    0  0.88767877615E+01 -0.30035258156E+02 -0.17153286780E+02  0.35709233275E+02  0.51100000000E-03 0.  1.
         12    1    4    4    0    0  0.65564596981E+01 -0.18868800947E+01 -0.56599308318E+00  0.68460082117E+01  0.00000000000E+00 0. -1.
</event>
<event>
 8    1  0.6046524E-010  0.9118800E+02  0.7816164E-02  0.1184000E+00
        -11   -1    0    0    0    0  0.00000000000E+00  0.00000000000E+00  0.45593999997E+02  0.45594000000E+02  0.51100000000E-03 0. -1.
         11   -1    0    0    0    0 -0.00000000000E+00 -0.00000000000E+00 -0.45593999997E+02  0.45594000000E+02  0.51100000000E-03 0.  1.
         23    2    1    2    0    0  0.44408920985E-15  0.00000000000E+00  0.00000000000E+00  0.91188000000E+02  0.91188000000E+02 0.  0.
    9900012    2    3    3    0    0  0.21709518967E+01 -0.37135305701E+02 -0.22357986194E+02  0.47787268343E+02  0.19999987685E+02 0.  0.
         12    1    3    3    0    0 -0.21709518967E+01  0.37135305701E+02  0.22357986194E+02  0.43400731657E+02  0.00000000000E+00 0. -1.
         11    1    4    4    0    0  0.47778803207E+01 -0.78843022125E+01  0.87939754274E+00  0.92608693996E+01  0.51100000000E-03 0. -1.
        -11    1    4    4    0    0 -0.26263628650E+01 -0.20459319926E+01 -0.12836734952E+01  0.35681140005E+01  0.51100000000E-03 0.  1.
        -12    1    4    4    0    0  0.19434441033E-01 -0.27205071496E+02 -0.21953710241E+02  0.34958284943E+02  0.00000000000E+00 0.  1.
</event>
<event>
 8    1  0.6046524E-010  0.9118800E+02  0.7816164E-02  0.1184000E+00
        -11   -1    0    0    0    0  0.00000000000E+00  0.00000000000E+00  0.45593999997E+02  0.45594000000E+02  0.51100000000E-03 0. -1.
         11   -1    0    0    0    0 -0.00000000000E+00 -0.00000000000E+00 -0.45593999997E+02  0.45594000000E+02  0.51100000000E-03 0.  1.
         23    2    1    2    0    0  0.35527136788E-14 -0.17763568394E-14  0.00000000000E+00  0.91188000000E+02  0.91188000000E+02 0.  0.
    9900012    2    3    3    0    0  0.24712143852E+02 -0.70688870342E+01 -0.34970910074E+02  0.47787265339E+02  0.19999973987E+02 0.  0.
         12    1    3    3    0    0 -0.24712143852E+02  0.70688870342E+01  0.34970910074E+02  0.43400734661E+02  0.00000000000E+00 0. -1.
         11    1    4    4    0    0  0.22515476529E+01 -0.75711928593E+01 -0.41098667412E+01  0.89041244959E+01  0.51100000000E-03 0. -1.
        -11    1    4    4    0    0  0.14575913300E+02 -0.25515809778E+01 -0.16065119440E+02  0.21841608844E+02  0.51100000000E-03 0.  1.
        -12    1    4    4    0    0  0.78846828993E+01  0.30538868029E+01 -0.14795923893E+02  0.17041531999E+02  0.00000000000E+00 0.  1.
</event>
<event>
 8    1  0.6046524E-010  0.9118800E+02  0.7816164E-02  0.1184000E+00
        -11   -1    0    0    0    0  0.00000000000E+00  0.00000000000E+00  0.45593999997E+02  0.45594000000E+02  0.51100000000E-03 0. -1.
         11   -1    0    0    0    0 -0.00000000000E+00 -0.00000000000E+00 -0.45593999997E+02  0.45594000000E+02  0.51100000000E-03 0.  1.
         23    2    1    2    0    0  0.00000000000E+00  0.00000000000E+00  0.00000000000E+00  0.91188000000E+02  0.91188000000E+02 0.  0.
    9900012    2    3    3    0    0 -0.17523459967E+02  0.21597303176E+02 -0.33318286453E+02  0.47787269985E+02  0.19999995170E+02 0.  0.
         12    1    3    3    0    0  0.17523459967E+02 -0.21597303176E+02  0.33318286453E+02  0.43400730015E+02  0.00000000000E+00 0. -1.
         11    1    4    4    0    0  0.48820664682E+00  0.75473295311E+00  0.20294342742E+01  0.22195880912E+01  0.51100000000E-03 0. -1.
        -11    1    4    4    0    0 -0.28720081578E+01  0.60053253606E+01 -0.13901893109E+02  0.15413468001E+02  0.51100000000E-03 0.  1.
        -12    1    4    4    0    0 -0.15139658456E+02  0.14837244862E+02 -0.21445827618E+02  0.30154213893E+02  0.00000000000E+00 0.  1.
</event>
<event>
 8    1  0.6046524E-010  0.9118800E+02  0.7816164E-02  0.1184000E+00
        -11   -1    0    0    0    0  0.00000000000E+00  0.00000000000E+00  0.45593999997E+02  0.45594000000E+02  0.51100000000E-03 0. -1.
         11   -1    0    0    0    0 -0.00000000000E+00 -0.00000000000E+00 -0.45593999997E+02  0.45594000000E+02  0.51100000000E-03 0.  1.
         23    2    1    2    0    0  0.71054273576E-14  0.00000000000E+00  0.00000000000E+00  0.91188000000E+02  0.91188000000E+02 0.  0.
    9900012    2    3    3    0    0 -0.42209563407E+02  0.52035306736E+01 -0.86544473478E+01  0.47787269207E+02  0.19999991624E+02 0.  0.
         12    1    3    3    0    0  0.42209563407E+02 -0.52035306736E+01  0.86544473478E+01  0.43400730793E+02  0.00000000000E+00 0. -1.
         11    1    4    4    0    0 -0.35656249772E+02 -0.14442706953E+01 -0.10670354549E+02  0.37246617728E+02  0.51100000000E-03 0.  1.
        -11    1    4    4    0    0 -0.38119310595E+01  0.14790644960E+01  0.22845460486E+01  0.46837592909E+01  0.51100000000E-03 0. -1.
        -12    1    4    4    0    0 -0.27413825746E+01  0.51687368729E+01 -0.26863884691E+00  0.58568921889E+01  0.00000000000E+00 0.  1.
</event>
<event>
 8    1  0.6046524E-010  0.9118800E+02  0.7816164E-02  0.1184000E+00
        -11   -1    0    0    0    0  0.00000000000E+00  0.00000000000E+00  0.45593999997E+02  0.45594000000E+02  0.51100000000E-03 0. -1.
         11   -1    0    0    0    0 -0.00000000000E+00 -0.00000000000E+00 -0.45593999997E+02  0.45594000000E+02  0.51100000000E-03 0.  1.
         23    2    1    2    0    0 -0.35527136788E-14  0.44408920985E-15  0.00000000000E+00  0.91188000000E+02  0.91188000000E+02 0.  0.
    9900012    2    3    3    0    0 -0.21895641694E+02  0.24578650948E+01 -0.37392023203E+02  0.47787266997E+02  0.19999981546E+02 0.  0.
         12    1    3    3    0    0  0.21895641694E+02 -0.24578650948E+01  0.37392023203E+02  0.43400733003E+02  0.00000000000E+00 0. -1.
         11    1    4    4    0    0 -0.13646158926E+02  0.78859489997E+01 -0.23321819662E+02  0.28148057085E+02  0.51100000000E-03 0. -1.
        -11    1    4    4    0    0 -0.49383020500E+01  0.18438806588E+01 -0.81025397939E+01  0.96663268305E+01  0.51100000000E-03 0.  1.
         12    1    4    4    0    0 -0.33111807176E+01 -0.72719645637E+01 -0.59676637466E+01  0.99728830813E+01  0.00000000000E+00 0. -1.
</event>
<event>
 8    1  0.6046524E-010  0.9118800E+02  0.7816164E-02  0.1184000E+00
        -11   -1    0    0    0    0  0.00000000000E+00  0.00000000000E+00  0.45593999997E+02  0.45594000000E+02  0.51100000000E-03 0. -1.
         11   -1    0    0    0    0 -0.00000000000E+00 -0.00000000000E+00 -0.45593999997E+02  0.45594000000E+02  0.51100000000E-03 0.  1.
         23    2    1    2    0    0 -0.39551695252E-15  0.17763568394E-14  0.00000000000E+00  0.91188000000E+02  0.91188000000E+02 0.  0.
    9900012    2    3    3    0    0 -0.31173519358E-01 -0.85547101950E+01  0.42549253318E+02  0.47787274243E+02  0.20000014583E+02 0.  0.
        -12    1    3    3    0    0  0.31173519358E-01  0.85547101950E+01 -0.42549253318E+02  0.43400725757E+02  0.00000000000E+00 0.  1.
         11    1    4    4    0    0  0.59514403463E+01 -0.10055344805E+02  0.29714607242E+02  0.31929414106E+02  0.51100000000E-03 0. -1.
        -11    1    4    4    0    0 -0.19495926460E+01  0.14072982746E+01  0.11281846384E+02  0.11535226830E+02  0.51100000000E-03 0.  1.
        -12    1    4    4    0    0 -0.40330212196E+01  0.93336335068E-01  0.15527996926E+01  0.43226333079E+01  0.00000000000E+00 0.  1.
</event>
<event>
 8    1  0.6046524E-010  0.9118800E+02  0.7816164E-02  0.1184000E+00
        -11   -1    0    0    0    0  0.00000000000E+00  0.00000000000E+00  0.45593999997E+02  0.45594000000E+02  0.51100000000E-03 0.  1.
         11   -1    0    0    0    0 -0.00000000000E+00 -0.00000000000E+00 -0.45593999997E+02  0.45594000000E+02  0.51100000000E-03 0. -1.
         23    2    1    2    0    0  0.00000000000E+00  0.00000000000E+00  0.00000000000E+00  0.91188000000E+02  0.91188000000E+02 0.  0.
    9900012    2    3    3    0    0  0.33682722374E+02 -0.27071662735E+02 -0.40276820718E+01  0.47787274976E+02  0.20000017926E+02 0.  0.
         12    1    3    3    0    0 -0.33682722374E+02  0.27071662735E+02  0.40276820718E+01  0.43400725024E+02  0.00000000000E+00 0. -1.
         11    1    4    4    0    0  0.40287361248E+01 -0.74036627919E+01 -0.21580955511E+01  0.87007076820E+01  0.51100000000E-03 0. -1.
        -11    1    4    4    0    0  0.26122058619E+02 -0.22109102013E+02 -0.36947620953E+01  0.34421295814E+02  0.51100000000E-03 0.  1.
         12    1    4    4    0    0  0.35319276300E+01  0.24411020707E+01  0.18251755746E+01  0.46652714799E+01  0.00000000000E+00 0. -1.
</event>
<event>
 8    1  0.6046524E-010  0.9118800E+02  0.7816164E-02  0.1184000E+00
        -11   -1    0    0    0    0  0.00000000000E+00  0.00000000000E+00  0.45593999997E+02  0.45594000000E+02  0.51100000000E-03 0. -1.
         11   -1    0    0    0    0 -0.00000000000E+00 -0.00000000000E+00 -0.45593999997E+02  0.45594000000E+02  0.51100000000E-03 0.  1.
         23    2    1    2    0    0  0.35527136788E-14  0.00000000000E+00  0.71054273576E-14  0.91188000000E+02  0.91188000000E+02 0.  0.
    9900012    2    3    3    0    0 -0.23342569605E+02 -0.11587431411E+02  0.34705603624E+02  0.47787273677E+02  0.20000012003E+02 0.  0.
        -12    1    3    3    0    0  0.23342569605E+02  0.11587431411E+02 -0.34705603624E+02  0.43400726323E+02  0.00000000000E+00 0.  1.
         11    1    4    4    0    0 -0.10032664203E+02 -0.37033819042E+01  0.18891461267E+02  0.21708447609E+02  0.51100000000E-03 0. -1.
        -11    1    4    4    0    0  0.93558545056E+00 -0.61353163195E+01  0.63962793198E+01  0.89123406507E+01  0.51100000000E-03 0.  1.
         12    1    4    4    0    0 -0.14245490853E+02 -0.17487331872E+01  0.94178630370E+01  0.17166485418E+02  0.00000000000E+00 0. -1.
</event>
<event>
 8    1  0.6046524E-010  0.9118800E+02  0.7816164E-02  0.1184000E+00
        -11   -1    0    0    0    0  0.00000000000E+00  0.00000000000E+00  0.45593999997E+02  0.45594000000E+02  0.51100000000E-03 0. -1.
         11   -1    0    0    0    0 -0.00000000000E+00 -0.00000000000E+00 -0.45593999997E+02  0.45594000000E+02  0.51100000000E-03 0.  1.
         23    2    1    2    0    0  0.00000000000E+00  0.00000000000E+00  0.00000000000E+00  0.91188000000E+02  0.91188000000E+02 0.  0.
    9900012    2    3    3    0    0 -0.12673593566E+02  0.84270500728E+01 -0.40644655763E+02  0.47787272023E+02  0.20000004461E+02 0.  0.
         12    1    3    3    0    0  0.12673593566E+02 -0.84270500728E+01  0.40644655763E+02  0.43400727977E+02  0.00000000000E+00 0. -1.
         11    1    4    4    0    0 -0.39440018445E+01  0.17858867661E+01 -0.33752747204E+02  0.34029288652E+02  0.51100000000E-03 0. -1.
        -11    1    4    4    0    0 -0.40735051504E+01  0.46324870868E+01 -0.60072883013E+01  0.86105106594E+01  0.51100000000E-03 0.  1.
         12    1    4    4    0    0 -0.46560865711E+01  0.20086762200E+01 -0.88462025823E+00  0.51474727115E+01  0.00000000000E+00 0. -1.
</event>
<event>
 8    1  0.6046524E-010  0.9118800E+02  0.7816164E-02  0.1184000E+00
        -11   -1    0    0    0    0  0.00000000000E+00  0.00000000000E+00  0.45593999997E+02  0.45594000000E+02  0.51100000000E-03 0. -1.
         11   -1    0    0    0    0 -0.00000000000E+00 -0.00000000000E+00 -0.45593999997E+02  0.45594000000E+02  0.51100000000E-03 0.  1.
         23    2    1    2    0    0 -0.35527136788E-14 -0.88817841970E-15  0.35527136788E-14  0.91188000000E+02  0.91188000000E+02 0.  0.
    9900012    2    3    3    0    0 -0.31669407570E+02 -0.79462926157E+01  0.28592446904E+02  0.47787274636E+02  0.20000016376E+02 0.  0.
        -12    1    3    3    0    0  0.31669407570E+02  0.79462926157E+01 -0.28592446904E+02  0.43400725364E+02  0.00000000000E+00 0.  1.
         11    1    4    4    0    0 -0.15069044862E+02 -0.27177981005E+01  0.11452581776E+02  0.19121301450E+02  0.51100000000E-03 0. -1.
        -11    1    4    4    0    0 -0.19155225874E+02 -0.40686437456E+01  0.12463350358E+02  0.23212316615E+02  0.51100000000E-03 0.  1.
        -12    1    4    4    0    0  0.25548631657E+01 -0.11598507696E+01  0.46765147700E+01  0.54536565713E+01  0.00000000000E+00 0.  1.
</event>
<event>
 8    1  0.6046524E-010  0.9118800E+02  0.7816164E-02  0.1184000E+00
        -11   -1    0    0    0    0  0.00000000000E+00  0.00000000000E+00  0.45593999997E+02  0.45594000000E+02  0.51100000000E-03 0. -1.
         11   -1    0    0    0    0 -0.00000000000E+00 -0.00000000000E+00 -0.45593999997E+02  0.45594000000E+02  0.51100000000E-03 0.  1.
         23    2    1    2    0    0  0.00000000000E+00  0.00000000000E+00  0.00000000000E+00  0.91188000000E+02  0.91188000000E+02 0.  0.
    9900012    2    3    3    0    0  0.38282054667E+02  0.10746983894E+02  0.17395688207E+02  0.47787270277E+02  0.19999996500E+02 0.  0.
        -12    1    3    3    0    0 -0.38282054667E+02 -0.10746983894E+02 -0.17395688207E+02  0.43400729723E+02  0.00000000000E+00 0.  1.
         11    1    4    4    0    0  0.33394341461E+01 -0.11635845745E+01  0.78389132049E+01  0.85996691782E+01  0.51100000000E-03 0. -1.
        -11    1    4    4    0    0  0.16282239863E+02  0.88219263304E+00  0.34344273100E+01  0.16663879800E+02  0.51100000000E-03 0.  1.
         12    1    4    4    0    0  0.18660380658E+02  0.11028375836E+02  0.61223476921E+01  0.22523721298E+02  0.00000000000E+00 0. -1.
</event>
<event>
 8    1  0.6046524E-010  0.9118800E+02  0.7816164E-02  0.1184000E+00
        -11   -1    0    0    0    0  0.00000000000E+00  0.00000000000E+00  0.45593999997E+02  0.45594000000E+02  0.51100000000E-03 0. -1.
         11   -1    0    0    0    0 -0.00000000000E+00 -0.00000000000E+00 -0.45593999997E+02  0.45594000000E+02  0.51100000000E-03 0.  1.
         23    2    1    2    0    0 -0.17763568394E-14 -0.17763568394E-14  0.71054273576E-14  0.91188000000E+02  0.91188000000E+02 0.  0.
    9900012    2    3    3    0    0 -0.83231333271E+01  0.83170625362E+01  0.41775292692E+02  0.47787272390E+02  0.20000006133E+02 0.  0.
        -12    1    3    3    0    0  0.83231333271E+01 -0.83170625362E+01 -0.41775292692E+02  0.43400727610E+02  0.00000000000E+00 0.  1.
         11    1    4    4    0    0 -0.66551136488E+01  0.70504861299E+00  0.78116828431E+01  0.10286399775E+02  0.51100000000E-03 0.  1.
        -11    1    4    4    0    0  0.20792599297E+01  0.93696108272E+01  0.13151130061E+02  0.16280821571E+02  0.51100000000E-03 0. -1.
         12    1    4    4    0    0 -0.37472796079E+01 -0.17575969039E+01  0.20812479788E+02  0.21220051043E+02  0.00000000000E+00 0. -1.
</event>
<event>
 8    1  0.6046524E-010  0.9118800E+02  0.7816164E-02  0.1184000E+00
        -11   -1    0    0    0    0  0.00000000000E+00  0.00000000000E+00  0.45593999997E+02  0.45594000000E+02  0.51100000000E-03 0. -1.
         11   -1    0    0    0    0 -0.00000000000E+00 -0.00000000000E+00 -0.45593999997E+02  0.45594000000E+02  0.51100000000E-03 0.  1.
         23    2    1    2    0    0  0.00000000000E+00  0.00000000000E+00  0.00000000000E+00  0.91188000000E+02  0.91188000000E+02 0.  0.
    9900012    2    3    3    0    0 -0.13187354226E+02 -0.38572979493E+02 -0.14894368439E+02  0.47787271093E+02  0.20000000222E+02 0.  0.
         12    1    3    3    0    0  0.13187354226E+02  0.38572979493E+02  0.14894368439E+02  0.43400728907E+02  0.00000000000E+00 0. -1.
         11    1    4    4    0    0 -0.37729988242E+01 -0.12807420637E+02 -0.57271106956E+01  0.14528087991E+02  0.51100000000E-03 0. -1.
        -11    1    4    4    0    0 -0.79939747381E+01 -0.27195989843E+02 -0.52146066821E+01  0.28822172346E+02  0.51100000000E-03 0.  1.
         12    1    4    4    0    0 -0.14203806637E+01  0.14304309865E+01 -0.39526510608E+01  0.44370107556E+01  0.00000000000E+00 0. -1.
</event>
<event>
 8    1  0.6046524E-010  0.9118800E+02  0.7816164E-02  0.1184000E+00
        -11   -1    0    0    0    0  0.00000000000E+00  0.00000000000E+00  0.45593999997E+02  0.45594000000E+02  0.51100000000E-03 0. -1.
         11   -1    0    0    0    0 -0.00000000000E+00 -0.00000000000E+00 -0.45593999997E+02  0.45594000000E+02  0.51100000000E-03 0.  1.
         23    2    1    2    0    0  0.17763568394E-14 -0.88817841970E-15  0.71054273576E-14  0.91188000000E+02  0.91188000000E+02 0.  0.
    9900012    2    3    3    0    0 -0.15930890980E+02  0.78172627050E+01 -0.39607077831E+02  0.47787268463E+02  0.19999988232E+02 0.  0.
         12    1    3    3    0    0  0.15930890980E+02 -0.78172627050E+01  0.39607077831E+02  0.43400731537E+02  0.00000000000E+00 0. -1.
         11    1    4    4    0    0 -0.20524786864E+01 -0.42141261261E+01 -0.60728609078E+01  0.76714514684E+01  0.51100000000E-03 0. -1.
        -11    1    4    4    0    0 -0.65790732707E+01  0.59834415805E+01 -0.53455600540E+01  0.10375971800E+02  0.51100000000E-03 0.  1.
        -12    1    4    4    0    0 -0.72993390226E+01  0.60479472506E+01 -0.28188656869E+02  0.29739845195E+02  0.00000000000E+00 0.  1.
</event>
<event>
 8    1  0.6046524E-010  0.9118800E+02  0.7816164E-02  0.1184000E+00
        -11   -1    0    0    0    0  0.00000000000E+00  0.00000000000E+00  0.45593999997E+02  0.45594000000E+02  0.51100000000E-03 0. -1.
         11   -1    0    0    0    0 -0.00000000000E+00 -0.00000000000E+00 -0.45593999997E+02  0.45594000000E+02  0.51100000000E-03 0.  1.
         23    2    1    2    0    0  0.00000000000E+00  0.35527136788E-14  0.00000000000E+00  0.91188000000E+02  0.91188000000E+02 0.  0.
    9900012    2    3    3    0    0  0.24849211863E+02 -0.26392239583E+02 -0.23866077769E+02  0.47787270645E+02  0.19999998180E+02 0.  0.
         12    1    3    3    0    0 -0.24849211863E+02  0.26392239583E+02  0.23866077769E+02  0.43400729355E+02  0.00000000000E+00 0. -1.
         11    1    4    4    0    0  0.89464482047E+01 -0.12359012968E+02 -0.15507678249E+01  0.15335873570E+02  0.51100000000E-03 0. -1.
        -11    1    4    4    0    0  0.86249654001E+01 -0.10069252679E+02 -0.68918569347E+01  0.14942475362E+02  0.51100000000E-03 0.  1.
         12    1    4    4    0    0  0.72777982583E+01 -0.39639739358E+01 -0.15423453009E+02  0.17508921714E+02  0.00000000000E+00 0. -1.
</event>
<event>
 8    1  0.6046524E-010  0.9118800E+02  0.7816164E-02  0.1184000E+00
        -11   -1    0    0    0    0  0.00000000000E+00  0.00000000000E+00  0.45593999997E+02  0.45594000000E+02  0.51100000000E-03 0. -1.
         11   -1    0    0    0    0 -0.00000000000E+00 -0.00000000000E+00 -0.45593999997E+02  0.45594000000E+02  0.51100000000E-03 0.  1.
         23    2    1    2    0    0 -0.88817841970E-15  0.22204460493E-15  0.00000000000E+00  0.91188000000E+02  0.91188000000E+02 0.  0.
    9900012    2    3    3    0    0  0.49354795560E+01  0.10646632593E+01  0.43106021806E+02  0.47787290533E+02  0.20000088854E+02 0.  0.
        -12    1    3    3    0    0 -0.49354795560E+01 -0.10646632593E+01 -0.43106021806E+02  0.43400709467E+02  0.00000000000E+00 0.  1.
         11    1    4    4    0    0 -0.28711990491E+01 -0.16251337466E+01  0.19706018637E+02  0.19980290650E+02  0.51100000000E-03 0. -1.
        -11    1    4    4    0    0  0.19169913920E+00  0.22218421301E+01 -0.84891110501E+00  0.23862064740E+01  0.51100000000E-03 0.  1.
        -12    1    4    4    0    0  0.76149794659E+01  0.46795487586E+00  0.24248914274E+02  0.25420793408E+02  0.00000000000E+00 0.  1.
</event>
<event>
 8    1  0.6046524E-010  0.9118800E+02  0.7816164E-02  0.1184000E+00
        -11   -1    0    0    0    0  0.00000000000E+00  0.00000000000E+00  0.45593999997E+02  0.45594000000E+02  0.51100000000E-03 0. -1.
         11   -1    0    0    0    0 -0.00000000000E+00 -0.00000000000E+00 -0.45593999997E+02  0.45594000000E+02  0.51100000000E-03 0.  1.
         23    2    1    2    0    0  0.35527136788E-14  0.00000000000E+00  0.00000000000E+00  0.91188000000E+02  0.91188000000E+02 0.  0.
    9900012    2    3    3    0    0 -0.25005132305E+02 -0.29600457028E+01  0.35349749324E+02  0.47787270865E+02  0.19999999182E+02 0.  0.
        -12    1    3    3    0    0  0.25005132305E+02  0.29600457028E+01 -0.35349749324E+02  0.43400729135E+02  0.00000000000E+00 0.  1.
         11    1    4    4    0    0 -0.44629997253E+01 -0.37667055871E+01  0.49965185138E+01  0.76858073778E+01  0.51100000000E-03 0. -1.
        -11    1    4    4    0    0 -0.11069958838E+02  0.58203240221E+01  0.25363828289E+02  0.28279744450E+02  0.51100000000E-03 0.  1.
        -12    1    4    4    0    0 -0.94721737416E+01 -0.50136641378E+01  0.49894025209E+01  0.11821719037E+02  0.00000000000E+00 0.  1.
</event>
<event>
 8    1  0.6046524E-010  0.9118800E+02  0.7816164E-02  0.1184000E+00
        -11   -1    0    0    0    0  0.00000000000E+00  0.00000000000E+00  0.45593999997E+02  0.45594000000E+02  0.51100000000E-03 0.  1.
         11   -1    0    0    0    0 -0.00000000000E+00 -0.00000000000E+00 -0.45593999997E+02  0.45594000000E+02  0.51100000000E-03 0. -1.
         23    2    1    2    0    0 -0.44408920985E-15  0.00000000000E+00  0.00000000000E+00  0.91188000000E+02  0.91188000000E+02 0.  0.
    9900012    2    3    3    0    0  0.11960221854E+01  0.30180826909E+02 -0.31165786647E+02  0.47787319829E+02  0.20000222428E+02 0.  0.
         12    1    3    3    0    0 -0.11960221854E+01 -0.30180826909E+02  0.31165786647E+02  0.43400680171E+02  0.00000000000E+00 0. -1.
         11    1    4    4    0    0  0.37269714136E+01  0.55282101619E+01 -0.59801171138E+01  0.89561835883E+01  0.51100000000E-03 0. -1.
        -11    1    4    4    0    0 -0.80568050893E+01  0.11091744269E+02 -0.67304838797E+01  0.15272141719E+02  0.51100000000E-03 0.  1.
        -12    1    4    4    0    0  0.55258558610E+01  0.13560872478E+02 -0.18455185654E+02  0.23558994522E+02  0.00000000000E+00 0.  1.
</event>
<event>
 8    1  0.6046524E-010  0.9118800E+02  0.7816164E-02  0.1184000E+00
        -11   -1    0    0    0    0  0.00000000000E+00  0.00000000000E+00  0.45593999997E+02  0.45594000000E+02  0.51100000000E-03 0. -1.
         11   -1    0    0    0    0 -0.00000000000E+00 -0.00000000000E+00 -0.45593999997E+02  0.45594000000E+02  0.51100000000E-03 0.  1.
         23    2    1    2    0    0  0.00000000000E+00  0.00000000000E+00  0.00000000000E+00  0.91188000000E+02  0.91188000000E+02 0.  0.
    9900012    2    3    3    0    0 -0.33643972665E+02 -0.41674976468E+01  0.27098677899E+02  0.47787271006E+02  0.19999999826E+02 0.  0.
        -12    1    3    3    0    0  0.33643972665E+02  0.41674976468E+01 -0.27098677899E+02  0.43400728994E+02  0.00000000000E+00 0.  1.
         11    1    4    4    0    0 -0.31918743484E+02 -0.29545696063E+01  0.15305710976E+02  0.35521830694E+02  0.51100000000E-03 0. -1.
        -11    1    4    4    0    0 -0.21379372314E+00 -0.14897655146E+01  0.32010849927E+01  0.35372382498E+01  0.51100000000E-03 0.  1.
         12    1    4    4    0    0 -0.15114354580E+01  0.27683747409E+00  0.85918819305E+01  0.87282020622E+01  0.00000000000E+00 0. -1.
</event>
<event>
 8    1  0.6046524E-010  0.9118800E+02  0.7816164E-02  0.1184000E+00
        -11   -1    0    0    0    0  0.00000000000E+00  0.00000000000E+00  0.45593999997E+02  0.45594000000E+02  0.51100000000E-03 0.  1.
         11   -1    0    0    0    0 -0.00000000000E+00 -0.00000000000E+00 -0.45593999997E+02  0.45594000000E+02  0.51100000000E-03 0. -1.
         23    2    1    2    0    0  0.00000000000E+00  0.00000000000E+00  0.00000000000E+00  0.91188000000E+02  0.91188000000E+02 0.  0.
    9900012    2    3    3    0    0  0.34532309317E+02  0.17028760944E+02 -0.20029082856E+02  0.47787271364E+02  0.20000001457E+02 0.  0.
         12    1    3    3    0    0 -0.34532309317E+02 -0.17028760944E+02  0.20029082856E+02  0.43400728636E+02  0.00000000000E+00 0. -1.
         11    1    4    4    0    0  0.11012661652E+02 -0.10256078367E+01 -0.82592309168E+01  0.13803821344E+02  0.51100000000E-03 0. -1.
        -11    1    4    4    0    0  0.12249243857E+02  0.73822212737E+01  0.32580844982E+00  0.14305499551E+02  0.51100000000E-03 0.  1.
         12    1    4    4    0    0  0.11270403808E+02  0.10672147507E+02 -0.12095660389E+02  0.19677950469E+02  0.00000000000E+00 0. -1.
</event>
<event>
 8    1  0.6046524E-010  0.9118800E+02  0.7816164E-02  0.1184000E+00
        -11   -1    0    0    0    0  0.00000000000E+00  0.00000000000E+00  0.45593999997E+02  0.45594000000E+02  0.51100000000E-03 0. -1.
         11   -1    0    0    0    0 -0.00000000000E+00 -0.00000000000E+00 -0.45593999997E+02  0.45594000000E+02  0.51100000000E-03 0.  1.
         23    2    1    2    0    0  0.00000000000E+00  0.35527136788E-14  0.00000000000E+00  0.91188000000E+02  0.91188000000E+02 0.  0.
    9900012    2    3    3    0    0 -0.81317719853E+01 -0.28416027971E+02 -0.31780921092E+02  0.47787270666E+02  0.19999998275E+02 0.  0.
         12    1    3    3    0    0  0.81317719853E+01  0.28416027971E+02  0.31780921092E+02  0.43400729334E+02  0.00000000000E+00 0. -1.
         11    1    4    4    0    0  0.66570137506E+00 -0.70177975810E+01 -0.21554092546E+01  0.73714605422E+01  0.51100000000E-03 0.  1.
        -11    1    4    4    0    0 -0.44080671481E+01 -0.70594121321E+01 -0.13797163592E+01  0.84362297933E+01  0.51100000000E-03 0. -1.
         12    1    4    4    0    0 -0.43894062122E+01 -0.14338818258E+02 -0.28245795478E+02  0.31979580331E+02  0.00000000000E+00 0. -1.
</event>
<event>
 8    1  0.6046524E-010  0.9118800E+02  0.7816164E-02  0.1184000E+00
        -11   -1    0    0    0    0  0.00000000000E+00  0.00000000000E+00  0.45593999997E+02  0.45594000000E+02  0.51100000000E-03 0. -1.
         11   -1    0    0    0    0 -0.00000000000E+00 -0.00000000000E+00 -0.45593999997E+02  0.45594000000E+02  0.51100000000E-03 0.  1.
         23    2    1    2    0    0 -0.17763568394E-14  0.17763568394E-14  0.00000000000E+00  0.91188000000E+02  0.91188000000E+02 0.  0.
    9900012    2    3    3    0    0 -0.14383326543E+02  0.14057205794E+02 -0.38459569692E+02  0.47787267079E+02  0.19999981919E+02 0.  0.
         12    1    3    3    0    0  0.14383326543E+02 -0.14057205794E+02  0.38459569692E+02  0.43400732921E+02  0.00000000000E+00 0. -1.
         11    1    4    4    0    0  0.12324671042E+01  0.71194558694E+01 -0.29667255724E+01  0.78107034204E+01  0.51100000000E-03 0. -1.
        -11    1    4    4    0    0 -0.69185096733E+01  0.62225382964E+01 -0.14341913217E+02  0.17096088264E+02  0.51100000000E-03 0.  1.
         12    1    4    4    0    0 -0.86972839740E+01  0.71521162807E+00 -0.21150930903E+02  0.22880475394E+02  0.00000000000E+00 0. -1.
</event>
<event>
 8    1  0.6046524E-010  0.9118800E+02  0.7816164E-02  0.1184000E+00
        -11   -1    0    0    0    0  0.00000000000E+00  0.00000000000E+00  0.45593999997E+02  0.45594000000E+02  0.51100000000E-03 0. -1.
         11   -1    0    0    0    0 -0.00000000000E+00 -0.00000000000E+00 -0.45593999997E+02  0.45594000000E+02  0.51100000000E-03 0.  1.
         23    2    1    2    0    0  0.00000000000E+00  0.00000000000E+00  0.00000000000E+00  0.91188000000E+02  0.91188000000E+02 0.  0.
    9900012    2    3    3    0    0  0.19379105441E+02 -0.15131454578E+02  0.35764658463E+02  0.47787292168E+02  0.20000096313E+02 0.  0.
        -12    1    3    3    0    0 -0.19379105441E+02  0.15131454578E+02 -0.35764658463E+02  0.43400707832E+02  0.00000000000E+00 0.  1.
         11    1    4    4    0    0  0.20614498570E+02 -0.86380680859E+01  0.32922576294E+02  0.39792836060E+02  0.51100000000E-03 0. -1.
        -11    1    4    4    0    0  0.21644204112E+00 -0.43201487543E+01  0.31666496571E+01  0.53608024333E+01  0.51100000000E-03 0.  1.
         12    1    4    4    0    0 -0.14518351708E+01 -0.21732377377E+01 -0.32456748854E+00  0.26336536755E+01  0.00000000000E+00 0. -1.
</event>
<event>
 8    1  0.6046524E-010  0.9118800E+02  0.7816164E-02  0.1184000E+00
        -11   -1    0    0    0    0  0.00000000000E+00  0.00000000000E+00  0.45593999997E+02  0.45594000000E+02  0.51100000000E-03 0. -1.
         11   -1    0    0    0    0 -0.00000000000E+00 -0.00000000000E+00 -0.45593999997E+02  0.45594000000E+02  0.51100000000E-03 0.  1.
         23    2    1    2    0    0  0.71054273576E-14  0.00000000000E+00  0.14210854715E-13  0.91188000000E+02  0.91188000000E+02 0.  0.
    9900012    2    3    3    0    0 -0.22512083212E+02  0.11823800089E+02 -0.35171397480E+02  0.47787270285E+02  0.19999996537E+02 0.  0.
         12    1    3    3    0    0  0.22512083212E+02 -0.11823800089E+02  0.35171397480E+02  0.43400729715E+02  0.00000000000E+00 0. -1.
         11    1    4    4    0    0 -0.61817234749E+01  0.10870378572E+01 -0.75721224462E+01  0.98352628345E+01  0.51100000000E-03 0. -1.
        -11    1    4    4    0    0 -0.10714070346E+02  0.37944902449E+01 -0.26649361265E+02  0.28972019531E+02  0.51100000000E-03 0.  1.
         12    1    4    4    0    0 -0.56162893912E+01  0.69422719868E+01 -0.94991376894E+00  0.89799879194E+01  0.00000000000E+00 0. -1.
</event>
<event>
 8    1  0.6046524E-010  0.9118800E+02  0.7816164E-02  0.1184000E+00
        -11   -1    0    0    0    0  0.00000000000E+00  0.00000000000E+00  0.45593999997E+02  0.45594000000E+02  0.51100000000E-03 0. -1.
         11   -1    0    0    0    0 -0.00000000000E+00 -0.00000000000E+00 -0.45593999997E+02  0.45594000000E+02  0.51100000000E-03 0.  1.
         23    2    1    2    0    0  0.00000000000E+00  0.71054273576E-14 -0.71054273576E-14  0.91188000000E+02  0.91188000000E+02 0.  0.
    9900012    2    3    3    0    0 -0.89559459803E+01 -0.26484088785E+02 -0.33196497880E+02  0.47787269607E+02  0.19999993446E+02 0.  0.
         12    1    3    3    0    0  0.89559459803E+01  0.26484088785E+02  0.33196497880E+02  0.43400730393E+02  0.00000000000E+00 0. -1.
         11    1    4    4    0    0  0.19123346963E+01 -0.45535678877E+01 -0.10039289269E+01  0.50398291687E+01  0.51100000000E-03 0. -1.
        -11    1    4    4    0    0 -0.10902828711E+02 -0.21177553625E+02 -0.21681679619E+02  0.32209558873E+02  0.51100000000E-03 0.  1.
        -12    1    4    4    0    0  0.34548034631E-01 -0.75296727155E+00 -0.10510889334E+02  0.10537881565E+02  0.00000000000E+00 0.  1.
</event>
<event>
 8    1  0.6046524E-010  0.9118800E+02  0.7816164E-02  0.1184000E+00
        -11   -1    0    0    0    0  0.00000000000E+00  0.00000000000E+00  0.45593999997E+02  0.45594000000E+02  0.51100000000E-03 0. -1.
         11   -1    0    0    0    0 -0.00000000000E+00 -0.00000000000E+00 -0.45593999997E+02  0.45594000000E+02  0.51100000000E-03 0.  1.
         23    2    1    2    0    0 -0.22204460493E-15  0.00000000000E+00  0.00000000000E+00  0.91188000000E+02  0.91188000000E+02 0.  0.
    9900012    2    3    3    0    0  0.17973714247E+01  0.57431892171E+01 -0.42981481216E+02  0.47787280029E+02  0.20000040966E+02 0.  0.
         12    1    3    3    0    0 -0.17973714247E+01 -0.57431892171E+01  0.42981481216E+02  0.43400719971E+02  0.00000000000E+00 0. -1.
         11    1    4    4    0    0 -0.38950771624E+01  0.30432501715E+01 -0.37193882553E+01  0.61860202847E+01  0.51100000000E-03 0. -1.
        -11    1    4    4    0    0 -0.14308079701E+01  0.53488553585E+01 -0.10730117976E+02  0.12074472955E+02  0.51100000000E-03 0.  1.
        -12    1    4    4    0    0  0.71232565571E+01 -0.26489163129E+01 -0.28531974985E+02  0.29526786790E+02  0.00000000000E+00 0.  1.
</event>
<event>
 8    1  0.6046524E-010  0.9118800E+02  0.7816164E-02  0.1184000E+00
        -11   -1    0    0    0    0  0.00000000000E+00  0.00000000000E+00  0.45593999997E+02  0.45594000000E+02  0.51100000000E-03 0. -1.
         11   -1    0    0    0    0 -0.00000000000E+00 -0.00000000000E+00 -0.45593999997E+02  0.45594000000E+02  0.51100000000E-03 0.  1.
         23    2    1    2    0    0  0.88817841970E-15  0.00000000000E+00  0.00000000000E+00  0.91188000000E+02  0.91188000000E+02 0.  0.
    9900012    2    3    3    0    0  0.72294935544E+01  0.12151967212E+02  0.41032770705E+02  0.47787260884E+02  0.19999953672E+02 0.  0.
        -12    1    3    3    0    0 -0.72294935544E+01 -0.12151967212E+02 -0.41032770705E+02  0.43400739116E+02  0.00000000000E+00 0.  1.
         11    1    4    4    0    0  0.55819246735E+01  0.18056001243E+01  0.14632079507E+02  0.15764384727E+02  0.51100000000E-03 0. -1.
        -11    1    4    4    0    0  0.74037402287E+00  0.34414050869E+01 -0.10731498055E+01  0.36800914977E+01  0.51100000000E-03 0.  1.
         12    1    4    4    0    0  0.90719485806E+00  0.69049620005E+01  0.27473841003E+02  0.28342784659E+02  0.00000000000E+00 0. -1.
</event>
<event>
 8    1  0.6046524E-010  0.9118800E+02  0.7816164E-02  0.1184000E+00
        -11   -1    0    0    0    0  0.00000000000E+00  0.00000000000E+00  0.45593999997E+02  0.45594000000E+02  0.51100000000E-03 0. -1.
         11   -1    0    0    0    0 -0.00000000000E+00 -0.00000000000E+00 -0.45593999997E+02  0.45594000000E+02  0.51100000000E-03 0.  1.
         23    2    1    2    0    0  0.00000000000E+00 -0.35527136788E-14 -0.71054273576E-14  0.91188000000E+02  0.91188000000E+02 0.  0.
    9900012    2    3    3    0    0 -0.85364457497E+01  0.20586668736E+02  0.37241664179E+02  0.47787269747E+02  0.19999994084E+02 0.  0.
        -12    1    3    3    0    0  0.85364457497E+01 -0.20586668736E+02 -0.37241664179E+02  0.43400730253E+02  0.00000000000E+00 0.  1.
         11    1    4    4    0    0 -0.48005418617E+01  0.36259296767E+01  0.11619739988E+02  0.13084759296E+02  0.51100000000E-03 0. -1.
        -11    1    4    4    0    0  0.40241018640E+01  0.10208934351E+01  0.84571827324E+00  0.42368453921E+01  0.51100000000E-03 0.  1.
         12    1    4    4    0    0 -0.77600057520E+01  0.15939845624E+02  0.24776205917E+02  0.30465665058E+02  0.00000000000E+00 0. -1.
</event>
<event>
 8    1  0.6046524E-010  0.9118800E+02  0.7816164E-02  0.1184000E+00
        -11   -1    0    0    0    0  0.00000000000E+00  0.00000000000E+00  0.45593999997E+02  0.45594000000E+02  0.51100000000E-03 0. -1.
         11   -1    0    0    0    0 -0.00000000000E+00 -0.00000000000E+00 -0.45593999997E+02  0.45594000000E+02  0.51100000000E-03 0.  1.
         23    2    1    2    0    0 -0.88817841970E-15  0.11102230246E-15  0.71054273576E-14  0.91188000000E+02  0.91188000000E+02 0.  0.
    9900012    2    3    3    0    0 -0.66751335804E+01 -0.90695899712E+00 -0.42874747566E+02  0.47787263119E+02  0.19999963867E+02 0.  0.
         12    1    3    3    0    0  0.66751335804E+01  0.90695899712E+00  0.42874747566E+02  0.43400736881E+02  0.00000000000E+00 0. -1.
         11    1    4    4    0    0  0.55427624043E+01 -0.17260939249E+00 -0.22168322676E+02  0.22851401261E+02  0.51100000000E-03 0. -1.
        -11    1    4    4    0    0 -0.27293775470E+01  0.21381378282E+01 -0.27533487458E+01  0.44274219072E+01  0.51100000000E-03 0.  1.
         12    1    4    4    0    0 -0.94885184377E+01 -0.28724874329E+01 -0.17953076144E+02  0.20508439951E+02  0.00000000000E+00 0. -1.
</event>
<event>
 8    1  0.6046524E-010  0.9118800E+02  0.7816164E-02  0.1184000E+00
        -11   -1    0    0    0    0  0.00000000000E+00  0.00000000000E+00  0.45593999997E+02  0.45594000000E+02  0.51100000000E-03 0.  1.
         11   -1    0    0    0    0 -0.00000000000E+00 -0.00000000000E+00 -0.45593999997E+02  0.45594000000E+02  0.51100000000E-03 0. -1.
         23    2    1    2    0    0  0.00000000000E+00  0.77715611724E-15  0.00000000000E+00  0.91188000000E+02  0.91188000000E+02 0.  0.
    9900012    2    3    3    0    0 -0.41713799028E+02  0.83279395942E+00 -0.11953624105E+02  0.47787266085E+02  0.19999977386E+02 0.  0.
         12    1    3    3    0    0  0.41713799028E+02 -0.83279395942E+00  0.11953624105E+02  0.43400733915E+02  0.00000000000E+00 0. -1.
         11    1    4    4    0    0 -0.15859855389E+02 -0.48822394240E+01 -0.63296892141E+01  0.17760524783E+02  0.51100000000E-03 0. -1.
        -11    1    4    4    0    0 -0.11048959639E+02 -0.29143916145E+01 -0.59585861681E+01  0.12887122913E+02  0.51100000000E-03 0.  1.
        -12    1    4    4    0    0 -0.14804984001E+02  0.86294249980E+01  0.33465127670E+00  0.17139618389E+02  0.00000000000E+00 0.  1.
</event>
<event>
 8    1  0.6046524E-010  0.9118800E+02  0.7816164E-02  0.1184000E+00
        -11   -1    0    0    0    0  0.00000000000E+00  0.00000000000E+00  0.45593999997E+02  0.45594000000E+02  0.51100000000E-03 0. -1.
         11   -1    0    0    0    0 -0.00000000000E+00 -0.00000000000E+00 -0.45593999997E+02  0.45594000000E+02  0.51100000000E-03 0.  1.
         23    2    1    2    0    0 -0.35527136788E-14  0.35527136788E-14  0.00000000000E+00  0.91188000000E+02  0.91188000000E+02 0.  0.
    9900012    2    3    3    0    0 -0.23844806161E+02  0.21575299779E+02 -0.29147147371E+02  0.47787256443E+02  0.19999933425E+02 0.  0.
         12    1    3    3    0    0  0.23844806161E+02 -0.21575299779E+02  0.29147147371E+02  0.43400743557E+02  0.00000000000E+00 0. -1.
         11    1    4    4    0    0  0.13749533487E+01  0.22205181554E+00 -0.10560649555E+01  0.17478779051E+01  0.51100000000E-03 0. -1.
        -11    1    4    4    0    0 -0.18895355909E+02  0.61174470929E+01 -0.13487061739E+02  0.24007466932E+02  0.51100000000E-03 0.  1.
         12    1    4    4    0    0 -0.63244036012E+01  0.15235800871E+02 -0.14604020677E+02  0.22031911606E+02  0.00000000000E+00 0. -1.
</event>
<event>
 8    1  0.6046524E-010  0.9118800E+02  0.7816164E-02  0.1184000E+00
        -11   -1    0    0    0    0  0.00000000000E+00  0.00000000000E+00  0.45593999997E+02  0.45594000000E+02  0.51100000000E-03 0. -1.
         11   -1    0    0    0    0 -0.00000000000E+00 -0.00000000000E+00 -0.45593999997E+02  0.45594000000E+02  0.51100000000E-03 0.  1.
         23    2    1    2    0    0  0.35527136788E-14  0.00000000000E+00  0.35527136788E-14  0.91188000000E+02  0.91188000000E+02 0.  0.
    9900012    2    3    3    0    0 -0.31337880993E+02  0.65370591988E+01 -0.29305760747E+02  0.47787267966E+02  0.19999985965E+02 0.  0.
         12    1    3    3    0    0  0.31337880993E+02 -0.65370591988E+01  0.29305760747E+02  0.43400732034E+02  0.00000000000E+00 0. -1.
         11    1    4    4    0    0 -0.13889443133E+02  0.53801056595E+01 -0.12483328211E+02  0.19434393505E+02  0.51100000000E-03 0. -1.
        -11    1    4    4    0    0 -0.13304025424E+02  0.35583431754E+01 -0.35200616646E+01  0.14214419898E+02  0.51100000000E-03 0.  1.
        -12    1    4    4    0    0 -0.41444124359E+01 -0.24013896362E+01 -0.13302370872E+02  0.14138454563E+02  0.00000000000E+00 0.  1.
</event>
<event>
 8    1  0.6046524E-010  0.9118800E+02  0.7816164E-02  0.1184000E+00
        -11   -1    0    0    0    0  0.00000000000E+00  0.00000000000E+00  0.45593999997E+02  0.45594000000E+02  0.51100000000E-03 0. -1.
         11   -1    0    0    0    0 -0.00000000000E+00 -0.00000000000E+00 -0.45593999997E+02  0.45594000000E+02  0.51100000000E-03 0.  1.
         23    2    1    2    0    0 -0.35527136788E-14  0.00000000000E+00  0.35527136788E-14  0.91188000000E+02  0.91188000000E+02 0.  0.
    9900012    2    3    3    0    0 -0.21888123458E+02  0.23364205590E+02 -0.29302682333E+02  0.47787271397E+02  0.20000001609E+02 0.  0.
         12    1    3    3    0    0  0.21888123458E+02 -0.23364205590E+02  0.29302682333E+02  0.43400728603E+02  0.00000000000E+00 0. -1.
         11    1    4    4    0    0 -0.71809981558E+00  0.76386688673E+01 -0.70722983488E+01  0.10434669789E+02  0.51100000000E-03 0.  1.
        -11    1    4    4    0    0 -0.22746816851E+02  0.16591006085E+02 -0.20271155397E+02  0.34692922926E+02  0.51100000000E-03 0. -1.
        -12    1    4    4    0    0  0.15767932084E+01 -0.86546936237E+00 -0.19592285866E+01  0.26596786824E+01  0.00000000000E+00 0.  1.
</event>
<event>
 8    1  0.6046524E-010  0.9118800E+02  0.7816164E-02  0.1184000E+00
        -11   -1    0    0    0    0  0.00000000000E+00  0.00000000000E+00  0.45593999997E+02  0.45594000000E+02  0.51100000000E-03 0. -1.
         11   -1    0    0    0    0 -0.00000000000E+00 -0.00000000000E+00 -0.45593999997E+02  0.45594000000E+02  0.51100000000E-03 0.  1.
         23    2    1    2    0    0  0.88817841970E-15 -0.35527136788E-14  0.00000000000E+00  0.91188000000E+02  0.91188000000E+02 0.  0.
    9900012    2    3    3    0    0  0.50030758037E+01 -0.24694824355E+02 -0.35337785075E+02  0.47787260704E+02  0.19999952853E+02 0.  0.
         12    1    3    3    0    0 -0.50030758037E+01  0.24694824355E+02  0.35337785075E+02  0.43400739296E+02  0.00000000000E+00 0. -1.
         11    1    4    4    0    0 -0.12125867446E+01 -0.76053791621E+01 -0.15122813490E+02  0.16970905896E+02  0.51100000000E-03 0. -1.
        -11    1    4    4    0    0  0.69204932806E+00 -0.17449360537E+02 -0.13256255670E+02  0.21924585060E+02  0.51100000000E-03 0.  1.
         12    1    4    4    0    0  0.55236132202E+01  0.35991534347E+00 -0.69587159153E+01  0.88917697479E+01  0.00000000000E+00 0. -1.
</event>
<event>
 8    1  0.6046524E-010  0.9118800E+02  0.7816164E-02  0.1184000E+00
        -11   -1    0    0    0    0  0.00000000000E+00  0.00000000000E+00  0.45593999997E+02  0.45594000000E+02  0.51100000000E-03 0. -1.
         11   -1    0    0    0    0 -0.00000000000E+00 -0.00000000000E+00 -0.45593999997E+02  0.45594000000E+02  0.51100000000E-03 0.  1.
         23    2    1    2    0    0  0.00000000000E+00 -0.35527136788E-14  0.00000000000E+00  0.91188000000E+02  0.91188000000E+02 0.  0.
    9900012    2    3    3    0    0  0.11554353980E+02  0.16262132798E+02 -0.38544304156E+02  0.47787269109E+02  0.19999991175E+02 0.  0.
         12    1    3    3    0    0 -0.11554353980E+02 -0.16262132798E+02  0.38544304156E+02  0.43400730891E+02  0.00000000000E+00 0. -1.
         11    1    4    4    0    0  0.22540856141E+01  0.12135918459E+02 -0.21715273555E+02  0.24978281058E+02  0.51100000000E-03 0. -1.
        -11    1    4    4    0    0  0.10438408570E+01  0.56920335780E+01 -0.27371512993E+01  0.64016285025E+01  0.51100000000E-03 0.  1.
        -12    1    4    4    0    0  0.82564275087E+01 -0.15658192389E+01 -0.14091879301E+02  0.16407359548E+02  0.00000000000E+00 0.  1.
</event>
<event>
 8    1  0.6046524E-010  0.9118800E+02  0.7816164E-02  0.1184000E+00
        -11   -1    0    0    0    0  0.00000000000E+00  0.00000000000E+00  0.45593999997E+02  0.45594000000E+02  0.51100000000E-03 0. -1.
         11   -1    0    0    0    0 -0.00000000000E+00 -0.00000000000E+00 -0.45593999997E+02  0.45594000000E+02  0.51100000000E-03 0.  1.
         23    2    1    2    0    0  0.00000000000E+00  0.00000000000E+00  0.00000000000E+00  0.91188000000E+02  0.91188000000E+02 0.  0.
    9900012    2    3    3    0    0 -0.31532485356E+02  0.19647826922E+02  0.22434073482E+02  0.47787281245E+02  0.20000046508E+02 0.  0.
        -12    1    3    3    0    0  0.31532485356E+02 -0.19647826922E+02 -0.22434073482E+02  0.43400718755E+02  0.00000000000E+00 0.  1.
         11    1    4    4    0    0 -0.67864583334E+01  0.14394899263E+02  0.67588758479E+01  0.17290215282E+02  0.51100000000E-03 0. -1.
        -11    1    4    4    0    0 -0.14429010250E+02  0.29523461673E+01  0.52096105017E+01  0.15622186995E+02  0.51100000000E-03 0.  1.
        -12    1    4    4    0    0 -0.10317016773E+02  0.23005814915E+01  0.10465587132E+02  0.14874878968E+02  0.00000000000E+00 0.  1.
</event>
<event>
 8    1  0.6046524E-010  0.9118800E+02  0.7816164E-02  0.1184000E+00
        -11   -1    0    0    0    0  0.00000000000E+00  0.00000000000E+00  0.45593999997E+02  0.45594000000E+02  0.51100000000E-03 0.  1.
         11   -1    0    0    0    0 -0.00000000000E+00 -0.00000000000E+00 -0.45593999997E+02  0.45594000000E+02  0.51100000000E-03 0. -1.
         23    2    1    2    0    0 -0.35527136788E-14 -0.17763568394E-14 -0.71054273576E-14  0.91188000000E+02  0.91188000000E+02 0.  0.
    9900012    2    3    3    0    0  0.20381271291E+02  0.15396954902E+02  0.35087899049E+02  0.47787273055E+02  0.20000009167E+02 0.  0.
        -12    1    3    3    0    0 -0.20381271291E+02 -0.15396954902E+02 -0.35087899049E+02  0.43400726945E+02  0.00000000000E+00 0.  1.
         11    1    4    4    0    0  0.86632637837E+01  0.44957677493E+00  0.90734670577E+01  0.12553169455E+02  0.51100000000E-03 0. -1.
        -11    1    4    4    0    0  0.20853755283E+01  0.11183028196E+02  0.20667992652E+02  0.23591838234E+02  0.51100000000E-03 0.  1.
         12    1    4    4    0    0  0.96326319789E+01  0.37643499312E+01  0.53464393392E+01  0.11642265366E+02  0.00000000000E+00 0. -1.
</event>
<event>
 8    1  0.6046524E-010  0.9118800E+02  0.7816164E-02  0.1184000E+00
        -11   -1    0    0    0    0  0.00000000000E+00  0.00000000000E+00  0.45593999997E+02  0.45594000000E+02  0.51100000000E-03 0. -1.
         11   -1    0    0    0    0 -0.00000000000E+00 -0.00000000000E+00 -0.45593999997E+02  0.45594000000E+02  0.51100000000E-03 0.  1.
         23    2    1    2    0    0  0.00000000000E+00  0.35527136788E-14  0.00000000000E+00  0.91188000000E+02  0.91188000000E+02 0.  0.
    9900012    2    3    3    0    0  0.21423893753E+02 -0.26484394522E+02  0.26892696599E+02  0.47787268358E+02  0.19999987750E+02 0.  0.
        -12    1    3    3    0    0 -0.21423893753E+02  0.26484394522E+02 -0.26892696599E+02  0.43400731642E+02  0.00000000000E+00 0.  1.
         11    1    4    4    0    0  0.11636775491E+02 -0.20663646576E+02  0.16244705022E+02  0.28745282659E+02  0.51100000000E-03 0. -1.
        -11    1    4    4    0    0 -0.22869880035E+01 -0.18391228313E+01  0.10680534635E+01  0.31230474506E+01  0.51100000000E-03 0.  1.
         12    1    4    4    0    0  0.12074106266E+02 -0.39816251138E+01  0.95799381135E+01  0.15918938248E+02  0.00000000000E+00 0. -1.
</event>
<event>
 8    1  0.6046524E-010  0.9118800E+02  0.7816164E-02  0.1184000E+00
        -11   -1    0    0    0    0  0.00000000000E+00  0.00000000000E+00  0.45593999997E+02  0.45594000000E+02  0.51100000000E-03 0. -1.
         11   -1    0    0    0    0 -0.00000000000E+00 -0.00000000000E+00 -0.45593999997E+02  0.45594000000E+02  0.51100000000E-03 0.  1.
         23    2    1    2    0    0  0.00000000000E+00  0.00000000000E+00  0.00000000000E+00  0.91188000000E+02  0.91188000000E+02 0.  0.
    9900012    2    3    3    0    0  0.18353000691E+02 -0.56301698583E+01  0.38924177796E+02  0.47787273461E+02  0.20000011019E+02 0.  0.
        -12    1    3    3    0    0 -0.18353000691E+02  0.56301698583E+01 -0.38924177796E+02  0.43400726539E+02  0.00000000000E+00 0.  1.
         11    1    4    4    0    0  0.67272702716E+01 -0.41424101712E+01  0.18656230911E+02  0.20260075997E+02  0.51100000000E-03 0. -1.
        -11    1    4    4    0    0  0.99364138583E+01  0.54269413149E+01  0.10503539654E+02  0.15443715807E+02  0.51100000000E-03 0.  1.
        -12    1    4    4    0    0  0.16893165606E+01 -0.69147010020E+01  0.97644072318E+01  0.12083481658E+02  0.00000000000E+00 0.  1.
</event>
<event>
 8    1  0.6046524E-010  0.9118800E+02  0.7816164E-02  0.1184000E+00
        -11   -1    0    0    0    0  0.00000000000E+00  0.00000000000E+00  0.45593999997E+02  0.45594000000E+02  0.51100000000E-03 0. -1.
         11   -1    0    0    0    0 -0.00000000000E+00 -0.00000000000E+00 -0.45593999997E+02  0.45594000000E+02  0.51100000000E-03 0.  1.
         23    2    1    2    0    0 -0.44408920985E-15 -0.17763568394E-14  0.00000000000E+00  0.91188000000E+02  0.91188000000E+02 0.  0.
    9900012    2    3    3    0    0 -0.29828452499E+01 -0.10105699879E+02  0.42102265684E+02  0.47787270610E+02  0.19999998018E+02 0.  0.
        -12    1    3    3    0    0  0.29828452499E+01  0.10105699879E+02 -0.42102265684E+02  0.43400729390E+02  0.00000000000E+00 0.  1.
         11    1    4    4    0    0 -0.53854004190E+01  0.93903248519E+00  0.18141016754E+02  0.18946788879E+02  0.51100000000E-03 0. -1.
        -11    1    4    4    0    0 -0.15773862182E+01 -0.54573702858E+01  0.23169226477E+01  0.61350768972E+01  0.51100000000E-03 0.  1.
         12    1    4    4    0    0  0.39799413872E+01 -0.55873620787E+01  0.21644326283E+02  0.22705404834E+02  0.00000000000E+00 0. -1.
</event>
<event>
 8    1  0.6046524E-010  0.9118800E+02  0.7816164E-02  0.1184000E+00
        -11   -1    0    0    0    0  0.00000000000E+00  0.00000000000E+00  0.45593999997E+02  0.45594000000E+02  0.51100000000E-03 0. -1.
         11   -1    0    0    0    0 -0.00000000000E+00 -0.00000000000E+00 -0.45593999997E+02  0.45594000000E+02  0.51100000000E-03 0.  1.
         23    2    1    2    0    0  0.00000000000E+00  0.00000000000E+00  0.00000000000E+00  0.91188000000E+02  0.91188000000E+02 0.  0.
    9900012    2    3    3    0    0  0.42133699816E+02 -0.72829940269E+01  0.74385779481E+01  0.47787273001E+02  0.20000008920E+02 0.  0.
        -12    1    3    3    0    0 -0.42133699816E+02  0.72829940269E+01 -0.74385779481E+01  0.43400726999E+02  0.00000000000E+00 0.  1.
         11    1    4    4    0    0  0.21400129036E+02 -0.14107721241E+00 -0.10928406291E+01  0.21428479331E+02  0.51100000000E-03 0. -1.
        -11    1    4    4    0    0  0.12456975317E+02 -0.13929548351E+01 -0.88618596557E+00  0.12565901601E+02  0.51100000000E-03 0.  1.
         12    1    4    4    0    0  0.82765954632E+01 -0.57489619794E+01  0.94176045428E+01  0.13792892069E+02  0.00000000000E+00 0. -1.
</event>
<event>
 8    1  0.1091713E-009  0.9118800E+02  0.7816164E-02  0.1184000E+00
        -11   -1    0    0    0    0  0.00000000000E+00  0.00000000000E+00  0.45593999997E+02  0.45594000000E+02  0.51100000000E-03 0. -1.
         11   -1    0    0    0    0 -0.00000000000E+00 -0.00000000000E+00 -0.45593999997E+02  0.45594000000E+02  0.51100000000E-03 0.  1.
         23    2    1    2    0    0 -0.71054273576E-14 -0.17763568394E-14 -0.35527136788E-14  0.91188000000E+02  0.91188000000E+02 0.  0.
    9900012    2    3    3    0    0  0.34155170778E+02 -0.12593649731E+02 -0.23631492843E+02  0.47787272375E+02  0.20000006066E+02 0.  0.
         12    1    3    3    0    0 -0.34155170778E+02  0.12593649731E+02  0.23631492843E+02  0.43400727625E+02  0.00000000000E+00 0. -1.
         11    1    4    4    0    0  0.20237889538E+01 -0.29023110605E+01 -0.85960912123E+01  0.92958009667E+01  0.51100000000E-03 0. -1.
        -11    1    4    4    0    0  0.24744590534E+02 -0.73892574949E+01 -0.16460340303E+02  0.30624152073E+02  0.51100000000E-03 0.  1.
         12    1    4    4    0    0  0.73867912904E+01 -0.23020811754E+01  0.14249386725E+01  0.78673193355E+01  0.00000000000E+00 0. -1.
</event>
<event>
 8    1  0.6046524E-010  0.9118800E+02  0.7816164E-02  0.1184000E+00
        -11   -1    0    0    0    0  0.00000000000E+00  0.00000000000E+00  0.45593999997E+02  0.45594000000E+02  0.51100000000E-03 0. -1.
         11   -1    0    0    0    0 -0.00000000000E+00 -0.00000000000E+00 -0.45593999997E+02  0.45594000000E+02  0.51100000000E-03 0.  1.
         23    2    1    2    0    0  0.00000000000E+00  0.00000000000E+00  0.00000000000E+00  0.91188000000E+02  0.91188000000E+02 0.  0.
    9900012    2    3    3    0    0 -0.36049688800E+02  0.11956066952E+02 -0.21002281393E+02  0.47787269324E+02  0.19999992154E+02 0.  0.
         12    1    3    3    0    0  0.36049688800E+02 -0.11956066952E+02  0.21002281393E+02  0.43400730676E+02  0.00000000000E+00 0. -1.
         11    1    4    4    0    0 -0.91301030910E+01  0.77241443259E+01 -0.53928808078E+01  0.13118854816E+02  0.51100000000E-03 0. -1.
        -11    1    4    4    0    0 -0.12217632006E+02  0.93152801070E+01 -0.69226058796E+01  0.16851333708E+02  0.51100000000E-03 0.  1.
         12    1    4    4    0    0 -0.14701953703E+02 -0.50833574813E+01 -0.86867947059E+01  0.17817080800E+02  0.00000000000E+00 0. -1.
</event>
<event>
 8    1  0.6046524E-010  0.9118800E+02  0.7816164E-02  0.1184000E+00
        -11   -1    0    0    0    0  0.00000000000E+00  0.00000000000E+00  0.45593999997E+02  0.45594000000E+02  0.51100000000E-03 0. -1.
         11   -1    0    0    0    0 -0.00000000000E+00 -0.00000000000E+00 -0.45593999997E+02  0.45594000000E+02  0.51100000000E-03 0.  1.
         23    2    1    2    0    0 -0.35527136788E-14  0.00000000000E+00  0.00000000000E+00  0.91188000000E+02  0.91188000000E+02 0.  0.
    9900012    2    3    3    0    0  0.17925813945E+02  0.12421503608E+02  0.37523259083E+02  0.47787268098E+02  0.19999986565E+02 0.  0.
        -12    1    3    3    0    0 -0.17925813945E+02 -0.12421503608E+02 -0.37523259083E+02  0.43400731902E+02  0.00000000000E+00 0.  1.
         11    1    4    4    0    0  0.38844120799E+01 -0.52997681223E+01  0.78097703023E+01  0.10206307451E+02  0.51100000000E-03 0. -1.
        -11    1    4    4    0    0  0.48039987278E+01  0.74782019179E+01  0.86458149956E+01  0.12399678419E+02  0.51100000000E-03 0.  1.
        -12    1    4    4    0    0  0.92374031371E+01  0.10243069812E+02  0.21067673785E+02  0.25181282227E+02  0.00000000000E+00 0.  1.
</event>
<event>
 8    1  0.6046524E-010  0.9118800E+02  0.7816164E-02  0.1184000E+00
        -11   -1    0    0    0    0  0.00000000000E+00  0.00000000000E+00  0.45593999997E+02  0.45594000000E+02  0.51100000000E-03 0.  1.
         11   -1    0    0    0    0 -0.00000000000E+00 -0.00000000000E+00 -0.45593999997E+02  0.45594000000E+02  0.51100000000E-03 0. -1.
         23    2    1    2    0    0 -0.35527136788E-14  0.00000000000E+00  0.17763568394E-14  0.91188000000E+02  0.91188000000E+02 0.  0.
    9900012    2    3    3    0    0 -0.19004085050E+02  0.36160891526E+02  0.14658036876E+02  0.47787269942E+02  0.19999994973E+02 0.  0.
        -12    1    3    3    0    0  0.19004085050E+02 -0.36160891526E+02 -0.14658036876E+02  0.43400730058E+02  0.00000000000E+00 0.  1.
         11    1    4    4    0    0 -0.17269629897E+02  0.36290230021E+02  0.11095729375E+02  0.41693358253E+02  0.51100000000E-03 0. -1.
        -11    1    4    4    0    0  0.48173712900E+00 -0.10549270566E+00 -0.94793409697E+00  0.10685404465E+01  0.51100000000E-03 0.  1.
         12    1    4    4    0    0 -0.22161922817E+01 -0.23845789700E-01  0.45102415982E+01  0.50253712426E+01  0.00000000000E+00 0. -1.
</event>
<event>
 8    1  0.6046524E-010  0.9118800E+02  0.7816164E-02  0.1184000E+00
        -11   -1    0    0    0    0  0.00000000000E+00  0.00000000000E+00  0.45593999997E+02  0.45594000000E+02  0.51100000000E-03 0. -1.
         11   -1    0    0    0    0 -0.00000000000E+00 -0.00000000000E+00 -0.45593999997E+02  0.45594000000E+02  0.51100000000E-03 0.  1.
         23    2    1    2    0    0  0.00000000000E+00 -0.35527136788E-14  0.00000000000E+00  0.91188000000E+02  0.91188000000E+02 0.  0.
    9900012    2    3    3    0    0 -0.21650873502E+02  0.18501602901E+02 -0.32749864063E+02  0.47787271556E+02  0.20000002333E+02 0.  0.
         12    1    3    3    0    0  0.21650873502E+02 -0.18501602901E+02  0.32749864063E+02  0.43400728444E+02  0.00000000000E+00 0. -1.
         11    1    4    4    0    0 -0.13774918241E+02  0.28997044432E+01 -0.11279747407E+02  0.18038552055E+02  0.51100000000E-03 0. -1.
        -11    1    4    4    0    0  0.10407382621E+01  0.15468000904E+01  0.72958868009E+00  0.20020056326E+01  0.51100000000E-03 0.  1.
        -12    1    4    4    0    0 -0.89166935237E+01  0.14055098367E+02 -0.22199705336E+02  0.27746713868E+02  0.00000000000E+00 0.  1.
</event>
<event>
 8    1  0.6046524E-010  0.9118800E+02  0.7816164E-02  0.1184000E+00
        -11   -1    0    0    0    0  0.00000000000E+00  0.00000000000E+00  0.45593999997E+02  0.45594000000E+02  0.51100000000E-03 0. -1.
         11   -1    0    0    0    0 -0.00000000000E+00 -0.00000000000E+00 -0.45593999997E+02  0.45594000000E+02  0.51100000000E-03 0.  1.
         23    2    1    2    0    0  0.00000000000E+00  0.00000000000E+00 -0.35527136788E-14  0.91188000000E+02  0.91188000000E+02 0.  0.
    9900012    2    3    3    0    0 -0.21593038835E+02  0.23734640141E+02 -0.29223803243E+02  0.47787272532E+02  0.20000006783E+02 0.  0.
         12    1    3    3    0    0  0.21593038835E+02 -0.23734640141E+02  0.29223803243E+02  0.43400727468E+02  0.00000000000E+00 0. -1.
         11    1    4    4    0    0 -0.96757856359E+01  0.22105843823E+02 -0.21505438993E+02  0.32322949515E+02  0.51100000000E-03 0.  1.
        -11    1    4    4    0    0 -0.14986714546E+01 -0.15078066085E+01 -0.28212741157E+01  0.35325748109E+01  0.51100000000E-03 0. -1.
         12    1    4    4    0    0 -0.10418581744E+02  0.31366029267E+01 -0.48970901345E+01  0.11931748207E+02  0.00000000000E+00 0. -1.
</event>
<event>
 8    1  0.6046524E-010  0.9118800E+02  0.7816164E-02  0.1184000E+00
        -11   -1    0    0    0    0  0.00000000000E+00  0.00000000000E+00  0.45593999997E+02  0.45594000000E+02  0.51100000000E-03 0. -1.
         11   -1    0    0    0    0 -0.00000000000E+00 -0.00000000000E+00 -0.45593999997E+02  0.45594000000E+02  0.51100000000E-03 0.  1.
         23    2    1    2    0    0  0.00000000000E+00  0.00000000000E+00  0.00000000000E+00  0.91188000000E+02  0.91188000000E+02 0.  0.
    9900012    2    3    3    0    0  0.20680876630E+02 -0.32559029399E+02  0.19895552541E+02  0.47787284977E+02  0.20000063526E+02 0.  0.
        -12    1    3    3    0    0 -0.20680876630E+02  0.32559029399E+02 -0.19895552541E+02  0.43400715023E+02  0.00000000000E+00 0.  1.
         11    1    4    4    0    0  0.38835234464E+01 -0.57443237208E+01  0.11003671406E+02  0.13006144473E+02  0.51100000000E-03 0. -1.
        -11    1    4    4    0    0  0.86958139383E+00 -0.10982766346E+02  0.13942019759E+01  0.11105004630E+02  0.51100000000E-03 0.  1.
         12    1    4    4    0    0  0.15927771790E+02 -0.15831939332E+02  0.74976791583E+01  0.23676135875E+02  0.00000000000E+00 0. -1.
</event>
<event>
 8    1  0.6046524E-010  0.9118800E+02  0.7816164E-02  0.1184000E+00
        -11   -1    0    0    0    0  0.00000000000E+00  0.00000000000E+00  0.45593999997E+02  0.45594000000E+02  0.51100000000E-03 0. -1.
         11   -1    0    0    0    0 -0.00000000000E+00 -0.00000000000E+00 -0.45593999997E+02  0.45594000000E+02  0.51100000000E-03 0.  1.
         23    2    1    2    0    0 -0.44408920985E-15 -0.88817841970E-15  0.00000000000E+00  0.91188000000E+02  0.91188000000E+02 0.  0.
    9900012    2    3    3    0    0  0.14540789928E+01  0.41149794177E+01  0.43180735771E+02  0.47787270248E+02  0.19999996368E+02 0.  0.
        -12    1    3    3    0    0 -0.14540789928E+01 -0.41149794177E+01 -0.43180735771E+02  0.43400729752E+02  0.00000000000E+00 0.  1.
         11    1    4    4    0    0  0.33006830553E+01 -0.51726593261E+01  0.14168340380E+02  0.15439973528E+02  0.51100000000E-03 0. -1.
        -11    1    4    4    0    0 -0.54080181182E+01  0.26155001665E+01  0.18094796175E+02  0.19065915923E+02  0.51100000000E-03 0.  1.
        -12    1    4    4    0    0  0.35614140556E+01  0.66721385772E+01  0.10917599215E+02  0.13281380798E+02  0.00000000000E+00 0.  1.
</event>
<event>
 8    1  0.9830574E-010  0.9118800E+02  0.7816164E-02  0.1184000E+00
        -11   -1    0    0    0    0  0.00000000000E+00  0.00000000000E+00  0.45593999997E+02  0.45594000000E+02  0.51100000000E-03 0. -1.
         11   -1    0    0    0    0 -0.00000000000E+00 -0.00000000000E+00 -0.45593999997E+02  0.45594000000E+02  0.51100000000E-03 0.  1.
         23    2    1    2    0    0  0.00000000000E+00  0.00000000000E+00  0.00000000000E+00  0.91188000000E+02  0.91188000000E+02 0.  0.
    9900012    2    3    3    0    0 -0.29466156092E+02  0.16602304813E+02 -0.27198023198E+02  0.47787270216E+02  0.19999996221E+02 0.  0.
         12    1    3    3    0    0  0.29466156092E+02 -0.16602304813E+02  0.27198023198E+02  0.43400729784E+02  0.00000000000E+00 0. -1.
         11    1    4    4    0    0  0.43179816947E+00  0.84579104433E+00  0.13854658101E+01  0.16796808988E+01  0.51100000000E-03 0. -1.
        -11    1    4    4    0    0 -0.25053176349E+02  0.14506094936E+02 -0.17202133128E+02  0.33674943502E+02  0.51100000000E-03 0.  1.
         12    1    4    4    0    0 -0.48447779122E+01  0.12504188330E+01 -0.11381355880E+02  0.12432645815E+02  0.00000000000E+00 0. -1.
</event>
<event>
 8    1  0.6046524E-010  0.9118800E+02  0.7816164E-02  0.1184000E+00
        -11   -1    0    0    0    0  0.00000000000E+00  0.00000000000E+00  0.45593999997E+02  0.45594000000E+02  0.51100000000E-03 0. -1.
         11   -1    0    0    0    0 -0.00000000000E+00 -0.00000000000E+00 -0.45593999997E+02  0.45594000000E+02  0.51100000000E-03 0.  1.
         23    2    1    2    0    0  0.00000000000E+00  0.00000000000E+00  0.00000000000E+00  0.91188000000E+02  0.91188000000E+02 0.  0.
    9900012    2    3    3    0    0 -0.63197294194E+01  0.39059786909E+02  0.17833039700E+02  0.47787271455E+02  0.20000001873E+02 0.  0.
        -12    1    3    3    0    0  0.63197294194E+01 -0.39059786909E+02 -0.17833039700E+02  0.43400728545E+02  0.00000000000E+00 0.  1.
         11    1    4    4    0    0 -0.27753426336E+01  0.11529063044E+02  0.10539622087E+02  0.15865227871E+02  0.51100000000E-03 0. -1.
        -11    1    4    4    0    0 -0.15222624862E+01  0.16143891155E+02  0.11208598258E+02  0.19712310364E+02  0.51100000000E-03 0.  1.
        -12    1    4    4    0    0 -0.20221242996E+01  0.11386832709E+02 -0.39151806448E+01  0.12209733220E+02  0.00000000000E+00 0.  1.
</event>
<event>
 8    1  0.6046524E-010  0.9118800E+02  0.7816164E-02  0.1184000E+00
        -11   -1    0    0    0    0  0.00000000000E+00  0.00000000000E+00  0.45593999997E+02  0.45594000000E+02  0.51100000000E-03 0. -1.
         11   -1    0    0    0    0 -0.00000000000E+00 -0.00000000000E+00 -0.45593999997E+02  0.45594000000E+02  0.51100000000E-03 0.  1.
         23    2    1    2    0    0  0.00000000000E+00  0.35527136788E-14  0.71054273576E-14  0.91188000000E+02  0.91188000000E+02 0.  0.
    9900012    2    3    3    0    0  0.10313032269E+02 -0.17932998324E+02 -0.38153274436E+02  0.47787269435E+02  0.19999992660E+02 0.  0.
         12    1    3    3    0    0 -0.10313032269E+02  0.17932998324E+02  0.38153274436E+02  0.43400730565E+02  0.00000000000E+00 0. -1.
         11    1    4    4    0    0  0.39524022958E+01 -0.58640965587E+01 -0.36294561552E+01  0.79487146509E+01  0.51100000000E-03 0. -1.
        -11    1    4    4    0    0  0.23359011237E+01 -0.14110345675E+02 -0.30904658244E+02  0.34053725061E+02  0.51100000000E-03 0.  1.
         12    1    4    4    0    0  0.40247288493E+01  0.20414439096E+01 -0.36191600363E+01  0.57848297222E+01  0.00000000000E+00 0. -1.
</event>
<event>
 8    1  0.6046524E-010  0.9118800E+02  0.7816164E-02  0.1184000E+00
        -11   -1    0    0    0    0  0.00000000000E+00  0.00000000000E+00  0.45593999997E+02  0.45594000000E+02  0.51100000000E-03 0. -1.
         11   -1    0    0    0    0 -0.00000000000E+00 -0.00000000000E+00 -0.45593999997E+02  0.45594000000E+02  0.51100000000E-03 0.  1.
         23    2    1    2    0    0  0.00000000000E+00  0.00000000000E+00  0.00000000000E+00  0.91188000000E+02  0.91188000000E+02 0.  0.
    9900012    2    3    3    0    0 -0.27753090201E+02  0.31021298485E+02 -0.12290980775E+02  0.47787272081E+02  0.20000004728E+02 0.  0.
         12    1    3    3    0    0  0.27753090201E+02 -0.31021298485E+02  0.12290980775E+02  0.43400727919E+02  0.00000000000E+00 0. -1.
         11    1    4    4    0    0 -0.47886899641E+01 -0.35978400759E+00  0.20082299165E+01  0.52051881583E+01  0.51100000000E-03 0. -1.
        -11    1    4    4    0    0 -0.17156485698E+02  0.15214438228E+02 -0.82599466014E+01  0.24373158396E+02  0.51100000000E-03 0.  1.
        -12    1    4    4    0    0 -0.58079145393E+01  0.16166644265E+02 -0.60392640903E+01  0.18208925527E+02  0.00000000000E+00 0.  1.
</event>
<event>
 8    1  0.6046524E-010  0.9118800E+02  0.7816164E-02  0.1184000E+00
        -11   -1    0    0    0    0  0.00000000000E+00  0.00000000000E+00  0.45593999997E+02  0.45594000000E+02  0.51100000000E-03 0. -1.
         11   -1    0    0    0    0 -0.00000000000E+00 -0.00000000000E+00 -0.45593999997E+02  0.45594000000E+02  0.51100000000E-03 0.  1.
         23    2    1    2    0    0  0.35527136788E-14 -0.35527136788E-14 -0.35527136788E-14  0.91188000000E+02  0.91188000000E+02 0.  0.
    9900012    2    3    3    0    0  0.29293141759E+02 -0.21484091262E+02 -0.23748031187E+02  0.47787270550E+02  0.19999997747E+02 0.  0.
         12    1    3    3    0    0 -0.29293141759E+02  0.21484091262E+02  0.23748031187E+02  0.43400729450E+02  0.00000000000E+00 0. -1.
         11    1    4    4    0    0  0.44810213592E+01 -0.42834525088E+01 -0.79579501603E+01  0.10087442135E+02  0.51100000000E-03 0. -1.
        -11    1    4    4    0    0  0.23786477831E+02 -0.10108403169E+02 -0.78652831962E+01  0.27015532981E+02  0.51100000000E-03 0.  1.
        -12    1    4    4    0    0  0.10256425694E+01 -0.70922355847E+01 -0.79247978309E+01  0.10684295434E+02  0.00000000000E+00 0.  1.
</event>
<event>
 8    1  0.6046524E-010  0.9118800E+02  0.7816164E-02  0.1184000E+00
        -11   -1    0    0    0    0  0.00000000000E+00  0.00000000000E+00  0.45593999997E+02  0.45594000000E+02  0.51100000000E-03 0.  1.
         11   -1    0    0    0    0 -0.00000000000E+00 -0.00000000000E+00 -0.45593999997E+02  0.45594000000E+02  0.51100000000E-03 0. -1.
         23    2    1    2    0    0  0.00000000000E+00  0.00000000000E+00 -0.44408920985E-15  0.91188000000E+02  0.91188000000E+02 0.  0.
    9900012    2    3    3    0    0  0.37336201810E+02  0.21887982378E+02  0.32476828807E+01  0.47787272100E+02  0.20000004812E+02 0.  0.
        -12    1    3    3    0    0 -0.37336201810E+02 -0.21887982378E+02 -0.32476828807E+01  0.43400727900E+02  0.00000000000E+00 0.  1.
         11    1    4    4    0    0  0.71641409859E+01  0.14402296531E+02  0.29240818540E+01  0.16349352170E+02  0.51100000000E-03 0. -1.
        -11    1    4    4    0    0  0.88774324575E+01  0.27833283842E+00 -0.87458551615E+00  0.89247507692E+01  0.51100000000E-03 0.  1.
        -12    1    4    4    0    0  0.21294628366E+02  0.72073530091E+01  0.11981865429E+01  0.22513169161E+02  0.00000000000E+00 0.  1.
</event>
<event>
 8    1  0.6046524E-010  0.9118800E+02  0.7816164E-02  0.1184000E+00
        -11   -1    0    0    0    0  0.00000000000E+00  0.00000000000E+00  0.45593999997E+02  0.45594000000E+02  0.51100000000E-03 0. -1.
         11   -1    0    0    0    0 -0.00000000000E+00 -0.00000000000E+00 -0.45593999997E+02  0.45594000000E+02  0.51100000000E-03 0.  1.
         23    2    1    2    0    0 -0.35527136788E-14  0.00000000000E+00  0.35527136788E-14  0.91188000000E+02  0.91188000000E+02 0.  0.
    9900012    2    3    3    0    0  0.16696500799E+02 -0.35698750093E+02  0.18178263501E+02  0.47787272344E+02  0.20000005927E+02 0.  0.
        -12    1    3    3    0    0 -0.16696500799E+02  0.35698750093E+02 -0.18178263501E+02  0.43400727656E+02  0.00000000000E+00 0.  1.
         11    1    4    4    0    0  0.43027636077E+01 -0.15303405338E+02  0.10199681467E+02  0.18887601539E+02  0.51100000000E-03 0. -1.
        -11    1    4    4    0    0 -0.64203402293E+00 -0.10073815446E+02  0.69205633196E+01  0.12238797419E+02  0.51100000000E-03 0.  1.
        -12    1    4    4    0    0  0.13035771214E+02 -0.10321529309E+02  0.10580187139E+01  0.16660873387E+02  0.00000000000E+00 0.  1.
</event>
<event>
 8    1  0.6046524E-010  0.9118800E+02  0.7816164E-02  0.1184000E+00
        -11   -1    0    0    0    0  0.00000000000E+00  0.00000000000E+00  0.45593999997E+02  0.45594000000E+02  0.51100000000E-03 0.  1.
         11   -1    0    0    0    0 -0.00000000000E+00 -0.00000000000E+00 -0.45593999997E+02  0.45594000000E+02  0.51100000000E-03 0. -1.
         23    2    1    2    0    0  0.88817841970E-15  0.00000000000E+00 -0.88817841970E-15  0.91188000000E+02  0.91188000000E+02 0.  0.
    9900012    2    3    3    0    0  0.42167331901E+01 -0.42487693822E+02 -0.77870550026E+01  0.47787272003E+02  0.20000004370E+02 0.  0.
         12    1    3    3    0    0 -0.42167331901E+01  0.42487693822E+02  0.77870550026E+01  0.43400727997E+02  0.00000000000E+00 0. -1.
         11    1    4    4    0    0  0.16149723343E+01 -0.15422242708E+02 -0.23681074265E+01  0.15686351992E+02  0.51100000000E-03 0. -1.
        -11    1    4    4    0    0  0.31721949423E+01 -0.12628293098E+02  0.53539195192E+01  0.14078389887E+02  0.51100000000E-03 0.  1.
         12    1    4    4    0    0 -0.57043408643E+00 -0.14437158016E+02 -0.10772867095E+02  0.18022530124E+02  0.00000000000E+00 0. -1.
</event>
<event>
 8    1  0.6046524E-010  0.9118800E+02  0.7816164E-02  0.1184000E+00
        -11   -1    0    0    0    0  0.00000000000E+00  0.00000000000E+00  0.45593999997E+02  0.45594000000E+02  0.51100000000E-03 0. -1.
         11   -1    0    0    0    0 -0.00000000000E+00 -0.00000000000E+00 -0.45593999997E+02  0.45594000000E+02  0.51100000000E-03 0.  1.
         23    2    1    2    0    0  0.00000000000E+00  0.00000000000E+00  0.00000000000E+00  0.91188000000E+02  0.91188000000E+02 0.  0.
    9900012    2    3    3    0    0 -0.96863595634E+01  0.96457128077E+01  0.41191723523E+02  0.47787269315E+02  0.19999992116E+02 0.  0.
        -12    1    3    3    0    0  0.96863595634E+01 -0.96457128077E+01 -0.41191723523E+02  0.43400730685E+02  0.00000000000E+00 0.  1.
         11    1    4    4    0    0 -0.62309003354E+01  0.86400364417E+01  0.18206087353E+02  0.21093505296E+02  0.51100000000E-03 0. -1.
        -11    1    4    4    0    0 -0.13659004430E+01  0.59285321031E+01  0.48334429814E+01  0.77701575424E+01  0.51100000000E-03 0.  1.
         12    1    4    4    0    0 -0.20895587850E+01 -0.49228557371E+01  0.18152193189E+02  0.18923606477E+02  0.00000000000E+00 0. -1.
</event>
<event>
 8    1  0.6046524E-010  0.9118800E+02  0.7816164E-02  0.1184000E+00
        -11   -1    0    0    0    0  0.00000000000E+00  0.00000000000E+00  0.45593999997E+02  0.45594000000E+02  0.51100000000E-03 0.  1.
         11   -1    0    0    0    0 -0.00000000000E+00 -0.00000000000E+00 -0.45593999997E+02  0.45594000000E+02  0.51100000000E-03 0. -1.
         23    2    1    2    0    0  0.35527136788E-14  0.00000000000E+00 -0.35527136788E-14  0.91188000000E+02  0.91188000000E+02 0.  0.
    9900012    2    3    3    0    0  0.20730797776E+02  0.32281780276E+02 -0.20291504645E+02  0.47787257208E+02  0.19999936912E+02 0.  0.
         12    1    3    3    0    0 -0.20730797776E+02 -0.32281780276E+02  0.20291504645E+02  0.43400742792E+02  0.00000000000E+00 0. -1.
         11    1    4    4    0    0  0.11826623512E+02  0.17649144545E+02 -0.12692553861E+02  0.24747974677E+02  0.51100000000E-03 0. -1.
        -11    1    4    4    0    0  0.74118328396E+01  0.10256921569E+02  0.15887397091E+01  0.12753971940E+02  0.51100000000E-03 0.  1.
         12    1    4    4    0    0  0.14923414244E+01  0.43757141620E+01 -0.91876904925E+01  0.10285310590E+02  0.00000000000E+00 0. -1.
</event>
<event>
 8    1  0.1380428E-009  0.9118800E+02  0.7816164E-02  0.1184000E+00
        -11   -1    0    0    0    0  0.00000000000E+00  0.00000000000E+00  0.45593999997E+02  0.45594000000E+02  0.51100000000E-03 0.  1.
         11   -1    0    0    0    0 -0.00000000000E+00 -0.00000000000E+00 -0.45593999997E+02  0.45594000000E+02  0.51100000000E-03 0. -1.
         23    2    1    2    0    0  0.00000000000E+00  0.00000000000E+00  0.00000000000E+00  0.91188000000E+02  0.91188000000E+02 0.  0.
    9900012    2    3    3    0    0  0.19473794361E+02  0.32897803355E+02 -0.20545782138E+02  0.47787270789E+02  0.19999998835E+02 0.  0.
         12    1    3    3    0    0 -0.19473794361E+02 -0.32897803355E+02  0.20545782138E+02  0.43400729211E+02  0.00000000000E+00 0. -1.
         11    1    4    4    0    0  0.41842372795E+01  0.42429225024E+01 -0.12389426767E+02  0.13748022725E+02  0.51100000000E-03 0. -1.
        -11    1    4    4    0    0  0.78192812623E+01  0.14628748192E+02 -0.73059770609E+01  0.18125085771E+02  0.51100000000E-03 0.  1.
         12    1    4    4    0    0  0.74702758193E+01  0.14026132660E+02 -0.85037831018E+00  0.15914162293E+02  0.00000000000E+00 0. -1.
</event>
<event>
 8    1  0.6046524E-010  0.9118800E+02  0.7816164E-02  0.1184000E+00
        -11   -1    0    0    0    0  0.00000000000E+00  0.00000000000E+00  0.45593999997E+02  0.45594000000E+02  0.51100000000E-03 0.  1.
         11   -1    0    0    0    0 -0.00000000000E+00 -0.00000000000E+00 -0.45593999997E+02  0.45594000000E+02  0.51100000000E-03 0. -1.
         23    2    1    2    0    0  0.00000000000E+00  0.00000000000E+00  0.35527136788E-14  0.91188000000E+02  0.91188000000E+02 0.  0.
    9900012    2    3    3    0    0  0.29324528187E+02  0.60120827007E+01  0.31425307988E+02  0.47787273348E+02  0.20000010503E+02 0.  0.
        -12    1    3    3    0    0 -0.29324528187E+02 -0.60120827007E+01 -0.31425307988E+02  0.43400726652E+02  0.00000000000E+00 0.  1.
         11    1    4    4    0    0  0.13709233676E+02  0.53920637445E+01  0.92679383805E+01  0.17404370758E+02  0.51100000000E-03 0. -1.
        -11    1    4    4    0    0  0.13409424328E+02  0.18662530342E+01  0.23787343773E+02  0.27370299327E+02  0.51100000000E-03 0.  1.
        -12    1    4    4    0    0  0.22058701828E+01 -0.12462340780E+01 -0.16299741655E+01  0.30126032631E+01  0.00000000000E+00 0.  1.
</event>
<event>
 8    1  0.6046524E-010  0.9118800E+02  0.7816164E-02  0.1184000E+00
        -11   -1    0    0    0    0  0.00000000000E+00  0.00000000000E+00  0.45593999997E+02  0.45594000000E+02  0.51100000000E-03 0. -1.
         11   -1    0    0    0    0 -0.00000000000E+00 -0.00000000000E+00 -0.45593999997E+02  0.45594000000E+02  0.51100000000E-03 0.  1.
         23    2    1    2    0    0 -0.35527136788E-14  0.00000000000E+00  0.71054273576E-14  0.91188000000E+02  0.91188000000E+02 0.  0.
    9900012    2    3    3    0    0 -0.19462379383E+02  0.12293538476E+02  0.36792779856E+02  0.47787263266E+02  0.19999964535E+02 0.  0.
        -12    1    3    3    0    0  0.19462379383E+02 -0.12293538476E+02 -0.36792779856E+02  0.43400736734E+02  0.00000000000E+00 0.  1.
         11    1    4    4    0    0 -0.11948684063E+01  0.51533946299E+01  0.43131283692E+01  0.68255595602E+01  0.51100000000E-03 0. -1.
        -11    1    4    4    0    0 -0.11231454761E+02 -0.36035694587E+01  0.12297887213E+02  0.17040226497E+02  0.51100000000E-03 0.  1.
        -12    1    4    4    0    0 -0.70360562156E+01  0.10743713305E+02  0.20181764274E+02  0.23921477209E+02  0.00000000000E+00 0.  1.
</event>
<event>
 8    1  0.6046524E-010  0.9118800E+02  0.7816164E-02  0.1184000E+00
        -11   -1    0    0    0    0  0.00000000000E+00  0.00000000000E+00  0.45593999997E+02  0.45594000000E+02  0.51100000000E-03 0. -1.
         11   -1    0    0    0    0 -0.00000000000E+00 -0.00000000000E+00 -0.45593999997E+02  0.45594000000E+02  0.51100000000E-03 0.  1.
         23    2    1    2    0    0  0.00000000000E+00  0.88817841970E-15  0.71054273576E-14  0.91188000000E+02  0.91188000000E+02 0.  0.
    9900012    2    3    3    0    0 -0.19125538130E+02 -0.76663928064E+01 -0.38197676824E+02  0.47787282239E+02  0.20000051040E+02 0.  0.
         12    1    3    3    0    0  0.19125538130E+02  0.76663928064E+01  0.38197676824E+02  0.43400717761E+02  0.00000000000E+00 0. -1.
         11    1    4    4    0    0 -0.12342510993E+02 -0.63358833753E+01 -0.27313027443E+02  0.30634661156E+02  0.51100000000E-03 0. -1.
        -11    1    4    4    0    0 -0.96409507370E+01 -0.15149695091E+01 -0.59006888460E+01  0.11404437419E+02  0.51100000000E-03 0.  1.
         12    1    4    4    0    0  0.28579235998E+01  0.18446007800E+00 -0.49839605350E+01  0.57481836642E+01  0.00000000000E+00 0. -1.
</event>
<event>
 8    1  0.6046524E-010  0.9118800E+02  0.7816164E-02  0.1184000E+00
        -11   -1    0    0    0    0  0.00000000000E+00  0.00000000000E+00  0.45593999997E+02  0.45594000000E+02  0.51100000000E-03 0. -1.
         11   -1    0    0    0    0 -0.00000000000E+00 -0.00000000000E+00 -0.45593999997E+02  0.45594000000E+02  0.51100000000E-03 0.  1.
         23    2    1    2    0    0  0.00000000000E+00 -0.66613381478E-15  0.00000000000E+00  0.91188000000E+02  0.91188000000E+02 0.  0.
    9900012    2    3    3    0    0 -0.18093528514E+02 -0.40138451290E+00  0.39447227622E+02  0.47787301265E+02  0.20000137788E+02 0.  0.
        -12    1    3    3    0    0  0.18093528514E+02  0.40138451290E+00 -0.39447227622E+02  0.43400698735E+02  0.00000000000E+00 0.  1.
         11    1    4    4    0    0  0.94382552599E+00  0.12757401217E+01  0.12138705164E+02  0.12241996684E+02  0.51100000000E-03 0.  1.
        -11    1    4    4    0    0 -0.14785009671E+02 -0.47148709023E+01  0.25797278031E+02  0.30105249918E+02  0.51100000000E-03 0. -1.
         12    1    4    4    0    0 -0.42523443688E+01  0.30377462677E+01  0.15112444269E+01  0.54400546629E+01  0.00000000000E+00 0. -1.
</event>
<event>
 8    1  0.6046524E-010  0.9118800E+02  0.7816164E-02  0.1184000E+00
        -11   -1    0    0    0    0  0.00000000000E+00  0.00000000000E+00  0.45593999997E+02  0.45594000000E+02  0.51100000000E-03 0. -1.
         11   -1    0    0    0    0 -0.00000000000E+00 -0.00000000000E+00 -0.45593999997E+02  0.45594000000E+02  0.51100000000E-03 0.  1.
         23    2    1    2    0    0  0.71054273576E-14  0.00000000000E+00  0.00000000000E+00  0.91188000000E+02  0.91188000000E+02 0.  0.
    9900012    2    3    3    0    0  0.35229066215E+02  0.15918450148E+02  0.19726595891E+02  0.47787277115E+02  0.20000027679E+02 0.  0.
        -12    1    3    3    0    0 -0.35229066215E+02 -0.15918450148E+02 -0.19726595891E+02  0.43400722885E+02  0.00000000000E+00 0.  1.
         11    1    4    4    0    0  0.18426419684E+02  0.11479682317E+02  0.72578440270E+01  0.22890879158E+02  0.51100000000E-03 0. -1.
        -11    1    4    4    0    0  0.22828513977E+01 -0.27051856324E+01 -0.11754923739E+01  0.37297751128E+01  0.51100000000E-03 0.  1.
        -12    1    4    4    0    0  0.14519795134E+02  0.71439534638E+01  0.13644244238E+02  0.21166622844E+02  0.00000000000E+00 0.  1.
</event>
<event>
 8    1  0.6046524E-010  0.9118800E+02  0.7816164E-02  0.1184000E+00
        -11   -1    0    0    0    0  0.00000000000E+00  0.00000000000E+00  0.45593999997E+02  0.45594000000E+02  0.51100000000E-03 0. -1.
         11   -1    0    0    0    0 -0.00000000000E+00 -0.00000000000E+00 -0.45593999997E+02  0.45594000000E+02  0.51100000000E-03 0.  1.
         23    2    1    2    0    0  0.00000000000E+00  0.00000000000E+00  0.00000000000E+00  0.91188000000E+02  0.91188000000E+02 0.  0.
    9900012    2    3    3    0    0  0.69142728587E+01 -0.22738967379E+02  0.36314672872E+02  0.47787271061E+02  0.20000000077E+02 0.  0.
        -12    1    3    3    0    0 -0.69142728587E+01  0.22738967379E+02 -0.36314672872E+02  0.43400728939E+02  0.00000000000E+00 0.  1.
         11    1    4    4    0    0 -0.21329490508E+01 -0.17032529857E+02  0.13210426107E+02  0.21660376340E+02  0.51100000000E-03 0. -1.
        -11    1    4    4    0    0  0.67678729190E+00  0.11393393068E+01  0.34255088976E+01  0.36729070997E+01  0.51100000000E-03 0.  1.
        -12    1    4    4    0    0  0.83704346177E+01 -0.68457768288E+01  0.19678737867E+02  0.22453987622E+02  0.00000000000E+00 0.  1.
</event>
<event>
 8    1  0.6046524E-010  0.9118800E+02  0.7816164E-02  0.1184000E+00
        -11   -1    0    0    0    0  0.00000000000E+00  0.00000000000E+00  0.45593999997E+02  0.45594000000E+02  0.51100000000E-03 0.  1.
         11   -1    0    0    0    0 -0.00000000000E+00 -0.00000000000E+00 -0.45593999997E+02  0.45594000000E+02  0.51100000000E-03 0. -1.
         23    2    1    2    0    0  0.00000000000E+00 -0.35527136788E-14  0.35527136788E-14  0.91188000000E+02  0.91188000000E+02 0.  0.
    9900012    2    3    3    0    0  0.19081165234E+02 -0.24388350775E+02  0.30409547273E+02  0.47787273213E+02  0.20000009889E+02 0.  0.
        -12    1    3    3    0    0 -0.19081165234E+02  0.24388350775E+02 -0.30409547273E+02  0.43400726787E+02  0.00000000000E+00 0.  1.
         11    1    4    4    0    0  0.12826641525E+02 -0.11022668520E+02  0.83843322459E+01  0.18876413367E+02  0.51100000000E-03 0. -1.
        -11    1    4    4    0    0 -0.15838090039E+00 -0.10719839673E+02  0.83948821340E+01  0.13616684377E+02  0.51100000000E-03 0.  1.
        -12    1    4    4    0    0  0.64129046094E+01 -0.26458425825E+01  0.13630332893E+02  0.15294175469E+02  0.00000000000E+00 0.  1.
</event>
<event>
 8    1  0.6046524E-010  0.9118800E+02  0.7816164E-02  0.1184000E+00
        -11   -1    0    0    0    0  0.00000000000E+00  0.00000000000E+00  0.45593999997E+02  0.45594000000E+02  0.51100000000E-03 0. -1.
         11   -1    0    0    0    0 -0.00000000000E+00 -0.00000000000E+00 -0.45593999997E+02  0.45594000000E+02  0.51100000000E-03 0.  1.
         23    2    1    2    0    0  0.13322676296E-14  0.00000000000E+00  0.35527136788E-14  0.91188000000E+02  0.91188000000E+02 0.  0.
    9900012    2    3    3    0    0  0.32645635476E+01 -0.37037686682E+02  0.22386953542E+02  0.47787270757E+02  0.19999998689E+02 0.  0.
        -12    1    3    3    0    0 -0.32645635476E+01  0.37037686682E+02 -0.22386953542E+02  0.43400729243E+02  0.00000000000E+00 0.  1.
         11    1    4    4    0    0  0.44452249204E+01 -0.16086801661E+02  0.14070375770E+02  0.21829353788E+02  0.51100000000E-03 0. -1.
        -11    1    4    4    0    0  0.45124464305E+01 -0.12233597149E+02  0.84635052559E+01  0.15545224137E+02  0.51100000000E-03 0.  1.
        -12    1    4    4    0    0 -0.56931078033E+01 -0.87172878732E+01 -0.14692748315E+00  0.10412692832E+02  0.00000000000E+00 0.  1.
</event>
<event>
 8    1  0.6046524E-010  0.9118800E+02  0.7816164E-02  0.1184000E+00
        -11   -1    0    0    0    0  0.00000000000E+00  0.00000000000E+00  0.45593999997E+02  0.45594000000E+02  0.51100000000E-03 0. -1.
         11   -1    0    0    0    0 -0.00000000000E+00 -0.00000000000E+00 -0.45593999997E+02  0.45594000000E+02  0.51100000000E-03 0.  1.
         23    2    1    2    0    0  0.00000000000E+00 -0.35527136788E-14  0.35527136788E-14  0.91188000000E+02  0.91188000000E+02 0.  0.
    9900012    2    3    3    0    0  0.24834686013E+02 -0.20502745370E+02  0.29094660347E+02  0.47787268926E+02  0.19999990343E+02 0.  0.
        -12    1    3    3    0    0 -0.24834686013E+02  0.20502745370E+02 -0.29094660347E+02  0.43400731074E+02  0.00000000000E+00 0.  1.
         11    1    4    4    0    0  0.13836343554E+02 -0.12256239060E+02  0.21750749891E+02  0.28543912134E+02  0.51100000000E-03 0. -1.
        -11    1    4    4    0    0  0.10122174594E+02 -0.85257492233E+00  0.55874834594E+01  0.11593328865E+02  0.51100000000E-03 0.  1.
         12    1    4    4    0    0  0.87616786455E+00 -0.73939313877E+01  0.17564269964E+01  0.76500279272E+01  0.00000000000E+00 0. -1.
</event>
<event>
 8    1  0.6046524E-010  0.9118800E+02  0.7816164E-02  0.1184000E+00
        -11   -1    0    0    0    0  0.00000000000E+00  0.00000000000E+00  0.45593999997E+02  0.45594000000E+02  0.51100000000E-03 0. -1.
         11   -1    0    0    0    0 -0.00000000000E+00 -0.00000000000E+00 -0.45593999997E+02  0.45594000000E+02  0.51100000000E-03 0.  1.
         23    2    1    2    0    0  0.00000000000E+00  0.00000000000E+00  0.00000000000E+00  0.91188000000E+02  0.91188000000E+02 0.  0.
    9900012    2    3    3    0    0  0.25476926225E+02 -0.16933614916E+02 -0.30786392919E+02  0.47787273359E+02  0.20000010552E+02 0.  0.
         12    1    3    3    0    0 -0.25476926225E+02  0.16933614916E+02  0.30786392919E+02  0.43400726641E+02  0.00000000000E+00 0. -1.
         11    1    4    4    0    0 -0.59096001911E-01  0.22153606640E+01 -0.55168523329E+00  0.22837845929E+01  0.51100000000E-03 0. -1.
        -11    1    4    4    0    0  0.15297831938E+02 -0.41845850220E+01 -0.14780382983E+02  0.21679348127E+02  0.51100000000E-03 0.  1.
         12    1    4    4    0    0  0.10238190289E+02 -0.14964390558E+02 -0.15454324702E+02  0.23824140639E+02  0.00000000000E+00 0. -1.
</event>
<event>
 8    1  0.6046524E-010  0.9118800E+02  0.7816164E-02  0.1184000E+00
        -11   -1    0    0    0    0  0.00000000000E+00  0.00000000000E+00  0.45593999997E+02  0.45594000000E+02  0.51100000000E-03 0. -1.
         11   -1    0    0    0    0 -0.00000000000E+00 -0.00000000000E+00 -0.45593999997E+02  0.45594000000E+02  0.51100000000E-03 0.  1.
         23    2    1    2    0    0  0.88817841970E-15  0.00000000000E+00  0.00000000000E+00  0.91188000000E+02  0.91188000000E+02 0.  0.
    9900012    2    3    3    0    0 -0.20901850632E+01 -0.11630327224E+02 -0.41761108301E+02  0.47787267846E+02  0.19999985418E+02 0.  0.
         12    1    3    3    0    0  0.20901850632E+01  0.11630327224E+02  0.41761108301E+02  0.43400732154E+02  0.00000000000E+00 0. -1.
         11    1    4    4    0    0  0.43295469574E+01 -0.12775763748E+01 -0.60112905143E+01  0.75174990627E+01  0.51100000000E-03 0. -1.
        -11    1    4    4    0    0  0.35416985709E+01  0.58519917544E+00 -0.51050737551E+01  0.62408224737E+01  0.51100000000E-03 0.  1.
         12    1    4    4    0    0 -0.99614305915E+01 -0.10937950025E+02 -0.30644744032E+02  0.34028946310E+02  0.00000000000E+00 0. -1.
</event>
<event>
 8    1  0.6046524E-010  0.9118800E+02  0.7816164E-02  0.1184000E+00
        -11   -1    0    0    0    0  0.00000000000E+00  0.00000000000E+00  0.45593999997E+02  0.45594000000E+02  0.51100000000E-03 0. -1.
         11   -1    0    0    0    0 -0.00000000000E+00 -0.00000000000E+00 -0.45593999997E+02  0.45594000000E+02  0.51100000000E-03 0.  1.
         23    2    1    2    0    0  0.71054273576E-14  0.00000000000E+00  0.35527136788E-14  0.91188000000E+02  0.91188000000E+02 0.  0.
    9900012    2    3    3    0    0  0.36017814126E+02 -0.10202070336E+02 -0.21960378178E+02  0.47787269784E+02  0.19999994253E+02 0.  0.
         12    1    3    3    0    0 -0.36017814126E+02  0.10202070336E+02  0.21960378178E+02  0.43400730216E+02  0.00000000000E+00 0. -1.
         11    1    4    4    0    0  0.89141199413E+01  0.21359883454E+01 -0.11174249423E+02  0.14452952327E+02  0.51100000000E-03 0. -1.
        -11    1    4    4    0    0  0.49022868999E+01  0.11825315222E+01 -0.40855884012E+01  0.64902103583E+01  0.51100000000E-03 0.  1.
         12    1    4    4    0    0  0.22201407285E+02 -0.13520590204E+02 -0.67005403537E+01  0.26844107099E+02  0.00000000000E+00 0. -1.
</event>
<event>
 8    1  0.6046524E-010  0.9118800E+02  0.7816164E-02  0.1184000E+00
        -11   -1    0    0    0    0  0.00000000000E+00  0.00000000000E+00  0.45593999997E+02  0.45594000000E+02  0.51100000000E-03 0. -1.
         11   -1    0    0    0    0 -0.00000000000E+00 -0.00000000000E+00 -0.45593999997E+02  0.45594000000E+02  0.51100000000E-03 0.  1.
         23    2    1    2    0    0  0.00000000000E+00  0.00000000000E+00  0.00000000000E+00  0.91188000000E+02  0.91188000000E+02 0.  0.
    9900012    2    3    3    0    0 -0.93921529541E+01  0.41294243664E+02 -0.94971695682E+01  0.47787270435E+02  0.19999997223E+02 0.  0.
         12    1    3    3    0    0  0.93921529541E+01 -0.41294243664E+02  0.94971695682E+01  0.43400729565E+02  0.00000000000E+00 0. -1.
         11    1    4    4    0    0 -0.22351043580E+01  0.14219034131E+02 -0.29817000497E+00  0.14396719373E+02  0.51100000000E-03 0. -1.
        -11    1    4    4    0    0  0.62739053061E+00  0.11416408505E+02  0.32948189144E+01  0.11898900536E+02  0.51100000000E-03 0.  1.
        -12    1    4    4    0    0 -0.77844391267E+01  0.15658801029E+02 -0.12493818478E+02  0.21491650526E+02  0.00000000000E+00 0.  1.
</event>
<event>
 8    1  0.6046524E-010  0.9118800E+02  0.7816164E-02  0.1184000E+00
        -11   -1    0    0    0    0  0.00000000000E+00  0.00000000000E+00  0.45593999997E+02  0.45594000000E+02  0.51100000000E-03 0. -1.
         11   -1    0    0    0    0 -0.00000000000E+00 -0.00000000000E+00 -0.45593999997E+02  0.45594000000E+02  0.51100000000E-03 0.  1.
         23    2    1    2    0    0  0.88817841970E-15  0.00000000000E+00 -0.71054273576E-14  0.91188000000E+02  0.91188000000E+02 0.  0.
    9900012    2    3    3    0    0 -0.68874864733E+01  0.98566156186E+01  0.41701711627E+02  0.47787273117E+02  0.20000009450E+02 0.  0.
        -12    1    3    3    0    0  0.68874864733E+01 -0.98566156186E+01 -0.41701711627E+02  0.43400726883E+02  0.00000000000E+00 0.  1.
         11    1    4    4    0    0 -0.58411397201E+00 -0.29331987843E+01  0.21719014246E+01  0.36962143201E+01  0.51100000000E-03 0. -1.
        -11    1    4    4    0    0 -0.19167664929E+00 -0.24144203190E+00 -0.10184052207E+01  0.10640411869E+01  0.51100000000E-03 0.  1.
        -12    1    4    4    0    0 -0.61116958520E+01  0.13031256435E+02  0.40548215423E+02  0.43027017610E+02  0.00000000000E+00 0.  1.
</event>
<event>
 8    1  0.6046524E-010  0.9118800E+02  0.7816164E-02  0.1184000E+00
        -11   -1    0    0    0    0  0.00000000000E+00  0.00000000000E+00  0.45593999997E+02  0.45594000000E+02  0.51100000000E-03 0. -1.
         11   -1    0    0    0    0 -0.00000000000E+00 -0.00000000000E+00 -0.45593999997E+02  0.45594000000E+02  0.51100000000E-03 0.  1.
         23    2    1    2    0    0  0.00000000000E+00  0.71054273576E-14  0.00000000000E+00  0.91188000000E+02  0.91188000000E+02 0.  0.
    9900012    2    3    3    0    0  0.91222588445E+01  0.20053278029E+02  0.37393496646E+02  0.47787272384E+02  0.20000006109E+02 0.  0.
        -12    1    3    3    0    0 -0.91222588445E+01 -0.20053278029E+02 -0.37393496646E+02  0.43400727616E+02  0.00000000000E+00 0.  1.
         11    1    4    4    0    0  0.42901644442E+01  0.57107447416E+01  0.47021370303E+01  0.85515033401E+01  0.51100000000E-03 0.  1.
        -11    1    4    4    0    0 -0.33029355813E+01  0.11097760706E+02  0.25113560990E+02  0.27654305669E+02  0.51100000000E-03 0. -1.
         12    1    4    4    0    0  0.81350299816E+01  0.32447725816E+01  0.75777986255E+01  0.11581463375E+02  0.00000000000E+00 0. -1.
</event>
<event>
 8    1  0.6046524E-010  0.9118800E+02  0.7816164E-02  0.1184000E+00
        -11   -1    0    0    0    0  0.00000000000E+00  0.00000000000E+00  0.45593999997E+02  0.45594000000E+02  0.51100000000E-03 0. -1.
         11   -1    0    0    0    0 -0.00000000000E+00 -0.00000000000E+00 -0.45593999997E+02  0.45594000000E+02  0.51100000000E-03 0.  1.
         23    2    1    2    0    0  0.35527136788E-14 -0.35527136788E-14  0.00000000000E+00  0.91188000000E+02  0.91188000000E+02 0.  0.
    9900012    2    3    3    0    0 -0.21076323285E+02  0.19917353165E+02  0.32291039495E+02  0.47787267380E+02  0.19999983290E+02 0.  0.
        -12    1    3    3    0    0  0.21076323285E+02 -0.19917353165E+02 -0.32291039495E+02  0.43400732620E+02  0.00000000000E+00 0.  1.
         11    1    4    4    0    0 -0.53202342844E+01  0.86755947982E+01  0.13686275877E+02  0.17055350644E+02  0.51100000000E-03 0. -1.
        -11    1    4    4    0    0  0.33704326107E+00 -0.29297557916E+01  0.15394591783E+01  0.33267103844E+01  0.51100000000E-03 0.  1.
        -12    1    4    4    0    0 -0.16093132261E+02  0.14171514158E+02  0.17065304440E+02  0.27405206351E+02  0.00000000000E+00 0.  1.
</event>
<event>
 8    1  0.6046524E-010  0.9118800E+02  0.7816164E-02  0.1184000E+00
        -11   -1    0    0    0    0  0.00000000000E+00  0.00000000000E+00  0.45593999997E+02  0.45594000000E+02  0.51100000000E-03 0. -1.
         11   -1    0    0    0    0 -0.00000000000E+00 -0.00000000000E+00 -0.45593999997E+02  0.45594000000E+02  0.51100000000E-03 0.  1.
         23    2    1    2    0    0  0.00000000000E+00  0.00000000000E+00 -0.35527136788E-14  0.91188000000E+02  0.91188000000E+02 0.  0.
    9900012    2    3    3    0    0  0.69826348612E+01 -0.35205988983E+02  0.24400909616E+02  0.47787271435E+02  0.20000001782E+02 0.  0.
        -12    1    3    3    0    0 -0.69826348612E+01  0.35205988983E+02 -0.24400909616E+02  0.43400728565E+02  0.00000000000E+00 0.  1.
         11    1    4    4    0    0  0.12002504119E+01 -0.22625263586E+01 -0.19680381191E+01  0.32299846553E+01  0.51100000000E-03 0. -1.
        -11    1    4    4    0    0  0.23304438571E+01 -0.36266320648E+01 -0.86195521939E+00  0.43961796785E+01  0.51100000000E-03 0.  1.
         12    1    4    4    0    0  0.34519405922E+01 -0.29316830559E+02  0.27230902955E+02  0.40161107101E+02  0.00000000000E+00 0. -1.
</event>
<event>
 8    1  0.6046524E-010  0.9118800E+02  0.7816164E-02  0.1184000E+00
        -11   -1    0    0    0    0  0.00000000000E+00  0.00000000000E+00  0.45593999997E+02  0.45594000000E+02  0.51100000000E-03 0. -1.
         11   -1    0    0    0    0 -0.00000000000E+00 -0.00000000000E+00 -0.45593999997E+02  0.45594000000E+02  0.51100000000E-03 0.  1.
         23    2    1    2    0    0  0.00000000000E+00  0.00000000000E+00  0.00000000000E+00  0.91188000000E+02  0.91188000000E+02 0.  0.
    9900012    2    3    3    0    0  0.96528471475E+01  0.17216853886E+01  0.42278619745E+02  0.47787270212E+02  0.19999996204E+02 0.  0.
        -12    1    3    3    0    0 -0.96528471475E+01 -0.17216853886E+01 -0.42278619745E+02  0.43400729788E+02  0.00000000000E+00 0.  1.
         11    1    4    4    0    0  0.96423760426E+01  0.40522418233E+01  0.37333457129E+02  0.38770905341E+02  0.51100000000E-03 0. -1.
        -11    1    4    4    0    0  0.22260825233E+01 -0.33620191160E+01  0.51763706821E+01  0.65615112312E+01  0.51100000000E-03 0.  1.
         12    1    4    4    0    0 -0.22156114184E+01  0.10314626813E+01 -0.23120806630E+00  0.24548536393E+01  0.00000000000E+00 0. -1.
</event>
<event>
 8    1  0.6046524E-010  0.9118800E+02  0.7816164E-02  0.1184000E+00
        -11   -1    0    0    0    0  0.00000000000E+00  0.00000000000E+00  0.45593999997E+02  0.45594000000E+02  0.51100000000E-03 0. -1.
         11   -1    0    0    0    0 -0.00000000000E+00 -0.00000000000E+00 -0.45593999997E+02  0.45594000000E+02  0.51100000000E-03 0.  1.
         23    2    1    2    0    0  0.00000000000E+00  0.00000000000E+00  0.00000000000E+00  0.91188000000E+02  0.91188000000E+02 0.  0.
    9900012    2    3    3    0    0  0.24831586634E+02 -0.73704842731E+01  0.34823717435E+02  0.47787273864E+02  0.20000012854E+02 0.  0.
        -12    1    3    3    0    0 -0.24831586634E+02  0.73704842731E+01 -0.34823717435E+02  0.43400726136E+02  0.00000000000E+00 0.  1.
         11    1    4    4    0    0 -0.48502905615E-01 -0.29608783113E+01  0.93392898323E+00  0.31050566038E+01  0.51100000000E-03 0. -1.
        -11    1    4    4    0    0  0.12271168494E+02  0.48612846356E+01  0.12502968809E+02  0.18180701137E+02  0.51100000000E-03 0.  1.
         12    1    4    4    0    0  0.12608921045E+02 -0.92708905974E+01  0.21386819643E+02  0.26501516123E+02  0.00000000000E+00 0. -1.
</event>
<event>
 8    1  0.6046524E-010  0.9118800E+02  0.7816164E-02  0.1184000E+00
        -11   -1    0    0    0    0  0.00000000000E+00  0.00000000000E+00  0.45593999997E+02  0.45594000000E+02  0.51100000000E-03 0. -1.
         11   -1    0    0    0    0 -0.00000000000E+00 -0.00000000000E+00 -0.45593999997E+02  0.45594000000E+02  0.51100000000E-03 0.  1.
         23    2    1    2    0    0  0.71054273576E-14 -0.35527136788E-14  0.35527136788E-14  0.91188000000E+02  0.91188000000E+02 0.  0.
    9900012    2    3    3    0    0  0.32163463900E+02 -0.18781701179E+02  0.22279639603E+02  0.47787273623E+02  0.20000011758E+02 0.  0.
        -12    1    3    3    0    0 -0.32163463900E+02  0.18781701179E+02 -0.22279639603E+02  0.43400726377E+02  0.00000000000E+00 0.  1.
         11    1    4    4    0    0 -0.22062705613E+00 -0.19159924223E+01  0.29767495719E+01  0.35469341036E+01  0.51100000000E-03 0. -1.
        -11    1    4    4    0    0  0.30613406553E+02 -0.16049492310E+02  0.21955027737E+02  0.40948627662E+02  0.51100000000E-03 0.  1.
        -12    1    4    4    0    0  0.17706844029E+01 -0.81621644581E+00 -0.26521377063E+01  0.32917118577E+01  0.00000000000E+00 0.  1.
</event>
<event>
 8    1  0.6046524E-010  0.9118800E+02  0.7816164E-02  0.1184000E+00
        -11   -1    0    0    0    0  0.00000000000E+00  0.00000000000E+00  0.45593999997E+02  0.45594000000E+02  0.51100000000E-03 0. -1.
         11   -1    0    0    0    0 -0.00000000000E+00 -0.00000000000E+00 -0.45593999997E+02  0.45594000000E+02  0.51100000000E-03 0.  1.
         23    2    1    2    0    0 -0.44408920985E-15  0.00000000000E+00  0.00000000000E+00  0.91188000000E+02  0.91188000000E+02 0.  0.
    9900012    2    3    3    0    0 -0.13105628507E+01 -0.42922802302E+02 -0.62879802102E+01  0.47787271578E+02  0.20000002431E+02 0.  0.
         12    1    3    3    0    0  0.13105628507E+01  0.42922802302E+02  0.62879802102E+01  0.43400728422E+02  0.00000000000E+00 0. -1.
         11    1    4    4    0    0 -0.22730095662E+01 -0.64808419679E+01  0.49846182946E+00  0.68859530610E+01  0.51100000000E-03 0. -1.
        -11    1    4    4    0    0 -0.46638035110E+01 -0.21259029868E+02  0.30173595067E+01  0.21972752963E+02  0.51100000000E-03 0.  1.
         12    1    4    4    0    0  0.56262502264E+01 -0.15182930466E+02 -0.98038015463E+01  0.18928565553E+02  0.00000000000E+00 0. -1.
</event>
<event>
 8    1  0.6046524E-010  0.9118800E+02  0.7816164E-02  0.1184000E+00
        -11   -1    0    0    0    0  0.00000000000E+00  0.00000000000E+00  0.45593999997E+02  0.45594000000E+02  0.51100000000E-03 0. -1.
         11   -1    0    0    0    0 -0.00000000000E+00 -0.00000000000E+00 -0.45593999997E+02  0.45594000000E+02  0.51100000000E-03 0.  1.
         23    2    1    2    0    0  0.00000000000E+00  0.35527136788E-14  0.00000000000E+00  0.91188000000E+02  0.91188000000E+02 0.  0.
    9900012    2    3    3    0    0  0.22159924231E+02  0.30974954787E+02  0.20811370786E+02  0.47787271665E+02  0.20000002831E+02 0.  0.
        -12    1    3    3    0    0 -0.22159924231E+02 -0.30974954787E+02 -0.20811370786E+02  0.43400728335E+02  0.00000000000E+00 0.  1.
         11    1    4    4    0    0  0.56330113158E+01  0.15963281723E+02  0.16260637235E+02  0.23472654374E+02  0.51100000000E-03 0. -1.
        -11    1    4    4    0    0  0.47388847497E+01  0.51162398235E-01  0.18041813566E+01  0.50709680427E+01  0.51100000000E-03 0.  1.
         12    1    4    4    0    0  0.11788028165E+02  0.14960510666E+02  0.27465521950E+01  0.19243649248E+02  0.00000000000E+00 0. -1.
</event>
<event>
 8    1  0.6046524E-010  0.9118800E+02  0.7816164E-02  0.1184000E+00
        -11   -1    0    0    0    0  0.00000000000E+00  0.00000000000E+00  0.45593999997E+02  0.45594000000E+02  0.51100000000E-03 0. -1.
         11   -1    0    0    0    0 -0.00000000000E+00 -0.00000000000E+00 -0.45593999997E+02  0.45594000000E+02  0.51100000000E-03 0.  1.
         23    2    1    2    0    0  0.88817841970E-15  0.00000000000E+00  0.00000000000E+00  0.91188000000E+02  0.91188000000E+02 0.  0.
    9900012    2    3    3    0    0 -0.62854588195E+01  0.59955312110E+01 -0.42522588367E+02  0.47787263734E+02  0.19999966667E+02 0.  0.
         12    1    3    3    0    0  0.62854588195E+01 -0.59955312110E+01  0.42522588367E+02  0.43400736266E+02  0.00000000000E+00 0. -1.
         11    1    4    4    0    0 -0.60507149372E+01  0.75825821156E+01 -0.99665695183E+01  0.13908242557E+02  0.51100000000E-03 0. -1.
        -11    1    4    4    0    0 -0.39042667184E+00 -0.48811708867E+01 -0.10596040500E+02  0.11672803294E+02  0.51100000000E-03 0.  1.
        -12    1    4    4    0    0  0.15568278954E+00  0.32941199821E+01 -0.21959978348E+02  0.22206217883E+02  0.00000000000E+00 0.  1.
</event>
<event>
 8    1  0.6046524E-010  0.9118800E+02  0.7816164E-02  0.1184000E+00
        -11   -1    0    0    0    0  0.00000000000E+00  0.00000000000E+00  0.45593999997E+02  0.45594000000E+02  0.51100000000E-03 0. -1.
         11   -1    0    0    0    0 -0.00000000000E+00 -0.00000000000E+00 -0.45593999997E+02  0.45594000000E+02  0.51100000000E-03 0.  1.
         23    2    1    2    0    0  0.00000000000E+00  0.00000000000E+00  0.71054273576E-14  0.91188000000E+02  0.91188000000E+02 0.  0.
    9900012    2    3    3    0    0  0.17227931905E+02 -0.88141031555E+01  0.38847565108E+02  0.47787269972E+02  0.19999995110E+02 0.  0.
        -12    1    3    3    0    0 -0.17227931905E+02  0.88141031555E+01 -0.38847565108E+02  0.43400730028E+02  0.00000000000E+00 0.  1.
         11    1    4    4    0    0  0.25331600617E+01  0.19604170220E+01  0.59122676003E+00  0.32572510099E+01  0.51100000000E-03 0. -1.
        -11    1    4    4    0    0  0.36911667683E+00 -0.82201034871E+01  0.14450560205E+02  0.16629042034E+02  0.51100000000E-03 0.  1.
         12    1    4    4    0    0  0.14325655166E+02 -0.25544166904E+01  0.23805778143E+02  0.27900976928E+02  0.00000000000E+00 0. -1.
</event>
<event>
 8    1  0.6046524E-010  0.9118800E+02  0.7816164E-02  0.1184000E+00
        -11   -1    0    0    0    0  0.00000000000E+00  0.00000000000E+00  0.45593999997E+02  0.45594000000E+02  0.51100000000E-03 0. -1.
         11   -1    0    0    0    0 -0.00000000000E+00 -0.00000000000E+00 -0.45593999997E+02  0.45594000000E+02  0.51100000000E-03 0.  1.
         23    2    1    2    0    0  0.00000000000E+00  0.00000000000E+00  0.00000000000E+00  0.91188000000E+02  0.91188000000E+02 0.  0.
    9900012    2    3    3    0    0  0.74106097587E+01  0.21935227487E+02  0.36709020263E+02  0.47787268318E+02  0.19999987568E+02 0.  0.
        -12    1    3    3    0    0 -0.74106097587E+01 -0.21935227487E+02 -0.36709020263E+02  0.43400731682E+02  0.00000000000E+00 0.  1.
         11    1    4    4    0    0  0.50414300550E+01  0.60647783849E+01  0.98157860550E+01  0.12591553121E+02  0.51100000000E-03 0. -1.
        -11    1    4    4    0    0 -0.12358335362E+01  0.71281104939E+01  0.60656562435E+00  0.72598323575E+01  0.51100000000E-03 0.  1.
        -12    1    4    4    0    0  0.36050132399E+01  0.87423386080E+01  0.26286668583E+02  0.27935882839E+02  0.00000000000E+00 0.  1.
</event>
<event>
 8    1  0.6046524E-010  0.9118800E+02  0.7816164E-02  0.1184000E+00
        -11   -1    0    0    0    0  0.00000000000E+00  0.00000000000E+00  0.45593999997E+02  0.45594000000E+02  0.51100000000E-03 0. -1.
         11   -1    0    0    0    0 -0.00000000000E+00 -0.00000000000E+00 -0.45593999997E+02  0.45594000000E+02  0.51100000000E-03 0.  1.
         23    2    1    2    0    0  0.00000000000E+00  0.00000000000E+00  0.00000000000E+00  0.91188000000E+02  0.91188000000E+02 0.  0.
    9900012    2    3    3    0    0  0.38685475461E+02  0.17478956152E+02 -0.90301807972E+01  0.47787261699E+02  0.19999957392E+02 0.  0.
         12    1    3    3    0    0 -0.38685475461E+02 -0.17478956152E+02  0.90301807972E+01  0.43400738301E+02  0.00000000000E+00 0. -1.
         11    1    4    4    0    0  0.20515441903E+02  0.59737749693E+01 -0.95897754588E+01  0.23420784305E+02  0.51100000000E-03 0. -1.
        -11    1    4    4    0    0 -0.15756413730E+00 -0.16884556540E+01  0.55369689993E+00  0.17838972703E+01  0.51100000000E-03 0.  1.
         12    1    4    4    0    0  0.18327597695E+02  0.13193636837E+02  0.58977617136E-02  0.22582580124E+02  0.00000000000E+00 0. -1.
</event>
<event>
 8    1  0.6046524E-010  0.9118800E+02  0.7816164E-02  0.1184000E+00
        -11   -1    0    0    0    0  0.00000000000E+00  0.00000000000E+00  0.45593999997E+02  0.45594000000E+02  0.51100000000E-03 0.  1.
         11   -1    0    0    0    0 -0.00000000000E+00 -0.00000000000E+00 -0.45593999997E+02  0.45594000000E+02  0.51100000000E-03 0. -1.
         23    2    1    2    0    0  0.00000000000E+00  0.00000000000E+00  0.00000000000E+00  0.91188000000E+02  0.91188000000E+02 0.  0.
    9900012    2    3    3    0    0 -0.19106103803E+02  0.35445033291E+02  0.16193506965E+02  0.47787271257E+02  0.20000000970E+02 0.  0.
         12    1    3    3    0    0  0.19106103803E+02 -0.35445033291E+02 -0.16193506965E+02  0.43400728743E+02  0.00000000000E+00 0. -1.
         11    1    4    4    0    0 -0.49805893292E+01 -0.36349743682E+00  0.33301224824E+01  0.60023425812E+01  0.51100000000E-03 0. -1.
        -11    1    4    4    0    0 -0.76137569577E+01  0.15487823685E+02  0.10772313505E+02  0.20344156803E+02  0.51100000000E-03 0.  1.
         12    1    4    4    0    0 -0.65117575166E+01  0.20320707043E+02  0.20910709778E+01  0.21440771873E+02  0.00000000000E+00 0. -1.
</event>
<event>
 8    1  0.6046524E-010  0.9118800E+02  0.7816164E-02  0.1184000E+00
        -11   -1    0    0    0    0  0.00000000000E+00  0.00000000000E+00  0.45593999997E+02  0.45594000000E+02  0.51100000000E-03 0. -1.
         11   -1    0    0    0    0 -0.00000000000E+00 -0.00000000000E+00 -0.45593999997E+02  0.45594000000E+02  0.51100000000E-03 0.  1.
         23    2    1    2    0    0  0.35527136788E-14  0.00000000000E+00  0.00000000000E+00  0.91188000000E+02  0.91188000000E+02 0.  0.
    9900012    2    3    3    0    0 -0.28831091747E+02  0.21877338322E+02  0.23953538207E+02  0.47787288301E+02  0.20000078678E+02 0.  0.
        -12    1    3    3    0    0  0.28831091747E+02 -0.21877338322E+02 -0.23953538207E+02  0.43400711699E+02  0.00000000000E+00 0.  1.
         11    1    4    4    0    0 -0.24114289646E+02  0.80136084090E+01  0.19255171869E+02  0.31882260409E+02  0.51100000000E-03 0. -1.
        -11    1    4    4    0    0 -0.25620816906E+01  0.39177760089E+01 -0.35286715912E-01  0.46812900849E+01  0.51100000000E-03 0.  1.
         12    1    4    4    0    0 -0.21547204109E+01  0.99459539043E+01  0.47336530537E+01  0.11223737806E+02  0.00000000000E+00 0. -1.
</event>
<event>
 8    1  0.6046524E-010  0.9118800E+02  0.7816164E-02  0.1184000E+00
        -11   -1    0    0    0    0  0.00000000000E+00  0.00000000000E+00  0.45593999997E+02  0.45594000000E+02  0.51100000000E-03 0. -1.
         11   -1    0    0    0    0 -0.00000000000E+00 -0.00000000000E+00 -0.45593999997E+02  0.45594000000E+02  0.51100000000E-03 0.  1.
         23    2    1    2    0    0  0.00000000000E+00  0.00000000000E+00  0.00000000000E+00  0.91188000000E+02  0.91188000000E+02 0.  0.
    9900012    2    3    3    0    0  0.26394716322E+02 -0.18547314046E+02 -0.29033426970E+02  0.47787265103E+02  0.19999972909E+02 0.  0.
         12    1    3    3    0    0 -0.26394716322E+02  0.18547314046E+02  0.29033426970E+02  0.43400734897E+02  0.00000000000E+00 0. -1.
         11    1    4    4    0    0 -0.27475786082E+01 -0.31586456884E+01 -0.14094959373E+01  0.44173419442E+01  0.51100000000E-03 0. -1.
        -11    1    4    4    0    0  0.13808157798E+02 -0.77379009696E+01 -0.96614142547E+01  0.18544089594E+02  0.51100000000E-03 0.  1.
         12    1    4    4    0    0  0.15334137132E+02 -0.76507673877E+01 -0.17962516778E+02  0.24825833565E+02  0.00000000000E+00 0. -1.
</event>
<event>
 8    1  0.6046524E-010  0.9118800E+02  0.7816164E-02  0.1184000E+00
        -11   -1    0    0    0    0  0.00000000000E+00  0.00000000000E+00  0.45593999997E+02  0.45594000000E+02  0.51100000000E-03 0. -1.
         11   -1    0    0    0    0 -0.00000000000E+00 -0.00000000000E+00 -0.45593999997E+02  0.45594000000E+02  0.51100000000E-03 0.  1.
         23    2    1    2    0    0  0.00000000000E+00  0.17763568394E-14  0.00000000000E+00  0.91188000000E+02  0.91188000000E+02 0.  0.
    9900012    2    3    3    0    0  0.16859508552E+02  0.12640985779E+02 -0.37941851050E+02  0.47787290200E+02  0.20000087336E+02 0.  0.
         12    1    3    3    0    0 -0.16859508552E+02 -0.12640985779E+02  0.37941851050E+02  0.43400709800E+02  0.00000000000E+00 0. -1.
         11    1    4    4    0    0  0.70039936930E+01  0.11317416504E+02 -0.20116251434E+02  0.24120601485E+02  0.51100000000E-03 0.  1.
        -11    1    4    4    0    0  0.77941037968E+01  0.18911835396E+01 -0.28079580638E+01  0.84976030694E+01  0.51100000000E-03 0. -1.
        -12    1    4    4    0    0  0.20614110623E+01 -0.56761426484E+00 -0.15017641552E+02  0.15169085645E+02  0.00000000000E+00 0.  1.
</event>
<event>
 8    1  0.6046524E-010  0.9118800E+02  0.7816164E-02  0.1184000E+00
        -11   -1    0    0    0    0  0.00000000000E+00  0.00000000000E+00  0.45593999997E+02  0.45594000000E+02  0.51100000000E-03 0. -1.
         11   -1    0    0    0    0 -0.00000000000E+00 -0.00000000000E+00 -0.45593999997E+02  0.45594000000E+02  0.51100000000E-03 0.  1.
         23    2    1    2    0    0  0.35527136788E-14  0.17763568394E-14  0.00000000000E+00  0.91188000000E+02  0.91188000000E+02 0.  0.
    9900012    2    3    3    0    0  0.22887016313E+02  0.11747273802E+02 -0.34954451709E+02  0.47787220609E+02  0.19999770043E+02 0.  0.
         12    1    3    3    0    0 -0.22887016313E+02 -0.11747273802E+02  0.34954451709E+02  0.43400779391E+02  0.00000000000E+00 0. -1.
         11    1    4    4    0    0  0.12465382899E+02  0.39295609508E+01 -0.18942376317E+02  0.23013927107E+02  0.51100000000E-03 0. -1.
        -11    1    4    4    0    0  0.85479776240E+01  0.66097367201E+01 -0.25161469486E+01  0.11094482264E+02  0.51100000000E-03 0.  1.
         12    1    4    4    0    0  0.18736557903E+01  0.12079761306E+01 -0.13495928443E+02  0.13678811239E+02  0.00000000000E+00 0. -1.
</event>
<event>
 8    1  0.6046524E-010  0.9118800E+02  0.7816164E-02  0.1184000E+00
        -11   -1    0    0    0    0  0.00000000000E+00  0.00000000000E+00  0.45593999997E+02  0.45594000000E+02  0.51100000000E-03 0. -1.
         11   -1    0    0    0    0 -0.00000000000E+00 -0.00000000000E+00 -0.45593999997E+02  0.45594000000E+02  0.51100000000E-03 0.  1.
         23    2    1    2    0    0  0.00000000000E+00  0.88817841970E-15  0.71054273576E-14  0.91188000000E+02  0.91188000000E+02 0.  0.
    9900012    2    3    3    0    0  0.28935581423E+02  0.74439284703E+01  0.31479253252E+02  0.47787270414E+02  0.19999997125E+02 0.  0.
        -12    1    3    3    0    0 -0.28935581423E+02 -0.74439284703E+01 -0.31479253252E+02  0.43400729586E+02  0.00000000000E+00 0.  1.
         11    1    4    4    0    0  0.21082875327E+01 -0.30118865542E+01  0.40818284140E+01  0.54934197362E+01  0.51100000000E-03 0.  1.
        -11    1    4    4    0    0  0.16228346569E+02  0.97115645842E+01  0.25092884906E+02  0.31421753487E+02  0.51100000000E-03 0. -1.
         12    1    4    4    0    0  0.10598947321E+02  0.74425044026E+00  0.23045399320E+01  0.10872097191E+02  0.00000000000E+00 0. -1.
</event>
<event>
 8    1  0.6046524E-010  0.9118800E+02  0.7816164E-02  0.1184000E+00
        -11   -1    0    0    0    0  0.00000000000E+00  0.00000000000E+00  0.45593999997E+02  0.45594000000E+02  0.51100000000E-03 0.  1.
         11   -1    0    0    0    0 -0.00000000000E+00 -0.00000000000E+00 -0.45593999997E+02  0.45594000000E+02  0.51100000000E-03 0. -1.
         23    2    1    2    0    0 -0.71054273576E-14  0.00000000000E+00 -0.55511151231E-16  0.91188000000E+02  0.91188000000E+02 0.  0.
    9900012    2    3    3    0    0 -0.43373078530E+02  0.15428586298E+01 -0.13886873080E+00  0.47787266845E+02  0.19999980852E+02 0.  0.
        -12    1    3    3    0    0  0.43373078530E+02 -0.15428586298E+01  0.13886873080E+00  0.43400733155E+02  0.00000000000E+00 0.  1.
         11    1    4    4    0    0 -0.20306601802E+02 -0.18843603422E+01  0.11469661821E+00  0.20394166966E+02  0.51100000000E-03 0. -1.
        -11    1    4    4    0    0 -0.11787800103E+02  0.89800522252E+01 -0.29107230944E+00  0.14821548252E+02  0.51100000000E-03 0.  1.
        -12    1    4    4    0    0 -0.11278676624E+02 -0.55528332533E+01  0.37506960433E-01  0.12571551627E+02  0.00000000000E+00 0.  1.
</event>
<event>
 8    1  0.6046524E-010  0.9118800E+02  0.7816164E-02  0.1184000E+00
        -11   -1    0    0    0    0  0.00000000000E+00  0.00000000000E+00  0.45593999997E+02  0.45594000000E+02  0.51100000000E-03 0. -1.
         11   -1    0    0    0    0 -0.00000000000E+00 -0.00000000000E+00 -0.45593999997E+02  0.45594000000E+02  0.51100000000E-03 0.  1.
         23    2    1    2    0    0  0.00000000000E+00  0.17763568394E-14  0.00000000000E+00  0.91188000000E+02  0.91188000000E+02 0.  0.
    9900012    2    3    3    0    0 -0.13476399403E+02  0.11145498336E+02 -0.39721378337E+02  0.47787269925E+02  0.19999994897E+02 0.  0.
         12    1    3    3    0    0  0.13476399403E+02 -0.11145498336E+02  0.39721378337E+02  0.43400730075E+02  0.00000000000E+00 0. -1.
         11    1    4    4    0    0 -0.70450229886E+01  0.40203815132E+01 -0.31881455669E+01  0.87155085244E+01  0.51100000000E-03 0. -1.
        -11    1    4    4    0    0 -0.26832647838E+01  0.83979255128E+01 -0.17093444021E+02  0.19233067659E+02  0.51100000000E-03 0.  1.
         12    1    4    4    0    0 -0.37481116303E+01 -0.12728086900E+01 -0.19439788750E+02  0.19838693742E+02  0.00000000000E+00 0. -1.
</event>
<event>
 8    1  0.6046524E-010  0.9118800E+02  0.7816164E-02  0.1184000E+00
        -11   -1    0    0    0    0  0.00000000000E+00  0.00000000000E+00  0.45593999997E+02  0.45594000000E+02  0.51100000000E-03 0. -1.
         11   -1    0    0    0    0 -0.00000000000E+00 -0.00000000000E+00 -0.45593999997E+02  0.45594000000E+02  0.51100000000E-03 0.  1.
         23    2    1    2    0    0  0.17763568394E-14  0.71054273576E-14 -0.35527136788E-14  0.91188000000E+02  0.91188000000E+02 0.  0.
    9900012    2    3    3    0    0  0.14994026030E+02 -0.38492260620E+02  0.13309720449E+02  0.47787267257E+02  0.19999982730E+02 0.  0.
        -12    1    3    3    0    0 -0.14994026030E+02  0.38492260620E+02 -0.13309720449E+02  0.43400732743E+02  0.00000000000E+00 0.  1.
         11    1    4    4    0    0  0.10041445036E+02 -0.21223837113E+02  0.15480543357E+02  0.28123461791E+02  0.51100000000E-03 0. -1.
        -11    1    4    4    0    0  0.70478488692E+01 -0.13229183200E+02 -0.15006180313E+01  0.15064372425E+02  0.51100000000E-03 0.  1.
        -12    1    4    4    0    0 -0.20952678746E+01 -0.40392403070E+01 -0.67020487677E+00  0.45994330412E+01  0.00000000000E+00 0.  1.
</event>
<event>
 8    1  0.6046524E-010  0.9118800E+02  0.7816164E-02  0.1184000E+00
        -11   -1    0    0    0    0  0.00000000000E+00  0.00000000000E+00  0.45593999997E+02  0.45594000000E+02  0.51100000000E-03 0. -1.
         11   -1    0    0    0    0 -0.00000000000E+00 -0.00000000000E+00 -0.45593999997E+02  0.45594000000E+02  0.51100000000E-03 0.  1.
         23    2    1    2    0    0 -0.17763568394E-14  0.00000000000E+00  0.00000000000E+00  0.91188000000E+02  0.91188000000E+02 0.  0.
    9900012    2    3    3    0    0 -0.15608438216E+02  0.39653866811E+02 -0.82201456790E+01  0.47787270840E+02  0.19999999069E+02 0.  0.
         12    1    3    3    0    0  0.15608438216E+02 -0.39653866811E+02  0.82201456790E+01  0.43400729160E+02  0.00000000000E+00 0. -1.
         11    1    4    4    0    0  0.11647269620E+01  0.65091159485E+01  0.82192449689E+00  0.66633879871E+01  0.51100000000E-03 0. -1.
        -11    1    4    4    0    0 -0.91622940010E+01  0.92011432564E+01 -0.93447951681E+01  0.15997933166E+02  0.51100000000E-03 0.  1.
        -12    1    4    4    0    0 -0.76108711769E+01  0.23943607606E+02  0.30272499220E+00  0.25125949687E+02  0.00000000000E+00 0.  1.
</event>
<event>
 8    1  0.6046524E-010  0.9118800E+02  0.7816164E-02  0.1184000E+00
        -11   -1    0    0    0    0  0.00000000000E+00  0.00000000000E+00  0.45593999997E+02  0.45594000000E+02  0.51100000000E-03 0.  1.
         11   -1    0    0    0    0 -0.00000000000E+00 -0.00000000000E+00 -0.45593999997E+02  0.45594000000E+02  0.51100000000E-03 0. -1.
         23    2    1    2    0    0 -0.88817841970E-15  0.00000000000E+00  0.00000000000E+00  0.91188000000E+02  0.91188000000E+02 0.  0.
    9900012    2    3    3    0    0 -0.40351125112E+01 -0.26084749545E+02 -0.34451807902E+02  0.47787270057E+02  0.19999995500E+02 0.  0.
         12    1    3    3    0    0  0.40351125112E+01  0.26084749545E+02  0.34451807902E+02  0.43400729943E+02  0.00000000000E+00 0. -1.
         11    1    4    4    0    0  0.18565131297E+01  0.27722800733E+01 -0.25004398818E+01  0.41694577189E+01  0.51100000000E-03 0. -1.
        -11    1    4    4    0    0 -0.21011269460E+00 -0.98947715872E+01 -0.10623696495E+02  0.14519420773E+02  0.51100000000E-03 0.  1.
         12    1    4    4    0    0 -0.56815129463E+01 -0.18962258031E+02 -0.21327671526E+02  0.29098391566E+02  0.00000000000E+00 0. -1.
</event>
<event>
 8    1  0.6046524E-010  0.9118800E+02  0.7816164E-02  0.1184000E+00
        -11   -1    0    0    0    0  0.00000000000E+00  0.00000000000E+00  0.45593999997E+02  0.45594000000E+02  0.51100000000E-03 0. -1.
         11   -1    0    0    0    0 -0.00000000000E+00 -0.00000000000E+00 -0.45593999997E+02  0.45594000000E+02  0.51100000000E-03 0.  1.
         23    2    1    2    0    0  0.00000000000E+00  0.88817841970E-15  0.00000000000E+00  0.91188000000E+02  0.91188000000E+02 0.  0.
    9900012    2    3    3    0    0 -0.17344649522E+02 -0.60550467206E+01 -0.39320771613E+02  0.47787268001E+02  0.19999986122E+02 0.  0.
         12    1    3    3    0    0  0.17344649522E+02  0.60550467206E+01  0.39320771613E+02  0.43400731999E+02  0.00000000000E+00 0. -1.
         11    1    4    4    0    0  0.23916771909E+01 -0.58827530620E+00 -0.21415927655E+01  0.32638332457E+01  0.51100000000E-03 0. -1.
        -11    1    4    4    0    0 -0.11177360784E+02 -0.90218068276E+01 -0.16589060659E+02  0.21943639769E+02  0.51100000000E-03 0.  1.
        -12    1    4    4    0    0 -0.85589659290E+01  0.35550354131E+01 -0.20590118189E+02  0.22579794986E+02  0.00000000000E+00 0.  1.
</event>
<event>
 8    1  0.6046524E-010  0.9118800E+02  0.7816164E-02  0.1184000E+00
        -11   -1    0    0    0    0  0.00000000000E+00  0.00000000000E+00  0.45593999997E+02  0.45594000000E+02  0.51100000000E-03 0. -1.
         11   -1    0    0    0    0 -0.00000000000E+00 -0.00000000000E+00 -0.45593999997E+02  0.45594000000E+02  0.51100000000E-03 0.  1.
         23    2    1    2    0    0 -0.35527136788E-14  0.00000000000E+00  0.00000000000E+00  0.91188000000E+02  0.91188000000E+02 0.  0.
    9900012    2    3    3    0    0 -0.22416028262E+02  0.31208242086E+02 -0.20178963326E+02  0.47787271227E+02  0.20000000832E+02 0.  0.
         12    1    3    3    0    0  0.22416028262E+02 -0.31208242086E+02  0.20178963326E+02  0.43400728773E+02  0.00000000000E+00 0. -1.
         11    1    4    4    0    0 -0.17668467048E+01  0.12647838794E+02 -0.25189996338E+01  0.13016717437E+02  0.51100000000E-03 0. -1.
        -11    1    4    4    0    0 -0.77700648788E+01  0.11837783423E+02 -0.13722455380E+02  0.19718336808E+02  0.51100000000E-03 0.  1.
        -12    1    4    4    0    0 -0.12879116679E+02  0.67226198694E+01 -0.39375083124E+01  0.15052216981E+02  0.00000000000E+00 0.  1.
</event>
<event>
 8    1  0.6046524E-010  0.9118800E+02  0.7816164E-02  0.1184000E+00
        -11   -1    0    0    0    0  0.00000000000E+00  0.00000000000E+00  0.45593999997E+02  0.45594000000E+02  0.51100000000E-03 0. -1.
         11   -1    0    0    0    0 -0.00000000000E+00 -0.00000000000E+00 -0.45593999997E+02  0.45594000000E+02  0.51100000000E-03 0.  1.
         23    2    1    2    0    0  0.35527136788E-14  0.00000000000E+00  0.00000000000E+00  0.91188000000E+02  0.91188000000E+02 0.  0.
    9900012    2    3    3    0    0 -0.18004732779E+02 -0.33256867038E+02 -0.21293972936E+02  0.47787275455E+02  0.20000020112E+02 0.  0.
         12    1    3    3    0    0  0.18004732779E+02  0.33256867038E+02  0.21293972936E+02  0.43400724545E+02  0.00000000000E+00 0. -1.
         11    1    4    4    0    0 -0.14743673105E+02 -0.10980538513E+02 -0.97403934501E+01  0.20804407886E+02  0.51100000000E-03 0. -1.
        -11    1    4    4    0    0  0.22695182826E+01 -0.25717911414E+01  0.10030170113E+00  0.34314550270E+01  0.51100000000E-03 0.  1.
        -12    1    4    4    0    0 -0.55305779561E+01 -0.19704537383E+02 -0.11653881187E+02  0.23551412542E+02  0.00000000000E+00 0.  1.
</event>
<event>
 8    1  0.6046524E-010  0.9118800E+02  0.7816164E-02  0.1184000E+00
        -11   -1    0    0    0    0  0.00000000000E+00  0.00000000000E+00  0.45593999997E+02  0.45594000000E+02  0.51100000000E-03 0. -1.
         11   -1    0    0    0    0 -0.00000000000E+00 -0.00000000000E+00 -0.45593999997E+02  0.45594000000E+02  0.51100000000E-03 0.  1.
         23    2    1    2    0    0 -0.35527136788E-14  0.17763568394E-14  0.71054273576E-14  0.91188000000E+02  0.91188000000E+02 0.  0.
    9900012    2    3    3    0    0  0.23810543930E+02 -0.15896653830E+02 -0.32618669179E+02  0.47787272077E+02  0.20000004707E+02 0.  0.
         12    1    3    3    0    0 -0.23810543930E+02  0.15896653830E+02  0.32618669179E+02  0.43400727923E+02  0.00000000000E+00 0. -1.
         11    1    4    4    0    0  0.87848292032E+01 -0.59086531286E+00 -0.17924348762E+02  0.19970093259E+02  0.51100000000E-03 0. -1.
        -11    1    4    4    0    0  0.77738069526E+01 -0.12007275313E+02 -0.13668272486E+02  0.19784549729E+02  0.51100000000E-03 0.  1.
        -12    1    4    4    0    0  0.72519077745E+01 -0.32985132049E+01 -0.10260479311E+01  0.80326290895E+01  0.00000000000E+00 0.  1.
</event>
<event>
 8    1  0.6046524E-010  0.9118800E+02  0.7816164E-02  0.1184000E+00
        -11   -1    0    0    0    0  0.00000000000E+00  0.00000000000E+00  0.45593999997E+02  0.45594000000E+02  0.51100000000E-03 0. -1.
         11   -1    0    0    0    0 -0.00000000000E+00 -0.00000000000E+00 -0.45593999997E+02  0.45594000000E+02  0.51100000000E-03 0.  1.
         23    2    1    2    0    0 -0.17763568394E-14  0.00000000000E+00  0.00000000000E+00  0.91188000000E+02  0.91188000000E+02 0.  0.
    9900012    2    3    3    0    0 -0.10739254887E+02 -0.17088706185E+02 -0.38422238466E+02  0.47787264023E+02  0.19999967986E+02 0.  0.
         12    1    3    3    0    0  0.10739254887E+02  0.17088706185E+02  0.38422238466E+02  0.43400735977E+02  0.00000000000E+00 0. -1.
         11    1    4    4    0    0  0.50432474363E+01 -0.17307926014E+01 -0.48496874214E+01  0.72075971086E+01  0.51100000000E-03 0. -1.
        -11    1    4    4    0    0 -0.60378482136E+01 -0.22157015634E+01 -0.97298745228E+01  0.11663421580E+02  0.51100000000E-03 0.  1.
         12    1    4    4    0    0 -0.97446541099E+01 -0.13142212020E+02 -0.23842676522E+02  0.28916245334E+02  0.00000000000E+00 0. -1.
</event>
<event>
 8    1  0.6046524E-010  0.9118800E+02  0.7816164E-02  0.1184000E+00
        -11   -1    0    0    0    0  0.00000000000E+00  0.00000000000E+00  0.45593999997E+02  0.45594000000E+02  0.51100000000E-03 0. -1.
         11   -1    0    0    0    0 -0.00000000000E+00 -0.00000000000E+00 -0.45593999997E+02  0.45594000000E+02  0.51100000000E-03 0.  1.
         23    2    1    2    0    0  0.00000000000E+00  0.00000000000E+00  0.00000000000E+00  0.91188000000E+02  0.91188000000E+02 0.  0.
    9900012    2    3    3    0    0  0.23039330860E+02 -0.16858082503E+02 -0.32689713467E+02  0.47787273293E+02  0.20000010251E+02 0.  0.
         12    1    3    3    0    0 -0.23039330860E+02  0.16858082503E+02  0.32689713467E+02  0.43400726707E+02  0.00000000000E+00 0. -1.
         11    1    4    4    0    0  0.91356603262E+01 -0.36541248552E+01 -0.14249334548E+02  0.17316363746E+02  0.51100000000E-03 0. -1.
        -11    1    4    4    0    0  0.63860253862E+01 -0.60790290055E+01 -0.18070538591E+02  0.20106722237E+02  0.51100000000E-03 0.  1.
         12    1    4    4    0    0  0.75176451478E+01 -0.71249286418E+01 -0.36984032767E+00  0.10364187310E+02  0.00000000000E+00 0. -1.
</event>
<event>
 8    1  0.6046524E-010  0.9118800E+02  0.7816164E-02  0.1184000E+00
        -11   -1    0    0    0    0  0.00000000000E+00  0.00000000000E+00  0.45593999997E+02  0.45594000000E+02  0.51100000000E-03 0.  1.
         11   -1    0    0    0    0 -0.00000000000E+00 -0.00000000000E+00 -0.45593999997E+02  0.45594000000E+02  0.51100000000E-03 0. -1.
         23    2    1    2    0    0  0.17763568394E-14  0.00000000000E+00  0.88817841970E-15  0.91188000000E+02  0.91188000000E+02 0.  0.
    9900012    2    3    3    0    0  0.12801128295E+02  0.41152528687E+02  0.51209528320E+01  0.47787266586E+02  0.19999979673E+02 0.  0.
         12    1    3    3    0    0 -0.12801128295E+02 -0.41152528687E+02 -0.51209528320E+01  0.43400733414E+02  0.00000000000E+00 0. -1.
         11    1    4    4    0    0  0.34047873358E+01  0.17054108051E+01  0.47153430136E+01  0.60609787009E+01  0.51100000000E-03 0. -1.
        -11    1    4    4    0    0  0.97552165963E+01  0.23647141171E+02  0.28338152839E+01  0.25736783904E+02  0.51100000000E-03 0.  1.
        -12    1    4    4    0    0 -0.35887563701E+00  0.15799976711E+02 -0.24282054655E+01  0.15989503981E+02  0.00000000000E+00 0.  1.
</event>
<event>
 8    1  0.6046524E-010  0.9118800E+02  0.7816164E-02  0.1184000E+00
        -11   -1    0    0    0    0  0.00000000000E+00  0.00000000000E+00  0.45593999997E+02  0.45594000000E+02  0.51100000000E-03 0. -1.
         11   -1    0    0    0    0 -0.00000000000E+00 -0.00000000000E+00 -0.45593999997E+02  0.45594000000E+02  0.51100000000E-03 0.  1.
         23    2    1    2    0    0 -0.71054273576E-14  0.17763568394E-14  0.00000000000E+00  0.91188000000E+02  0.91188000000E+02 0.  0.
    9900012    2    3    3    0    0  0.24629726479E+02 -0.14670974166E+02  0.32584693786E+02  0.47787272142E+02  0.20000005006E+02 0.  0.
        -12    1    3    3    0    0 -0.24629726479E+02  0.14670974166E+02 -0.32584693786E+02  0.43400727858E+02  0.00000000000E+00 0.  1.
         11    1    4    4    0    0  0.23337052736E+02 -0.13004332978E+02  0.29538925557E+02  0.39828116073E+02  0.51100000000E-03 0.  1.
        -11    1    4    4    0    0  0.25374702748E+01  0.17991824580E+01 -0.10538563614E+00  0.31123816132E+01  0.51100000000E-03 0. -1.
        -12    1    4    4    0    0 -0.12447965312E+01 -0.34658236455E+01  0.31511538658E+01  0.48467744565E+01  0.00000000000E+00 0.  1.
</event>
<event>
 8    1  0.6046524E-010  0.9118800E+02  0.7816164E-02  0.1184000E+00
        -11   -1    0    0    0    0  0.00000000000E+00  0.00000000000E+00  0.45593999997E+02  0.45594000000E+02  0.51100000000E-03 0. -1.
         11   -1    0    0    0    0 -0.00000000000E+00 -0.00000000000E+00 -0.45593999997E+02  0.45594000000E+02  0.51100000000E-03 0.  1.
         23    2    1    2    0    0  0.00000000000E+00  0.16653345369E-15  0.00000000000E+00  0.91188000000E+02  0.91188000000E+02 0.  0.
    9900012    2    3    3    0    0  0.38525965623E+02  0.45570047623E+00 -0.19979134667E+02  0.47787268300E+02  0.19999987485E+02 0.  0.
         12    1    3    3    0    0 -0.38525965623E+02 -0.45570047623E+00  0.19979134667E+02  0.43400731700E+02  0.00000000000E+00 0. -1.
         11    1    4    4    0    0  0.84732451329E+01 -0.11504579054E+01  0.35959785915E+01  0.92763408069E+01  0.51100000000E-03 0. -1.
        -11    1    4    4    0    0  0.81798464233E+01 -0.55334702942E+00 -0.87991493661E+01  0.12026683261E+02  0.51100000000E-03 0.  1.
         12    1    4    4    0    0  0.21872874066E+02  0.21595054110E+01 -0.14775963893E+02  0.26484244231E+02  0.00000000000E+00 0. -1.
</event>
<event>
 8    1  0.6046524E-010  0.9118800E+02  0.7816164E-02  0.1184000E+00
        -11   -1    0    0    0    0  0.00000000000E+00  0.00000000000E+00  0.45593999997E+02  0.45594000000E+02  0.51100000000E-03 0. -1.
         11   -1    0    0    0    0 -0.00000000000E+00 -0.00000000000E+00 -0.45593999997E+02  0.45594000000E+02  0.51100000000E-03 0.  1.
         23    2    1    2    0    0  0.00000000000E+00  0.00000000000E+00  0.00000000000E+00  0.91188000000E+02  0.91188000000E+02 0.  0.
    9900012    2    3    3    0    0 -0.22091967176E+02  0.32029414749E+02 -0.19227156509E+02  0.47787286062E+02  0.20000068472E+02 0.  0.
         12    1    3    3    0    0  0.22091967176E+02 -0.32029414749E+02  0.19227156509E+02  0.43400713938E+02  0.00000000000E+00 0. -1.
         11    1    4    4    0    0 -0.14839162391E+02  0.30458520432E+02 -0.14007228490E+02  0.36662305678E+02  0.51100000000E-03 0. -1.
        -11    1    4    4    0    0 -0.39414827817E+01  0.39415287466E+01 -0.19606978498E+01  0.59089145956E+01  0.51100000000E-03 0.  1.
         12    1    4    4    0    0 -0.33113220039E+01 -0.23706344300E+01 -0.32592301700E+01  0.52160657890E+01  0.00000000000E+00 0. -1.
</event>
<event>
 8    1  0.6046524E-010  0.9118800E+02  0.7816164E-02  0.1184000E+00
        -11   -1    0    0    0    0  0.00000000000E+00  0.00000000000E+00  0.45593999997E+02  0.45594000000E+02  0.51100000000E-03 0.  1.
         11   -1    0    0    0    0 -0.00000000000E+00 -0.00000000000E+00 -0.45593999997E+02  0.45594000000E+02  0.51100000000E-03 0. -1.
         23    2    1    2    0    0  0.35527136788E-14  0.00000000000E+00  0.00000000000E+00  0.91188000000E+02  0.91188000000E+02 0.  0.
    9900012    2    3    3    0    0 -0.16536422961E+02  0.30629906710E+02  0.25922554666E+02  0.47787270630E+02  0.19999998112E+02 0.  0.
        -12    1    3    3    0    0  0.16536422961E+02 -0.30629906710E+02 -0.25922554666E+02  0.43400729370E+02  0.00000000000E+00 0.  1.
         11    1    4    4    0    0 -0.60500178892E+01  0.97371495253E+01  0.38838364739E+01  0.12103676440E+02  0.51100000000E-03 0. -1.
        -11    1    4    4    0    0  0.83305960136E+00  0.32115920162E+01  0.11929510952E+02  0.12382307676E+02  0.51100000000E-03 0.  1.
         12    1    4    4    0    0 -0.11319464673E+02  0.17681165168E+02  0.10109207241E+02  0.23301286514E+02  0.00000000000E+00 0. -1.
</event>
<event>
 8    1  0.6046524E-010  0.9118800E+02  0.7816164E-02  0.1184000E+00
        -11   -1    0    0    0    0  0.00000000000E+00  0.00000000000E+00  0.45593999997E+02  0.45594000000E+02  0.51100000000E-03 0. -1.
         11   -1    0    0    0    0 -0.00000000000E+00 -0.00000000000E+00 -0.45593999997E+02  0.45594000000E+02  0.51100000000E-03 0.  1.
         23    2    1    2    0    0  0.00000000000E+00  0.00000000000E+00  0.00000000000E+00  0.91188000000E+02  0.91188000000E+02 0.  0.
    9900012    2    3    3    0    0 -0.32918962420E+02 -0.11254458329E+02 -0.25948074990E+02  0.47787268269E+02  0.19999987345E+02 0.  0.
         12    1    3    3    0    0  0.32918962420E+02  0.11254458329E+02  0.25948074990E+02  0.43400731731E+02  0.00000000000E+00 0. -1.
         11    1    4    4    0    0 -0.14950810480E+02 -0.42586494642E+01 -0.29732246816E+01  0.15827283233E+02  0.51100000000E-03 0. -1.
        -11    1    4    4    0    0 -0.65641572142E+01 -0.82979443737E+01 -0.91222038149E+01  0.13969919236E+02  0.51100000000E-03 0.  1.
        -12    1    4    4    0    0 -0.11403994726E+02  0.13021355091E+01 -0.13852646494E+02  0.17990065800E+02  0.00000000000E+00 0.  1.
</event>
<event>
 8    1  0.6046524E-010  0.9118800E+02  0.7816164E-02  0.1184000E+00
        -11   -1    0    0    0    0  0.00000000000E+00  0.00000000000E+00  0.45593999997E+02  0.45594000000E+02  0.51100000000E-03 0. -1.
         11   -1    0    0    0    0 -0.00000000000E+00 -0.00000000000E+00 -0.45593999997E+02  0.45594000000E+02  0.51100000000E-03 0.  1.
         23    2    1    2    0    0  0.00000000000E+00  0.00000000000E+00  0.35527136788E-14  0.91188000000E+02  0.91188000000E+02 0.  0.
    9900012    2    3    3    0    0 -0.13139147182E+02 -0.28779355671E+02 -0.29710849604E+02  0.47787273212E+02  0.20000009881E+02 0.  0.
         12    1    3    3    0    0  0.13139147182E+02  0.28779355671E+02  0.29710849604E+02  0.43400726788E+02  0.00000000000E+00 0. -1.
         11    1    4    4    0    0 -0.12909480068E+02 -0.90213269353E+01 -0.10279927956E+02  0.18807337248E+02  0.51100000000E-03 0. -1.
        -11    1    4    4    0    0  0.11461491966E+01 -0.96334910331E+01 -0.14952444417E+02  0.17823955840E+02  0.51100000000E-03 0.  1.
        -12    1    4    4    0    0 -0.13758163102E+01 -0.10124537703E+02 -0.44784772311E+01  0.11155980124E+02  0.00000000000E+00 0.  1.
</event>
<event>
 8    1  0.6046524E-010  0.9118800E+02  0.7816164E-02  0.1184000E+00
        -11   -1    0    0    0    0  0.00000000000E+00  0.00000000000E+00  0.45593999997E+02  0.45594000000E+02  0.51100000000E-03 0. -1.
         11   -1    0    0    0    0 -0.00000000000E+00 -0.00000000000E+00 -0.45593999997E+02  0.45594000000E+02  0.51100000000E-03 0.  1.
         23    2    1    2    0    0  0.00000000000E+00  0.00000000000E+00  0.00000000000E+00  0.91188000000E+02  0.91188000000E+02 0.  0.
    9900012    2    3    3    0    0  0.34426993532E+02  0.13281475504E+02  0.22847489415E+02  0.47787271345E+02  0.20000001370E+02 0.  0.
        -12    1    3    3    0    0 -0.34426993532E+02 -0.13281475504E+02 -0.22847489415E+02  0.43400728655E+02  0.00000000000E+00 0.  1.
         11    1    4    4    0    0  0.14647719242E+02  0.33165542050E+01  0.24076256566E+01  0.15210255499E+02  0.51100000000E-03 0.  1.
        -11    1    4    4    0    0  0.18276135632E+02  0.91773836997E+01  0.11469635307E+02  0.23447687297E+02  0.51100000000E-03 0. -1.
        -12    1    4    4    0    0  0.15031386583E+01  0.78753759927E+00  0.89702284511E+01  0.91293285493E+01  0.00000000000E+00 0.  1.
</event>
<event>
 8    1  0.6046524E-010  0.9118800E+02  0.7816164E-02  0.1184000E+00
        -11   -1    0    0    0    0  0.00000000000E+00  0.00000000000E+00  0.45593999997E+02  0.45594000000E+02  0.51100000000E-03 0. -1.
         11   -1    0    0    0    0 -0.00000000000E+00 -0.00000000000E+00 -0.45593999997E+02  0.45594000000E+02  0.51100000000E-03 0.  1.
         23    2    1    2    0    0 -0.88817841970E-15  0.88817841970E-15 -0.71054273576E-14  0.91188000000E+02  0.91188000000E+02 0.  0.
    9900012    2    3    3    0    0 -0.46193444949E+01  0.62899125599E+01 -0.42693352774E+02  0.47787265966E+02  0.19999976847E+02 0.  0.
         12    1    3    3    0    0  0.46193444949E+01 -0.62899125599E+01  0.42693352774E+02  0.43400734034E+02  0.00000000000E+00 0. -1.
         11    1    4    4    0    0  0.30514577169E+01  0.34994678860E+01 -0.34390732815E+02  0.34702740144E+02  0.51100000000E-03 0. -1.
        -11    1    4    4    0    0 -0.56093953382E+00  0.43139806140E+00  0.94686546227E+00  0.11820794866E+01  0.51100000000E-03 0.  1.
        -12    1    4    4    0    0 -0.71098626780E+01  0.23590466125E+01 -0.92494854208E+01  0.11902446336E+02  0.00000000000E+00 0.  1.
</event>
<event>
 8    1  0.6046524E-010  0.9118800E+02  0.7816164E-02  0.1184000E+00
        -11   -1    0    0    0    0  0.00000000000E+00  0.00000000000E+00  0.45593999997E+02  0.45594000000E+02  0.51100000000E-03 0. -1.
         11   -1    0    0    0    0 -0.00000000000E+00 -0.00000000000E+00 -0.45593999997E+02  0.45594000000E+02  0.51100000000E-03 0.  1.
         23    2    1    2    0    0  0.00000000000E+00  0.00000000000E+00  0.00000000000E+00  0.91188000000E+02  0.91188000000E+02 0.  0.
    9900012    2    3    3    0    0  0.11549299320E+02  0.26752046557E+02 -0.32164650235E+02  0.47787273802E+02  0.20000012573E+02 0.  0.
         12    1    3    3    0    0 -0.11549299320E+02 -0.26752046557E+02  0.32164650235E+02  0.43400726198E+02  0.00000000000E+00 0. -1.
         11    1    4    4    0    0 -0.42593365438E+01  0.11822546712E+02 -0.15227574371E+02  0.19743190726E+02  0.51100000000E-03 0. -1.
        -11    1    4    4    0    0  0.52204003598E+01  0.23370077202E+01 -0.59919837550E+01  0.82836015466E+01  0.51100000000E-03 0.  1.
         12    1    4    4    0    0  0.10588235504E+02  0.12592492125E+02 -0.10945092109E+02  0.19760481530E+02  0.00000000000E+00 0. -1.
</event>
<event>
 8    1  0.6046524E-010  0.9118800E+02  0.7816164E-02  0.1184000E+00
        -11   -1    0    0    0    0  0.00000000000E+00  0.00000000000E+00  0.45593999997E+02  0.45594000000E+02  0.51100000000E-03 0. -1.
         11   -1    0    0    0    0 -0.00000000000E+00 -0.00000000000E+00 -0.45593999997E+02  0.45594000000E+02  0.51100000000E-03 0.  1.
         23    2    1    2    0    0  0.00000000000E+00  0.35527136788E-14 -0.35527136788E-14  0.91188000000E+02  0.91188000000E+02 0.  0.
    9900012    2    3    3    0    0 -0.28310715493E+02 -0.27487742732E+02  0.18070713064E+02  0.47787270941E+02  0.19999999528E+02 0.  0.
        -12    1    3    3    0    0  0.28310715493E+02  0.27487742732E+02 -0.18070713064E+02  0.43400729059E+02  0.00000000000E+00 0.  1.
         11    1    4    4    0    0 -0.15541708306E+02 -0.11865245321E+02  0.15246570473E+02  0.24794891713E+02  0.51100000000E-03 0.  1.
        -11    1    4    4    0    0 -0.14025476302E+02 -0.10544169047E+02  0.27451237747E+01  0.17760326325E+02  0.51100000000E-03 0. -1.
        -12    1    4    4    0    0  0.12564691145E+01 -0.50783283635E+01  0.79018816522E-01  0.52320529027E+01  0.00000000000E+00 0.  1.
</event>
<event>
 8    1  0.6046524E-010  0.9118800E+02  0.7816164E-02  0.1184000E+00
        -11   -1    0    0    0    0  0.00000000000E+00  0.00000000000E+00  0.45593999997E+02  0.45594000000E+02  0.51100000000E-03 0. -1.
         11   -1    0    0    0    0 -0.00000000000E+00 -0.00000000000E+00 -0.45593999997E+02  0.45594000000E+02  0.51100000000E-03 0.  1.
         23    2    1    2    0    0  0.00000000000E+00  0.00000000000E+00  0.71054273576E-14  0.91188000000E+02  0.91188000000E+02 0.  0.
    9900012    2    3    3    0    0  0.82817706985E+01  0.16141046278E+02 -0.39427176993E+02  0.47787269747E+02  0.19999994082E+02 0.  0.
         12    1    3    3    0    0 -0.82817706985E+01 -0.16141046278E+02  0.39427176993E+02  0.43400730253E+02  0.00000000000E+00 0. -1.
         11    1    4    4    0    0  0.58108440716E+01  0.93989892310E+01 -0.14771121164E+02  0.18447030333E+02  0.51100000000E-03 0.  1.
        -11    1    4    4    0    0 -0.69818884178E+00  0.92921222126E+00 -0.22273756542E+02  0.22304060925E+02  0.51100000000E-03 0. -1.
         12    1    4    4    0    0  0.31691154687E+01  0.58128448262E+01 -0.23822992873E+01  0.70361784885E+01  0.00000000000E+00 0. -1.
</event>
<event>
 8    1  0.6046524E-010  0.9118800E+02  0.7816164E-02  0.1184000E+00
        -11   -1    0    0    0    0  0.00000000000E+00  0.00000000000E+00  0.45593999997E+02  0.45594000000E+02  0.51100000000E-03 0. -1.
         11   -1    0    0    0    0 -0.00000000000E+00 -0.00000000000E+00 -0.45593999997E+02  0.45594000000E+02  0.51100000000E-03 0.  1.
         23    2    1    2    0    0 -0.17763568394E-14  0.88817841970E-15  0.00000000000E+00  0.91188000000E+02  0.91188000000E+02 0.  0.
    9900012    2    3    3    0    0 -0.13232525287E+02 -0.25620414770E+01  0.41254810798E+02  0.47787271942E+02  0.20000004093E+02 0.  0.
        -12    1    3    3    0    0  0.13232525287E+02  0.25620414770E+01 -0.41254810798E+02  0.43400728058E+02  0.00000000000E+00 0.  1.
         11    1    4    4    0    0 -0.16431683545E+01 -0.18507022766E+01  0.25346855909E+02  0.25467394957E+02  0.51100000000E-03 0. -1.
        -11    1    4    4    0    0 -0.23622592537E+01 -0.41418769499E+01  0.17569137626E+01  0.50815509129E+01  0.51100000000E-03 0.  1.
         12    1    4    4    0    0 -0.92270976785E+01  0.34305377495E+01  0.14151041126E+02  0.17238326072E+02  0.00000000000E+00 0. -1.
</event>
<event>
 8    1  0.6046524E-010  0.9118800E+02  0.7816164E-02  0.1184000E+00
        -11   -1    0    0    0    0  0.00000000000E+00  0.00000000000E+00  0.45593999997E+02  0.45594000000E+02  0.51100000000E-03 0.  1.
         11   -1    0    0    0    0 -0.00000000000E+00 -0.00000000000E+00 -0.45593999997E+02  0.45594000000E+02  0.51100000000E-03 0. -1.
         23    2    1    2    0    0  0.35527136788E-14  0.00000000000E+00  0.00000000000E+00  0.91188000000E+02  0.91188000000E+02 0.  0.
    9900012    2    3    3    0    0  0.19198411361E+02 -0.37380428454E+02 -0.10851163330E+02  0.47787272174E+02  0.20000005152E+02 0.  0.
         12    1    3    3    0    0 -0.19198411361E+02  0.37380428454E+02  0.10851163330E+02  0.43400727826E+02  0.00000000000E+00 0. -1.
         11    1    4    4    0    0  0.13222757470E+01 -0.10927268105E+02 -0.50780695912E+01  0.12121897229E+02  0.51100000000E-03 0.  1.
        -11    1    4    4    0    0  0.42439146921E+01  0.11031898109E+01 -0.46827088723E-02  0.43849585930E+01  0.51100000000E-03 0. -1.
        -12    1    4    4    0    0  0.13632220922E+02 -0.27556350160E+02 -0.57684110296E+01  0.31280416353E+02  0.00000000000E+00 0.  1.
</event>
<event>
 8    1  0.6046524E-010  0.9118800E+02  0.7816164E-02  0.1184000E+00
        -11   -1    0    0    0    0  0.00000000000E+00  0.00000000000E+00  0.45593999997E+02  0.45594000000E+02  0.51100000000E-03 0. -1.
         11   -1    0    0    0    0 -0.00000000000E+00 -0.00000000000E+00 -0.45593999997E+02  0.45594000000E+02  0.51100000000E-03 0.  1.
         23    2    1    2    0    0 -0.44408920985E-15  0.00000000000E+00  0.14210854715E-13  0.91188000000E+02  0.91188000000E+02 0.  0.
    9900012    2    3    3    0    0 -0.39085449089E+01 -0.14147756923E+02  0.40843458880E+02  0.47787264032E+02  0.19999968027E+02 0.  0.
        -12    1    3    3    0    0  0.39085449089E+01  0.14147756923E+02 -0.40843458880E+02  0.43400735968E+02  0.00000000000E+00 0.  1.
         11    1    4    4    0    0  0.20785052621E+01  0.19823264994E+01  0.37652258649E+01  0.47356867031E+01  0.51100000000E-03 0. -1.
        -11    1    4    4    0    0 -0.45403533190E+01 -0.90805884934E+01  0.33519618775E+02  0.35023374177E+02  0.51100000000E-03 0.  1.
        -12    1    4    4    0    0 -0.14466968520E+01 -0.70494949294E+01  0.35586142405E+01  0.80282031523E+01  0.00000000000E+00 0.  1.
</event>
<event>
 8    1  0.6046524E-010  0.9118800E+02  0.7816164E-02  0.1184000E+00
        -11   -1    0    0    0    0  0.00000000000E+00  0.00000000000E+00  0.45593999997E+02  0.45594000000E+02  0.51100000000E-03 0. -1.
         11   -1    0    0    0    0 -0.00000000000E+00 -0.00000000000E+00 -0.45593999997E+02  0.45594000000E+02  0.51100000000E-03 0.  1.
         23    2    1    2    0    0 -0.17763568394E-14  0.35527136788E-14  0.71054273576E-14  0.91188000000E+02  0.91188000000E+02 0.  0.
    9900012    2    3    3    0    0 -0.10563246698E+02  0.30250266945E+02  0.29273922017E+02  0.47787270268E+02  0.19999996458E+02 0.  0.
        -12    1    3    3    0    0  0.10563246698E+02 -0.30250266945E+02 -0.29273922017E+02  0.43400729732E+02  0.00000000000E+00 0.  1.
         11    1    4    4    0    0  0.15975237287E+01  0.24556735586E+01 -0.11234986762E+01  0.31376207908E+01  0.51100000000E-03 0. -1.
        -11    1    4    4    0    0 -0.41223345214E+01  0.18475911059E+02  0.24614467815E+02  0.31051971877E+02  0.51100000000E-03 0.  1.
         12    1    4    4    0    0 -0.80384359050E+01  0.93186823273E+01  0.57829528775E+01  0.13597677600E+02  0.00000000000E+00 0. -1.
</event>
<event>
 8    1  0.6046524E-010  0.9118800E+02  0.7816164E-02  0.1184000E+00
        -11   -1    0    0    0    0  0.00000000000E+00  0.00000000000E+00  0.45593999997E+02  0.45594000000E+02  0.51100000000E-03 0. -1.
         11   -1    0    0    0    0 -0.00000000000E+00 -0.00000000000E+00 -0.45593999997E+02  0.45594000000E+02  0.51100000000E-03 0.  1.
         23    2    1    2    0    0 -0.17763568394E-14  0.00000000000E+00  0.00000000000E+00  0.91188000000E+02  0.91188000000E+02 0.  0.
    9900012    2    3    3    0    0  0.10912186553E+02  0.34403885693E+02 -0.24102278475E+02  0.47787274270E+02  0.20000014708E+02 0.  0.
         12    1    3    3    0    0 -0.10912186553E+02 -0.34403885693E+02  0.24102278475E+02  0.43400725730E+02  0.00000000000E+00 0. -1.
         11    1    4    4    0    0  0.10466118408E+01 -0.11589986295E+01 -0.19330327220E+01  0.24850130652E+01  0.51100000000E-03 0. -1.
        -11    1    4    4    0    0  0.78669110423E+01  0.93873619915E+01 -0.12008747637E+02  0.17152867824E+02  0.51100000000E-03 0.  1.
         12    1    4    4    0    0  0.19986636700E+01  0.26175522331E+02 -0.10160498116E+02  0.28149393382E+02  0.00000000000E+00 0. -1.
</event>
<event>
 8    1  0.6046524E-010  0.9118800E+02  0.7816164E-02  0.1184000E+00
        -11   -1    0    0    0    0  0.00000000000E+00  0.00000000000E+00  0.45593999997E+02  0.45594000000E+02  0.51100000000E-03 0. -1.
         11   -1    0    0    0    0 -0.00000000000E+00 -0.00000000000E+00 -0.45593999997E+02  0.45594000000E+02  0.51100000000E-03 0.  1.
         23    2    1    2    0    0  0.17763568394E-14  0.13322676296E-14 -0.71054273576E-14  0.91188000000E+02  0.91188000000E+02 0.  0.
    9900012    2    3    3    0    0  0.71358464122E+01  0.30287454770E+01 -0.42702809396E+02  0.47787268054E+02  0.19999986363E+02 0.  0.
         12    1    3    3    0    0 -0.71358464122E+01 -0.30287454770E+01  0.42702809396E+02  0.43400731946E+02  0.00000000000E+00 0. -1.
         11    1    4    4    0    0  0.20209457541E+01  0.37121652114E+01 -0.31574114978E+01  0.52757596539E+01  0.51100000000E-03 0. -1.
        -11    1    4    4    0    0 -0.18678980743E+01 -0.52848280272E+01 -0.25962822065E+02  0.26560997352E+02  0.51100000000E-03 0.  1.
        -12    1    4    4    0    0  0.69827987325E+01  0.46014082928E+01 -0.13582575833E+02  0.15950511047E+02  0.00000000000E+00 0.  1.
</event>
<event>
 8    1  0.6046524E-010  0.9118800E+02  0.7816164E-02  0.1184000E+00
        -11   -1    0    0    0    0  0.00000000000E+00  0.00000000000E+00  0.45593999997E+02  0.45594000000E+02  0.51100000000E-03 0. -1.
         11   -1    0    0    0    0 -0.00000000000E+00 -0.00000000000E+00 -0.45593999997E+02  0.45594000000E+02  0.51100000000E-03 0.  1.
         23    2    1    2    0    0  0.00000000000E+00  0.00000000000E+00 -0.35527136788E-14  0.91188000000E+02  0.91188000000E+02 0.  0.
    9900012    2    3    3    0    0 -0.11782395124E+02  0.30413067359E+02  0.28632908899E+02  0.47787274510E+02  0.20000015801E+02 0.  0.
        -12    1    3    3    0    0  0.11782395124E+02 -0.30413067359E+02 -0.28632908899E+02  0.43400725490E+02  0.00000000000E+00 0.  1.
         11    1    4    4    0    0 -0.11086558052E+02  0.13397911980E+02  0.18200792670E+02  0.25173094147E+02  0.51100000000E-03 0. -1.
        -11    1    4    4    0    0  0.17028871758E+01 -0.79722817755E+00  0.20525818651E+01  0.27836109777E+01  0.51100000000E-03 0.  1.
         12    1    4    4    0    0 -0.23987242477E+01  0.17812383557E+02  0.83795343639E+01  0.19830569386E+02  0.00000000000E+00 0. -1.
</event>
<event>
 8    1  0.6046524E-010  0.9118800E+02  0.7816164E-02  0.1184000E+00
        -11   -1    0    0    0    0  0.00000000000E+00  0.00000000000E+00  0.45593999997E+02  0.45594000000E+02  0.51100000000E-03 0. -1.
         11   -1    0    0    0    0 -0.00000000000E+00 -0.00000000000E+00 -0.45593999997E+02  0.45594000000E+02  0.51100000000E-03 0.  1.
         23    2    1    2    0    0  0.00000000000E+00  0.35527136788E-14  0.00000000000E+00  0.91188000000E+02  0.91188000000E+02 0.  0.
    9900012    2    3    3    0    0 -0.18592182001E+02 -0.22093871220E+02 -0.32400847434E+02  0.47787270841E+02  0.19999999075E+02 0.  0.
         12    1    3    3    0    0  0.18592182001E+02  0.22093871220E+02  0.32400847434E+02  0.43400729159E+02  0.00000000000E+00 0. -1.
         11    1    4    4    0    0  0.23691791381E+01 -0.80220021934E+01 -0.10572575192E+02  0.13481278702E+02  0.51100000000E-03 0. -1.
        -11    1    4    4    0    0 -0.75820507211E+01 -0.37983803009E+01 -0.12276673933E+02  0.14920854841E+02  0.51100000000E-03 0.  1.
         12    1    4    4    0    0 -0.13379310418E+02 -0.10273488725E+02 -0.95515983086E+01  0.19385137299E+02  0.00000000000E+00 0. -1.
</event>
<event>
 8    1  0.6046524E-010  0.9118800E+02  0.7816164E-02  0.1184000E+00
        -11   -1    0    0    0    0  0.00000000000E+00  0.00000000000E+00  0.45593999997E+02  0.45594000000E+02  0.51100000000E-03 0. -1.
         11   -1    0    0    0    0 -0.00000000000E+00 -0.00000000000E+00 -0.45593999997E+02  0.45594000000E+02  0.51100000000E-03 0.  1.
         23    2    1    2    0    0  0.00000000000E+00 -0.35527136788E-14  0.00000000000E+00  0.91188000000E+02  0.91188000000E+02 0.  0.
    9900012    2    3    3    0    0 -0.20881946992E+02  0.22205669541E+02  0.30894593158E+02  0.47787270095E+02  0.19999995671E+02 0.  0.
        -12    1    3    3    0    0  0.20881946992E+02 -0.22205669541E+02 -0.30894593158E+02  0.43400729905E+02  0.00000000000E+00 0.  1.
         11    1    4    4    0    0 -0.11189583824E+02  0.13558949007E+02  0.98816710918E+01  0.20166787255E+02  0.51100000000E-03 0. -1.
        -11    1    4    4    0    0  0.18580065510E+01  0.83891229164E+00 -0.39159667835E+00  0.20758878573E+01  0.51100000000E-03 0.  1.
         12    1    4    4    0    0 -0.11550369719E+02  0.78078082415E+01  0.21404518744E+02  0.25544594983E+02  0.00000000000E+00 0. -1.
</event>
<event>
 8    1  0.6046524E-010  0.9118800E+02  0.7816164E-02  0.1184000E+00
        -11   -1    0    0    0    0  0.00000000000E+00  0.00000000000E+00  0.45593999997E+02  0.45594000000E+02  0.51100000000E-03 0. -1.
         11   -1    0    0    0    0 -0.00000000000E+00 -0.00000000000E+00 -0.45593999997E+02  0.45594000000E+02  0.51100000000E-03 0.  1.
         23    2    1    2    0    0  0.00000000000E+00  0.00000000000E+00  0.00000000000E+00  0.91188000000E+02  0.91188000000E+02 0.  0.
    9900012    2    3    3    0    0  0.58416015981E+01  0.20842176310E+02  0.37617849327E+02  0.47787271774E+02  0.20000003326E+02 0.  0.
        -12    1    3    3    0    0 -0.58416015981E+01 -0.20842176310E+02 -0.37617849327E+02  0.43400728226E+02  0.00000000000E+00 0.  1.
         11    1    4    4    0    0  0.71192909632E+01  0.41100783899E+01  0.78110988605E+01  0.11339766923E+02  0.51100000000E-03 0. -1.
        -11    1    4    4    0    0 -0.32546265528E+01  0.75437705282E+01  0.43187033341E+01  0.92818245259E+01  0.51100000000E-03 0.  1.
         12    1    4    4    0    0  0.19769371876E+01  0.91883273915E+01  0.25488047133E+02  0.27165680325E+02  0.00000000000E+00 0. -1.
</event>
<event>
 8    1  0.6046524E-010  0.9118800E+02  0.7816164E-02  0.1184000E+00
        -11   -1    0    0    0    0  0.00000000000E+00  0.00000000000E+00  0.45593999997E+02  0.45594000000E+02  0.51100000000E-03 0. -1.
         11   -1    0    0    0    0 -0.00000000000E+00 -0.00000000000E+00 -0.45593999997E+02  0.45594000000E+02  0.51100000000E-03 0.  1.
         23    2    1    2    0    0  0.00000000000E+00 -0.35527136788E-14 -0.71054273576E-14  0.91188000000E+02  0.91188000000E+02 0.  0.
    9900012    2    3    3    0    0  0.20767380230E+02  0.20436739178E+02  0.32166424154E+02  0.47787271519E+02  0.20000002163E+02 0.  0.
        -12    1    3    3    0    0 -0.20767380230E+02 -0.20436739178E+02 -0.32166424154E+02  0.43400728481E+02  0.00000000000E+00 0.  1.
         11    1    4    4    0    0  0.12466512357E+02  0.18305610212E+01  0.57966419830E+01  0.13869604989E+02  0.51100000000E-03 0. -1.
        -11    1    4    4    0    0  0.26084274159E+01  0.80413296583E+01  0.63367319039E+01  0.10565086263E+02  0.51100000000E-03 0.  1.
         12    1    4    4    0    0  0.56924404568E+01  0.10564848498E+02  0.20033050267E+02  0.23352580268E+02  0.00000000000E+00 0. -1.
</event>
<event>
 8    1  0.6046524E-010  0.9118800E+02  0.7816164E-02  0.1184000E+00
        -11   -1    0    0    0    0  0.00000000000E+00  0.00000000000E+00  0.45593999997E+02  0.45594000000E+02  0.51100000000E-03 0. -1.
         11   -1    0    0    0    0 -0.00000000000E+00 -0.00000000000E+00 -0.45593999997E+02  0.45594000000E+02  0.51100000000E-03 0.  1.
         23    2    1    2    0    0  0.00000000000E+00  0.00000000000E+00  0.00000000000E+00  0.91188000000E+02  0.91188000000E+02 0.  0.
    9900012    2    3    3    0    0 -0.22454276036E+02 -0.14580183766E+02 -0.34159140729E+02  0.47787272284E+02  0.20000005650E+02 0.  0.
         12    1    3    3    0    0  0.22454276036E+02  0.14580183766E+02  0.34159140729E+02  0.43400727716E+02  0.00000000000E+00 0. -1.
         11    1    4    4    0    0 -0.50387865504E-01  0.27532083244E+01 -0.87781852582E+00  0.28902007958E+01  0.51100000000E-03 0. -1.
        -11    1    4    4    0    0 -0.86558611383E+01 -0.86300504566E+01 -0.21766076625E+02  0.24963248883E+02  0.51100000000E-03 0.  1.
        -12    1    4    4    0    0 -0.13748027033E+02 -0.87033416338E+01 -0.11515245579E+02  0.19933822604E+02  0.00000000000E+00 0.  1.
</event>
<event>
 8    1  0.6046524E-010  0.9118800E+02  0.7816164E-02  0.1184000E+00
        -11   -1    0    0    0    0  0.00000000000E+00  0.00000000000E+00  0.45593999997E+02  0.45594000000E+02  0.51100000000E-03 0. -1.
         11   -1    0    0    0    0 -0.00000000000E+00 -0.00000000000E+00 -0.45593999997E+02  0.45594000000E+02  0.51100000000E-03 0.  1.
         23    2    1    2    0    0  0.35527136788E-14 -0.35527136788E-14  0.00000000000E+00  0.91188000000E+02  0.91188000000E+02 0.  0.
    9900012    2    3    3    0    0 -0.30230345981E+02 -0.19587155300E+02 -0.24209360960E+02  0.47787266954E+02  0.19999981348E+02 0.  0.
         12    1    3    3    0    0  0.30230345981E+02  0.19587155300E+02  0.24209360960E+02  0.43400733046E+02  0.00000000000E+00 0. -1.
         11    1    4    4    0    0 -0.19173716207E+02 -0.91681668107E+01 -0.12214022595E+02  0.24512629889E+02  0.51100000000E-03 0. -1.
        -11    1    4    4    0    0 -0.72895579322E+01 -0.11615246945E+02 -0.13308884709E+02  0.19109631836E+02  0.51100000000E-03 0.  1.
        -12    1    4    4    0    0 -0.37670718414E+01  0.11962584562E+01  0.13135463445E+01  0.41650052283E+01  0.00000000000E+00 0.  1.
</event>
<event>
 8    1  0.6046524E-010  0.9118800E+02  0.7816164E-02  0.1184000E+00
        -11   -1    0    0    0    0  0.00000000000E+00  0.00000000000E+00  0.45593999997E+02  0.45594000000E+02  0.51100000000E-03 0. -1.
         11   -1    0    0    0    0 -0.00000000000E+00 -0.00000000000E+00 -0.45593999997E+02  0.45594000000E+02  0.51100000000E-03 0.  1.
         23    2    1    2    0    0  0.00000000000E+00  0.00000000000E+00  0.00000000000E+00  0.91188000000E+02  0.91188000000E+02 0.  0.
    9900012    2    3    3    0    0  0.60037221602E+01 -0.26012603138E+02  0.34218757012E+02  0.47787268057E+02  0.19999986378E+02 0.  0.
        -12    1    3    3    0    0 -0.60037221602E+01  0.26012603138E+02 -0.34218757012E+02  0.43400731943E+02  0.00000000000E+00 0.  1.
         11    1    4    4    0    0 -0.26232092433E+00 -0.39986898566E+01  0.16379555695E+02  0.16862626660E+02  0.51100000000E-03 0. -1.
        -11    1    4    4    0    0 -0.21876519338E+01 -0.10771935486E+02  0.59014583015E+01  0.12475881750E+02  0.51100000000E-03 0.  1.
         12    1    4    4    0    0  0.84536950183E+01 -0.11241977795E+02  0.11937743015E+02  0.18448759647E+02  0.00000000000E+00 0. -1.
</event>
<event>
 8    1  0.6046524E-010  0.9118800E+02  0.7816164E-02  0.1184000E+00
        -11   -1    0    0    0    0  0.00000000000E+00  0.00000000000E+00  0.45593999997E+02  0.45594000000E+02  0.51100000000E-03 0. -1.
         11   -1    0    0    0    0 -0.00000000000E+00 -0.00000000000E+00 -0.45593999997E+02  0.45594000000E+02  0.51100000000E-03 0.  1.
         23    2    1    2    0    0  0.00000000000E+00  0.17763568394E-14  0.00000000000E+00  0.91188000000E+02  0.91188000000E+02 0.  0.
    9900012    2    3    3    0    0  0.12028802797E+02 -0.15804609413E+02 -0.38589447691E+02  0.47787271337E+02  0.20000001332E+02 0.  0.
         12    1    3    3    0    0 -0.12028802797E+02  0.15804609413E+02  0.38589447691E+02  0.43400728663E+02  0.00000000000E+00 0. -1.
         11    1    4    4    0    0  0.46503449555E+01  0.10315304473E+01 -0.36393162350E+01  0.59945296886E+01  0.51100000000E-03 0. -1.
        -11    1    4    4    0    0 -0.17758940996E+01 -0.12650790279E+02 -0.17857349630E+02  0.21956348298E+02  0.51100000000E-03 0.  1.
        -12    1    4    4    0    0  0.91543519407E+01 -0.41853495817E+01 -0.17092781826E+02  0.19836393350E+02  0.00000000000E+00 0.  1.
</event>
<event>
 8    1  0.6046524E-010  0.9118800E+02  0.7816164E-02  0.1184000E+00
        -11   -1    0    0    0    0  0.00000000000E+00  0.00000000000E+00  0.45593999997E+02  0.45594000000E+02  0.51100000000E-03 0. -1.
         11   -1    0    0    0    0 -0.00000000000E+00 -0.00000000000E+00 -0.45593999997E+02  0.45594000000E+02  0.51100000000E-03 0.  1.
         23    2    1    2    0    0  0.00000000000E+00  0.00000000000E+00  0.00000000000E+00  0.91188000000E+02  0.91188000000E+02 0.  0.
    9900012    2    3    3    0    0  0.29825885227E+02 -0.30120057609E+01 -0.31384194570E+02  0.47787271008E+02  0.19999999832E+02 0.  0.
         12    1    3    3    0    0 -0.29825885227E+02  0.30120057609E+01  0.31384194570E+02  0.43400728992E+02  0.00000000000E+00 0. -1.
         11    1    4    4    0    0  0.91082935302E+01 -0.32245382846E+01 -0.34624700652E+01  0.10263886077E+02  0.51100000000E-03 0. -1.
        -11    1    4    4    0    0  0.10467511157E+02  0.45985528360E+00 -0.24611923828E+02  0.26749337403E+02  0.51100000000E-03 0.  1.
        -12    1    4    4    0    0  0.10250080540E+02 -0.24732275990E+00 -0.33098006767E+01  0.10774047528E+02  0.00000000000E+00 0.  1.
</event>
<event>
 8    1  0.6046524E-010  0.9118800E+02  0.7816164E-02  0.1184000E+00
        -11   -1    0    0    0    0  0.00000000000E+00  0.00000000000E+00  0.45593999997E+02  0.45594000000E+02  0.51100000000E-03 0. -1.
         11   -1    0    0    0    0 -0.00000000000E+00 -0.00000000000E+00 -0.45593999997E+02  0.45594000000E+02  0.51100000000E-03 0.  1.
         23    2    1    2    0    0  0.00000000000E+00 -0.88817841970E-15  0.00000000000E+00  0.91188000000E+02  0.91188000000E+02 0.  0.
    9900012    2    3    3    0    0  0.23800246565E+02 -0.50558691555E+01  0.35938976364E+02  0.47787267615E+02  0.19999984363E+02 0.  0.
        -12    1    3    3    0    0 -0.23800246565E+02  0.50558691555E+01 -0.35938976364E+02  0.43400732385E+02  0.00000000000E+00 0.  1.
         11    1    4    4    0    0  0.54295951037E+01 -0.24612338814E+01  0.12380836870E+01  0.60885980887E+01  0.51100000000E-03 0. -1.
        -11    1    4    4    0    0  0.71528733956E+01  0.54339125229E+01  0.17300013882E+02  0.19493113751E+02  0.51100000000E-03 0.  1.
         12    1    4    4    0    0  0.11217778066E+02 -0.80285477970E+01  0.17400878795E+02  0.22205555775E+02  0.00000000000E+00 0. -1.
</event>
<event>
 8    1  0.6046524E-010  0.9118800E+02  0.7816164E-02  0.1184000E+00
        -11   -1    0    0    0    0  0.00000000000E+00  0.00000000000E+00  0.45593999997E+02  0.45594000000E+02  0.51100000000E-03 0. -1.
         11   -1    0    0    0    0 -0.00000000000E+00 -0.00000000000E+00 -0.45593999997E+02  0.45594000000E+02  0.51100000000E-03 0.  1.
         23    2    1    2    0    0  0.00000000000E+00  0.00000000000E+00  0.00000000000E+00  0.91188000000E+02  0.91188000000E+02 0.  0.
    9900012    2    3    3    0    0  0.61366684770E+01  0.28664480631E+02 -0.32004868627E+02  0.47787276899E+02  0.20000026693E+02 0.  0.
         12    1    3    3    0    0 -0.61366684770E+01 -0.28664480631E+02  0.32004868627E+02  0.43400723101E+02  0.00000000000E+00 0. -1.
         11    1    4    4    0    0 -0.36717164284E+01  0.19177649651E+02 -0.24681048242E+02  0.31470905456E+02  0.51100000000E-03 0. -1.
        -11    1    4    4    0    0  0.33791941991E+01  0.64226845725E+01 -0.23459480747E+01  0.76271425307E+01  0.51100000000E-03 0.  1.
         12    1    4    4    0    0  0.64291907062E+01  0.30641464084E+01 -0.49778723106E+01  0.86892289122E+01  0.00000000000E+00 0. -1.
</event>
<event>
 8    1  0.6046524E-010  0.9118800E+02  0.7816164E-02  0.1184000E+00
        -11   -1    0    0    0    0  0.00000000000E+00  0.00000000000E+00  0.45593999997E+02  0.45594000000E+02  0.51100000000E-03 0. -1.
         11   -1    0    0    0    0 -0.00000000000E+00 -0.00000000000E+00 -0.45593999997E+02  0.45594000000E+02  0.51100000000E-03 0.  1.
         23    2    1    2    0    0  0.00000000000E+00  0.19428902931E-15  0.00000000000E+00  0.91188000000E+02  0.91188000000E+02 0.  0.
    9900012    2    3    3    0    0 -0.33686703860E+02  0.11599306924E+00  0.27364499947E+02  0.47787270413E+02  0.19999997122E+02 0.  0.
        -12    1    3    3    0    0  0.33686703860E+02 -0.11599306924E+00 -0.27364499947E+02  0.43400729587E+02  0.00000000000E+00 0.  1.
         11    1    4    4    0    0 -0.24634585827E+02  0.40010699461E+01  0.15099872611E+02  0.29169805154E+02  0.51100000000E-03 0. -1.
        -11    1    4    4    0    0  0.27340465300E-02  0.38591674696E+00 -0.15270731407E+01  0.15750847116E+01  0.51100000000E-03 0.  1.
         12    1    4    4    0    0 -0.90548520792E+01 -0.42709936238E+01  0.13791700476E+02  0.17042380548E+02  0.00000000000E+00 0. -1.
</event>
<event>
 8    1  0.6046524E-010  0.9118800E+02  0.7816164E-02  0.1184000E+00
        -11   -1    0    0    0    0  0.00000000000E+00  0.00000000000E+00  0.45593999997E+02  0.45594000000E+02  0.51100000000E-03 0. -1.
         11   -1    0    0    0    0 -0.00000000000E+00 -0.00000000000E+00 -0.45593999997E+02  0.45594000000E+02  0.51100000000E-03 0.  1.
         23    2    1    2    0    0  0.00000000000E+00  0.00000000000E+00  0.00000000000E+00  0.91188000000E+02  0.91188000000E+02 0.  0.
    9900012    2    3    3    0    0 -0.16763726977E+02 -0.19968862824E+02 -0.34696472018E+02  0.47787271952E+02  0.20000004138E+02 0.  0.
         12    1    3    3    0    0  0.16763726977E+02  0.19968862824E+02  0.34696472018E+02  0.43400728048E+02  0.00000000000E+00 0. -1.
         11    1    4    4    0    0  0.10238785933E+01 -0.10678005977E+00  0.78846241501E-01  0.10324467763E+01  0.51100000000E-03 0. -1.
        -11    1    4    4    0    0  0.84283363951E+00  0.13014230807E+01  0.46913957652E+00  0.16199267830E+01  0.51100000000E-03 0.  1.
        -12    1    4    4    0    0 -0.18630439210E+02 -0.21163505845E+02 -0.35244457836E+02  0.45134898393E+02  0.00000000000E+00 0.  1.
</event>
<event>
 8    1  0.6046524E-010  0.9118800E+02  0.7816164E-02  0.1184000E+00
        -11   -1    0    0    0    0  0.00000000000E+00  0.00000000000E+00  0.45593999997E+02  0.45594000000E+02  0.51100000000E-03 0. -1.
         11   -1    0    0    0    0 -0.00000000000E+00 -0.00000000000E+00 -0.45593999997E+02  0.45594000000E+02  0.51100000000E-03 0.  1.
         23    2    1    2    0    0  0.00000000000E+00 -0.35527136788E-14  0.00000000000E+00  0.91188000000E+02  0.91188000000E+02 0.  0.
    9900012    2    3    3    0    0  0.15948281982E+02 -0.23047754909E+02 -0.33137237783E+02  0.47787271522E+02  0.20000002177E+02 0.  0.
         12    1    3    3    0    0 -0.15948281982E+02  0.23047754909E+02  0.33137237783E+02  0.43400728478E+02  0.00000000000E+00 0. -1.
         11    1    4    4    0    0  0.13709690050E+02 -0.94367384689E+01 -0.18866045224E+02  0.25158205358E+02  0.51100000000E-03 0. -1.
        -11    1    4    4    0    0  0.34867851528E+01 -0.32785578138E+01 -0.10534954297E+02  0.11571165643E+02  0.51100000000E-03 0.  1.
         12    1    4    4    0    0 -0.12481932200E+01 -0.10332458626E+02 -0.37362382625E+01  0.11057900521E+02  0.00000000000E+00 0. -1.
</event>
<event>
 8    1  0.6046524E-010  0.9118800E+02  0.7816164E-02  0.1184000E+00
        -11   -1    0    0    0    0  0.00000000000E+00  0.00000000000E+00  0.45593999997E+02  0.45594000000E+02  0.51100000000E-03 0. -1.
         11   -1    0    0    0    0 -0.00000000000E+00 -0.00000000000E+00 -0.45593999997E+02  0.45594000000E+02  0.51100000000E-03 0.  1.
         23    2    1    2    0    0  0.22204460493E-15  0.00000000000E+00  0.00000000000E+00  0.91188000000E+02  0.91188000000E+02 0.  0.
    9900012    2    3    3    0    0  0.15762580461E+01  0.13454580227E+02  0.41232422988E+02  0.47787273923E+02  0.20000013124E+02 0.  0.
        -12    1    3    3    0    0 -0.15762580461E+01 -0.13454580227E+02 -0.41232422988E+02  0.43400726077E+02  0.00000000000E+00 0.  1.
         11    1    4    4    0    0  0.65255793241E+01  0.78396972691E+01  0.16390089052E+02  0.19304897259E+02  0.51100000000E-03 0. -1.
        -11    1    4    4    0    0 -0.11536705313E+01  0.40551112490E+00  0.20881224655E+02  0.20917001179E+02  0.51100000000E-03 0.  1.
         12    1    4    4    0    0 -0.37956507468E+01  0.52093718332E+01  0.39611092809E+01  0.75653754846E+01  0.00000000000E+00 0. -1.
</event>
<event>
 8    1  0.6046524E-010  0.9118800E+02  0.7816164E-02  0.1184000E+00
        -11   -1    0    0    0    0  0.00000000000E+00  0.00000000000E+00  0.45593999997E+02  0.45594000000E+02  0.51100000000E-03 0. -1.
         11   -1    0    0    0    0 -0.00000000000E+00 -0.00000000000E+00 -0.45593999997E+02  0.45594000000E+02  0.51100000000E-03 0.  1.
         23    2    1    2    0    0 -0.71054273576E-14  0.00000000000E+00 -0.35527136788E-14  0.91188000000E+02  0.91188000000E+02 0.  0.
    9900012    2    3    3    0    0 -0.34168492315E+02 -0.93709451903E+01 -0.25066362472E+02  0.47787274103E+02  0.20000013943E+02 0.  0.
         12    1    3    3    0    0  0.34168492315E+02  0.93709451903E+01  0.25066362472E+02  0.43400725897E+02  0.00000000000E+00 0. -1.
         11    1    4    4    0    0 -0.50841544782E+01 -0.61066106738E+01 -0.38988219758E+01  0.88509962004E+01  0.51100000000E-03 0. -1.
        -11    1    4    4    0    0 -0.55166999333E+01  0.46739694450E+01 -0.80486423427E+01  0.10819455270E+02  0.51100000000E-03 0.  1.
        -12    1    4    4    0    0 -0.23567637904E+02 -0.79383039615E+01 -0.13118898153E+02  0.28116822632E+02  0.00000000000E+00 0.  1.
</event>
<event>
 8    1  0.6046524E-010  0.9118800E+02  0.7816164E-02  0.1184000E+00
        -11   -1    0    0    0    0  0.00000000000E+00  0.00000000000E+00  0.45593999997E+02  0.45594000000E+02  0.51100000000E-03 0. -1.
         11   -1    0    0    0    0 -0.00000000000E+00 -0.00000000000E+00 -0.45593999997E+02  0.45594000000E+02  0.51100000000E-03 0.  1.
         23    2    1    2    0    0  0.17763568394E-14  0.00000000000E+00 -0.71054273576E-14  0.91188000000E+02  0.91188000000E+02 0.  0.
    9900012    2    3    3    0    0  0.11431875000E+02  0.22838942012E+02  0.35090140082E+02  0.47787274555E+02  0.20000016005E+02 0.  0.
        -12    1    3    3    0    0 -0.11431875000E+02 -0.22838942012E+02 -0.35090140082E+02  0.43400725445E+02  0.00000000000E+00 0.  1.
         11    1    4    4    0    0  0.54026164453E+01  0.14371113954E+02  0.11372006331E+02  0.19106012378E+02  0.51100000000E-03 0. -1.
        -11    1    4    4    0    0 -0.27573472418E+01 -0.88634065474E+00  0.72200267646E+01  0.77792898333E+01  0.51100000000E-03 0.  1.
         12    1    4    4    0    0  0.87866057965E+01  0.93541687124E+01  0.16498106986E+02  0.20901972343E+02  0.00000000000E+00 0. -1.
</event>
<event>
 8    1  0.6046524E-010  0.9118800E+02  0.7816164E-02  0.1184000E+00
        -11   -1    0    0    0    0  0.00000000000E+00  0.00000000000E+00  0.45593999997E+02  0.45594000000E+02  0.51100000000E-03 0. -1.
         11   -1    0    0    0    0 -0.00000000000E+00 -0.00000000000E+00 -0.45593999997E+02  0.45594000000E+02  0.51100000000E-03 0.  1.
         23    2    1    2    0    0  0.00000000000E+00  0.00000000000E+00  0.00000000000E+00  0.91188000000E+02  0.91188000000E+02 0.  0.
    9900012    2    3    3    0    0  0.37197752107E+02 -0.55576628402E+01  0.21657877195E+02  0.47787262418E+02  0.19999960667E+02 0.  0.
        -12    1    3    3    0    0 -0.37197752107E+02  0.55576628402E+01 -0.21657877195E+02  0.43400737582E+02  0.00000000000E+00 0.  1.
         11    1    4    4    0    0  0.73695761798E+01  0.24975843282E+01  0.13875797052E+02  0.15908687081E+02  0.51100000000E-03 0. -1.
        -11    1    4    4    0    0  0.36929313714E+01 -0.87024502762E+00  0.12860751680E+01  0.40061275718E+01  0.51100000000E-03 0.  1.
         12    1    4    4    0    0  0.26135244556E+02 -0.71850021408E+01  0.64960049753E+01  0.27872447765E+02  0.00000000000E+00 0. -1.
</event>
<event>
 8    1  0.6046524E-010  0.9118800E+02  0.7816164E-02  0.1184000E+00
        -11   -1    0    0    0    0  0.00000000000E+00  0.00000000000E+00  0.45593999997E+02  0.45594000000E+02  0.51100000000E-03 0. -1.
         11   -1    0    0    0    0 -0.00000000000E+00 -0.00000000000E+00 -0.45593999997E+02  0.45594000000E+02  0.51100000000E-03 0.  1.
         23    2    1    2    0    0  0.17763568394E-14  0.17763568394E-14 -0.71054273576E-14  0.91188000000E+02  0.91188000000E+02 0.  0.
    9900012    2    3    3    0    0  0.11581638888E+02 -0.14853254426E+02  0.39100764822E+02  0.47787270328E+02  0.19999996735E+02 0.  0.
        -12    1    3    3    0    0 -0.11581638888E+02  0.14853254426E+02 -0.39100764822E+02  0.43400729672E+02  0.00000000000E+00 0.  1.
         11    1    4    4    0    0  0.84562868644E+01 -0.14403840286E+02  0.30304682049E+02  0.34602791172E+02  0.51100000000E-03 0. -1.
        -11    1    4    4    0    0 -0.28868981588E+01 -0.19914815470E+01  0.22677365015E+01  0.41764588868E+01  0.51100000000E-03 0.  1.
         12    1    4    4    0    0  0.60122501825E+01  0.15420674065E+01  0.65283462711E+01  0.90080202697E+01  0.00000000000E+00 0. -1.
</event>
<event>
 8    1  0.6046524E-010  0.9118800E+02  0.7816164E-02  0.1184000E+00
        -11   -1    0    0    0    0  0.00000000000E+00  0.00000000000E+00  0.45593999997E+02  0.45594000000E+02  0.51100000000E-03 0. -1.
         11   -1    0    0    0    0 -0.00000000000E+00 -0.00000000000E+00 -0.45593999997E+02  0.45594000000E+02  0.51100000000E-03 0.  1.
         23    2    1    2    0    0  0.00000000000E+00  0.00000000000E+00  0.00000000000E+00  0.91188000000E+02  0.91188000000E+02 0.  0.
    9900012    2    3    3    0    0 -0.85227916993E+01  0.21209320372E+02  0.36893767936E+02  0.47787270035E+02  0.19999995398E+02 0.  0.
        -12    1    3    3    0    0  0.85227916993E+01 -0.21209320372E+02 -0.36893767936E+02  0.43400729965E+02  0.00000000000E+00 0.  1.
         11    1    4    4    0    0  0.44434025636E+01  0.29261829199E+01  0.20229660346E+01  0.56919912738E+01  0.51100000000E-03 0. -1.
        -11    1    4    4    0    0 -0.44055235763E+01  0.21000748320E+01  0.10814847407E+02  0.11865069616E+02  0.51100000000E-03 0.  1.
         12    1    4    4    0    0 -0.85606706866E+01  0.16183062620E+02  0.24055954494E+02  0.30230209146E+02  0.00000000000E+00 0. -1.
</event>
<event>
 8    1  0.6046524E-010  0.9118800E+02  0.7816164E-02  0.1184000E+00
        -11   -1    0    0    0    0  0.00000000000E+00  0.00000000000E+00  0.45593999997E+02  0.45594000000E+02  0.51100000000E-03 0. -1.
         11   -1    0    0    0    0 -0.00000000000E+00 -0.00000000000E+00 -0.45593999997E+02  0.45594000000E+02  0.51100000000E-03 0.  1.
         23    2    1    2    0    0  0.00000000000E+00 -0.35527136788E-14  0.00000000000E+00  0.91188000000E+02  0.91188000000E+02 0.  0.
    9900012    2    3    3    0    0  0.27899216980E+02 -0.30321808879E+02  0.13632495578E+02  0.47787270312E+02  0.19999996659E+02 0.  0.
        -12    1    3    3    0    0 -0.27899216980E+02  0.30321808879E+02 -0.13632495578E+02  0.43400729688E+02  0.00000000000E+00 0.  1.
         11    1    4    4    0    0  0.59088510749E+01 -0.68626339324E+01 -0.27417516654E+01  0.94618955802E+01  0.51100000000E-03 0. -1.
        -11    1    4    4    0    0  0.66891137004E+01 -0.16556056372E+02  0.88701332707E+01  0.19938066837E+02  0.51100000000E-03 0.  1.
         12    1    4    4    0    0  0.15301252205E+02 -0.69031185742E+01  0.75041139725E+01  0.18387307894E+02  0.00000000000E+00 0. -1.
</event>
<event>
 8    1  0.6046524E-010  0.9118800E+02  0.7816164E-02  0.1184000E+00
        -11   -1    0    0    0    0  0.00000000000E+00  0.00000000000E+00  0.45593999997E+02  0.45594000000E+02  0.51100000000E-03 0. -1.
         11   -1    0    0    0    0 -0.00000000000E+00 -0.00000000000E+00 -0.45593999997E+02  0.45594000000E+02  0.51100000000E-03 0.  1.
         23    2    1    2    0    0 -0.53290705182E-14 -0.17763568394E-14  0.00000000000E+00  0.91188000000E+02  0.91188000000E+02 0.  0.
    9900012    2    3    3    0    0  0.15894064495E+02  0.82250444450E+01  0.39539271483E+02  0.47787232360E+02  0.19999823623E+02 0.  0.
        -12    1    3    3    0    0 -0.15894064495E+02 -0.82250444450E+01 -0.39539271483E+02  0.43400767640E+02  0.00000000000E+00 0.  1.
         11    1    4    4    0    0  0.12502464171E+02  0.72585123612E+00  0.13813014177E+02  0.18645048439E+02  0.51100000000E-03 0. -1.
        -11    1    4    4    0    0  0.52971555525E+01  0.29035633366E+01  0.22294421824E+02  0.23098306902E+02  0.51100000000E-03 0.  1.
        -12    1    4    4    0    0 -0.19055552289E+01  0.45956298723E+01  0.34318354816E+01  0.60438770194E+01  0.00000000000E+00 0.  1.
</event>
<event>
 8    1  0.6046524E-010  0.9118800E+02  0.7816164E-02  0.1184000E+00
        -11   -1    0    0    0    0  0.00000000000E+00  0.00000000000E+00  0.45593999997E+02  0.45594000000E+02  0.51100000000E-03 0.  1.
         11   -1    0    0    0    0 -0.00000000000E+00 -0.00000000000E+00 -0.45593999997E+02  0.45594000000E+02  0.51100000000E-03 0. -1.
         23    2    1    2    0    0 -0.71054273576E-14  0.00000000000E+00  0.00000000000E+00  0.91188000000E+02  0.91188000000E+02 0.  0.
    9900012    2    3    3    0    0 -0.37007628618E+02  0.21707708986E+02 -0.65447770022E+01  0.47787270613E+02  0.19999998033E+02 0.  0.
         12    1    3    3    0    0  0.37007628618E+02 -0.21707708986E+02  0.65447770022E+01  0.43400729387E+02  0.00000000000E+00 0. -1.
         11    1    4    4    0    0 -0.82898805421E+01  0.64502562789E+01 -0.50016288481E+01  0.11633753344E+02  0.51100000000E-03 0. -1.
        -11    1    4    4    0    0 -0.43994140699E+01 -0.13511062191E+01  0.41063007605E+01  0.61678228225E+01  0.51100000000E-03 0.  1.
        -12    1    4    4    0    0 -0.24318334006E+02  0.16608558926E+02 -0.56494489146E+01  0.29985694447E+02  0.00000000000E+00 0.  1.
</event>
<event>
 8    1  0.6046524E-010  0.9118800E+02  0.7816164E-02  0.1184000E+00
        -11   -1    0    0    0    0  0.00000000000E+00  0.00000000000E+00  0.45593999997E+02  0.45594000000E+02  0.51100000000E-03 0.  1.
         11   -1    0    0    0    0 -0.00000000000E+00 -0.00000000000E+00 -0.45593999997E+02  0.45594000000E+02  0.51100000000E-03 0. -1.
         23    2    1    2    0    0 -0.88817841970E-15  0.00000000000E+00  0.00000000000E+00  0.91188000000E+02  0.91188000000E+02 0.  0.
    9900012    2    3    3    0    0  0.33095401534E+01 -0.41216170647E+02  0.13187022749E+02  0.47787270192E+02  0.19999996115E+02 0.  0.
        -12    1    3    3    0    0 -0.33095401534E+01  0.41216170647E+02 -0.13187022749E+02  0.43400729808E+02  0.00000000000E+00 0.  1.
         11    1    4    4    0    0 -0.35565301661E+01 -0.28228362060E+02  0.14837878143E+02  0.32088190342E+02  0.51100000000E-03 0. -1.
        -11    1    4    4    0    0  0.55629691391E+00 -0.37151552090E+01 -0.24007466041E+01  0.44581867392E+01  0.51100000000E-03 0.  1.
        -12    1    4    4    0    0  0.63097734056E+01 -0.92726533781E+01  0.74989121040E+00  0.11240893111E+02  0.00000000000E+00 0.  1.
</event>
<event>
 8    1  0.6046524E-010  0.9118800E+02  0.7816164E-02  0.1184000E+00
        -11   -1    0    0    0    0  0.00000000000E+00  0.00000000000E+00  0.45593999997E+02  0.45594000000E+02  0.51100000000E-03 0. -1.
         11   -1    0    0    0    0 -0.00000000000E+00 -0.00000000000E+00 -0.45593999997E+02  0.45594000000E+02  0.51100000000E-03 0.  1.
         23    2    1    2    0    0 -0.71054273576E-14  0.17763568394E-14  0.00000000000E+00  0.91188000000E+02  0.91188000000E+02 0.  0.
    9900012    2    3    3    0    0 -0.33895715690E+02  0.11484019709E+02 -0.24552407486E+02  0.47787274613E+02  0.20000016269E+02 0.  0.
         12    1    3    3    0    0  0.33895715690E+02 -0.11484019709E+02  0.24552407486E+02  0.43400725387E+02  0.00000000000E+00 0. -1.
         11    1    4    4    0    0 -0.35072028423E+01 -0.29887972405E+00  0.19195412930E+01  0.40092941901E+01  0.51100000000E-03 0. -1.
        -11    1    4    4    0    0 -0.23841832068E+02  0.59055631337E+01 -0.13283004574E+02  0.27923947484E+02  0.51100000000E-03 0.  1.
        -12    1    4    4    0    0 -0.65466807796E+01  0.58773362994E+01 -0.13188944204E+02  0.15854032939E+02  0.00000000000E+00 0.  1.
</event>
<event>
 8    1  0.6046524E-010  0.9118800E+02  0.7816164E-02  0.1184000E+00
        -11   -1    0    0    0    0  0.00000000000E+00  0.00000000000E+00  0.45593999997E+02  0.45594000000E+02  0.51100000000E-03 0. -1.
         11   -1    0    0    0    0 -0.00000000000E+00 -0.00000000000E+00 -0.45593999997E+02  0.45594000000E+02  0.51100000000E-03 0.  1.
         23    2    1    2    0    0  0.00000000000E+00  0.00000000000E+00  0.00000000000E+00  0.91188000000E+02  0.91188000000E+02 0.  0.
    9900012    2    3    3    0    0 -0.31255965600E+02 -0.19252695483E+02 -0.23152143091E+02  0.47787269607E+02  0.19999993447E+02 0.  0.
         12    1    3    3    0    0  0.31255965600E+02  0.19252695483E+02  0.23152143091E+02  0.43400730393E+02  0.00000000000E+00 0. -1.
         11    1    4    4    0    0 -0.25107261047E+02 -0.14407110513E+02 -0.97287130494E+01  0.30538291512E+02  0.51100000000E-03 0. -1.
        -11    1    4    4    0    0 -0.78406229168E+01 -0.35494793682E+01 -0.11599475053E+02  0.14443752742E+02  0.51100000000E-03 0.  1.
        -12    1    4    4    0    0  0.16919183639E+01 -0.12961056013E+01 -0.18239549879E+01  0.28052253523E+01  0.00000000000E+00 0.  1.
</event>
<event>
 8    1  0.6046524E-010  0.9118800E+02  0.7816164E-02  0.1184000E+00
        -11   -1    0    0    0    0  0.00000000000E+00  0.00000000000E+00  0.45593999997E+02  0.45594000000E+02  0.51100000000E-03 0. -1.
         11   -1    0    0    0    0 -0.00000000000E+00 -0.00000000000E+00 -0.45593999997E+02  0.45594000000E+02  0.51100000000E-03 0.  1.
         23    2    1    2    0    0  0.00000000000E+00  0.35527136788E-14  0.00000000000E+00  0.91188000000E+02  0.91188000000E+02 0.  0.
    9900012    2    3    3    0    0  0.41752074721E+01  0.31427100819E+02 -0.29639986300E+02  0.47787264854E+02  0.19999971776E+02 0.  0.
         12    1    3    3    0    0 -0.41752074721E+01 -0.31427100819E+02  0.29639986300E+02  0.43400735146E+02  0.00000000000E+00 0. -1.
         11    1    4    4    0    0  0.36703155842E+00 -0.48839580560E+00 -0.18385140020E+00  0.63800017734E+00  0.51100000000E-03 0. -1.
        -11    1    4    4    0    0  0.65283059934E+00  0.74662102185E+01 -0.18900791032E+02  0.20332495781E+02  0.51100000000E-03 0.  1.
         12    1    4    4    0    0  0.31553453144E+01  0.24449286406E+02 -0.10555343869E+02  0.26816768895E+02  0.00000000000E+00 0. -1.
</event>
<event>
 8    1  0.6046524E-010  0.9118800E+02  0.7816164E-02  0.1184000E+00
        -11   -1    0    0    0    0  0.00000000000E+00  0.00000000000E+00  0.45593999997E+02  0.45594000000E+02  0.51100000000E-03 0. -1.
         11   -1    0    0    0    0 -0.00000000000E+00 -0.00000000000E+00 -0.45593999997E+02  0.45594000000E+02  0.51100000000E-03 0.  1.
         23    2    1    2    0    0  0.00000000000E+00  0.00000000000E+00  0.00000000000E+00  0.91188000000E+02  0.91188000000E+02 0.  0.
    9900012    2    3    3    0    0  0.28076410846E+02  0.74280661299E+01 -0.32251547936E+02  0.47787270090E+02  0.19999995649E+02 0.  0.
         12    1    3    3    0    0 -0.28076410846E+02 -0.74280661299E+01  0.32251547936E+02  0.43400729910E+02  0.00000000000E+00 0. -1.
         11    1    4    4    0    0  0.11532539270E+02  0.24092803384E+00 -0.27423760053E+01  0.11856565048E+02  0.51100000000E-03 0. -1.
        -11    1    4    4    0    0  0.14749324931E+02  0.46144214872E+01 -0.16744458839E+02  0.22786232107E+02  0.51100000000E-03 0.  1.
        -12    1    4    4    0    0  0.17945466454E+01  0.25727166089E+01 -0.12764713092E+02  0.13144472935E+02  0.00000000000E+00 0.  1.
</event>
<event>
 8    1  0.6046524E-010  0.9118800E+02  0.7816164E-02  0.1184000E+00
        -11   -1    0    0    0    0  0.00000000000E+00  0.00000000000E+00  0.45593999997E+02  0.45594000000E+02  0.51100000000E-03 0. -1.
         11   -1    0    0    0    0 -0.00000000000E+00 -0.00000000000E+00 -0.45593999997E+02  0.45594000000E+02  0.51100000000E-03 0.  1.
         23    2    1    2    0    0 -0.71054273576E-14  0.35527136788E-14  0.00000000000E+00  0.91188000000E+02  0.91188000000E+02 0.  0.
    9900012    2    3    3    0    0 -0.33676223203E+02  0.23795146688E+02 -0.13539807197E+02  0.47787269660E+02  0.19999993687E+02 0.  0.
         12    1    3    3    0    0  0.33676223203E+02 -0.23795146688E+02  0.13539807197E+02  0.43400730340E+02  0.00000000000E+00 0. -1.
         11    1    4    4    0    0 -0.20215191593E+01 -0.23372601118E+01  0.12871763485E+00  0.30928777914E+01  0.51100000000E-03 0. -1.
        -11    1    4    4    0    0 -0.87007113098E+01  0.11951567295E+02 -0.80861603547E+00  0.14805276028E+02  0.51100000000E-03 0.  1.
         12    1    4    4    0    0 -0.22953992733E+02  0.14180839505E+02 -0.12859908797E+02  0.29889115841E+02  0.00000000000E+00 0. -1.
</event>
<event>
 8    1  0.6046524E-010  0.9118800E+02  0.7816164E-02  0.1184000E+00
        -11   -1    0    0    0    0  0.00000000000E+00  0.00000000000E+00  0.45593999997E+02  0.45594000000E+02  0.51100000000E-03 0. -1.
         11   -1    0    0    0    0 -0.00000000000E+00 -0.00000000000E+00 -0.45593999997E+02  0.45594000000E+02  0.51100000000E-03 0.  1.
         23    2    1    2    0    0 -0.35527136788E-14  0.17763568394E-14  0.00000000000E+00  0.91188000000E+02  0.91188000000E+02 0.  0.
    9900012    2    3    3    0    0  0.23806964385E+02  0.60316466060E+01 -0.35783665915E+02  0.47787273504E+02  0.20000011216E+02 0.  0.
         12    1    3    3    0    0 -0.23806964385E+02 -0.60316466060E+01  0.35783665915E+02  0.43400726496E+02  0.00000000000E+00 0. -1.
         11    1    4    4    0    0  0.40614812220E+01 -0.26489062752E+01 -0.95505635552E+00  0.49421116008E+01  0.51100000000E-03 0. -1.
        -11    1    4    4    0    0  0.20049766881E+02  0.68618129823E+01 -0.24676878508E+02  0.32527311026E+02  0.51100000000E-03 0.  1.
         12    1    4    4    0    0 -0.30428371795E+00  0.18187398988E+01 -0.10151731051E+02  0.10317850878E+02  0.00000000000E+00 0. -1.
</event>
<event>
 8    1  0.6046524E-010  0.9118800E+02  0.7816164E-02  0.1184000E+00
        -11   -1    0    0    0    0  0.00000000000E+00  0.00000000000E+00  0.45593999997E+02  0.45594000000E+02  0.51100000000E-03 0. -1.
         11   -1    0    0    0    0 -0.00000000000E+00 -0.00000000000E+00 -0.45593999997E+02  0.45594000000E+02  0.51100000000E-03 0.  1.
         23    2    1    2    0    0  0.00000000000E+00  0.00000000000E+00  0.88817841970E-15  0.91188000000E+02  0.91188000000E+02 0.  0.
    9900012    2    3    3    0    0  0.10442952464E+02  0.41608695120E+02 -0.65790813321E+01  0.47787273313E+02  0.20000010343E+02 0.  0.
         12    1    3    3    0    0 -0.10442952464E+02 -0.41608695120E+02  0.65790813321E+01  0.43400726687E+02  0.00000000000E+00 0. -1.
         11    1    4    4    0    0 -0.84067305388E+00  0.25791219783E+01  0.22452442287E+01  0.35213240791E+01  0.51100000000E-03 0. -1.
        -11    1    4    4    0    0 -0.77986293434E+00  0.15718820627E+01 -0.43124910957E+01  0.46558113285E+01  0.51100000000E-03 0.  1.
        -12    1    4    4    0    0  0.12063488452E+02  0.37457691080E+02 -0.45118344651E+01  0.39610137905E+02  0.00000000000E+00 0.  1.
</event>
<event>
 8    1  0.6046524E-010  0.9118800E+02  0.7816164E-02  0.1184000E+00
        -11   -1    0    0    0    0  0.00000000000E+00  0.00000000000E+00  0.45593999997E+02  0.45594000000E+02  0.51100000000E-03 0. -1.
         11   -1    0    0    0    0 -0.00000000000E+00 -0.00000000000E+00 -0.45593999997E+02  0.45594000000E+02  0.51100000000E-03 0.  1.
         23    2    1    2    0    0  0.35527136788E-14 -0.35527136788E-14  0.00000000000E+00  0.91188000000E+02  0.91188000000E+02 0.  0.
    9900012    2    3    3    0    0 -0.20923870767E+02  0.14528915614E+02 -0.35138674932E+02  0.47787259997E+02  0.19999949632E+02 0.  0.
         12    1    3    3    0    0  0.20923870767E+02 -0.14528915614E+02  0.35138674932E+02  0.43400740003E+02  0.00000000000E+00 0. -1.
         11    1    4    4    0    0 -0.35501004994E+01  0.48591234563E+01 -0.20080156902E+01  0.63440067459E+01  0.51100000000E-03 0. -1.
        -11    1    4    4    0    0 -0.59979375273E+01  0.66648323587E+00 -0.90466054498E+00  0.61022836257E+01  0.51100000000E-03 0.  1.
        -12    1    4    4    0    0 -0.11375832740E+02  0.90033089217E+01 -0.32225998697E+02  0.35340969626E+02  0.00000000000E+00 0.  1.
</event>
<event>
 8    1  0.6408246E-010  0.9118800E+02  0.7816164E-02  0.1184000E+00
        -11   -1    0    0    0    0  0.00000000000E+00  0.00000000000E+00  0.45593999997E+02  0.45594000000E+02  0.51100000000E-03 0. -1.
         11   -1    0    0    0    0 -0.00000000000E+00 -0.00000000000E+00 -0.45593999997E+02  0.45594000000E+02  0.51100000000E-03 0.  1.
         23    2    1    2    0    0 -0.17763568394E-14  0.00000000000E+00  0.35527136788E-14  0.91188000000E+02  0.91188000000E+02 0.  0.
    9900012    2    3    3    0    0  0.12084112795E+02 -0.35561492115E+02 -0.21748049931E+02  0.47787272134E+02  0.20000004970E+02 0.  0.
         12    1    3    3    0    0 -0.12084112795E+02  0.35561492115E+02  0.21748049931E+02  0.43400727866E+02  0.00000000000E+00 0. -1.
         11    1    4    4    0    0  0.33651868664E+01 -0.22442352435E+00 -0.41680281884E+01  0.53616515930E+01  0.51100000000E-03 0. -1.
        -11    1    4    4    0    0 -0.22104635842E+01 -0.16399075776E+02 -0.97160073971E+01  0.19188971717E+02  0.51100000000E-03 0.  1.
         12    1    4    4    0    0  0.10929389512E+02 -0.18937992814E+02 -0.78640143453E+01  0.23236648824E+02  0.00000000000E+00 0. -1.
</event>
<event>
 8    1  0.6046524E-010  0.9118800E+02  0.7816164E-02  0.1184000E+00
        -11   -1    0    0    0    0  0.00000000000E+00  0.00000000000E+00  0.45593999997E+02  0.45594000000E+02  0.51100000000E-03 0. -1.
         11   -1    0    0    0    0 -0.00000000000E+00 -0.00000000000E+00 -0.45593999997E+02  0.45594000000E+02  0.51100000000E-03 0.  1.
         23    2    1    2    0    0  0.00000000000E+00  0.00000000000E+00  0.00000000000E+00  0.91188000000E+02  0.91188000000E+02 0.  0.
    9900012    2    3    3    0    0  0.31163523959E+02 -0.25584566348E+02  0.16058901217E+02  0.47787267644E+02  0.19999984497E+02 0.  0.
        -12    1    3    3    0    0 -0.31163523959E+02  0.25584566348E+02 -0.16058901217E+02  0.43400732356E+02  0.00000000000E+00 0.  1.
         11    1    4    4    0    0  0.25034069250E+02 -0.24982969212E+02  0.76674249464E+01  0.36188986991E+02  0.51100000000E-03 0. -1.
        -11    1    4    4    0    0  0.16307491151E+01 -0.16938594499E+01  0.58773905495E+01  0.63302624310E+01  0.51100000000E-03 0.  1.
        -12    1    4    4    0    0  0.44987055933E+01  0.10922623136E+01  0.25140857213E+01  0.52680182224E+01  0.00000000000E+00 0.  1.
</event>
<event>
 8    1  0.6046524E-010  0.9118800E+02  0.7816164E-02  0.1184000E+00
        -11   -1    0    0    0    0  0.00000000000E+00  0.00000000000E+00  0.45593999997E+02  0.45594000000E+02  0.51100000000E-03 0.  1.
         11   -1    0    0    0    0 -0.00000000000E+00 -0.00000000000E+00 -0.45593999997E+02  0.45594000000E+02  0.51100000000E-03 0. -1.
         23    2    1    2    0    0  0.00000000000E+00  0.00000000000E+00  0.35527136788E-14  0.91188000000E+02  0.91188000000E+02 0.  0.
    9900012    2    3    3    0    0  0.27556477278E+01 -0.41090050609E+02 -0.13698082037E+02  0.47787270686E+02  0.19999998368E+02 0.  0.
         12    1    3    3    0    0 -0.27556477278E+01  0.41090050609E+02  0.13698082037E+02  0.43400729314E+02  0.00000000000E+00 0. -1.
         11    1    4    4    0    0 -0.72158921420E-01 -0.27364233355E+02 -0.13890197913E+02  0.30687848936E+02  0.51100000000E-03 0. -1.
        -11    1    4    4    0    0 -0.17773851928E+01  0.20347552857E+00 -0.14956490872E+01  0.23318376589E+01  0.51100000000E-03 0.  1.
        -12    1    4    4    0    0  0.46051918420E+01 -0.13929292782E+02  0.16877649630E+01  0.14767584091E+02  0.00000000000E+00 0.  1.
</event>
<event>
 8    1  0.6046524E-010  0.9118800E+02  0.7816164E-02  0.1184000E+00
        -11   -1    0    0    0    0  0.00000000000E+00  0.00000000000E+00  0.45593999997E+02  0.45594000000E+02  0.51100000000E-03 0. -1.
         11   -1    0    0    0    0 -0.00000000000E+00 -0.00000000000E+00 -0.45593999997E+02  0.45594000000E+02  0.51100000000E-03 0.  1.
         23    2    1    2    0    0  0.71054273576E-14  0.35527136788E-14  0.00000000000E+00  0.91188000000E+02  0.91188000000E+02 0.  0.
    9900012    2    3    3    0    0 -0.34088418040E+02 -0.20548759099E+02  0.17301786557E+02  0.47787267713E+02  0.19999984810E+02 0.  0.
        -12    1    3    3    0    0  0.34088418040E+02  0.20548759099E+02 -0.17301786557E+02  0.43400732287E+02  0.00000000000E+00 0.  1.
         11    1    4    4    0    0 -0.12007181119E+02 -0.61289510105E+01  0.29950448662E+01  0.13809660855E+02  0.51100000000E-03 0. -1.
        -11    1    4    4    0    0 -0.31552017032E+01  0.95392188824E+00  0.82050904433E+01  0.88424416424E+01  0.51100000000E-03 0.  1.
        -12    1    4    4    0    0 -0.18926035218E+02 -0.15373729976E+02  0.61016512479E+01  0.25135165216E+02  0.00000000000E+00 0.  1.
</event>
<event>
 8    1  0.6046524E-010  0.9118800E+02  0.7816164E-02  0.1184000E+00
        -11   -1    0    0    0    0  0.00000000000E+00  0.00000000000E+00  0.45593999997E+02  0.45594000000E+02  0.51100000000E-03 0. -1.
         11   -1    0    0    0    0 -0.00000000000E+00 -0.00000000000E+00 -0.45593999997E+02  0.45594000000E+02  0.51100000000E-03 0.  1.
         23    2    1    2    0    0  0.00000000000E+00  0.00000000000E+00  0.00000000000E+00  0.91188000000E+02  0.91188000000E+02 0.  0.
    9900012    2    3    3    0    0 -0.28906578567E+02 -0.16319954455E+02  0.27958745415E+02  0.47787278313E+02  0.20000033138E+02 0.  0.
        -12    1    3    3    0    0  0.28906578567E+02  0.16319954455E+02 -0.27958745415E+02  0.43400721687E+02  0.00000000000E+00 0.  1.
         11    1    4    4    0    0 -0.24090551424E+02 -0.94750902956E+01  0.22406924882E+02  0.34237439842E+02  0.51100000000E-03 0. -1.
        -11    1    4    4    0    0 -0.66433753544E+01 -0.65836552617E+01  0.20258507781E+01  0.95699020026E+01  0.51100000000E-03 0.  1.
        -12    1    4    4    0    0  0.18273482118E+01 -0.26120889739E+00  0.35259697549E+01  0.39799364678E+01  0.00000000000E+00 0.  1.
</event>
<event>
 8    1  0.6046524E-010  0.9118800E+02  0.7816164E-02  0.1184000E+00
        -11   -1    0    0    0    0  0.00000000000E+00  0.00000000000E+00  0.45593999997E+02  0.45594000000E+02  0.51100000000E-03 0. -1.
         11   -1    0    0    0    0 -0.00000000000E+00 -0.00000000000E+00 -0.45593999997E+02  0.45594000000E+02  0.51100000000E-03 0.  1.
         23    2    1    2    0    0  0.00000000000E+00 -0.71054273576E-14  0.00000000000E+00  0.91188000000E+02  0.91188000000E+02 0.  0.
    9900012    2    3    3    0    0  0.17399438269E+02 -0.33114641776E+02 -0.22006903941E+02  0.47787265293E+02  0.19999973777E+02 0.  0.
         12    1    3    3    0    0 -0.17399438269E+02  0.33114641776E+02  0.22006903941E+02  0.43400734707E+02  0.00000000000E+00 0. -1.
         11    1    4    4    0    0  0.51144340906E+01 -0.10137896007E+02  0.15224534945E+01  0.11456536842E+02  0.51100000000E-03 0. -1.
        -11    1    4    4    0    0  0.10808581516E+02 -0.10889842127E+02 -0.11152968708E+02  0.18968468763E+02  0.51100000000E-03 0.  1.
        -12    1    4    4    0    0  0.14764226625E+01 -0.12086903641E+02 -0.12376388728E+02  0.17362259687E+02  0.00000000000E+00 0.  1.
</event>
<event>
 8    1  0.6046524E-010  0.9118800E+02  0.7816164E-02  0.1184000E+00
        -11   -1    0    0    0    0  0.00000000000E+00  0.00000000000E+00  0.45593999997E+02  0.45594000000E+02  0.51100000000E-03 0. -1.
         11   -1    0    0    0    0 -0.00000000000E+00 -0.00000000000E+00 -0.45593999997E+02  0.45594000000E+02  0.51100000000E-03 0.  1.
         23    2    1    2    0    0 -0.88817841970E-15  0.17763568394E-14  0.00000000000E+00  0.91188000000E+02  0.91188000000E+02 0.  0.
    9900012    2    3    3    0    0  0.43050505333E+01 -0.13175692684E+02 -0.41127739860E+02  0.47787270469E+02  0.19999997378E+02 0.  0.
         12    1    3    3    0    0 -0.43050505333E+01  0.13175692684E+02  0.41127739860E+02  0.43400729531E+02  0.00000000000E+00 0. -1.
         11    1    4    4    0    0  0.33732719712E+01 -0.38255610122E+01 -0.35775316755E+00  0.51129119336E+01  0.51100000000E-03 0. -1.
        -11    1    4    4    0    0 -0.34999033631E+01 -0.47753637252E+01 -0.14933033943E+02  0.16063901309E+02  0.51100000000E-03 0.  1.
        -12    1    4    4    0    0  0.44316819251E+01 -0.45747679468E+01 -0.25836952750E+02  0.26610457227E+02  0.00000000000E+00 0.  1.
</event>
<event>
 8    1  0.6046524E-010  0.9118800E+02  0.7816164E-02  0.1184000E+00
        -11   -1    0    0    0    0  0.00000000000E+00  0.00000000000E+00  0.45593999997E+02  0.45594000000E+02  0.51100000000E-03 0. -1.
         11   -1    0    0    0    0 -0.00000000000E+00 -0.00000000000E+00 -0.45593999997E+02  0.45594000000E+02  0.51100000000E-03 0.  1.
         23    2    1    2    0    0  0.35527136788E-14 -0.35527136788E-14  0.00000000000E+00  0.91188000000E+02  0.91188000000E+02 0.  0.
    9900012    2    3    3    0    0 -0.23695480203E+02  0.31582340710E+02  0.18019530521E+02  0.47787268359E+02  0.19999987757E+02 0.  0.
        -12    1    3    3    0    0  0.23695480203E+02 -0.31582340710E+02 -0.18019530521E+02  0.43400731641E+02  0.00000000000E+00 0.  1.
         11    1    4    4    0    0 -0.14835867452E+02  0.22053757641E+02  0.49209444923E+01  0.27031220544E+02  0.51100000000E-03 0. -1.
        -11    1    4    4    0    0 -0.10879228828E+02  0.74232783468E+01  0.11038468540E+02  0.17184599770E+02  0.51100000000E-03 0.  1.
        -12    1    4    4    0    0  0.20196160766E+01  0.21053047220E+01  0.20601174890E+01  0.35714480450E+01  0.00000000000E+00 0.  1.
</event>
<event>
 8    1  0.6046524E-010  0.9118800E+02  0.7816164E-02  0.1184000E+00
        -11   -1    0    0    0    0  0.00000000000E+00  0.00000000000E+00  0.45593999997E+02  0.45594000000E+02  0.51100000000E-03 0. -1.
         11   -1    0    0    0    0 -0.00000000000E+00 -0.00000000000E+00 -0.45593999997E+02  0.45594000000E+02  0.51100000000E-03 0.  1.
         23    2    1    2    0    0  0.35527136788E-14 -0.66613381478E-15  0.00000000000E+00  0.91188000000E+02  0.91188000000E+02 0.  0.
    9900012    2    3    3    0    0 -0.21125635333E+02  0.11211300168E+01  0.37895576189E+02  0.47787261580E+02  0.19999956848E+02 0.  0.
        -12    1    3    3    0    0  0.21125635333E+02 -0.11211300168E+01 -0.37895576189E+02  0.43400738420E+02  0.00000000000E+00 0.  1.
         11    1    4    4    0    0 -0.60647046142E+01 -0.57273394476E+01  0.95199452510E+01  0.12657504377E+02  0.51100000000E-03 0. -1.
        -11    1    4    4    0    0 -0.85976869030E+01  0.39561494436E+01  0.25987143281E+02  0.27656878975E+02  0.51100000000E-03 0.  1.
        -12    1    4    4    0    0 -0.64632438157E+01  0.28923200208E+01  0.23884876570E+01  0.74728782281E+01  0.00000000000E+00 0.  1.
</event>
<event>
 8    1  0.6046524E-010  0.9118800E+02  0.7816164E-02  0.1184000E+00
        -11   -1    0    0    0    0  0.00000000000E+00  0.00000000000E+00  0.45593999997E+02  0.45594000000E+02  0.51100000000E-03 0. -1.
         11   -1    0    0    0    0 -0.00000000000E+00 -0.00000000000E+00 -0.45593999997E+02  0.45594000000E+02  0.51100000000E-03 0.  1.
         23    2    1    2    0    0  0.17763568394E-14 -0.35527136788E-14  0.71054273576E-14  0.91188000000E+02  0.91188000000E+02 0.  0.
    9900012    2    3    3    0    0 -0.15979211594E+02 -0.28812363505E+02  0.28251309835E+02  0.47787262664E+02  0.19999961790E+02 0.  0.
        -12    1    3    3    0    0  0.15979211594E+02  0.28812363505E+02 -0.28251309835E+02  0.43400737336E+02  0.00000000000E+00 0.  1.
         11    1    4    4    0    0 -0.19890779107E+02 -0.18821041847E+02  0.21840246249E+02  0.35026719318E+02  0.51100000000E-03 0. -1.
        -11    1    4    4    0    0  0.16517819720E+01 -0.16311394285E+01  0.18763803757E+01  0.29849293280E+01  0.51100000000E-03 0.  1.
         12    1    4    4    0    0  0.22597855415E+01 -0.83601822301E+01  0.45346832105E+01  0.97756140182E+01  0.00000000000E+00 0. -1.
</event>
<event>
 8    1  0.6046524E-010  0.9118800E+02  0.7816164E-02  0.1184000E+00
        -11   -1    0    0    0    0  0.00000000000E+00  0.00000000000E+00  0.45593999997E+02  0.45594000000E+02  0.51100000000E-03 0. -1.
         11   -1    0    0    0    0 -0.00000000000E+00 -0.00000000000E+00 -0.45593999997E+02  0.45594000000E+02  0.51100000000E-03 0.  1.
         23    2    1    2    0    0  0.17763568394E-14  0.17763568394E-14  0.71054273576E-14  0.91188000000E+02  0.91188000000E+02 0.  0.
    9900012    2    3    3    0    0  0.95001241692E+01  0.14694733665E+02  0.39716948806E+02  0.47787267528E+02  0.19999983965E+02 0.  0.
        -12    1    3    3    0    0 -0.95001241692E+01 -0.14694733665E+02 -0.39716948806E+02  0.43400732472E+02  0.00000000000E+00 0.  1.
         11    1    4    4    0    0 -0.14909028493E+01  0.13434573147E+01  0.15419938122E+02  0.15549989094E+02  0.51100000000E-03 0. -1.
        -11    1    4    4    0    0  0.67314924541E+01  0.11647325264E+02  0.24153710386E+02  0.27647330832E+02  0.51100000000E-03 0.  1.
        -12    1    4    4    0    0  0.42595345644E+01  0.17039510869E+01  0.14330029715E+00  0.45899476017E+01  0.00000000000E+00 0.  1.
</event>
<event>
 8    1  0.6046524E-010  0.9118800E+02  0.7816164E-02  0.1184000E+00
        -11   -1    0    0    0    0  0.00000000000E+00  0.00000000000E+00  0.45593999997E+02  0.45594000000E+02  0.51100000000E-03 0.  1.
         11   -1    0    0    0    0 -0.00000000000E+00 -0.00000000000E+00 -0.45593999997E+02  0.45594000000E+02  0.51100000000E-03 0. -1.
         23    2    1    2    0    0  0.71054273576E-14 -0.17763568394E-14 -0.35527136788E-14  0.91188000000E+02  0.91188000000E+02 0.  0.
    9900012    2    3    3    0    0  0.34300477002E+02 -0.92497442590E+01 -0.24930756091E+02  0.47787273155E+02  0.20000009622E+02 0.  0.
        -12    1    3    3    0    0 -0.34300477002E+02  0.92497442590E+01  0.24930756091E+02  0.43400726845E+02  0.00000000000E+00 0.  1.
         11    1    4    4    0    0  0.24376798955E+02 -0.97477611130E+01 -0.25874262687E+02  0.36860882299E+02  0.51100000000E-03 0. -1.
        -11    1    4    4    0    0  0.18307273646E+01 -0.15291831816E+01  0.99161857357E+00  0.25832676097E+01  0.51100000000E-03 0.  1.
         12    1    4    4    0    0  0.80929506824E+01  0.20272000356E+01 -0.48111977576E-01  0.83431232458E+01  0.00000000000E+00 0. -1.
</event>
<event>
 8    1  0.6046524E-010  0.9118800E+02  0.7816164E-02  0.1184000E+00
        -11   -1    0    0    0    0  0.00000000000E+00  0.00000000000E+00  0.45593999997E+02  0.45594000000E+02  0.51100000000E-03 0. -1.
         11   -1    0    0    0    0 -0.00000000000E+00 -0.00000000000E+00 -0.45593999997E+02  0.45594000000E+02  0.51100000000E-03 0.  1.
         23    2    1    2    0    0  0.17763568394E-14 -0.88817841970E-15 -0.71054273576E-14  0.91188000000E+02  0.91188000000E+02 0.  0.
    9900012    2    3    3    0    0 -0.12217755279E+02  0.76957460475E+01  0.40928295599E+02  0.47787269224E+02  0.19999991700E+02 0.  0.
        -12    1    3    3    0    0  0.12217755279E+02 -0.76957460475E+01 -0.40928295599E+02  0.43400730776E+02  0.00000000000E+00 0.  1.
         11    1    4    4    0    0 -0.78755041926E+01  0.10835406029E+02  0.17886504029E+02  0.22346288657E+02  0.51100000000E-03 0. -1.
        -11    1    4    4    0    0  0.12267160986E+01 -0.15973846789E+01  0.37434167216E+00  0.20485609943E+01  0.51100000000E-03 0.  1.
         12    1    4    4    0    0 -0.55689671848E+01 -0.15422753028E+01  0.22667449898E+02  0.23392419573E+02  0.00000000000E+00 0. -1.
</event>
<event>
 8    1  0.6046524E-010  0.9118800E+02  0.7816164E-02  0.1184000E+00
        -11   -1    0    0    0    0  0.00000000000E+00  0.00000000000E+00  0.45593999997E+02  0.45594000000E+02  0.51100000000E-03 0. -1.
         11   -1    0    0    0    0 -0.00000000000E+00 -0.00000000000E+00 -0.45593999997E+02  0.45594000000E+02  0.51100000000E-03 0.  1.
         23    2    1    2    0    0  0.00000000000E+00  0.00000000000E+00  0.00000000000E+00  0.91188000000E+02  0.91188000000E+02 0.  0.
    9900012    2    3    3    0    0  0.18622560077E+02  0.17824103366E+02  0.34915918435E+02  0.47787311472E+02  0.20000184322E+02 0.  0.
        -12    1    3    3    0    0 -0.18622560077E+02 -0.17824103366E+02 -0.34915918435E+02  0.43400688528E+02  0.00000000000E+00 0.  1.
         11    1    4    4    0    0  0.79522818069E+00  0.23622160089E+01  0.19307802942E+01  0.31528344609E+01  0.51100000000E-03 0. -1.
        -11    1    4    4    0    0 -0.39330795107E+01  0.19065441131E+01  0.58675334390E+01  0.73165547774E+01  0.51100000000E-03 0.  1.
        -12    1    4    4    0    0  0.21760411407E+02  0.13555343244E+02  0.27117604701E+02  0.37317922233E+02  0.00000000000E+00 0.  1.
</event>
<event>
 8    1  0.6046524E-010  0.9118800E+02  0.7816164E-02  0.1184000E+00
        -11   -1    0    0    0    0  0.00000000000E+00  0.00000000000E+00  0.45593999997E+02  0.45594000000E+02  0.51100000000E-03 0. -1.
         11   -1    0    0    0    0 -0.00000000000E+00 -0.00000000000E+00 -0.45593999997E+02  0.45594000000E+02  0.51100000000E-03 0.  1.
         23    2    1    2    0    0 -0.35527136788E-14 -0.44408920985E-15  0.00000000000E+00  0.91188000000E+02  0.91188000000E+02 0.  0.
    9900012    2    3    3    0    0 -0.26729854153E+02 -0.39323238896E+01  0.33965803484E+02  0.47787261751E+02  0.19999957629E+02 0.  0.
        -12    1    3    3    0    0  0.26729854153E+02  0.39323238896E+01 -0.33965803484E+02  0.43400738249E+02  0.00000000000E+00 0.  1.
         11    1    4    4    0    0 -0.92373296607E+01 -0.54607181518E+01  0.15845791594E+01  0.10847054594E+02  0.51100000000E-03 0. -1.
        -11    1    4    4    0    0 -0.95402990483E+01  0.24111559248E+00  0.20132001366E+02  0.22279428222E+02  0.51100000000E-03 0.  1.
        -12    1    4    4    0    0 -0.79522254436E+01  0.12872786697E+01  0.12249222959E+02  0.14660778935E+02  0.00000000000E+00 0.  1.
</event>
<event>
 8    1  0.8018593E-010  0.9118800E+02  0.7816164E-02  0.1184000E+00
        -11   -1    0    0    0    0  0.00000000000E+00  0.00000000000E+00  0.45593999997E+02  0.45594000000E+02  0.51100000000E-03 0. -1.
         11   -1    0    0    0    0 -0.00000000000E+00 -0.00000000000E+00 -0.45593999997E+02  0.45594000000E+02  0.51100000000E-03 0.  1.
         23    2    1    2    0    0  0.66613381478E-15  0.71054273576E-14 -0.35527136788E-14  0.91188000000E+02  0.91188000000E+02 0.  0.
    9900012    2    3    3    0    0  0.11919960244E+00 -0.32459259390E+02 -0.28809816291E+02  0.47787271395E+02  0.20000001598E+02 0.  0.
         12    1    3    3    0    0 -0.11919960244E+00  0.32459259390E+02  0.28809816291E+02  0.43400728605E+02  0.00000000000E+00 0. -1.
         11    1    4    4    0    0 -0.44245626751E+01 -0.49086363640E+01 -0.96605732828E+01  0.11704620551E+02  0.51100000000E-03 0. -1.
        -11    1    4    4    0    0  0.75952032877E+01 -0.14867553158E+02 -0.14859909245E+02  0.22350573883E+02  0.51100000000E-03 0.  1.
         12    1    4    4    0    0 -0.30514410102E+01 -0.12683069869E+02 -0.42893337637E+01  0.13732076961E+02  0.00000000000E+00 0. -1.
</event>
<event>
 8    1  0.6046524E-010  0.9118800E+02  0.7816164E-02  0.1184000E+00
        -11   -1    0    0    0    0  0.00000000000E+00  0.00000000000E+00  0.45593999997E+02  0.45594000000E+02  0.51100000000E-03 0.  1.
         11   -1    0    0    0    0 -0.00000000000E+00 -0.00000000000E+00 -0.45593999997E+02  0.45594000000E+02  0.51100000000E-03 0. -1.
         23    2    1    2    0    0  0.35527136788E-14 -0.71054273576E-14  0.44408920985E-15  0.91188000000E+02  0.91188000000E+02 0.  0.
    9900012    2    3    3    0    0  0.95680586578E+01 -0.42167765779E+02 -0.37357056882E+01  0.47787265971E+02  0.19999976868E+02 0.  0.
        -12    1    3    3    0    0 -0.95680586578E+01  0.42167765779E+02  0.37357056882E+01  0.43400734029E+02  0.00000000000E+00 0.  1.
         11    1    4    4    0    0  0.63433637561E+01 -0.80949812027E+01 -0.33455775183E+01  0.10814798824E+02  0.51100000000E-03 0. -1.
        -11    1    4    4    0    0  0.59914464481E+01 -0.32295527314E+02  0.19996796452E+01  0.32907403938E+02  0.51100000000E-03 0.  1.
        -12    1    4    4    0    0 -0.27667515464E+01 -0.17772572625E+01 -0.23898078151E+01  0.40650632086E+01  0.00000000000E+00 0.  1.
</event>
<event>
 8    1  0.6046524E-010  0.9118800E+02  0.7816164E-02  0.1184000E+00
        -11   -1    0    0    0    0  0.00000000000E+00  0.00000000000E+00  0.45593999997E+02  0.45594000000E+02  0.51100000000E-03 0. -1.
         11   -1    0    0    0    0 -0.00000000000E+00 -0.00000000000E+00 -0.45593999997E+02  0.45594000000E+02  0.51100000000E-03 0.  1.
         23    2    1    2    0    0  0.00000000000E+00  0.88817841970E-15  0.00000000000E+00  0.91188000000E+02  0.91188000000E+02 0.  0.
    9900012    2    3    3    0    0  0.18264170852E+02 -0.72248173627E+01  0.38702021777E+02  0.47787257927E+02  0.19999940192E+02 0.  0.
        -12    1    3    3    0    0 -0.18264170852E+02  0.72248173627E+01 -0.38702021777E+02  0.43400742073E+02  0.00000000000E+00 0.  1.
         11    1    4    4    0    0  0.11156709885E+02 -0.60319121487E+01  0.22084324324E+02  0.25467106642E+02  0.51100000000E-03 0. -1.
        -11    1    4    4    0    0 -0.33713140925E+00 -0.50474481364E+01  0.19416963309E+01  0.54185399491E+01  0.51100000000E-03 0.  1.
        -12    1    4    4    0    0  0.74445923760E+01  0.38545429224E+01  0.14676001123E+02  0.16901611336E+02  0.00000000000E+00 0.  1.
</event>
<event>
 8    1  0.6046524E-010  0.9118800E+02  0.7816164E-02  0.1184000E+00
        -11   -1    0    0    0    0  0.00000000000E+00  0.00000000000E+00  0.45593999997E+02  0.45594000000E+02  0.51100000000E-03 0. -1.
         11   -1    0    0    0    0 -0.00000000000E+00 -0.00000000000E+00 -0.45593999997E+02  0.45594000000E+02  0.51100000000E-03 0.  1.
         23    2    1    2    0    0  0.00000000000E+00  0.00000000000E+00  0.17763568394E-14  0.91188000000E+02  0.91188000000E+02 0.  0.
    9900012    2    3    3    0    0  0.40021513058E+02  0.12881440821E+02  0.10768949620E+02  0.47787270732E+02  0.19999998577E+02 0.  0.
        -12    1    3    3    0    0 -0.40021513058E+02 -0.12881440821E+02 -0.10768949620E+02  0.43400729268E+02  0.00000000000E+00 0.  1.
         11    1    4    4    0    0  0.81917797429E+01  0.75530152974E+01  0.50578221312E+01  0.12236619648E+02  0.51100000000E-03 0. -1.
        -11    1    4    4    0    0  0.21283910069E+02  0.73451483453E+00  0.96650223845E+01  0.23387111789E+02  0.51100000000E-03 0.  1.
         12    1    4    4    0    0  0.10545823246E+02  0.45939106888E+01 -0.39538948958E+01  0.12163539295E+02  0.00000000000E+00 0. -1.
</event>
<event>
 8    1  0.6046524E-010  0.9118800E+02  0.7816164E-02  0.1184000E+00
        -11   -1    0    0    0    0  0.00000000000E+00  0.00000000000E+00  0.45593999997E+02  0.45594000000E+02  0.51100000000E-03 0. -1.
         11   -1    0    0    0    0 -0.00000000000E+00 -0.00000000000E+00 -0.45593999997E+02  0.45594000000E+02  0.51100000000E-03 0.  1.
         23    2    1    2    0    0 -0.17763568394E-14  0.35527136788E-14  0.00000000000E+00  0.91188000000E+02  0.91188000000E+02 0.  0.
    9900012    2    3    3    0    0 -0.13453266266E+02  0.17583414647E+02  0.37329024496E+02  0.47787275194E+02  0.20000018919E+02 0.  0.
        -12    1    3    3    0    0  0.13453266266E+02 -0.17583414647E+02 -0.37329024496E+02  0.43400724806E+02  0.00000000000E+00 0.  1.
         11    1    4    4    0    0 -0.14830817883E+02  0.16930023110E+02  0.30383551040E+02  0.37811889871E+02  0.51100000000E-03 0. -1.
        -11    1    4    4    0    0 -0.93702669152E+00 -0.81280020342E+00  0.71225724605E+01  0.72297788284E+01  0.51100000000E-03 0.  1.
         12    1    4    4    0    0  0.23145783083E+01  0.14661917403E+01 -0.17709900416E+00  0.27456064943E+01  0.00000000000E+00 0. -1.
</event>
<event>
 8    1  0.6046524E-010  0.9118800E+02  0.7816164E-02  0.1184000E+00
        -11   -1    0    0    0    0  0.00000000000E+00  0.00000000000E+00  0.45593999997E+02  0.45594000000E+02  0.51100000000E-03 0. -1.
         11   -1    0    0    0    0 -0.00000000000E+00 -0.00000000000E+00 -0.45593999997E+02  0.45594000000E+02  0.51100000000E-03 0.  1.
         23    2    1    2    0    0  0.35527136788E-14  0.00000000000E+00  0.00000000000E+00  0.91188000000E+02  0.91188000000E+02 0.  0.
    9900012    2    3    3    0    0  0.21262691019E+02  0.20535154895E+02  0.31777807314E+02  0.47787266670E+02  0.19999980056E+02 0.  0.
        -12    1    3    3    0    0 -0.21262691019E+02 -0.20535154895E+02 -0.31777807314E+02  0.43400733330E+02  0.00000000000E+00 0.  1.
         11    1    4    4    0    0  0.12665275806E+02  0.58420571675E+01  0.71530722891E+01  0.15674989207E+02  0.51100000000E-03 0. -1.
        -11    1    4    4    0    0 -0.20566335546E+01  0.73259206996E+01  0.80600331534E+01  0.11084357914E+02  0.51100000000E-03 0.  1.
         12    1    4    4    0    0  0.10654048767E+02  0.73671770276E+01  0.16564701871E+02  0.21027919549E+02  0.00000000000E+00 0. -1.
</event>
<event>
 8    1  0.6046524E-010  0.9118800E+02  0.7816164E-02  0.1184000E+00
        -11   -1    0    0    0    0  0.00000000000E+00  0.00000000000E+00  0.45593999997E+02  0.45594000000E+02  0.51100000000E-03 0. -1.
         11   -1    0    0    0    0 -0.00000000000E+00 -0.00000000000E+00 -0.45593999997E+02  0.45594000000E+02  0.51100000000E-03 0.  1.
         23    2    1    2    0    0  0.00000000000E+00  0.17763568394E-14  0.88817841970E-15  0.91188000000E+02  0.91188000000E+02 0.  0.
    9900012    2    3    3    0    0  0.41887678663E+02 -0.97208031311E+01  0.58777704668E+01  0.47787310801E+02  0.20000181266E+02 0.  0.
        -12    1    3    3    0    0 -0.41887678663E+02  0.97208031311E+01 -0.58777704668E+01  0.43400689199E+02  0.00000000000E+00 0.  1.
         11    1    4    4    0    0  0.23892732690E+02 -0.67392195379E+01  0.19713670404E+01  0.24903133209E+02  0.51100000000E-03 0. -1.
        -11    1    4    4    0    0  0.12808240224E+02  0.65726240451E+00 -0.33456090498E+01  0.13254286540E+02  0.51100000000E-03 0.  1.
        -12    1    4    4    0    0  0.51867057495E+01 -0.36388459977E+01  0.72520124762E+01  0.96298910524E+01  0.00000000000E+00 0.  1.
</event>
<event>
 8    1  0.6046524E-010  0.9118800E+02  0.7816164E-02  0.1184000E+00
        -11   -1    0    0    0    0  0.00000000000E+00  0.00000000000E+00  0.45593999997E+02  0.45594000000E+02  0.51100000000E-03 0. -1.
         11   -1    0    0    0    0 -0.00000000000E+00 -0.00000000000E+00 -0.45593999997E+02  0.45594000000E+02  0.51100000000E-03 0.  1.
         23    2    1    2    0    0  0.88817841970E-15  0.00000000000E+00 -0.35527136788E-14  0.91188000000E+02  0.91188000000E+02 0.  0.
    9900012    2    3    3    0    0 -0.41714952708E+01 -0.33035110329E+02  0.27837084508E+02  0.47787272343E+02  0.20000005921E+02 0.  0.
        -12    1    3    3    0    0  0.41714952708E+01  0.33035110329E+02 -0.27837084508E+02  0.43400727657E+02  0.00000000000E+00 0.  1.
         11    1    4    4    0    0 -0.28088840060E+01  0.24493408252E+00  0.16205722747E+01  0.32520880712E+01  0.51100000000E-03 0. -1.
        -11    1    4    4    0    0  0.10848295439E+01 -0.65624823560E+01  0.13053941928E+02  0.14650884954E+02  0.51100000000E-03 0.  1.
         12    1    4    4    0    0 -0.24474408087E+01 -0.26717562055E+02  0.13162570306E+02  0.29884299318E+02  0.00000000000E+00 0. -1.
</event>
<event>
 8    1  0.6046524E-010  0.9118800E+02  0.7816164E-02  0.1184000E+00
        -11   -1    0    0    0    0  0.00000000000E+00  0.00000000000E+00  0.45593999997E+02  0.45594000000E+02  0.51100000000E-03 0. -1.
         11   -1    0    0    0    0 -0.00000000000E+00 -0.00000000000E+00 -0.45593999997E+02  0.45594000000E+02  0.51100000000E-03 0.  1.
         23    2    1    2    0    0 -0.35527136788E-14  0.00000000000E+00  0.35527136788E-14  0.91188000000E+02  0.91188000000E+02 0.  0.
    9900012    2    3    3    0    0 -0.29472689564E+02 -0.23890983823E+02  0.21076164293E+02  0.47787271440E+02  0.20000001805E+02 0.  0.
        -12    1    3    3    0    0  0.29472689564E+02  0.23890983823E+02 -0.21076164293E+02  0.43400728560E+02  0.00000000000E+00 0.  1.
         11    1    4    4    0    0 -0.10276480675E+02 -0.16695439006E+02  0.42717646339E+01  0.20064688186E+02  0.51100000000E-03 0.  1.
        -11    1    4    4    0    0 -0.81951307682E+00  0.14233611916E+01  0.20621219288E+01  0.26362674135E+01  0.51100000000E-03 0. -1.
        -12    1    4    4    0    0 -0.18376695812E+02 -0.86189060088E+01  0.14742277731E+02  0.25086315841E+02  0.00000000000E+00 0.  1.
</event>
<event>
 8    1  0.6046524E-010  0.9118800E+02  0.7816164E-02  0.1184000E+00
        -11   -1    0    0    0    0  0.00000000000E+00  0.00000000000E+00  0.45593999997E+02  0.45594000000E+02  0.51100000000E-03 0. -1.
         11   -1    0    0    0    0 -0.00000000000E+00 -0.00000000000E+00 -0.45593999997E+02  0.45594000000E+02  0.51100000000E-03 0.  1.
         23    2    1    2    0    0  0.00000000000E+00  0.00000000000E+00 -0.71054273576E-14  0.91188000000E+02  0.91188000000E+02 0.  0.
    9900012    2    3    3    0    0  0.10758509272E+02  0.81173697442E+01  0.41255128663E+02  0.47787275878E+02  0.20000022036E+02 0.  0.
        -12    1    3    3    0    0 -0.10758509272E+02 -0.81173697442E+01 -0.41255128663E+02  0.43400724122E+02  0.00000000000E+00 0.  1.
         11    1    4    4    0    0  0.93150717870E+01  0.37139083161E+01  0.24360660425E+02  0.26343983259E+02  0.51100000000E-03 0. -1.
        -11    1    4    4    0    0 -0.14592457033E+01 -0.12245199390E+01  0.14575723891E+02  0.14699679395E+02  0.51100000000E-03 0.  1.
        -12    1    4    4    0    0  0.29026831880E+01  0.56279813672E+01  0.23187443478E+01  0.67436132236E+01  0.00000000000E+00 0.  1.
</event>
<event>
 8    1  0.6046524E-010  0.9118800E+02  0.7816164E-02  0.1184000E+00
        -11   -1    0    0    0    0  0.00000000000E+00  0.00000000000E+00  0.45593999997E+02  0.45594000000E+02  0.51100000000E-03 0. -1.
         11   -1    0    0    0    0 -0.00000000000E+00 -0.00000000000E+00 -0.45593999997E+02  0.45594000000E+02  0.51100000000E-03 0.  1.
         23    2    1    2    0    0  0.00000000000E+00  0.00000000000E+00 -0.35527136788E-14  0.91188000000E+02  0.91188000000E+02 0.  0.
    9900012    2    3    3    0    0  0.31349887813E+02  0.44306095666E+01  0.29684652376E+02  0.47787258605E+02  0.19999943282E+02 0.  0.
        -12    1    3    3    0    0 -0.31349887813E+02 -0.44306095666E+01 -0.29684652376E+02  0.43400741395E+02  0.00000000000E+00 0.  1.
         11    1    4    4    0    0  0.12042464578E+02  0.13173877009E+00  0.23778635693E+02  0.26654489751E+02  0.51100000000E-03 0. -1.
        -11    1    4    4    0    0  0.39312297108E+01  0.24690656359E+01  0.25545907089E+00  0.46493130409E+01  0.51100000000E-03 0.  1.
         12    1    4    4    0    0  0.15376193524E+02  0.18298051606E+01  0.56505576118E+01  0.16483455813E+02  0.00000000000E+00 0. -1.
</event>
<event>
 8    1  0.6046524E-010  0.9118800E+02  0.7816164E-02  0.1184000E+00
        -11   -1    0    0    0    0  0.00000000000E+00  0.00000000000E+00  0.45593999997E+02  0.45594000000E+02  0.51100000000E-03 0. -1.
         11   -1    0    0    0    0 -0.00000000000E+00 -0.00000000000E+00 -0.45593999997E+02  0.45594000000E+02  0.51100000000E-03 0.  1.
         23    2    1    2    0    0  0.00000000000E+00  0.00000000000E+00  0.71054273576E-14  0.91188000000E+02  0.91188000000E+02 0.  0.
    9900012    2    3    3    0    0 -0.28137770312E+02  0.40584370742E+01 -0.32793570850E+02  0.47787270527E+02  0.19999997643E+02 0.  0.
         12    1    3    3    0    0  0.28137770312E+02 -0.40584370742E+01  0.32793570850E+02  0.43400729473E+02  0.00000000000E+00 0. -1.
         11    1    4    4    0    0 -0.18143473636E+02  0.48564255415E+00 -0.21942417790E+02  0.28476151127E+02  0.51100000000E-03 0.  1.
        -11    1    4    4    0    0 -0.64437741386E+01  0.71128640230E+01 -0.31115898838E+01  0.10089452494E+02  0.51100000000E-03 0. -1.
         12    1    4    4    0    0 -0.35505225375E+01 -0.35400695029E+01 -0.77395631764E+01  0.92216669065E+01  0.00000000000E+00 0. -1.
</event>
<event>
 8    1  0.6046524E-010  0.9118800E+02  0.7816164E-02  0.1184000E+00
        -11   -1    0    0    0    0  0.00000000000E+00  0.00000000000E+00  0.45593999997E+02  0.45594000000E+02  0.51100000000E-03 0.  1.
         11   -1    0    0    0    0 -0.00000000000E+00 -0.00000000000E+00 -0.45593999997E+02  0.45594000000E+02  0.51100000000E-03 0. -1.
         23    2    1    2    0    0  0.00000000000E+00  0.44408920985E-15  0.61062266354E-15  0.91188000000E+02  0.91188000000E+02 0.  0.
    9900012    2    3    3    0    0  0.43347661401E+02 -0.21352830875E+01 -0.21106622015E+00  0.47787265770E+02  0.19999975951E+02 0.  0.
         12    1    3    3    0    0 -0.43347661401E+02  0.21352830875E+01  0.21106622015E+00  0.43400734230E+02  0.00000000000E+00 0. -1.
         11    1    4    4    0    0  0.16193925698E+01  0.64478151540E+00  0.31865643115E+01  0.36321299358E+01  0.51100000000E-03 0. -1.
        -11    1    4    4    0    0  0.19965277972E+02  0.42135805384E+01 -0.56840917229E+01  0.21181961298E+02  0.51100000000E-03 0.  1.
        -12    1    4    4    0    0  0.21762990859E+02 -0.69936451414E+01  0.22864611912E+01  0.22973174536E+02  0.00000000000E+00 0.  1.
</event>
<event>
 8    1  0.6046524E-010  0.9118800E+02  0.7816164E-02  0.1184000E+00
        -11   -1    0    0    0    0  0.00000000000E+00  0.00000000000E+00  0.45593999997E+02  0.45594000000E+02  0.51100000000E-03 0. -1.
         11   -1    0    0    0    0 -0.00000000000E+00 -0.00000000000E+00 -0.45593999997E+02  0.45594000000E+02  0.51100000000E-03 0.  1.
         23    2    1    2    0    0  0.71054273576E-14  0.00000000000E+00  0.00000000000E+00  0.91188000000E+02  0.91188000000E+02 0.  0.
    9900012    2    3    3    0    0  0.28879986408E+02 -0.10132947606E+02  0.30771627811E+02  0.47787270511E+02  0.19999997566E+02 0.  0.
        -12    1    3    3    0    0 -0.28879986408E+02  0.10132947606E+02 -0.30771627811E+02  0.43400729489E+02  0.00000000000E+00 0.  1.
         11    1    4    4    0    0  0.72274223345E+01 -0.61231639622E+01  0.21141404107E+02  0.23166521931E+02  0.51100000000E-03 0. -1.
        -11    1    4    4    0    0  0.11274351465E+02 -0.43232184233E+01  0.35381262284E+01  0.12582509923E+02  0.51100000000E-03 0.  1.
        -12    1    4    4    0    0  0.10378212608E+02  0.31343477926E+00  0.60920974749E+01  0.12038238656E+02  0.00000000000E+00 0.  1.
</event>
<event>
 8    1  0.6046524E-010  0.9118800E+02  0.7816164E-02  0.1184000E+00
        -11   -1    0    0    0    0  0.00000000000E+00  0.00000000000E+00  0.45593999997E+02  0.45594000000E+02  0.51100000000E-03 0. -1.
         11   -1    0    0    0    0 -0.00000000000E+00 -0.00000000000E+00 -0.45593999997E+02  0.45594000000E+02  0.51100000000E-03 0.  1.
         23    2    1    2    0    0  0.71054273576E-14  0.00000000000E+00  0.71054273576E-14  0.91188000000E+02  0.91188000000E+02 0.  0.
    9900012    2    3    3    0    0  0.26858489274E+02  0.10307868107E+02  0.32496045420E+02  0.47787267761E+02  0.19999985028E+02 0.  0.
        -12    1    3    3    0    0 -0.26858489274E+02 -0.10307868107E+02 -0.32496045420E+02  0.43400732239E+02  0.00000000000E+00 0.  1.
         11    1    4    4    0    0  0.20758462291E+02  0.29990518983E+01  0.25378846426E+02  0.32924062859E+02  0.51100000000E-03 0. -1.
        -11    1    4    4    0    0  0.14408853692E+01  0.82820427983E+00 -0.20950646621E+01  0.26742044005E+01  0.51100000000E-03 0.  1.
        -12    1    4    4    0    0  0.46591416132E+01  0.64806119292E+01  0.92122636560E+01  0.12189000501E+02  0.00000000000E+00 0.  1.
</event>
<event>
 8    1  0.6046524E-010  0.9118800E+02  0.7816164E-02  0.1184000E+00
        -11   -1    0    0    0    0  0.00000000000E+00  0.00000000000E+00  0.45593999997E+02  0.45594000000E+02  0.51100000000E-03 0. -1.
         11   -1    0    0    0    0 -0.00000000000E+00 -0.00000000000E+00 -0.45593999997E+02  0.45594000000E+02  0.51100000000E-03 0.  1.
         23    2    1    2    0    0  0.44408920985E-15  0.35527136788E-14 -0.71054273576E-14  0.91188000000E+02  0.91188000000E+02 0.  0.
    9900012    2    3    3    0    0 -0.18155628214E+01  0.26175259232E+02 -0.34571414087E+02  0.47787272631E+02  0.20000007233E+02 0.  0.
         12    1    3    3    0    0  0.18155628214E+01 -0.26175259232E+02  0.34571414087E+02  0.43400727369E+02  0.00000000000E+00 0. -1.
         11    1    4    4    0    0 -0.43579149979E+01 -0.13905397842E+01 -0.50334848527E+01  0.68015435045E+01  0.51100000000E-03 0. -1.
        -11    1    4    4    0    0  0.23334276960E+01  0.69496442275E+01 -0.47102833370E+01  0.87137368033E+01  0.51100000000E-03 0.  1.
         12    1    4    4    0    0  0.20892448051E+00  0.20616154789E+02 -0.24827645897E+02  0.32271992323E+02  0.00000000000E+00 0. -1.
</event>
<event>
 8    1  0.6046524E-010  0.9118800E+02  0.7816164E-02  0.1184000E+00
        -11   -1    0    0    0    0  0.00000000000E+00  0.00000000000E+00  0.45593999997E+02  0.45594000000E+02  0.51100000000E-03 0.  1.
         11   -1    0    0    0    0 -0.00000000000E+00 -0.00000000000E+00 -0.45593999997E+02  0.45594000000E+02  0.51100000000E-03 0. -1.
         23    2    1    2    0    0  0.00000000000E+00  0.00000000000E+00 -0.11102230246E-15  0.91188000000E+02  0.91188000000E+02 0.  0.
    9900012    2    3    3    0    0  0.91127850083E+01 -0.42427132266E+02  0.72048692638E+00  0.47787268389E+02  0.19999987893E+02 0.  0.
         12    1    3    3    0    0 -0.91127850083E+01  0.42427132266E+02 -0.72048692638E+00  0.43400731611E+02  0.00000000000E+00 0. -1.
         11    1    4    4    0    0  0.18145734076E+01 -0.22654851562E+02  0.60710054417E+00  0.22735512910E+02  0.51100000000E-03 0.  1.
        -11    1    4    4    0    0  0.10794568081E+02 -0.16029126541E+02  0.23409333048E+01  0.19466267406E+02  0.51100000000E-03 0. -1.
        -12    1    4    4    0    0 -0.34963564800E+01 -0.37431541641E+01 -0.22275469226E+01  0.55854880739E+01  0.00000000000E+00 0.  1.
</event>
<event>
 8    1  0.6046524E-010  0.9118800E+02  0.7816164E-02  0.1184000E+00
        -11   -1    0    0    0    0  0.00000000000E+00  0.00000000000E+00  0.45593999997E+02  0.45594000000E+02  0.51100000000E-03 0. -1.
         11   -1    0    0    0    0 -0.00000000000E+00 -0.00000000000E+00 -0.45593999997E+02  0.45594000000E+02  0.51100000000E-03 0.  1.
         23    2    1    2    0    0  0.00000000000E+00 -0.35527136788E-14  0.00000000000E+00  0.91188000000E+02  0.91188000000E+02 0.  0.
    9900012    2    3    3    0    0  0.16589074181E+02  0.31566929250E+02 -0.24737722777E+02  0.47787270367E+02  0.19999996912E+02 0.  0.
         12    1    3    3    0    0 -0.16589074181E+02 -0.31566929250E+02  0.24737722777E+02  0.43400729633E+02  0.00000000000E+00 0. -1.
         11    1    4    4    0    0  0.39804091387E+01  0.15993955335E+02 -0.15938535171E+02  0.22927868802E+02  0.51100000000E-03 0. -1.
        -11    1    4    4    0    0 -0.17816011723E+01  0.95729625858E+00 -0.28656312209E+01  0.35074722264E+01  0.51100000000E-03 0.  1.
        -12    1    4    4    0    0  0.14390266215E+02  0.14615677657E+02 -0.59335563853E+01  0.21351929338E+02  0.00000000000E+00 0.  1.
</event>
<event>
 8    1  0.6046524E-010  0.9118800E+02  0.7816164E-02  0.1184000E+00
        -11   -1    0    0    0    0  0.00000000000E+00  0.00000000000E+00  0.45593999997E+02  0.45594000000E+02  0.51100000000E-03 0. -1.
         11   -1    0    0    0    0 -0.00000000000E+00 -0.00000000000E+00 -0.45593999997E+02  0.45594000000E+02  0.51100000000E-03 0.  1.
         23    2    1    2    0    0  0.00000000000E+00  0.00000000000E+00  0.00000000000E+00  0.91188000000E+02  0.91188000000E+02 0.  0.
    9900012    2    3    3    0    0 -0.10359435778E+02 -0.21029731760E+02 -0.36524725135E+02  0.47787273350E+02  0.20000010511E+02 0.  0.
         12    1    3    3    0    0  0.10359435778E+02  0.21029731760E+02  0.36524725135E+02  0.43400726650E+02  0.00000000000E+00 0. -1.
         11    1    4    4    0    0 -0.57468304255E+01 -0.53323492877E+01 -0.97653934774E+01  0.12522895787E+02  0.51100000000E-03 0. -1.
        -11    1    4    4    0    0 -0.65798729259E+01 -0.17381804800E+02 -0.17070476173E+02  0.25235352640E+02  0.51100000000E-03 0.  1.
        -12    1    4    4    0    0  0.19672675733E+01  0.16844223278E+01 -0.96888554852E+01  0.10029024923E+02  0.00000000000E+00 0.  1.
</event>
<event>
 8    1  0.6046524E-010  0.9118800E+02  0.7816164E-02  0.1184000E+00
        -11   -1    0    0    0    0  0.00000000000E+00  0.00000000000E+00  0.45593999997E+02  0.45594000000E+02  0.51100000000E-03 0. -1.
         11   -1    0    0    0    0 -0.00000000000E+00 -0.00000000000E+00 -0.45593999997E+02  0.45594000000E+02  0.51100000000E-03 0.  1.
         23    2    1    2    0    0  0.00000000000E+00  0.00000000000E+00  0.00000000000E+00  0.91188000000E+02  0.91188000000E+02 0.  0.
    9900012    2    3    3    0    0  0.20000516041E+02 -0.26081058194E+02  0.28343926371E+02  0.47787304147E+02  0.20000150926E+02 0.  0.
        -12    1    3    3    0    0 -0.20000516041E+02  0.26081058194E+02 -0.28343926371E+02  0.43400695853E+02  0.00000000000E+00 0.  1.
         11    1    4    4    0    0  0.12240231041E+02 -0.17760209603E+02  0.17470233901E+02  0.27757113933E+02  0.51100000000E-03 0. -1.
        -11    1    4    4    0    0  0.76964992954E+01 -0.10222586555E+02  0.12224412003E+02  0.17696712304E+02  0.51100000000E-03 0.  1.
        -12    1    4    4    0    0  0.63785704516E-01  0.19017379636E+01 -0.13507195332E+01  0.23334779098E+01  0.00000000000E+00 0.  1.
</event>
<event>
 8    1  0.6046524E-010  0.9118800E+02  0.7816164E-02  0.1184000E+00
        -11   -1    0    0    0    0  0.00000000000E+00  0.00000000000E+00  0.45593999997E+02  0.45594000000E+02  0.51100000000E-03 0. -1.
         11   -1    0    0    0    0 -0.00000000000E+00 -0.00000000000E+00 -0.45593999997E+02  0.45594000000E+02  0.51100000000E-03 0.  1.
         23    2    1    2    0    0  0.00000000000E+00  0.17763568394E-14  0.00000000000E+00  0.91188000000E+02  0.91188000000E+02 0.  0.
    9900012    2    3    3    0    0 -0.19504540846E+02 -0.15874579357E+02  0.35372225732E+02  0.47787265714E+02  0.19999975696E+02 0.  0.
        -12    1    3    3    0    0  0.19504540846E+02  0.15874579357E+02 -0.35372225732E+02  0.43400734286E+02  0.00000000000E+00 0.  1.
         11    1    4    4    0    0 -0.45748179000E+00 -0.15755292903E+01  0.14648817840E+02  0.14740401843E+02  0.51100000000E-03 0. -1.
        -11    1    4    4    0    0 -0.65552481726E+01 -0.10981758451E+02  0.95440823964E+01  0.15958063991E+02  0.51100000000E-03 0.  1.
        -12    1    4    4    0    0 -0.12491810883E+02 -0.33172916153E+01  0.11179325496E+02  0.17088799880E+02  0.00000000000E+00 0.  1.
</event>
<event>
 8    1  0.6046524E-010  0.9118800E+02  0.7816164E-02  0.1184000E+00
        -11   -1    0    0    0    0  0.00000000000E+00  0.00000000000E+00  0.45593999997E+02  0.45594000000E+02  0.51100000000E-03 0. -1.
         11   -1    0    0    0    0 -0.00000000000E+00 -0.00000000000E+00 -0.45593999997E+02  0.45594000000E+02  0.51100000000E-03 0.  1.
         23    2    1    2    0    0  0.88817841970E-15  0.00000000000E+00  0.71054273576E-14  0.91188000000E+02  0.91188000000E+02 0.  0.
    9900012    2    3    3    0    0 -0.43504404053E+01 -0.27853464816E+02 -0.32998203237E+02  0.47787271310E+02  0.20000001209E+02 0.  0.
         12    1    3    3    0    0  0.43504404053E+01  0.27853464816E+02  0.32998203237E+02  0.43400728690E+02  0.00000000000E+00 0. -1.
         11    1    4    4    0    0  0.39320022868E+00 -0.76018018875E+01 -0.22316919173E+02  0.23579374038E+02  0.51100000000E-03 0. -1.
        -11    1    4    4    0    0  0.61261789756E+00 -0.89948195671E+01 -0.62811408773E+01  0.10987939330E+02  0.51100000000E-03 0.  1.
        -12    1    4    4    0    0 -0.53562585315E+01 -0.11256843362E+02 -0.44001431861E+01  0.13219957942E+02  0.00000000000E+00 0.  1.
</event>
<event>
 8    1  0.6046524E-010  0.9118800E+02  0.7816164E-02  0.1184000E+00
        -11   -1    0    0    0    0  0.00000000000E+00  0.00000000000E+00  0.45593999997E+02  0.45594000000E+02  0.51100000000E-03 0. -1.
         11   -1    0    0    0    0 -0.00000000000E+00 -0.00000000000E+00 -0.45593999997E+02  0.45594000000E+02  0.51100000000E-03 0.  1.
         23    2    1    2    0    0  0.00000000000E+00  0.17763568394E-14 -0.71054273576E-14  0.91188000000E+02  0.91188000000E+02 0.  0.
    9900012    2    3    3    0    0  0.19621735100E+02  0.13446079498E+02 -0.36301707718E+02  0.47787268147E+02  0.19999986788E+02 0.  0.
         12    1    3    3    0    0 -0.19621735100E+02 -0.13446079498E+02  0.36301707718E+02  0.43400731853E+02  0.00000000000E+00 0. -1.
         11    1    4    4    0    0  0.21186100542E+01  0.52653720385E+01 -0.93382364260E+01  0.10927731287E+02  0.51100000000E-03 0. -1.
        -11    1    4    4    0    0  0.71751641262E+01  0.12066950239E+02 -0.16328031594E+02  0.21533668622E+02  0.51100000000E-03 0.  1.
         12    1    4    4    0    0  0.10327960919E+02 -0.38862427797E+01 -0.10635439697E+02  0.15325868238E+02  0.00000000000E+00 0. -1.
</event>
<event>
 8    1  0.6046524E-010  0.9118800E+02  0.7816164E-02  0.1184000E+00
        -11   -1    0    0    0    0  0.00000000000E+00  0.00000000000E+00  0.45593999997E+02  0.45594000000E+02  0.51100000000E-03 0. -1.
         11   -1    0    0    0    0 -0.00000000000E+00 -0.00000000000E+00 -0.45593999997E+02  0.45594000000E+02  0.51100000000E-03 0.  1.
         23    2    1    2    0    0 -0.17763568394E-14 -0.44408920985E-15 -0.71054273576E-14  0.91188000000E+02  0.91188000000E+02 0.  0.
    9900012    2    3    3    0    0  0.96138444136E+01  0.91219667153E+00  0.42312707198E+02  0.47787270772E+02  0.19999998756E+02 0.  0.
        -12    1    3    3    0    0 -0.96138444136E+01 -0.91219667153E+00 -0.42312707198E+02  0.43400729228E+02  0.00000000000E+00 0.  1.
         11    1    4    4    0    0  0.33333705101E+01  0.50366028534E+01  0.16625600427E+02  0.17688677652E+02  0.51100000000E-03 0. -1.
        -11    1    4    4    0    0 -0.53856505559E-01 -0.22995570774E+01 -0.10732737969E+01  0.25382632211E+01  0.51100000000E-03 0.  1.
         12    1    4    4    0    0  0.63343304090E+01 -0.18248491045E+01  0.26760380567E+02  0.27560329898E+02  0.00000000000E+00 0. -1.
</event>
<event>
 8    1  0.6046524E-010  0.9118800E+02  0.7816164E-02  0.1184000E+00
        -11   -1    0    0    0    0  0.00000000000E+00  0.00000000000E+00  0.45593999997E+02  0.45594000000E+02  0.51100000000E-03 0. -1.
         11   -1    0    0    0    0 -0.00000000000E+00 -0.00000000000E+00 -0.45593999997E+02  0.45594000000E+02  0.51100000000E-03 0.  1.
         23    2    1    2    0    0  0.00000000000E+00 -0.44408920985E-15  0.00000000000E+00  0.91188000000E+02  0.91188000000E+02 0.  0.
    9900012    2    3    3    0    0 -0.28163783078E+02  0.68870364305E+00 -0.33014393413E+02  0.47787272329E+02  0.20000005855E+02 0.  0.
         12    1    3    3    0    0  0.28163783078E+02 -0.68870364305E+00  0.33014393413E+02  0.43400727671E+02  0.00000000000E+00 0. -1.
         11    1    4    4    0    0 -0.57630014337E+01 -0.40847042536E+01 -0.14677480175E+02  0.16288812692E+02  0.51100000000E-03 0.  1.
        -11    1    4    4    0    0 -0.94393017886E+00  0.34060932591E+01 -0.51456045304E+00  0.35717290201E+01  0.51100000000E-03 0. -1.
        -12    1    4    4    0    0 -0.21456851466E+02  0.13673146376E+01 -0.17822352785E+02  0.27926730617E+02  0.00000000000E+00 0.  1.
</event>
<event>
 8    1  0.6046524E-010  0.9118800E+02  0.7816164E-02  0.1184000E+00
        -11   -1    0    0    0    0  0.00000000000E+00  0.00000000000E+00  0.45593999997E+02  0.45594000000E+02  0.51100000000E-03 0.  1.
         11   -1    0    0    0    0 -0.00000000000E+00 -0.00000000000E+00 -0.45593999997E+02  0.45594000000E+02  0.51100000000E-03 0. -1.
         23    2    1    2    0    0 -0.17763568394E-14  0.00000000000E+00 -0.35527136788E-14  0.91188000000E+02  0.91188000000E+02 0.  0.
    9900012    2    3    3    0    0 -0.10096218727E+02 -0.36065835998E+02 -0.21930464820E+02  0.47787269061E+02  0.19999990959E+02 0.  0.
         12    1    3    3    0    0  0.10096218727E+02  0.36065835998E+02  0.21930464820E+02  0.43400730939E+02  0.00000000000E+00 0. -1.
         11    1    4    4    0    0  0.29624649879E+01 -0.44141940196E+01 -0.48490678925E+01  0.71954685278E+01  0.51100000000E-03 0. -1.
        -11    1    4    4    0    0 -0.78736511031E+01 -0.27158659691E+02 -0.18217868287E+02  0.33637447927E+02  0.51100000000E-03 0.  1.
        -12    1    4    4    0    0 -0.51850326118E+01 -0.44929822874E+01  0.11364713598E+01  0.69543526062E+01  0.00000000000E+00 0.  1.
</event>
<event>
 8    1  0.6046524E-010  0.9118800E+02  0.7816164E-02  0.1184000E+00
        -11   -1    0    0    0    0  0.00000000000E+00  0.00000000000E+00  0.45593999997E+02  0.45594000000E+02  0.51100000000E-03 0. -1.
         11   -1    0    0    0    0 -0.00000000000E+00 -0.00000000000E+00 -0.45593999997E+02  0.45594000000E+02  0.51100000000E-03 0.  1.
         23    2    1    2    0    0  0.00000000000E+00  0.00000000000E+00  0.35527136788E-14  0.91188000000E+02  0.91188000000E+02 0.  0.
    9900012    2    3    3    0    0 -0.35714803649E+02  0.18464497903E+02  0.16344369442E+02  0.47787270801E+02  0.19999998891E+02 0.  0.
        -12    1    3    3    0    0  0.35714803649E+02 -0.18464497903E+02 -0.16344369442E+02  0.43400729199E+02  0.00000000000E+00 0.  1.
         11    1    4    4    0    0 -0.11057442593E+01  0.24302982733E+01  0.25871013128E+01  0.37178103136E+01  0.51100000000E-03 0. -1.
        -11    1    4    4    0    0 -0.47963307470E+01 -0.97243923265E+00  0.78380502751E+01  0.92404252647E+01  0.51100000000E-03 0.  1.
         12    1    4    4    0    0 -0.29812728643E+02  0.17006638863E+02  0.59192178540E+01  0.34829035223E+02  0.00000000000E+00 0. -1.
</event>
<event>
 8    1  0.6046524E-010  0.9118800E+02  0.7816164E-02  0.1184000E+00
        -11   -1    0    0    0    0  0.00000000000E+00  0.00000000000E+00  0.45593999997E+02  0.45594000000E+02  0.51100000000E-03 0. -1.
         11   -1    0    0    0    0 -0.00000000000E+00 -0.00000000000E+00 -0.45593999997E+02  0.45594000000E+02  0.51100000000E-03 0.  1.
         23    2    1    2    0    0  0.00000000000E+00 -0.17763568394E-14  0.00000000000E+00  0.91188000000E+02  0.91188000000E+02 0.  0.
    9900012    2    3    3    0    0  0.75863414502E+01  0.10149233481E+02 -0.41509804414E+02  0.47787269830E+02  0.19999994461E+02 0.  0.
         12    1    3    3    0    0 -0.75863414502E+01 -0.10149233481E+02  0.41509804414E+02  0.43400730170E+02  0.00000000000E+00 0. -1.
         11    1    4    4    0    0 -0.34704601471E+01  0.63702249696E+01 -0.73214076111E+01  0.10306642007E+02  0.51100000000E-03 0. -1.
        -11    1    4    4    0    0  0.45553145070E+01  0.40565180591E+01 -0.27424481256E+02  0.28094632965E+02  0.51100000000E-03 0.  1.
        -12    1    4    4    0    0  0.65014870903E+01 -0.27750954806E+00 -0.67639155472E+01  0.93859948574E+01  0.00000000000E+00 0.  1.
</event>
<event>
 8    1  0.6046524E-010  0.9118800E+02  0.7816164E-02  0.1184000E+00
        -11   -1    0    0    0    0  0.00000000000E+00  0.00000000000E+00  0.45593999997E+02  0.45594000000E+02  0.51100000000E-03 0. -1.
         11   -1    0    0    0    0 -0.00000000000E+00 -0.00000000000E+00 -0.45593999997E+02  0.45594000000E+02  0.51100000000E-03 0.  1.
         23    2    1    2    0    0 -0.71054273576E-14  0.00000000000E+00  0.17763568394E-14  0.91188000000E+02  0.91188000000E+02 0.  0.
    9900012    2    3    3    0    0  0.32918978082E+02  0.26026603999E+02 -0.11071582489E+02  0.47787272212E+02  0.20000005324E+02 0.  0.
        -12    1    3    3    0    0 -0.32918978082E+02 -0.26026603999E+02  0.11071582489E+02  0.43400727788E+02  0.00000000000E+00 0.  1.
         11    1    4    4    0    0  0.21184266967E+01  0.64530149885E+00  0.33226029458E+01  0.39929733646E+01  0.51100000000E-03 0. -1.
        -11    1    4    4    0    0  0.13315933292E+02  0.11312949120E+02 -0.12061878661E+02  0.21231717178E+02  0.51100000000E-03 0.  1.
        -12    1    4    4    0    0  0.17484618094E+02  0.14068353380E+02 -0.23323067742E+01  0.22562581670E+02  0.00000000000E+00 0.  1.
</event>
<event>
 8    1  0.6046524E-010  0.9118800E+02  0.7816164E-02  0.1184000E+00
        -11   -1    0    0    0    0  0.00000000000E+00  0.00000000000E+00  0.45593999997E+02  0.45594000000E+02  0.51100000000E-03 0. -1.
         11   -1    0    0    0    0 -0.00000000000E+00 -0.00000000000E+00 -0.45593999997E+02  0.45594000000E+02  0.51100000000E-03 0.  1.
         23    2    1    2    0    0  0.88817841970E-15  0.00000000000E+00  0.00000000000E+00  0.91188000000E+02  0.91188000000E+02 0.  0.
    9900012    2    3    3    0    0  0.56568763510E+01 -0.22142286407E+01 -0.42973491960E+02  0.47787261875E+02  0.19999958194E+02 0.  0.
         12    1    3    3    0    0 -0.56568763510E+01  0.22142286407E+01  0.42973491960E+02  0.43400738125E+02  0.00000000000E+00 0. -1.
         11    1    4    4    0    0  0.67004009572E+01  0.22776177039E+00 -0.65707163604E+01  0.93873085685E+01  0.51100000000E-03 0. -1.
        -11    1    4    4    0    0  0.28116364512E+01 -0.93652585821E+00 -0.16308831619E+01  0.33826262527E+01  0.51100000000E-03 0.  1.
        -12    1    4    4    0    0 -0.38551610574E+01 -0.15054645529E+01 -0.34771892438E+02  0.35017327054E+02  0.00000000000E+00 0.  1.
</event>
<event>
 8    1  0.6046524E-010  0.9118800E+02  0.7816164E-02  0.1184000E+00
        -11   -1    0    0    0    0  0.00000000000E+00  0.00000000000E+00  0.45593999997E+02  0.45594000000E+02  0.51100000000E-03 0. -1.
         11   -1    0    0    0    0 -0.00000000000E+00 -0.00000000000E+00 -0.45593999997E+02  0.45594000000E+02  0.51100000000E-03 0.  1.
         23    2    1    2    0    0 -0.35527136788E-14  0.00000000000E+00  0.00000000000E+00  0.91188000000E+02  0.91188000000E+02 0.  0.
    9900012    2    3    3    0    0 -0.16476284209E+02  0.22812566567E+02 -0.33041553175E+02  0.47787246885E+02  0.19999889849E+02 0.  0.
         12    1    3    3    0    0  0.16476284209E+02 -0.22812566567E+02  0.33041553175E+02  0.43400753115E+02  0.00000000000E+00 0. -1.
         11    1    4    4    0    0 -0.57633177763E+01  0.11796101083E+02 -0.56693635528E+01  0.14300542504E+02  0.51100000000E-03 0. -1.
        -11    1    4    4    0    0 -0.10569675186E+02  0.33067663932E+01 -0.12264064403E+02  0.16524527631E+02  0.51100000000E-03 0.  1.
        -12    1    4    4    0    0 -0.14329124758E+00  0.77096990901E+01 -0.15108125220E+02  0.16962176750E+02  0.00000000000E+00 0.  1.
</event>
<event>
 8    1  0.9617198E-010  0.9118800E+02  0.7816164E-02  0.1184000E+00
        -11   -1    0    0    0    0  0.00000000000E+00  0.00000000000E+00  0.45593999997E+02  0.45594000000E+02  0.51100000000E-03 0. -1.
         11   -1    0    0    0    0 -0.00000000000E+00 -0.00000000000E+00 -0.45593999997E+02  0.45594000000E+02  0.51100000000E-03 0.  1.
         23    2    1    2    0    0  0.88817841970E-15  0.71054273576E-14  0.00000000000E+00  0.91188000000E+02  0.91188000000E+02 0.  0.
    9900012    2    3    3    0    0 -0.44998075251E+01  0.32974537203E+02 -0.27857743781E+02  0.47787282723E+02  0.20000053249E+02 0.  0.
         12    1    3    3    0    0  0.44998075251E+01 -0.32974537203E+02  0.27857743781E+02  0.43400717277E+02  0.00000000000E+00 0. -1.
         11    1    4    4    0    0  0.93948187344E+00  0.10738379195E+02 -0.11029970045E+02  0.15422569610E+02  0.51100000000E-03 0. -1.
        -11    1    4    4    0    0  0.42526408860E+01  0.14716401181E+02 -0.82778317338E+01  0.17412062391E+02  0.51100000000E-03 0.  1.
         12    1    4    4    0    0 -0.96919302845E+01  0.75197568274E+01 -0.85499420026E+01  0.14952650723E+02  0.00000000000E+00 0. -1.
</event>
<event>
 8    1  0.6046524E-010  0.9118800E+02  0.7816164E-02  0.1184000E+00
        -11   -1    0    0    0    0  0.00000000000E+00  0.00000000000E+00  0.45593999997E+02  0.45594000000E+02  0.51100000000E-03 0. -1.
         11   -1    0    0    0    0 -0.00000000000E+00 -0.00000000000E+00 -0.45593999997E+02  0.45594000000E+02  0.51100000000E-03 0.  1.
         23    2    1    2    0    0 -0.22204460493E-15  0.00000000000E+00 -0.14210854715E-13  0.91188000000E+02  0.91188000000E+02 0.  0.
    9900012    2    3    3    0    0 -0.99924162521E+00  0.38637966636E+00 -0.43387505822E+02  0.47787269194E+02  0.19999991561E+02 0.  0.
         12    1    3    3    0    0  0.99924162521E+00 -0.38637966636E+00  0.43387505822E+02  0.43400730806E+02  0.00000000000E+00 0. -1.
         11    1    4    4    0    0 -0.27787472737E+01 -0.26912574447E+01 -0.42915037908E+02  0.43089033198E+02  0.51100000000E-03 0.  1.
        -11    1    4    4    0    0 -0.28667663446E+00  0.24616892143E+01 -0.55852175145E+00  0.25404810742E+01  0.51100000000E-03 0. -1.
        -12    1    4    4    0    0  0.20661822830E+01  0.61594789674E+00  0.86053837208E-01  0.21577549214E+01  0.00000000000E+00 0.  1.
</event>
<event>
 8    1  0.6046524E-010  0.9118800E+02  0.7816164E-02  0.1184000E+00
        -11   -1    0    0    0    0  0.00000000000E+00  0.00000000000E+00  0.45593999997E+02  0.45594000000E+02  0.51100000000E-03 0. -1.
         11   -1    0    0    0    0 -0.00000000000E+00 -0.00000000000E+00 -0.45593999997E+02  0.45594000000E+02  0.51100000000E-03 0.  1.
         23    2    1    2    0    0 -0.35527136788E-14  0.00000000000E+00 -0.35527136788E-14  0.91188000000E+02  0.91188000000E+02 0.  0.
    9900012    2    3    3    0    0 -0.26934956099E+02 -0.24062731429E+02 -0.24064827667E+02  0.47787276106E+02  0.20000023076E+02 0.  0.
         12    1    3    3    0    0  0.26934956099E+02  0.24062731429E+02  0.24064827667E+02  0.43400723894E+02  0.00000000000E+00 0. -1.
         11    1    4    4    0    0 -0.56564605507E+01 -0.54296889277E+01  0.25650200766E+01  0.82496300564E+01  0.51100000000E-03 0. -1.
        -11    1    4    4    0    0 -0.21315694236E+01 -0.25212491135E+01 -0.69777815649E+01  0.77194378764E+01  0.51100000000E-03 0.  1.
         12    1    4    4    0    0 -0.19146926125E+02 -0.16111793388E+02 -0.19652066179E+02  0.31818208173E+02  0.00000000000E+00 0. -1.
</event>
<event>
 8    1  0.8128221E-010  0.9118800E+02  0.7816164E-02  0.1184000E+00
        -11   -1    0    0    0    0  0.00000000000E+00  0.00000000000E+00  0.45593999997E+02  0.45594000000E+02  0.51100000000E-03 0.  1.
         11   -1    0    0    0    0 -0.00000000000E+00 -0.00000000000E+00 -0.45593999997E+02  0.45594000000E+02  0.51100000000E-03 0. -1.
         23    2    1    2    0    0 -0.35527136788E-14  0.00000000000E+00  0.17763568394E-14  0.91188000000E+02  0.91188000000E+02 0.  0.
    9900012    2    3    3    0    0  0.22331464546E+02 -0.35807531206E+02 -0.10136627585E+02  0.47787253248E+02  0.19999918858E+02 0.  0.
         12    1    3    3    0    0 -0.22331464546E+02  0.35807531206E+02  0.10136627585E+02  0.43400746752E+02  0.00000000000E+00 0. -1.
         11    1    4    4    0    0  0.24746189617E+01 -0.10834289829E+01 -0.55576557099E+01  0.61794089214E+01  0.51100000000E-03 0. -1.
        -11    1    4    4    0    0  0.15103284032E+02 -0.17030795133E+02 -0.48991655087E+01  0.23284307900E+02  0.51100000000E-03 0.  1.
         12    1    4    4    0    0  0.47535615522E+01 -0.17693307090E+02  0.32019363390E+00  0.18323536427E+02  0.00000000000E+00 0. -1.
</event>
<event>
 8    1  0.6046524E-010  0.9118800E+02  0.7816164E-02  0.1184000E+00
        -11   -1    0    0    0    0  0.00000000000E+00  0.00000000000E+00  0.45593999997E+02  0.45594000000E+02  0.51100000000E-03 0. -1.
         11   -1    0    0    0    0 -0.00000000000E+00 -0.00000000000E+00 -0.45593999997E+02  0.45594000000E+02  0.51100000000E-03 0.  1.
         23    2    1    2    0    0 -0.17763568394E-14  0.00000000000E+00  0.71054273576E-14  0.91188000000E+02  0.91188000000E+02 0.  0.
    9900012    2    3    3    0    0 -0.10202926943E+02  0.79545585393E+01  0.41427630995E+02  0.47787270403E+02  0.19999997073E+02 0.  0.
        -12    1    3    3    0    0  0.10202926943E+02 -0.79545585393E+01 -0.41427630995E+02  0.43400729597E+02  0.00000000000E+00 0.  1.
         11    1    4    4    0    0 -0.66048305567E+01 -0.48511914087E+01  0.88194883880E+01  0.12039153644E+02  0.51100000000E-03 0. -1.
        -11    1    4    4    0    0 -0.28276684368E+00  0.61783363390E+01  0.84008426273E+01  0.10431967893E+02  0.51100000000E-03 0.  1.
        -12    1    4    4    0    0 -0.33153295428E+01  0.66274136089E+01  0.24207299979E+02  0.25316148866E+02  0.00000000000E+00 0.  1.
</event>
<event>
 8    1  0.6046524E-010  0.9118800E+02  0.7816164E-02  0.1184000E+00
        -11   -1    0    0    0    0  0.00000000000E+00  0.00000000000E+00  0.45593999997E+02  0.45594000000E+02  0.51100000000E-03 0. -1.
         11   -1    0    0    0    0 -0.00000000000E+00 -0.00000000000E+00 -0.45593999997E+02  0.45594000000E+02  0.51100000000E-03 0.  1.
         23    2    1    2    0    0  0.00000000000E+00  0.00000000000E+00  0.00000000000E+00  0.91188000000E+02  0.91188000000E+02 0.  0.
    9900012    2    3    3    0    0 -0.84810550625E+01  0.12359800250E+02 -0.40729971287E+02  0.47787268229E+02  0.19999987164E+02 0.  0.
         12    1    3    3    0    0  0.84810550625E+01 -0.12359800250E+02  0.40729971287E+02  0.43400731771E+02  0.00000000000E+00 0. -1.
         11    1    4    4    0    0 -0.17203366632E+01  0.56961948329E+01 -0.63398780108E+01  0.86948402666E+01  0.51100000000E-03 0. -1.
        -11    1    4    4    0    0  0.61202996816E+00 -0.47574524759E+01 -0.11650307711E+02  0.12599111269E+02  0.51100000000E-03 0.  1.
        -12    1    4    4    0    0 -0.73727483674E+01  0.11421057893E+02 -0.22739785566E+02  0.26493316694E+02  0.00000000000E+00 0.  1.
</event>
<event>
 8    1  0.6046524E-010  0.9118800E+02  0.7816164E-02  0.1184000E+00
        -11   -1    0    0    0    0  0.00000000000E+00  0.00000000000E+00  0.45593999997E+02  0.45594000000E+02  0.51100000000E-03 0. -1.
         11   -1    0    0    0    0 -0.00000000000E+00 -0.00000000000E+00 -0.45593999997E+02  0.45594000000E+02  0.51100000000E-03 0.  1.
         23    2    1    2    0    0  0.00000000000E+00  0.31086244690E-14 -0.71054273576E-14  0.91188000000E+02  0.91188000000E+02 0.  0.
    9900012    2    3    3    0    0 -0.20135124321E+02 -0.37008660142E+01  0.38268833768E+02  0.47787270989E+02  0.19999999748E+02 0.  0.
        -12    1    3    3    0    0  0.20135124321E+02  0.37008660142E+01 -0.38268833768E+02  0.43400729011E+02  0.00000000000E+00 0.  1.
         11    1    4    4    0    0 -0.16105139837E+02 -0.10079236059E+02  0.29716061668E+02  0.35270537989E+02  0.51100000000E-03 0. -1.
        -11    1    4    4    0    0  0.51014321708E+00  0.15332035361E+01 -0.89395776116E-01  0.16183173518E+01  0.51100000000E-03 0.  1.
         12    1    4    4    0    0 -0.45401277012E+01  0.48451665091E+01  0.86421678764E+01  0.10898415649E+02  0.00000000000E+00 0. -1.
</event>
<event>
 8    1  0.6046524E-010  0.9118800E+02  0.7816164E-02  0.1184000E+00
        -11   -1    0    0    0    0  0.00000000000E+00  0.00000000000E+00  0.45593999997E+02  0.45594000000E+02  0.51100000000E-03 0. -1.
         11   -1    0    0    0    0 -0.00000000000E+00 -0.00000000000E+00 -0.45593999997E+02  0.45594000000E+02  0.51100000000E-03 0.  1.
         23    2    1    2    0    0  0.00000000000E+00  0.35527136788E-14  0.00000000000E+00  0.91188000000E+02  0.91188000000E+02 0.  0.
    9900012    2    3    3    0    0  0.30135245308E+02  0.18940151590E+02 -0.24834672188E+02  0.47787270805E+02  0.19999998906E+02 0.  0.
         12    1    3    3    0    0 -0.30135245308E+02 -0.18940151590E+02  0.24834672188E+02  0.43400729195E+02  0.00000000000E+00 0. -1.
         11    1    4    4    0    0  0.67511729963E-01  0.86052354679E+01 -0.71896596656E+01  0.11213645333E+02  0.51100000000E-03 0. -1.
        -11    1    4    4    0    0  0.86386530722E+01  0.32962389288E+01 -0.31769425008E+01  0.97767316570E+01  0.51100000000E-03 0.  1.
        -12    1    4    4    0    0  0.21429080506E+02  0.70386771930E+01 -0.14468070021E+02  0.26796893814E+02  0.00000000000E+00 0.  1.
</event>
<event>
 8    1  0.6046524E-010  0.9118800E+02  0.7816164E-02  0.1184000E+00
        -11   -1    0    0    0    0  0.00000000000E+00  0.00000000000E+00  0.45593999997E+02  0.45594000000E+02  0.51100000000E-03 0. -1.
         11   -1    0    0    0    0 -0.00000000000E+00 -0.00000000000E+00 -0.45593999997E+02  0.45594000000E+02  0.51100000000E-03 0.  1.
         23    2    1    2    0    0  0.27755575616E-15  0.35527136788E-14  0.00000000000E+00  0.91188000000E+02  0.91188000000E+02 0.  0.
    9900012    2    3    3    0    0  0.18976050642E+00 -0.27050729143E+02  0.33938847057E+02  0.47787270793E+02  0.19999998851E+02 0.  0.
        -12    1    3    3    0    0 -0.18976050642E+00  0.27050729143E+02 -0.33938847057E+02  0.43400729207E+02  0.00000000000E+00 0.  1.
         11    1    4    4    0    0  0.41246712312E-02 -0.11455891870E+02  0.10136606750E+02  0.15296675202E+02  0.51100000000E-03 0. -1.
        -11    1    4    4    0    0  0.41275415714E+01 -0.59333419991E+00  0.10848074874E+00  0.41713802548E+01  0.51100000000E-03 0.  1.
        -12    1    4    4    0    0 -0.39419057362E+01 -0.15001503072E+02  0.23693759558E+02  0.28319215336E+02  0.00000000000E+00 0.  1.
</event>
<event>
 8    1  0.6046524E-010  0.9118800E+02  0.7816164E-02  0.1184000E+00
        -11   -1    0    0    0    0  0.00000000000E+00  0.00000000000E+00  0.45593999997E+02  0.45594000000E+02  0.51100000000E-03 0. -1.
         11   -1    0    0    0    0 -0.00000000000E+00 -0.00000000000E+00 -0.45593999997E+02  0.45594000000E+02  0.51100000000E-03 0.  1.
         23    2    1    2    0    0  0.00000000000E+00  0.00000000000E+00  0.71054273576E-14  0.91188000000E+02  0.91188000000E+02 0.  0.
    9900012    2    3    3    0    0  0.10443447838E+02 -0.10845401875E+02  0.40705460437E+02  0.47787275882E+02  0.20000022058E+02 0.  0.
        -12    1    3    3    0    0 -0.10443447838E+02  0.10845401875E+02 -0.40705460437E+02  0.43400724118E+02  0.00000000000E+00 0.  1.
         11    1    4    4    0    0  0.71652866284E+01 -0.16109402722E+02  0.29093695672E+02  0.34019072836E+02  0.51100000000E-03 0. -1.
        -11    1    4    4    0    0  0.15492522204E+01  0.15256207983E+01  0.10158790459E+01  0.23999399493E+01  0.51100000000E-03 0.  1.
         12    1    4    4    0    0  0.17289089895E+01  0.37383800480E+01  0.10595885719E+02  0.11368263097E+02  0.00000000000E+00 0. -1.
</event>
<event>
 8    1  0.6046524E-010  0.9118800E+02  0.7816164E-02  0.1184000E+00
        -11   -1    0    0    0    0  0.00000000000E+00  0.00000000000E+00  0.45593999997E+02  0.45594000000E+02  0.51100000000E-03 0. -1.
         11   -1    0    0    0    0 -0.00000000000E+00 -0.00000000000E+00 -0.45593999997E+02  0.45594000000E+02  0.51100000000E-03 0.  1.
         23    2    1    2    0    0  0.00000000000E+00  0.00000000000E+00  0.00000000000E+00  0.91188000000E+02  0.91188000000E+02 0.  0.
    9900012    2    3    3    0    0  0.11878958085E+02 -0.61618520185E+01 -0.41286134797E+02  0.47787274293E+02  0.20000014810E+02 0.  0.
         12    1    3    3    0    0 -0.11878958085E+02  0.61618520185E+01  0.41286134797E+02  0.43400725707E+02  0.00000000000E+00 0. -1.
         11    1    4    4    0    0  0.16276789115E+02 -0.12311035224E+01 -0.30238052024E+02  0.34362614426E+02  0.51100000000E-03 0. -1.
        -11    1    4    4    0    0 -0.11797656630E+01 -0.33056113524E+01 -0.78760266335E+01  0.86226857316E+01  0.51100000000E-03 0.  1.
         12    1    4    4    0    0 -0.32180653664E+01 -0.16251371437E+01 -0.31720561392E+01  0.48019741346E+01  0.00000000000E+00 0. -1.
</event>
<event>
 8    1  0.6046524E-010  0.9118800E+02  0.7816164E-02  0.1184000E+00
        -11   -1    0    0    0    0  0.00000000000E+00  0.00000000000E+00  0.45593999997E+02  0.45594000000E+02  0.51100000000E-03 0. -1.
         11   -1    0    0    0    0 -0.00000000000E+00 -0.00000000000E+00 -0.45593999997E+02  0.45594000000E+02  0.51100000000E-03 0.  1.
         23    2    1    2    0    0  0.44408920985E-15  0.35527136788E-14  0.00000000000E+00  0.91188000000E+02  0.91188000000E+02 0.  0.
    9900012    2    3    3    0    0  0.38836102250E+01  0.18127545064E+02 -0.39241981758E+02  0.47787269007E+02  0.19999990711E+02 0.  0.
         12    1    3    3    0    0 -0.38836102250E+01 -0.18127545064E+02  0.39241981758E+02  0.43400730993E+02  0.00000000000E+00 0. -1.
         11    1    4    4    0    0  0.51674066274E+01  0.81291480273E+00 -0.94706609006E+01  0.10819257825E+02  0.51100000000E-03 0. -1.
        -11    1    4    4    0    0 -0.42175231409E+01  0.17184077030E+02 -0.19710782678E+02  0.26487637850E+02  0.51100000000E-03 0.  1.
        -12    1    4    4    0    0  0.29337267386E+01  0.13055323110E+00 -0.10060538179E+02  0.10480373332E+02  0.00000000000E+00 0.  1.
</event>
<event>
 8    1  0.6046524E-010  0.9118800E+02  0.7816164E-02  0.1184000E+00
        -11   -1    0    0    0    0  0.00000000000E+00  0.00000000000E+00  0.45593999997E+02  0.45594000000E+02  0.51100000000E-03 0. -1.
         11   -1    0    0    0    0 -0.00000000000E+00 -0.00000000000E+00 -0.45593999997E+02  0.45594000000E+02  0.51100000000E-03 0.  1.
         23    2    1    2    0    0  0.00000000000E+00  0.35527136788E-14  0.00000000000E+00  0.91188000000E+02  0.91188000000E+02 0.  0.
    9900012    2    3    3    0    0 -0.22585858304E+02 -0.17518806850E+02 -0.32658732662E+02  0.47787281022E+02  0.20000045491E+02 0.  0.
         12    1    3    3    0    0  0.22585858304E+02  0.17518806850E+02  0.32658732662E+02  0.43400718978E+02  0.00000000000E+00 0. -1.
         11    1    4    4    0    0 -0.11046286567E+01  0.37665144264E+01 -0.55504000873E+01  0.67980715489E+01  0.51100000000E-03 0. -1.
        -11    1    4    4    0    0 -0.93213927781E+01 -0.82561910459E+01 -0.14741978920E+02  0.19297124051E+02  0.51100000000E-03 0.  1.
         12    1    4    4    0    0 -0.12159836869E+02 -0.13029130230E+02 -0.12366353654E+02  0.21692085422E+02  0.00000000000E+00 0. -1.
</event>
<event>
 8    1  0.6046524E-010  0.9118800E+02  0.7816164E-02  0.1184000E+00
        -11   -1    0    0    0    0  0.00000000000E+00  0.00000000000E+00  0.45593999997E+02  0.45594000000E+02  0.51100000000E-03 0. -1.
         11   -1    0    0    0    0 -0.00000000000E+00 -0.00000000000E+00 -0.45593999997E+02  0.45594000000E+02  0.51100000000E-03 0.  1.
         23    2    1    2    0    0  0.88817841970E-15 -0.35527136788E-14  0.00000000000E+00  0.91188000000E+02  0.91188000000E+02 0.  0.
    9900012    2    3    3    0    0  0.75317544392E+01  0.22568747352E+02 -0.36298040249E+02  0.47787269500E+02  0.19999992960E+02 0.  0.
         12    1    3    3    0    0 -0.75317544392E+01 -0.22568747352E+02  0.36298040249E+02  0.43400730500E+02  0.00000000000E+00 0. -1.
         11    1    4    4    0    0  0.37839307889E+00  0.61124896445E+00  0.87023911001E+00  0.11287705650E+01  0.51100000000E-03 0. -1.
        -11    1    4    4    0    0  0.54845152900E+01  0.24435975168E+02 -0.31417483154E+02  0.40177792851E+02  0.51100000000E-03 0.  1.
        -12    1    4    4    0    0  0.16688460703E+01 -0.24784767805E+01 -0.57507962049E+01  0.64807060841E+01  0.00000000000E+00 0.  1.
</event>
<event>
 8    1  0.6046524E-010  0.9118800E+02  0.7816164E-02  0.1184000E+00
        -11   -1    0    0    0    0  0.00000000000E+00  0.00000000000E+00  0.45593999997E+02  0.45594000000E+02  0.51100000000E-03 0. -1.
         11   -1    0    0    0    0 -0.00000000000E+00 -0.00000000000E+00 -0.45593999997E+02  0.45594000000E+02  0.51100000000E-03 0.  1.
         23    2    1    2    0    0 -0.35527136788E-14  0.00000000000E+00  0.00000000000E+00  0.91188000000E+02  0.91188000000E+02 0.  0.
    9900012    2    3    3    0    0 -0.23923812811E+02  0.27745424675E+02 -0.23269422191E+02  0.47787269373E+02  0.19999992382E+02 0.  0.
         12    1    3    3    0    0  0.23923812811E+02 -0.27745424675E+02  0.23269422191E+02  0.43400730627E+02  0.00000000000E+00 0. -1.
         11    1    4    4    0    0  0.12676987709E+01  0.23018980242E+00 -0.61412680268E+00  0.14273049814E+01  0.51100000000E-03 0. -1.
        -11    1    4    4    0    0 -0.32008843504E+01  0.50347403727E+00 -0.78878288026E+01  0.85274257669E+01  0.51100000000E-03 0.  1.
        -12    1    4    4    0    0 -0.21990627231E+02  0.27011760836E+02 -0.14767466585E+02  0.37832538625E+02  0.00000000000E+00 0.  1.
</event>
<event>
 8    1  0.6046524E-010  0.9118800E+02  0.7816164E-02  0.1184000E+00
        -11   -1    0    0    0    0  0.00000000000E+00  0.00000000000E+00  0.45593999997E+02  0.45594000000E+02  0.51100000000E-03 0. -1.
         11   -1    0    0    0    0 -0.00000000000E+00 -0.00000000000E+00 -0.45593999997E+02  0.45594000000E+02  0.51100000000E-03 0.  1.
         23    2    1    2    0    0 -0.35527136788E-14  0.35527136788E-14  0.35527136788E-14  0.91188000000E+02  0.91188000000E+02 0.  0.
    9900012    2    3    3    0    0  0.30798802488E+02 -0.23105800452E+02 -0.20029464575E+02  0.47787266130E+02  0.19999977595E+02 0.  0.
         12    1    3    3    0    0 -0.30798802488E+02  0.23105800452E+02  0.20029464575E+02  0.43400733870E+02  0.00000000000E+00 0. -1.
         11    1    4    4    0    0  0.70926527754E+01  0.96175060978E+00 -0.13826853365E+01  0.72898907145E+01  0.51100000000E-03 0. -1.
        -11    1    4    4    0    0  0.57241199500E+01 -0.77750525375E+01 -0.11875665929E+02  0.15305176663E+02  0.51100000000E-03 0.  1.
         12    1    4    4    0    0  0.17982029763E+02 -0.16292498525E+02 -0.67711133096E+01  0.25192198753E+02  0.00000000000E+00 0. -1.
</event>
<event>
 8    1  0.6046524E-010  0.9118800E+02  0.7816164E-02  0.1184000E+00
        -11   -1    0    0    0    0  0.00000000000E+00  0.00000000000E+00  0.45593999997E+02  0.45594000000E+02  0.51100000000E-03 0. -1.
         11   -1    0    0    0    0 -0.00000000000E+00 -0.00000000000E+00 -0.45593999997E+02  0.45594000000E+02  0.51100000000E-03 0.  1.
         23    2    1    2    0    0  0.00000000000E+00  0.00000000000E+00  0.00000000000E+00  0.91188000000E+02  0.91188000000E+02 0.  0.
    9900012    2    3    3    0    0  0.23697826599E+02  0.18742878516E+02 -0.31156719269E+02  0.47787266870E+02  0.19999980968E+02 0.  0.
         12    1    3    3    0    0 -0.23697826599E+02 -0.18742878516E+02  0.31156719269E+02  0.43400733130E+02  0.00000000000E+00 0. -1.
         11    1    4    4    0    0 -0.15332938302E+01  0.87238160981E-01 -0.15767836776E+01  0.22011014273E+01  0.51100000000E-03 0. -1.
        -11    1    4    4    0    0  0.54811986306E+01  0.12001067241E+02 -0.15879770926E+02  0.20645490507E+02  0.51100000000E-03 0.  1.
        -12    1    4    4    0    0  0.19749921799E+02  0.66545731141E+01 -0.13700164665E+02  0.24940674936E+02  0.00000000000E+00 0.  1.
</event>
<event>
 8    1  0.6046524E-010  0.9118800E+02  0.7816164E-02  0.1184000E+00
        -11   -1    0    0    0    0  0.00000000000E+00  0.00000000000E+00  0.45593999997E+02  0.45594000000E+02  0.51100000000E-03 0. -1.
         11   -1    0    0    0    0 -0.00000000000E+00 -0.00000000000E+00 -0.45593999997E+02  0.45594000000E+02  0.51100000000E-03 0.  1.
         23    2    1    2    0    0  0.00000000000E+00  0.00000000000E+00  0.00000000000E+00  0.91188000000E+02  0.91188000000E+02 0.  0.
    9900012    2    3    3    0    0 -0.29706691713E+02  0.18584510815E+02 -0.25607648089E+02  0.47787271718E+02  0.20000003071E+02 0.  0.
         12    1    3    3    0    0  0.29706691713E+02 -0.18584510815E+02  0.25607648089E+02  0.43400728282E+02  0.00000000000E+00 0. -1.
         11    1    4    4    0    0 -0.28826117734E+02  0.15957251708E+02 -0.14352733719E+02  0.35938557444E+02  0.51100000000E-03 0. -1.
        -11    1    4    4    0    0 -0.14958142478E+01  0.66642511332E+00 -0.45362579574E+01  0.48227812736E+01  0.51100000000E-03 0.  1.
         12    1    4    4    0    0  0.61524026873E+00  0.19608339928E+01 -0.67186564123E+01  0.70259330002E+01  0.00000000000E+00 0. -1.
</event>
<event>
 8    1  0.6046524E-010  0.9118800E+02  0.7816164E-02  0.1184000E+00
        -11   -1    0    0    0    0  0.00000000000E+00  0.00000000000E+00  0.45593999997E+02  0.45594000000E+02  0.51100000000E-03 0.  1.
         11   -1    0    0    0    0 -0.00000000000E+00 -0.00000000000E+00 -0.45593999997E+02  0.45594000000E+02  0.51100000000E-03 0. -1.
         23    2    1    2    0    0  0.00000000000E+00 -0.35527136788E-14 -0.35527136788E-14  0.91188000000E+02  0.91188000000E+02 0.  0.
    9900012    2    3    3    0    0  0.17035972662E+02 -0.30804055288E+02 -0.25387164045E+02  0.47787282437E+02  0.20000051945E+02 0.  0.
         12    1    3    3    0    0 -0.17035972662E+02  0.30804055288E+02  0.25387164045E+02  0.43400717563E+02  0.00000000000E+00 0. -1.
         11    1    4    4    0    0 -0.74781472882E+00 -0.14747595676E+02 -0.53929569032E+01  0.15720521286E+02  0.51100000000E-03 0. -1.
        -11    1    4    4    0    0  0.10449064431E+02 -0.10794879909E+02 -0.78966348172E+01  0.16972602082E+02  0.51100000000E-03 0.  1.
        -12    1    4    4    0    0  0.73347229596E+01 -0.52615797031E+01 -0.12097572325E+02  0.15094159069E+02  0.00000000000E+00 0.  1.
</event>
<event>
 8    1  0.6046524E-010  0.9118800E+02  0.7816164E-02  0.1184000E+00
        -11   -1    0    0    0    0  0.00000000000E+00  0.00000000000E+00  0.45593999997E+02  0.45594000000E+02  0.51100000000E-03 0. -1.
         11   -1    0    0    0    0 -0.00000000000E+00 -0.00000000000E+00 -0.45593999997E+02  0.45594000000E+02  0.51100000000E-03 0.  1.
         23    2    1    2    0    0  0.00000000000E+00 -0.35527136788E-14  0.00000000000E+00  0.91188000000E+02  0.91188000000E+02 0.  0.
    9900012    2    3    3    0    0 -0.38221185883E+02  0.19089554139E+02 -0.76389263208E+01  0.47787270479E+02  0.19999997424E+02 0.  0.
         12    1    3    3    0    0  0.38221185883E+02 -0.19089554139E+02  0.76389263208E+01  0.43400729521E+02  0.00000000000E+00 0. -1.
         11    1    4    4    0    0 -0.71720417757E+01  0.79868588150E+01 -0.63864374475E+01  0.12490583673E+02  0.51100000000E-03 0. -1.
        -11    1    4    4    0    0 -0.22709446093E+02  0.36455481009E+01 -0.49255101948E+01  0.23521683905E+02  0.51100000000E-03 0.  1.
        -12    1    4    4    0    0 -0.83396980150E+01  0.74571472236E+01  0.36730213215E+01  0.11775002901E+02  0.00000000000E+00 0.  1.
</event>
<event>
 8    1  0.6046524E-010  0.9118800E+02  0.7816164E-02  0.1184000E+00
        -11   -1    0    0    0    0  0.00000000000E+00  0.00000000000E+00  0.45593999997E+02  0.45594000000E+02  0.51100000000E-03 0. -1.
         11   -1    0    0    0    0 -0.00000000000E+00 -0.00000000000E+00 -0.45593999997E+02  0.45594000000E+02  0.51100000000E-03 0.  1.
         23    2    1    2    0    0  0.00000000000E+00  0.00000000000E+00  0.00000000000E+00  0.91188000000E+02  0.91188000000E+02 0.  0.
    9900012    2    3    3    0    0 -0.41203350472E+01  0.30058995686E+02  0.31033897534E+02  0.47787272141E+02  0.20000005000E+02 0.  0.
        -12    1    3    3    0    0  0.41203350472E+01 -0.30058995686E+02 -0.31033897534E+02  0.43400727859E+02  0.00000000000E+00 0.  1.
         11    1    4    4    0    0 -0.11279978794E+01  0.13153157924E+02  0.14851549639E+02  0.19870744061E+02  0.51100000000E-03 0. -1.
        -11    1    4    4    0    0 -0.38991622307E+01 -0.14203676906E+01  0.14857525196E+01  0.44077626171E+01  0.51100000000E-03 0.  1.
        -12    1    4    4    0    0  0.90682506296E+00  0.18326205452E+02  0.14696595375E+02  0.23508765463E+02  0.00000000000E+00 0.  1.
</event>
<event>
 8    1  0.6046524E-010  0.9118800E+02  0.7816164E-02  0.1184000E+00
        -11   -1    0    0    0    0  0.00000000000E+00  0.00000000000E+00  0.45593999997E+02  0.45594000000E+02  0.51100000000E-03 0. -1.
         11   -1    0    0    0    0 -0.00000000000E+00 -0.00000000000E+00 -0.45593999997E+02  0.45594000000E+02  0.51100000000E-03 0.  1.
         23    2    1    2    0    0  0.00000000000E+00  0.71054273576E-14  0.35527136788E-14  0.91188000000E+02  0.91188000000E+02 0.  0.
    9900012    2    3    3    0    0 -0.33709196433E+01  0.29232434483E+02  0.31901797475E+02  0.47787274117E+02  0.20000014009E+02 0.  0.
        -12    1    3    3    0    0  0.33709196433E+01 -0.29232434483E+02 -0.31901797475E+02  0.43400725883E+02  0.00000000000E+00 0.  1.
         11    1    4    4    0    0 -0.13739565911E+00  0.17848603962E+02  0.17715004627E+02  0.25147821579E+02  0.51100000000E-03 0. -1.
        -11    1    4    4    0    0 -0.69958867448E+01  0.79975307501E+01  0.41666194898E+01  0.11413310110E+02  0.51100000000E-03 0.  1.
         12    1    4    4    0    0  0.37623627606E+01  0.33862997710E+01  0.10020173358E+02  0.11226142427E+02  0.00000000000E+00 0. -1.
</event>
<event>
 8    1  0.6046524E-010  0.9118800E+02  0.7816164E-02  0.1184000E+00
        -11   -1    0    0    0    0  0.00000000000E+00  0.00000000000E+00  0.45593999997E+02  0.45594000000E+02  0.51100000000E-03 0. -1.
         11   -1    0    0    0    0 -0.00000000000E+00 -0.00000000000E+00 -0.45593999997E+02  0.45594000000E+02  0.51100000000E-03 0.  1.
         23    2    1    2    0    0  0.00000000000E+00  0.00000000000E+00  0.00000000000E+00  0.91188000000E+02  0.91188000000E+02 0.  0.
    9900012    2    3    3    0    0  0.62450349534E+01 -0.75110601054E+01 -0.42287192387E+02  0.47787272755E+02  0.20000007797E+02 0.  0.
         12    1    3    3    0    0 -0.62450349534E+01  0.75110601054E+01  0.42287192387E+02  0.43400727245E+02  0.00000000000E+00 0. -1.
         11    1    4    4    0    0 -0.48744790530E+01 -0.20690355282E+01 -0.34102141935E+01  0.62984930866E+01  0.51100000000E-03 0. -1.
        -11    1    4    4    0    0 -0.11285046600E+01 -0.13903637196E+00 -0.27949896587E+01  0.30174196482E+01  0.51100000000E-03 0.  1.
        -12    1    4    4    0    0  0.12248018666E+02 -0.53029882053E+01 -0.36081988535E+02  0.38471360020E+02  0.00000000000E+00 0.  1.
</event>
<event>
 8    1  0.6046524E-010  0.9118800E+02  0.7816164E-02  0.1184000E+00
        -11   -1    0    0    0    0  0.00000000000E+00  0.00000000000E+00  0.45593999997E+02  0.45594000000E+02  0.51100000000E-03 0.  1.
         11   -1    0    0    0    0 -0.00000000000E+00 -0.00000000000E+00 -0.45593999997E+02  0.45594000000E+02  0.51100000000E-03 0. -1.
         23    2    1    2    0    0  0.35527136788E-14  0.35527136788E-14  0.00000000000E+00  0.91188000000E+02  0.91188000000E+02 0.  0.
    9900012    2    3    3    0    0 -0.31044535106E+02  0.30239437990E+02 -0.23313145997E+01  0.47787288052E+02  0.20000077542E+02 0.  0.
         12    1    3    3    0    0  0.31044535106E+02 -0.30239437990E+02  0.23313145997E+01  0.43400711948E+02  0.00000000000E+00 0. -1.
         11    1    4    4    0    0 -0.13399524657E+02  0.10080767956E+02 -0.52664711536E+01  0.17575689525E+02  0.51100000000E-03 0. -1.
        -11    1    4    4    0    0 -0.19646163411E+02  0.18906520563E+02  0.41114874678E+01  0.27574128926E+02  0.51100000000E-03 0.  1.
         12    1    4    4    0    0  0.20011529621E+01  0.12521494716E+01 -0.11763309139E+01  0.26374696010E+01  0.00000000000E+00 0. -1.
</event>
<event>
 8    1  0.6046524E-010  0.9118800E+02  0.7816164E-02  0.1184000E+00
        -11   -1    0    0    0    0  0.00000000000E+00  0.00000000000E+00  0.45593999997E+02  0.45594000000E+02  0.51100000000E-03 0. -1.
         11   -1    0    0    0    0 -0.00000000000E+00 -0.00000000000E+00 -0.45593999997E+02  0.45594000000E+02  0.51100000000E-03 0.  1.
         23    2    1    2    0    0  0.35527136788E-14  0.00000000000E+00  0.00000000000E+00  0.91188000000E+02  0.91188000000E+02 0.  0.
    9900012    2    3    3    0    0  0.18394361863E+02 -0.88569020544E+01 -0.38299174696E+02  0.47787262163E+02  0.19999959507E+02 0.  0.
         12    1    3    3    0    0 -0.18394361863E+02  0.88569020544E+01  0.38299174696E+02  0.43400737837E+02  0.00000000000E+00 0. -1.
         11    1    4    4    0    0  0.18541883240E+01 -0.11919380482E+01 -0.14926268601E+02  0.15088148504E+02  0.51100000000E-03 0. -1.
        -11    1    4    4    0    0  0.44889026638E+01  0.29853267429E+01 -0.15867422026E+01  0.56196240057E+01  0.51100000000E-03 0.  1.
        -12    1    4    4    0    0  0.12051270876E+02 -0.10650290749E+02 -0.21786163892E+02  0.27079489654E+02  0.00000000000E+00 0.  1.
</event>
<event>
 8    1  0.6046524E-010  0.9118800E+02  0.7816164E-02  0.1184000E+00
        -11   -1    0    0    0    0  0.00000000000E+00  0.00000000000E+00  0.45593999997E+02  0.45594000000E+02  0.51100000000E-03 0. -1.
         11   -1    0    0    0    0 -0.00000000000E+00 -0.00000000000E+00 -0.45593999997E+02  0.45594000000E+02  0.51100000000E-03 0.  1.
         23    2    1    2    0    0  0.00000000000E+00  0.35527136788E-14 -0.71054273576E-14  0.91188000000E+02  0.91188000000E+02 0.  0.
    9900012    2    3    3    0    0  0.44392482642E+01  0.28935817187E+02 -0.32041143842E+02  0.47787270281E+02  0.19999996520E+02 0.  0.
         12    1    3    3    0    0 -0.44392482642E+01 -0.28935817187E+02  0.32041143842E+02  0.43400729719E+02  0.00000000000E+00 0. -1.
         11    1    4    4    0    0  0.82473953088E+01  0.14296806318E+02 -0.76260379089E+01  0.18181712096E+02  0.51100000000E-03 0. -1.
        -11    1    4    4    0    0 -0.32884168209E+01  0.17403876017E+01 -0.70042972883E+01  0.79311294880E+01  0.51100000000E-03 0.  1.
        -12    1    4    4    0    0 -0.51973022359E+00  0.12898623267E+02 -0.17410808645E+02  0.21674428697E+02  0.00000000000E+00 0.  1.
</event>
<event>
 8    1  0.6046524E-010  0.9118800E+02  0.7816164E-02  0.1184000E+00
        -11   -1    0    0    0    0  0.00000000000E+00  0.00000000000E+00  0.45593999997E+02  0.45594000000E+02  0.51100000000E-03 0. -1.
         11   -1    0    0    0    0 -0.00000000000E+00 -0.00000000000E+00 -0.45593999997E+02  0.45594000000E+02  0.51100000000E-03 0.  1.
         23    2    1    2    0    0 -0.35527136788E-14 -0.35527136788E-14  0.35527136788E-14  0.91188000000E+02  0.91188000000E+02 0.  0.
    9900012    2    3    3    0    0 -0.22188957224E+02 -0.25337211863E+02  0.27373331277E+02  0.47787269673E+02  0.19999993748E+02 0.  0.
        -12    1    3    3    0    0  0.22188957224E+02  0.25337211863E+02 -0.27373331277E+02  0.43400730327E+02  0.00000000000E+00 0.  1.
         11    1    4    4    0    0  0.10876784010E+01  0.65758239518E+00 -0.58682711624E-01  0.12723611249E+01  0.51100000000E-03 0. -1.
        -11    1    4    4    0    0 -0.56645898241E+01  0.28036407245E+00  0.23227471180E+01  0.61287304006E+01  0.51100000000E-03 0.  1.
         12    1    4    4    0    0 -0.17612045801E+02 -0.26275158330E+02  0.25109266871E+02  0.40386178148E+02  0.00000000000E+00 0. -1.
</event>
<event>
 8    1  0.6046524E-010  0.9118800E+02  0.7816164E-02  0.1184000E+00
        -11   -1    0    0    0    0  0.00000000000E+00  0.00000000000E+00  0.45593999997E+02  0.45594000000E+02  0.51100000000E-03 0.  1.
         11   -1    0    0    0    0 -0.00000000000E+00 -0.00000000000E+00 -0.45593999997E+02  0.45594000000E+02  0.51100000000E-03 0. -1.
         23    2    1    2    0    0  0.00000000000E+00 -0.71054273576E-14 -0.44408920985E-15  0.91188000000E+02  0.91188000000E+02 0.  0.
    9900012    2    3    3    0    0 -0.18340625095E+02  0.39314722509E+02 -0.12641261670E+01  0.47787263258E+02  0.19999964498E+02 0.  0.
        -12    1    3    3    0    0  0.18340625095E+02 -0.39314722509E+02  0.12641261670E+01  0.43400736742E+02  0.00000000000E+00 0.  1.
         11    1    4    4    0    0 -0.43571920490E+01  0.21160065196E+02 -0.90764523820E+01  0.23433212963E+02  0.51100000000E-03 0.  1.
        -11    1    4    4    0    0 -0.50174795693E+01  0.45867638202E+01  0.25622748535E+01  0.72648989158E+01  0.51100000000E-03 0. -1.
         12    1    4    4    0    0 -0.89659534767E+01  0.13567893492E+02  0.52500513615E+01  0.17089151379E+02  0.00000000000E+00 0. -1.
</event>
<event>
 8    1  0.6046524E-010  0.9118800E+02  0.7816164E-02  0.1184000E+00
        -11   -1    0    0    0    0  0.00000000000E+00  0.00000000000E+00  0.45593999997E+02  0.45594000000E+02  0.51100000000E-03 0. -1.
         11   -1    0    0    0    0 -0.00000000000E+00 -0.00000000000E+00 -0.45593999997E+02  0.45594000000E+02  0.51100000000E-03 0.  1.
         23    2    1    2    0    0  0.00000000000E+00  0.00000000000E+00 -0.71054273576E-14  0.91188000000E+02  0.91188000000E+02 0.  0.
    9900012    2    3    3    0    0 -0.80927709775E+01 -0.21082026839E+02 -0.37063167121E+02  0.47787272416E+02  0.20000006255E+02 0.  0.
         12    1    3    3    0    0  0.80927709775E+01  0.21082026839E+02  0.37063167121E+02  0.43400727584E+02  0.00000000000E+00 0. -1.
         11    1    4    4    0    0  0.13487289327E+01 -0.11009533082E+00 -0.73314799595E-01  0.13551996298E+01  0.51100000000E-03 0. -1.
        -11    1    4    4    0    0 -0.11270854548E+02 -0.12989494989E+02 -0.33239276511E+02  0.37424706352E+02  0.51100000000E-03 0.  1.
        -12    1    4    4    0    0  0.18293546377E+01 -0.79824365195E+01 -0.37505758110E+01  0.90073664348E+01  0.00000000000E+00 0.  1.
</event>
<event>
 8    1  0.6046524E-010  0.9118800E+02  0.7816164E-02  0.1184000E+00
        -11   -1    0    0    0    0  0.00000000000E+00  0.00000000000E+00  0.45593999997E+02  0.45594000000E+02  0.51100000000E-03 0. -1.
         11   -1    0    0    0    0 -0.00000000000E+00 -0.00000000000E+00 -0.45593999997E+02  0.45594000000E+02  0.51100000000E-03 0.  1.
         23    2    1    2    0    0 -0.44408920985E-15  0.00000000000E+00  0.00000000000E+00  0.91188000000E+02  0.91188000000E+02 0.  0.
    9900012    2    3    3    0    0  0.26013320685E+01  0.13914998717E+02 -0.41027175914E+02  0.47787270959E+02  0.19999999610E+02 0.  0.
         12    1    3    3    0    0 -0.26013320685E+01 -0.13914998717E+02  0.41027175914E+02  0.43400729041E+02  0.00000000000E+00 0. -1.
         11    1    4    4    0    0  0.21093778919E+01  0.51014634566E+01 -0.16790745764E+01  0.57700689930E+01  0.51100000000E-03 0. -1.
        -11    1    4    4    0    0 -0.10088134038E+01  0.52689496009E+01 -0.46299545329E+01  0.70863258194E+01  0.51100000000E-03 0.  1.
         12    1    4    4    0    0  0.15007675805E+01  0.35445856595E+01 -0.34718146805E+02  0.34930876147E+02  0.00000000000E+00 0. -1.
</event>
<event>
 8    1  0.6046524E-010  0.9118800E+02  0.7816164E-02  0.1184000E+00
        -11   -1    0    0    0    0  0.00000000000E+00  0.00000000000E+00  0.45593999997E+02  0.45594000000E+02  0.51100000000E-03 0. -1.
         11   -1    0    0    0    0 -0.00000000000E+00 -0.00000000000E+00 -0.45593999997E+02  0.45594000000E+02  0.51100000000E-03 0.  1.
         23    2    1    2    0    0  0.00000000000E+00  0.17763568394E-14  0.00000000000E+00  0.91188000000E+02  0.91188000000E+02 0.  0.
    9900012    2    3    3    0    0 -0.25467012352E+02  0.91347897813E+01  0.33935414726E+02  0.47787245685E+02  0.19999884376E+02 0.  0.
        -12    1    3    3    0    0  0.25467012352E+02 -0.91347897813E+01 -0.33935414726E+02  0.43400754315E+02  0.00000000000E+00 0.  1.
         11    1    4    4    0    0 -0.14145478418E+00 -0.29011369230E+01  0.50150956273E+01  0.57954973311E+01  0.51100000000E-03 0. -1.
        -11    1    4    4    0    0 -0.10708196411E+00  0.23538235483E+01 -0.82162476466E-01  0.23576901360E+01  0.51100000000E-03 0.  1.
         12    1    4    4    0    0 -0.25218475604E+02  0.96821031560E+01  0.29002481575E+02  0.39634058218E+02  0.00000000000E+00 0. -1.
</event>
<event>
 8    1  0.6387229E-010  0.9118800E+02  0.7816164E-02  0.1184000E+00
        -11   -1    0    0    0    0  0.00000000000E+00  0.00000000000E+00  0.45593999997E+02  0.45594000000E+02  0.51100000000E-03 0. -1.
         11   -1    0    0    0    0 -0.00000000000E+00 -0.00000000000E+00 -0.45593999997E+02  0.45594000000E+02  0.51100000000E-03 0.  1.
         23    2    1    2    0    0  0.00000000000E+00  0.00000000000E+00  0.35527136788E-14  0.91188000000E+02  0.91188000000E+02 0.  0.
    9900012    2    3    3    0    0 -0.23677709060E+02 -0.20643620847E+02 -0.29947126942E+02  0.47787269590E+02  0.19999993370E+02 0.  0.
         12    1    3    3    0    0  0.23677709060E+02  0.20643620847E+02  0.29947126942E+02  0.43400730410E+02  0.00000000000E+00 0. -1.
         11    1    4    4    0    0 -0.12920301839E+02 -0.12586100358E+02 -0.10169557294E+02  0.20706617726E+02  0.51100000000E-03 0. -1.
        -11    1    4    4    0    0 -0.60472111135E+01 -0.92480415842E+01 -0.19247206420E+02  0.22193467296E+02  0.51100000000E-03 0.  1.
         12    1    4    4    0    0 -0.47101961072E+01  0.11905210948E+01 -0.53036322755E+00  0.48871845677E+01  0.00000000000E+00 0. -1.
</event>
<event>
 8    1  0.7217755E-010  0.9118800E+02  0.7816164E-02  0.1184000E+00
        -11   -1    0    0    0    0  0.00000000000E+00  0.00000000000E+00  0.45593999997E+02  0.45594000000E+02  0.51100000000E-03 0. -1.
         11   -1    0    0    0    0 -0.00000000000E+00 -0.00000000000E+00 -0.45593999997E+02  0.45594000000E+02  0.51100000000E-03 0.  1.
         23    2    1    2    0    0  0.00000000000E+00 -0.17763568394E-14  0.00000000000E+00  0.91188000000E+02  0.91188000000E+02 0.  0.
    9900012    2    3    3    0    0  0.92995704654E+01 -0.91703583019E+01 -0.41388957900E+02  0.47787270533E+02  0.19999997668E+02 0.  0.
         12    1    3    3    0    0 -0.92995704654E+01  0.91703583019E+01  0.41388957900E+02  0.43400729467E+02  0.00000000000E+00 0. -1.
         11    1    4    4    0    0 -0.26285875442E+01 -0.17610687222E+00 -0.74682426278E+01  0.79192887507E+01  0.51100000000E-03 0.  1.
        -11    1    4    4    0    0  0.85057730655E+01 -0.10804122232E+02 -0.33193361253E+02  0.35928769311E+02  0.51100000000E-03 0. -1.
         12    1    4    4    0    0  0.34223849442E+01  0.18098708023E+01 -0.72735401903E+00  0.39392124716E+01  0.00000000000E+00 0. -1.
</event>
<event>
 8    1  0.6046524E-010  0.9118800E+02  0.7816164E-02  0.1184000E+00
        -11   -1    0    0    0    0  0.00000000000E+00  0.00000000000E+00  0.45593999997E+02  0.45594000000E+02  0.51100000000E-03 0. -1.
         11   -1    0    0    0    0 -0.00000000000E+00 -0.00000000000E+00 -0.45593999997E+02  0.45594000000E+02  0.51100000000E-03 0.  1.
         23    2    1    2    0    0  0.00000000000E+00  0.00000000000E+00  0.00000000000E+00  0.91188000000E+02  0.91188000000E+02 0.  0.
    9900012    2    3    3    0    0 -0.10768351029E+02 -0.13986477061E+02 -0.39649014231E+02  0.47787271273E+02  0.20000001044E+02 0.  0.
         12    1    3    3    0    0  0.10768351029E+02  0.13986477061E+02  0.39649014231E+02  0.43400728727E+02  0.00000000000E+00 0. -1.
         11    1    4    4    0    0 -0.90838188192E+01 -0.48938849639E+01 -0.15951291268E+02  0.18997620055E+02  0.51100000000E-03 0. -1.
        -11    1    4    4    0    0 -0.16773735291E+01 -0.82659876256E+01 -0.44729520957E+01  0.95471165330E+01  0.51100000000E-03 0.  1.
         12    1    4    4    0    0 -0.71586809327E-02 -0.82660447130E+00 -0.19224770868E+02  0.19242534685E+02  0.00000000000E+00 0. -1.
</event>
<event>
 8    1  0.6046524E-010  0.9118800E+02  0.7816164E-02  0.1184000E+00
        -11   -1    0    0    0    0  0.00000000000E+00  0.00000000000E+00  0.45593999997E+02  0.45594000000E+02  0.51100000000E-03 0.  1.
         11   -1    0    0    0    0 -0.00000000000E+00 -0.00000000000E+00 -0.45593999997E+02  0.45594000000E+02  0.51100000000E-03 0. -1.
         23    2    1    2    0    0  0.35527136788E-14 -0.35527136788E-14  0.00000000000E+00  0.91188000000E+02  0.91188000000E+02 0.  0.
    9900012    2    3    3    0    0 -0.28643096082E+02  0.27394589862E+02 -0.17684182630E+02  0.47787299289E+02  0.20000128778E+02 0.  0.
         12    1    3    3    0    0  0.28643096082E+02 -0.27394589862E+02  0.17684182630E+02  0.43400700711E+02  0.00000000000E+00 0. -1.
         11    1    4    4    0    0 -0.45840959336E+01  0.11700296620E+01 -0.57616712934E+01  0.74551835184E+01  0.51100000000E-03 0. -1.
        -11    1    4    4    0    0 -0.99422621047E+01  0.64308845416E+01 -0.10748654126E+02  0.15991823459E+02  0.51100000000E-03 0.  1.
        -12    1    4    4    0    0 -0.14116738044E+02  0.19793675659E+02 -0.11738572107E+01  0.24340292312E+02  0.00000000000E+00 0.  1.
</event>
<event>
 8    1  0.6046524E-010  0.9118800E+02  0.7816164E-02  0.1184000E+00
        -11   -1    0    0    0    0  0.00000000000E+00  0.00000000000E+00  0.45593999997E+02  0.45594000000E+02  0.51100000000E-03 0. -1.
         11   -1    0    0    0    0 -0.00000000000E+00 -0.00000000000E+00 -0.45593999997E+02  0.45594000000E+02  0.51100000000E-03 0.  1.
         23    2    1    2    0    0  0.00000000000E+00  0.00000000000E+00 -0.35527136788E-14  0.91188000000E+02  0.91188000000E+02 0.  0.
    9900012    2    3    3    0    0 -0.14021961700E+02  0.27557118854E+02  0.30456737915E+02  0.47787273118E+02  0.20000009454E+02 0.  0.
        -12    1    3    3    0    0  0.14021961700E+02 -0.27557118854E+02 -0.30456737915E+02  0.43400726882E+02  0.00000000000E+00 0.  1.
         11    1    4    4    0    0 -0.16426446570E+02  0.21297535345E+02  0.18603641837E+02  0.32703343079E+02  0.51100000000E-03 0. -1.
        -11    1    4    4    0    0  0.12787249604E+01  0.54470592324E+01  0.34638220016E+01  0.65805512630E+01  0.51100000000E-03 0.  1.
        -12    1    4    4    0    0  0.11257599094E+01  0.81252427692E+00  0.83892740767E+01  0.85033787760E+01  0.00000000000E+00 0.  1.
</event>
<event>
 8    1  0.6046524E-010  0.9118800E+02  0.7816164E-02  0.1184000E+00
        -11   -1    0    0    0    0  0.00000000000E+00  0.00000000000E+00  0.45593999997E+02  0.45594000000E+02  0.51100000000E-03 0. -1.
         11   -1    0    0    0    0 -0.00000000000E+00 -0.00000000000E+00 -0.45593999997E+02  0.45594000000E+02  0.51100000000E-03 0.  1.
         23    2    1    2    0    0  0.00000000000E+00 -0.35527136788E-14  0.00000000000E+00  0.91188000000E+02  0.91188000000E+02 0.  0.
    9900012    2    3    3    0    0  0.24770307064E+02  0.19857139170E+02 -0.29593057636E+02  0.47787272491E+02  0.20000006597E+02 0.  0.
         12    1    3    3    0    0 -0.24770307064E+02 -0.19857139170E+02  0.29593057636E+02  0.43400727509E+02  0.00000000000E+00 0. -1.
         11    1    4    4    0    0  0.41115930672E+01  0.90297500539E+01 -0.52355866641E+01  0.11218420190E+02  0.51100000000E-03 0. -1.
        -11    1    4    4    0    0  0.48679985926E+01 -0.33663332382E+01 -0.39232871216E+01  0.71008303647E+01  0.51100000000E-03 0.  1.
         12    1    4    4    0    0  0.15790715404E+02  0.14193722354E+02 -0.20434183850E+02  0.29468021936E+02  0.00000000000E+00 0. -1.
</event>
<event>
 8    1  0.6046524E-010  0.9118800E+02  0.7816164E-02  0.1184000E+00
        -11   -1    0    0    0    0  0.00000000000E+00  0.00000000000E+00  0.45593999997E+02  0.45594000000E+02  0.51100000000E-03 0.  1.
         11   -1    0    0    0    0 -0.00000000000E+00 -0.00000000000E+00 -0.45593999997E+02  0.45594000000E+02  0.51100000000E-03 0. -1.
         23    2    1    2    0    0 -0.71054273576E-14  0.00000000000E+00  0.00000000000E+00  0.91188000000E+02  0.91188000000E+02 0.  0.
    9900012    2    3    3    0    0  0.33571428119E+02 -0.27055280633E+02 -0.49592435712E+01  0.47787273130E+02  0.20000009508E+02 0.  0.
         12    1    3    3    0    0 -0.33571428119E+02  0.27055280633E+02  0.49592435712E+01  0.43400726870E+02  0.00000000000E+00 0. -1.
         11    1    4    4    0    0  0.69231540024E+01 -0.70730707383E+01 -0.45430975820E+01  0.10890276714E+02  0.51100000000E-03 0. -1.
        -11    1    4    4    0    0  0.17603481720E+02 -0.80675629067E+01  0.64874976131E+01  0.20421943234E+02  0.51100000000E-03 0.  1.
        -12    1    4    4    0    0  0.90447923968E+01 -0.11914646988E+02 -0.69036436023E+01  0.16475053181E+02  0.00000000000E+00 0.  1.
</event>
<event>
 8    1  0.6046524E-010  0.9118800E+02  0.7816164E-02  0.1184000E+00
        -11   -1    0    0    0    0  0.00000000000E+00  0.00000000000E+00  0.45593999997E+02  0.45594000000E+02  0.51100000000E-03 0. -1.
         11   -1    0    0    0    0 -0.00000000000E+00 -0.00000000000E+00 -0.45593999997E+02  0.45594000000E+02  0.51100000000E-03 0.  1.
         23    2    1    2    0    0  0.35527136788E-14  0.35527136788E-14 -0.71054273576E-14  0.91188000000E+02  0.91188000000E+02 0.  0.
    9900012    2    3    3    0    0  0.18924559125E+02  0.16668270496E+02 -0.35322128280E+02  0.47787275056E+02  0.20000018290E+02 0.  0.
         12    1    3    3    0    0 -0.18924559125E+02 -0.16668270496E+02  0.35322128280E+02  0.43400724944E+02  0.00000000000E+00 0. -1.
         11    1    4    4    0    0  0.88049230356E+01  0.12763749441E+02 -0.17938579395E+02  0.23711444503E+02  0.51100000000E-03 0. -1.
        -11    1    4    4    0    0  0.10544776347E+02  0.29696657197E+01 -0.57035663018E+01  0.12350785056E+02  0.51100000000E-03 0.  1.
        -12    1    4    4    0    0 -0.42514025683E+00  0.93485533537E+00 -0.11679982584E+02  0.11725045496E+02  0.00000000000E+00 0.  1.
</event>
<event>
 8    1  0.6046524E-010  0.9118800E+02  0.7816164E-02  0.1184000E+00
        -11   -1    0    0    0    0  0.00000000000E+00  0.00000000000E+00  0.45593999997E+02  0.45594000000E+02  0.51100000000E-03 0. -1.
         11   -1    0    0    0    0 -0.00000000000E+00 -0.00000000000E+00 -0.45593999997E+02  0.45594000000E+02  0.51100000000E-03 0.  1.
         23    2    1    2    0    0  0.00000000000E+00 -0.35527136788E-14 -0.35527136788E-14  0.91188000000E+02  0.91188000000E+02 0.  0.
    9900012    2    3    3    0    0  0.60886601780E+01  0.31853590308E+02  0.28842681578E+02  0.47787270987E+02  0.19999999737E+02 0.  0.
        -12    1    3    3    0    0 -0.60886601780E+01 -0.31853590308E+02 -0.28842681578E+02  0.43400729013E+02  0.00000000000E+00 0.  1.
         11    1    4    4    0    0  0.12313398959E+01  0.14101339408E+02  0.12033123486E+02  0.18578483042E+02  0.51100000000E-03 0. -1.
        -11    1    4    4    0    0  0.46349812530E+01  0.19891605438E+02  0.11407390766E+02  0.23394178388E+02  0.51100000000E-03 0.  1.
         12    1    4    4    0    0  0.22233902917E+00 -0.21393545379E+01  0.54021673255E+01  0.58146095566E+01  0.00000000000E+00 0. -1.
</event>
<event>
 8    1  0.7377111E-010  0.9118800E+02  0.7816164E-02  0.1184000E+00
        -11   -1    0    0    0    0  0.00000000000E+00  0.00000000000E+00  0.45593999997E+02  0.45594000000E+02  0.51100000000E-03 0. -1.
         11   -1    0    0    0    0 -0.00000000000E+00 -0.00000000000E+00 -0.45593999997E+02  0.45594000000E+02  0.51100000000E-03 0.  1.
         23    2    1    2    0    0  0.00000000000E+00 -0.35527136788E-14  0.35527136788E-14  0.91188000000E+02  0.91188000000E+02 0.  0.
    9900012    2    3    3    0    0 -0.25028376867E+02  0.27424104550E+02 -0.22474922916E+02  0.47787270525E+02  0.19999997630E+02 0.  0.
         12    1    3    3    0    0  0.25028376867E+02 -0.27424104550E+02  0.22474922916E+02  0.43400729475E+02  0.00000000000E+00 0. -1.
         11    1    4    4    0    0 -0.55290867977E+01  0.14913809761E+02 -0.62317346802E+01  0.17082945876E+02  0.51100000000E-03 0. -1.
        -11    1    4    4    0    0 -0.18630957626E+02  0.14679562206E+02 -0.14815779288E+02  0.27966219709E+02  0.51100000000E-03 0.  1.
         12    1    4    4    0    0 -0.86833244287E+00 -0.21692674175E+01 -0.14274089474E+01  0.27381049401E+01  0.00000000000E+00 0. -1.
</event>
<event>
 8    1  0.6046524E-010  0.9118800E+02  0.7816164E-02  0.1184000E+00
        -11   -1    0    0    0    0  0.00000000000E+00  0.00000000000E+00  0.45593999997E+02  0.45594000000E+02  0.51100000000E-03 0. -1.
         11   -1    0    0    0    0 -0.00000000000E+00 -0.00000000000E+00 -0.45593999997E+02  0.45594000000E+02  0.51100000000E-03 0.  1.
         23    2    1    2    0    0  0.35527136788E-14  0.00000000000E+00  0.00000000000E+00  0.91188000000E+02  0.91188000000E+02 0.  0.
    9900012    2    3    3    0    0 -0.21562521767E+02 -0.30371556269E+02 -0.22276654263E+02  0.47787273044E+02  0.20000009118E+02 0.  0.
         12    1    3    3    0    0  0.21562521767E+02  0.30371556269E+02  0.22276654263E+02  0.43400726956E+02  0.00000000000E+00 0. -1.
         11    1    4    4    0    0  0.26599021786E+01 -0.19536933225E+01 -0.14933230291E+01  0.36224316596E+01  0.51100000000E-03 0. -1.
        -11    1    4    4    0    0 -0.16316069325E+02 -0.20783389253E+02 -0.86707171178E+01  0.27809076264E+02  0.51100000000E-03 0.  1.
         12    1    4    4    0    0 -0.79063546215E+01 -0.76344736932E+01 -0.12112614116E+02  0.16355765121E+02  0.00000000000E+00 0. -1.
</event>
<event>
 8    1  0.6046524E-010  0.9118800E+02  0.7816164E-02  0.1184000E+00
        -11   -1    0    0    0    0  0.00000000000E+00  0.00000000000E+00  0.45593999997E+02  0.45594000000E+02  0.51100000000E-03 0. -1.
         11   -1    0    0    0    0 -0.00000000000E+00 -0.00000000000E+00 -0.45593999997E+02  0.45594000000E+02  0.51100000000E-03 0.  1.
         23    2    1    2    0    0  0.00000000000E+00  0.35527136788E-14  0.35527136788E-14  0.91188000000E+02  0.91188000000E+02 0.  0.
    9900012    2    3    3    0    0  0.21529000549E+02 -0.23507712050E+02 -0.29453576053E+02  0.47787268061E+02  0.19999986398E+02 0.  0.
         12    1    3    3    0    0 -0.21529000549E+02  0.23507712050E+02  0.29453576053E+02  0.43400731939E+02  0.00000000000E+00 0. -1.
         11    1    4    4    0    0 -0.40045504381E+00 -0.37738670393E+01 -0.10134660329E+01  0.39280466307E+01  0.51100000000E-03 0. -1.
        -11    1    4    4    0    0 -0.44645842394E+00 -0.91756827420E+00 -0.82887361475E+01  0.83513115045E+01  0.51100000000E-03 0.  1.
         12    1    4    4    0    0  0.22375914017E+02 -0.18816276737E+02 -0.20151373873E+02  0.35507909926E+02  0.00000000000E+00 0. -1.
</event>
<event>
 8    1  0.6046524E-010  0.9118800E+02  0.7816164E-02  0.1184000E+00
        -11   -1    0    0    0    0  0.00000000000E+00  0.00000000000E+00  0.45593999997E+02  0.45594000000E+02  0.51100000000E-03 0. -1.
         11   -1    0    0    0    0 -0.00000000000E+00 -0.00000000000E+00 -0.45593999997E+02  0.45594000000E+02  0.51100000000E-03 0.  1.
         23    2    1    2    0    0  0.44408920985E-15  0.00000000000E+00  0.00000000000E+00  0.91188000000E+02  0.91188000000E+02 0.  0.
    9900012    2    3    3    0    0 -0.14183849522E+01 -0.40929464242E+02 -0.14366292741E+02  0.47787271594E+02  0.20000002507E+02 0.  0.
         12    1    3    3    0    0  0.14183849522E+01  0.40929464242E+02  0.14366292741E+02  0.43400728406E+02  0.00000000000E+00 0. -1.
         11    1    4    4    0    0  0.86891155948E+00 -0.16227371025E+02  0.85260485019E+00  0.16272968782E+02  0.51100000000E-03 0. -1.
        -11    1    4    4    0    0 -0.51507585716E+01 -0.22427589255E+02 -0.98793125823E+01  0.25042521658E+02  0.51100000000E-03 0.  1.
        -12    1    4    4    0    0  0.28634620599E+01 -0.22745039625E+01 -0.53395850089E+01  0.64717811545E+01  0.00000000000E+00 0.  1.
</event>
<event>
 8    1  0.6046524E-010  0.9118800E+02  0.7816164E-02  0.1184000E+00
        -11   -1    0    0    0    0  0.00000000000E+00  0.00000000000E+00  0.45593999997E+02  0.45594000000E+02  0.51100000000E-03 0. -1.
         11   -1    0    0    0    0 -0.00000000000E+00 -0.00000000000E+00 -0.45593999997E+02  0.45594000000E+02  0.51100000000E-03 0.  1.
         23    2    1    2    0    0  0.00000000000E+00  0.88817841970E-15  0.00000000000E+00  0.91188000000E+02  0.91188000000E+02 0.  0.
    9900012    2    3    3    0    0 -0.91578274290E+01  0.71990425348E+01  0.41808266711E+02  0.47787272103E+02  0.20000004827E+02 0.  0.
        -12    1    3    3    0    0  0.91578274290E+01 -0.71990425348E+01 -0.41808266711E+02  0.43400727897E+02  0.00000000000E+00 0.  1.
         11    1    4    4    0    0 -0.11628489873E+02  0.46655837703E+01  0.11798281544E+02  0.17210139346E+02  0.51100000000E-03 0. -1.
        -11    1    4    4    0    0  0.16859010517E+01 -0.90575003567E+00  0.57040970649E+01  0.60165911503E+01  0.51100000000E-03 0.  1.
        -12    1    4    4    0    0  0.78476139253E+00  0.34392088001E+01  0.24305888102E+02  0.24560541607E+02  0.00000000000E+00 0.  1.
</event>
<event>
 8    1  0.6046524E-010  0.9118800E+02  0.7816164E-02  0.1184000E+00
        -11   -1    0    0    0    0  0.00000000000E+00  0.00000000000E+00  0.45593999997E+02  0.45594000000E+02  0.51100000000E-03 0. -1.
         11   -1    0    0    0    0 -0.00000000000E+00 -0.00000000000E+00 -0.45593999997E+02  0.45594000000E+02  0.51100000000E-03 0.  1.
         23    2    1    2    0    0  0.00000000000E+00  0.35527136788E-14 -0.17763568394E-14  0.91188000000E+02  0.91188000000E+02 0.  0.
    9900012    2    3    3    0    0  0.29631018164E+02  0.27728873856E+02 -0.15386217839E+02  0.47787269797E+02  0.19999994314E+02 0.  0.
         12    1    3    3    0    0 -0.29631018164E+02 -0.27728873856E+02  0.15386217839E+02  0.43400730203E+02  0.00000000000E+00 0. -1.
         11    1    4    4    0    0 -0.23567301183E+01  0.19759039299E+01 -0.10096338461E+01  0.32369328005E+01  0.51100000000E-03 0. -1.
        -11    1    4    4    0    0  0.19055814107E+01  0.53731416860E+01 -0.31843151970E+01  0.65300655147E+01  0.51100000000E-03 0.  1.
        -12    1    4    4    0    0  0.30082166871E+02  0.20379828240E+02 -0.11192268796E+02  0.38020271482E+02  0.00000000000E+00 0.  1.
</event>
<event>
 8    1  0.6046524E-010  0.9118800E+02  0.7816164E-02  0.1184000E+00
        -11   -1    0    0    0    0  0.00000000000E+00  0.00000000000E+00  0.45593999997E+02  0.45594000000E+02  0.51100000000E-03 0. -1.
         11   -1    0    0    0    0 -0.00000000000E+00 -0.00000000000E+00 -0.45593999997E+02  0.45594000000E+02  0.51100000000E-03 0.  1.
         23    2    1    2    0    0  0.00000000000E+00  0.00000000000E+00  0.00000000000E+00  0.91188000000E+02  0.91188000000E+02 0.  0.
    9900012    2    3    3    0    0 -0.57669735994E+01  0.22153106845E+02 -0.36872821985E+02  0.47787272719E+02  0.20000007636E+02 0.  0.
         12    1    3    3    0    0  0.57669735994E+01 -0.22153106845E+02  0.36872821985E+02  0.43400727281E+02  0.00000000000E+00 0. -1.
         11    1    4    4    0    0 -0.11662849097E+01 -0.11793538548E+01  0.42426338730E+00  0.17120443009E+01  0.51100000000E-03 0. -1.
        -11    1    4    4    0    0 -0.33879485521E+01  0.30376609661E+00 -0.86816713876E+01  0.93242633798E+01  0.51100000000E-03 0.  1.
         12    1    4    4    0    0 -0.12127401376E+01  0.23028694603E+02 -0.28615413984E+02  0.36750965039E+02  0.00000000000E+00 0. -1.
</event>
<event>
 8    1  0.6046524E-010  0.9118800E+02  0.7816164E-02  0.1184000E+00
        -11   -1    0    0    0    0  0.00000000000E+00  0.00000000000E+00  0.45593999997E+02  0.45594000000E+02  0.51100000000E-03 0.  1.
         11   -1    0    0    0    0 -0.00000000000E+00 -0.00000000000E+00 -0.45593999997E+02  0.45594000000E+02  0.51100000000E-03 0. -1.
         23    2    1    2    0    0  0.00000000000E+00 -0.35527136788E-14  0.00000000000E+00  0.91188000000E+02  0.91188000000E+02 0.  0.
    9900012    2    3    3    0    0  0.16830410937E+02 -0.30906573838E+02  0.25399691844E+02  0.47787269770E+02  0.19999994191E+02 0.  0.
        -12    1    3    3    0    0 -0.16830410937E+02  0.30906573838E+02 -0.25399691844E+02  0.43400730230E+02  0.00000000000E+00 0.  1.
         11    1    4    4    0    0  0.72537583034E+00  0.60613335791E+00  0.57449239219E+00  0.11061688445E+01  0.51100000000E-03 0. -1.
        -11    1    4    4    0    0 -0.24659535069E+00 -0.81185450107E+01  0.13939856947E+02  0.16133542523E+02  0.51100000000E-03 0.  1.
         12    1    4    4    0    0  0.16351630457E+02 -0.23394162185E+02  0.10885342504E+02  0.30547558403E+02  0.00000000000E+00 0. -1.
</event>
<event>
 8    1  0.6046524E-010  0.9118800E+02  0.7816164E-02  0.1184000E+00
        -11   -1    0    0    0    0  0.00000000000E+00  0.00000000000E+00  0.45593999997E+02  0.45594000000E+02  0.51100000000E-03 0. -1.
         11   -1    0    0    0    0 -0.00000000000E+00 -0.00000000000E+00 -0.45593999997E+02  0.45594000000E+02  0.51100000000E-03 0.  1.
         23    2    1    2    0    0 -0.44408920985E-15 -0.35527136788E-14 -0.71054273576E-14  0.91188000000E+02  0.91188000000E+02 0.  0.
    9900012    2    3    3    0    0 -0.24519208288E+01 -0.15760977946E+02 -0.40363387660E+02  0.47787269534E+02  0.19999993112E+02 0.  0.
         12    1    3    3    0    0  0.24519208288E+01  0.15760977946E+02  0.40363387660E+02  0.43400730466E+02  0.00000000000E+00 0. -1.
         11    1    4    4    0    0 -0.67165491310E+01 -0.64976321268E+01 -0.51087523667E+01  0.10650380580E+02  0.51100000000E-03 0. -1.
        -11    1    4    4    0    0  0.45905844090E+00 -0.64183131999E+01 -0.14812097406E+02  0.16149418219E+02  0.51100000000E-03 0.  1.
        -12    1    4    4    0    0  0.38055698613E+01 -0.28450326197E+01 -0.20442537888E+02  0.20987470735E+02  0.00000000000E+00 0.  1.
</event>
<event>
 8    1  0.6046524E-010  0.9118800E+02  0.7816164E-02  0.1184000E+00
        -11   -1    0    0    0    0  0.00000000000E+00  0.00000000000E+00  0.45593999997E+02  0.45594000000E+02  0.51100000000E-03 0. -1.
         11   -1    0    0    0    0 -0.00000000000E+00 -0.00000000000E+00 -0.45593999997E+02  0.45594000000E+02  0.51100000000E-03 0.  1.
         23    2    1    2    0    0 -0.88817841970E-15  0.00000000000E+00  0.71054273576E-14  0.91188000000E+02  0.91188000000E+02 0.  0.
    9900012    2    3    3    0    0 -0.31286208680E+01  0.45054597545E+01 -0.43052724184E+02  0.47787256967E+02  0.19999935814E+02 0.  0.
         12    1    3    3    0    0  0.31286208680E+01 -0.45054597545E+01  0.43052724184E+02  0.43400743033E+02  0.00000000000E+00 0. -1.
         11    1    4    4    0    0  0.55188949694E+00  0.15806869302E+01 -0.12474055590E+01  0.20878635200E+01  0.51100000000E-03 0. -1.
        -11    1    4    4    0    0 -0.10286736421E+02 -0.15143322173E+01 -0.26034038318E+02  0.28033574507E+02  0.51100000000E-03 0.  1.
        -12    1    4    4    0    0  0.66062260556E+01  0.44391050415E+01 -0.15771280307E+02  0.17665818939E+02  0.00000000000E+00 0.  1.
</event>
<event>
 8    1  0.6046524E-010  0.9118800E+02  0.7816164E-02  0.1184000E+00
        -11   -1    0    0    0    0  0.00000000000E+00  0.00000000000E+00  0.45593999997E+02  0.45594000000E+02  0.51100000000E-03 0.  1.
         11   -1    0    0    0    0 -0.00000000000E+00 -0.00000000000E+00 -0.45593999997E+02  0.45594000000E+02  0.51100000000E-03 0. -1.
         23    2    1    2    0    0  0.00000000000E+00  0.35527136788E-14  0.00000000000E+00  0.91188000000E+02  0.91188000000E+02 0.  0.
    9900012    2    3    3    0    0 -0.33678576716E+02 -0.27203112872E+02 -0.30605785380E+01  0.47787273963E+02  0.20000013307E+02 0.  0.
        -12    1    3    3    0    0  0.33678576716E+02  0.27203112872E+02  0.30605785380E+01  0.43400726037E+02  0.00000000000E+00 0.  1.
         11    1    4    4    0    0 -0.78874820370E+01 -0.10873344256E+02 -0.30840182205E+01  0.13782349467E+02  0.51100000000E-03 0. -1.
        -11    1    4    4    0    0 -0.10267689742E+02 -0.82042545816E+01  0.72982532968E+01  0.15033287974E+02  0.51100000000E-03 0.  1.
        -12    1    4    4    0    0 -0.15523404938E+02 -0.81255140344E+01 -0.72748136142E+01  0.18971636521E+02  0.00000000000E+00 0.  1.
</event>
<event>
 8    1  0.6046524E-010  0.9118800E+02  0.7816164E-02  0.1184000E+00
        -11   -1    0    0    0    0  0.00000000000E+00  0.00000000000E+00  0.45593999997E+02  0.45594000000E+02  0.51100000000E-03 0. -1.
         11   -1    0    0    0    0 -0.00000000000E+00 -0.00000000000E+00 -0.45593999997E+02  0.45594000000E+02  0.51100000000E-03 0.  1.
         23    2    1    2    0    0  0.00000000000E+00  0.35527136788E-14  0.00000000000E+00  0.91188000000E+02  0.91188000000E+02 0.  0.
    9900012    2    3    3    0    0  0.13826119988E+02  0.30274463681E+02 -0.27855339883E+02  0.47787254556E+02  0.19999924822E+02 0.  0.
         12    1    3    3    0    0 -0.13826119988E+02 -0.30274463681E+02  0.27855339883E+02  0.43400745444E+02  0.00000000000E+00 0. -1.
         11    1    4    4    0    0  0.16816729301E+01  0.62724300778E+01  0.27008828946E+01  0.70332191489E+01  0.51100000000E-03 0. -1.
        -11    1    4    4    0    0  0.93979350225E+01  0.17341266030E+02 -0.21404576736E+02  0.29106641780E+02  0.51100000000E-03 0.  1.
         12    1    4    4    0    0  0.27465120351E+01  0.66607675735E+01 -0.91516460414E+01  0.11647393627E+02  0.00000000000E+00 0. -1.
</event>
<event>
 8    1  0.6046524E-010  0.9118800E+02  0.7816164E-02  0.1184000E+00
        -11   -1    0    0    0    0  0.00000000000E+00  0.00000000000E+00  0.45593999997E+02  0.45594000000E+02  0.51100000000E-03 0. -1.
         11   -1    0    0    0    0 -0.00000000000E+00 -0.00000000000E+00 -0.45593999997E+02  0.45594000000E+02  0.51100000000E-03 0.  1.
         23    2    1    2    0    0  0.00000000000E+00  0.00000000000E+00  0.00000000000E+00  0.91188000000E+02  0.91188000000E+02 0.  0.
    9900012    2    3    3    0    0  0.35790215037E+01  0.21693335403E+02  0.37419421345E+02  0.47787270863E+02  0.19999999174E+02 0.  0.
        -12    1    3    3    0    0 -0.35790215037E+01 -0.21693335403E+02 -0.37419421345E+02  0.43400729137E+02  0.00000000000E+00 0.  1.
         11    1    4    4    0    0  0.75928288152E+00  0.21288176958E+02  0.32615157264E+02  0.38955249612E+02  0.51100000000E-03 0. -1.
        -11    1    4    4    0    0  0.18392746103E+01 -0.93024666935E+00  0.62823392670E+01  0.66118134339E+01  0.51100000000E-03 0.  1.
         12    1    4    4    0    0  0.98046401192E+00  0.13354051144E+01 -0.14780751862E+01  0.22202078178E+01  0.00000000000E+00 0. -1.
</event>
<event>
 8    1  0.6046524E-010  0.9118800E+02  0.7816164E-02  0.1184000E+00
        -11   -1    0    0    0    0  0.00000000000E+00  0.00000000000E+00  0.45593999997E+02  0.45594000000E+02  0.51100000000E-03 0. -1.
         11   -1    0    0    0    0 -0.00000000000E+00 -0.00000000000E+00 -0.45593999997E+02  0.45594000000E+02  0.51100000000E-03 0.  1.
         23    2    1    2    0    0  0.00000000000E+00 -0.35527136788E-14  0.35527136788E-14  0.91188000000E+02  0.91188000000E+02 0.  0.
    9900012    2    3    3    0    0 -0.16658712856E+02  0.29573513374E+02 -0.27046571457E+02  0.47787280710E+02  0.20000044069E+02 0.  0.
         12    1    3    3    0    0  0.16658712856E+02 -0.29573513374E+02  0.27046571457E+02  0.43400719290E+02  0.00000000000E+00 0. -1.
         11    1    4    4    0    0 -0.14332594562E+02  0.15786682669E+02 -0.23366050893E+02  0.31632498339E+02  0.51100000000E-03 0.  1.
        -11    1    4    4    0    0 -0.43336625827E+01  0.78571228280E+01 -0.16419744799E+00  0.89745179022E+01  0.51100000000E-03 0. -1.
        -12    1    4    4    0    0  0.20075442887E+01  0.59297078778E+01 -0.35163231157E+01  0.71802644688E+01  0.00000000000E+00 0.  1.
</event>
<event>
 8    1  0.6046524E-010  0.9118800E+02  0.7816164E-02  0.1184000E+00
        -11   -1    0    0    0    0  0.00000000000E+00  0.00000000000E+00  0.45593999997E+02  0.45594000000E+02  0.51100000000E-03 0. -1.
         11   -1    0    0    0    0 -0.00000000000E+00 -0.00000000000E+00 -0.45593999997E+02  0.45594000000E+02  0.51100000000E-03 0.  1.
         23    2    1    2    0    0 -0.35527136788E-14  0.00000000000E+00  0.00000000000E+00  0.91188000000E+02  0.91188000000E+02 0.  0.
    9900012    2    3    3    0    0  0.31385109698E+02  0.85692539574E+01  0.28725694694E+02  0.47787276967E+02  0.20000027005E+02 0.  0.
        -12    1    3    3    0    0 -0.31385109698E+02 -0.85692539574E+01 -0.28725694694E+02  0.43400723033E+02  0.00000000000E+00 0.  1.
         11    1    4    4    0    0  0.12813567933E+02  0.53608036254E+01  0.97889613102E+01  0.16992630829E+02  0.51100000000E-03 0. -1.
        -11    1    4    4    0    0  0.12716950660E+02  0.83243994603E+01  0.74573477036E+01  0.16930106187E+02  0.51100000000E-03 0.  1.
        -12    1    4    4    0    0  0.58545911046E+01 -0.51159491282E+01  0.11479385680E+02  0.13864539952E+02  0.00000000000E+00 0.  1.
</event>
<event>
 8    1  0.6046524E-010  0.9118800E+02  0.7816164E-02  0.1184000E+00
        -11   -1    0    0    0    0  0.00000000000E+00  0.00000000000E+00  0.45593999997E+02  0.45594000000E+02  0.51100000000E-03 0.  1.
         11   -1    0    0    0    0 -0.00000000000E+00 -0.00000000000E+00 -0.45593999997E+02  0.45594000000E+02  0.51100000000E-03 0. -1.
         23    2    1    2    0    0  0.00000000000E+00  0.00000000000E+00  0.00000000000E+00  0.91188000000E+02  0.91188000000E+02 0.  0.
    9900012    2    3    3    0    0  0.40122145676E+02 -0.10546903725E+02  0.12751476931E+02  0.47787263650E+02  0.19999966284E+02 0.  0.
        -12    1    3    3    0    0 -0.40122145676E+02  0.10546903725E+02 -0.12751476931E+02  0.43400736350E+02  0.00000000000E+00 0.  1.
         11    1    4    4    0    0  0.23240228994E+02  0.31981572536E+01  0.40993881392E+01  0.23814731510E+02  0.51100000000E-03 0.  1.
        -11    1    4    4    0    0  0.93307837892E+00 -0.15611110627E+01 -0.54040268144E+00  0.18972976389E+01  0.51100000000E-03 0. -1.
        -12    1    4    4    0    0  0.15948838303E+02 -0.12183949916E+02  0.91924914731E+01  0.22075234501E+02  0.00000000000E+00 0.  1.
</event>
<event>
 8    1  0.6307730E-010  0.9118800E+02  0.7816164E-02  0.1184000E+00
        -11   -1    0    0    0    0  0.00000000000E+00  0.00000000000E+00  0.45593999997E+02  0.45594000000E+02  0.51100000000E-03 0. -1.
         11   -1    0    0    0    0 -0.00000000000E+00 -0.00000000000E+00 -0.45593999997E+02  0.45594000000E+02  0.51100000000E-03 0.  1.
         23    2    1    2    0    0  0.22204460493E-15  0.17763568394E-14  0.00000000000E+00  0.91188000000E+02  0.91188000000E+02 0.  0.
    9900012    2    3    3    0    0 -0.13180450753E+01 -0.12484745112E+02 -0.41545367586E+02  0.47787266467E+02  0.19999979130E+02 0.  0.
         12    1    3    3    0    0  0.13180450753E+01  0.12484745112E+02  0.41545367586E+02  0.43400733533E+02  0.00000000000E+00 0. -1.
         11    1    4    4    0    0 -0.31878060917E+01 -0.16608503989E+01 -0.30024455194E+00  0.36070318515E+01  0.51100000000E-03 0. -1.
        -11    1    4    4    0    0 -0.29267117291E+01 -0.36801837593E+01 -0.27955732345E+02  0.28348410277E+02  0.51100000000E-03 0.  1.
         12    1    4    4    0    0  0.47964727455E+01 -0.71437109537E+01 -0.13289390689E+02  0.15831824338E+02  0.00000000000E+00 0. -1.
</event>
<event>
 8    1  0.6046524E-010  0.9118800E+02  0.7816164E-02  0.1184000E+00
        -11   -1    0    0    0    0  0.00000000000E+00  0.00000000000E+00  0.45593999997E+02  0.45594000000E+02  0.51100000000E-03 0. -1.
         11   -1    0    0    0    0 -0.00000000000E+00 -0.00000000000E+00 -0.45593999997E+02  0.45594000000E+02  0.51100000000E-03 0.  1.
         23    2    1    2    0    0  0.00000000000E+00 -0.17763568394E-14  0.00000000000E+00  0.91188000000E+02  0.91188000000E+02 0.  0.
    9900012    2    3    3    0    0  0.20758785878E+02 -0.98932736150E+01  0.36807867861E+02  0.47787272006E+02  0.20000004385E+02 0.  0.
        -12    1    3    3    0    0 -0.20758785878E+02  0.98932736150E+01 -0.36807867861E+02  0.43400727994E+02  0.00000000000E+00 0.  1.
         11    1    4    4    0    0  0.51974090401E+00 -0.64614135122E+01  0.11320537826E+02  0.13045097628E+02  0.51100000000E-03 0. -1.
        -11    1    4    4    0    0  0.35467747490E+01 -0.49883455119E+01  0.10985675809E+02  0.12575701782E+02  0.51100000000E-03 0.  1.
        -12    1    4    4    0    0  0.16692270225E+02  0.15564854091E+01  0.14501654226E+02  0.22166472597E+02  0.00000000000E+00 0.  1.
</event>
<event>
 8    1  0.6046524E-010  0.9118800E+02  0.7816164E-02  0.1184000E+00
        -11   -1    0    0    0    0  0.00000000000E+00  0.00000000000E+00  0.45593999997E+02  0.45594000000E+02  0.51100000000E-03 0. -1.
         11   -1    0    0    0    0 -0.00000000000E+00 -0.00000000000E+00 -0.45593999997E+02  0.45594000000E+02  0.51100000000E-03 0.  1.
         23    2    1    2    0    0 -0.35527136788E-14  0.35527136788E-14  0.00000000000E+00  0.91188000000E+02  0.91188000000E+02 0.  0.
    9900012    2    3    3    0    0  0.17219245517E+02 -0.29610288762E+02 -0.26652407066E+02  0.47787280891E+02  0.20000044896E+02 0.  0.
         12    1    3    3    0    0 -0.17219245517E+02  0.29610288762E+02  0.26652407066E+02  0.43400719109E+02  0.00000000000E+00 0. -1.
         11    1    4    4    0    0  0.10558926191E+02 -0.83248344579E+01 -0.13427713248E+02  0.19002559679E+02  0.51100000000E-03 0. -1.
        -11    1    4    4    0    0  0.77027415343E+01 -0.13861600752E+02 -0.30534805138E+01  0.16149301721E+02  0.51100000000E-03 0.  1.
        -12    1    4    4    0    0 -0.10424222085E+01 -0.74238535519E+01 -0.10171213305E+02  0.12635419491E+02  0.00000000000E+00 0.  1.
</event>
<event>
 8    1  0.6046524E-010  0.9118800E+02  0.7816164E-02  0.1184000E+00
        -11   -1    0    0    0    0  0.00000000000E+00  0.00000000000E+00  0.45593999997E+02  0.45594000000E+02  0.51100000000E-03 0. -1.
         11   -1    0    0    0    0 -0.00000000000E+00 -0.00000000000E+00 -0.45593999997E+02  0.45594000000E+02  0.51100000000E-03 0.  1.
         23    2    1    2    0    0  0.00000000000E+00  0.00000000000E+00  0.00000000000E+00  0.91188000000E+02  0.91188000000E+02 0.  0.
    9900012    2    3    3    0    0  0.21185922434E+02 -0.19101527799E+02  0.32709502806E+02  0.47787271349E+02  0.20000001389E+02 0.  0.
        -12    1    3    3    0    0 -0.21185922434E+02  0.19101527799E+02 -0.32709502806E+02  0.43400728651E+02  0.00000000000E+00 0.  1.
         11    1    4    4    0    0 -0.19797287096E+01 -0.94409490852E+00  0.58728379710E+01  0.62690403615E+01  0.51100000000E-03 0.  1.
        -11    1    4    4    0    0  0.10290492639E+02 -0.15265110362E+02  0.14230297462E+02  0.23268416346E+02  0.51100000000E-03 0. -1.
        -12    1    4    4    0    0  0.12875158505E+02 -0.28923225286E+01  0.12606367372E+02  0.18249814642E+02  0.00000000000E+00 0.  1.
</event>
<event>
 8    1  0.6046524E-010  0.9118800E+02  0.7816164E-02  0.1184000E+00
        -11   -1    0    0    0    0  0.00000000000E+00  0.00000000000E+00  0.45593999997E+02  0.45594000000E+02  0.51100000000E-03 0. -1.
         11   -1    0    0    0    0 -0.00000000000E+00 -0.00000000000E+00 -0.45593999997E+02  0.45594000000E+02  0.51100000000E-03 0.  1.
         23    2    1    2    0    0 -0.35527136788E-14  0.00000000000E+00  0.71054273576E-14  0.91188000000E+02  0.91188000000E+02 0.  0.
    9900012    2    3    3    0    0  0.24282159817E+02  0.16219614073E+02 -0.32108010474E+02  0.47787268408E+02  0.19999987981E+02 0.  0.
         12    1    3    3    0    0 -0.24282159817E+02 -0.16219614073E+02  0.32108010474E+02  0.43400731592E+02  0.00000000000E+00 0. -1.
         11    1    4    4    0    0 -0.22629315160E+01  0.16954707246E+01 -0.61224963433E+01  0.67439188725E+01  0.51100000000E-03 0. -1.
        -11    1    4    4    0    0  0.12620217532E+02  0.77204664691E+01 -0.18901453751E+02  0.24002925805E+02  0.51100000000E-03 0.  1.
         12    1    4    4    0    0  0.13924873801E+02  0.68036768796E+01 -0.70840603805E+01  0.17040423731E+02  0.00000000000E+00 0. -1.
</event>
<event>
 8    1  0.6046524E-010  0.9118800E+02  0.7816164E-02  0.1184000E+00
        -11   -1    0    0    0    0  0.00000000000E+00  0.00000000000E+00  0.45593999997E+02  0.45594000000E+02  0.51100000000E-03 0. -1.
         11   -1    0    0    0    0 -0.00000000000E+00 -0.00000000000E+00 -0.45593999997E+02  0.45594000000E+02  0.51100000000E-03 0.  1.
         23    2    1    2    0    0  0.35527136788E-14  0.88817841970E-15  0.71054273576E-14  0.91188000000E+02  0.91188000000E+02 0.  0.
    9900012    2    3    3    0    0  0.25622229562E+02  0.76795357774E+01  0.34178200253E+02  0.47787270858E+02  0.19999999152E+02 0.  0.
        -12    1    3    3    0    0 -0.25622229562E+02 -0.76795357774E+01 -0.34178200253E+02  0.43400729142E+02  0.00000000000E+00 0.  1.
         11    1    4    4    0    0  0.15651465944E+02  0.19536647849E+01  0.17593589053E+02  0.23628786856E+02  0.51100000000E-03 0. -1.
        -11    1    4    4    0    0 -0.15691036616E+01 -0.11905370614E+01  0.79076827092E+01  0.81492889804E+01  0.51100000000E-03 0.  1.
         12    1    4    4    0    0  0.11539867279E+02  0.69164080539E+01  0.86769284912E+01  0.16009195021E+02  0.00000000000E+00 0. -1.
</event>
<event>
 8    1  0.6046524E-010  0.9118800E+02  0.7816164E-02  0.1184000E+00
        -11   -1    0    0    0    0  0.00000000000E+00  0.00000000000E+00  0.45593999997E+02  0.45594000000E+02  0.51100000000E-03 0. -1.
         11   -1    0    0    0    0 -0.00000000000E+00 -0.00000000000E+00 -0.45593999997E+02  0.45594000000E+02  0.51100000000E-03 0.  1.
         23    2    1    2    0    0  0.00000000000E+00  0.00000000000E+00 -0.71054273576E-14  0.91188000000E+02  0.91188000000E+02 0.  0.
    9900012    2    3    3    0    0  0.11339434739E+02 -0.14848844068E+02  0.39173371787E+02  0.47787262593E+02  0.19999961465E+02 0.  0.
        -12    1    3    3    0    0 -0.11339434739E+02  0.14848844068E+02 -0.39173371787E+02  0.43400737407E+02  0.00000000000E+00 0.  1.
         11    1    4    4    0    0 -0.60252947816E+00  0.82979974227E+00  0.67742248347E+00  0.12290284238E+01  0.51100000000E-03 0. -1.
        -11    1    4    4    0    0  0.45585428054E+01  0.30845197298E+01  0.48655070776E+01  0.73462734672E+01  0.51100000000E-03 0.  1.
         12    1    4    4    0    0  0.73834214117E+01 -0.18763163540E+02  0.33630442225E+02  0.39211960702E+02  0.00000000000E+00 0. -1.
</event>
<event>
 8    1  0.6046524E-010  0.9118800E+02  0.7816164E-02  0.1184000E+00
        -11   -1    0    0    0    0  0.00000000000E+00  0.00000000000E+00  0.45593999997E+02  0.45594000000E+02  0.51100000000E-03 0. -1.
         11   -1    0    0    0    0 -0.00000000000E+00 -0.00000000000E+00 -0.45593999997E+02  0.45594000000E+02  0.51100000000E-03 0.  1.
         23    2    1    2    0    0  0.00000000000E+00  0.00000000000E+00  0.00000000000E+00  0.91188000000E+02  0.91188000000E+02 0.  0.
    9900012    2    3    3    0    0 -0.62152225526E+01  0.39513860540E+02 -0.16841891993E+02  0.47787268531E+02  0.19999988541E+02 0.  0.
         12    1    3    3    0    0  0.62152225526E+01 -0.39513860540E+02  0.16841891993E+02  0.43400731469E+02  0.00000000000E+00 0. -1.
         11    1    4    4    0    0 -0.96656669272E+01  0.12697593963E+02 -0.85325906711E+00  0.15980677736E+02  0.51100000000E-03 0. -1.
        -11    1    4    4    0    0 -0.56975150143E+00  0.14348674089E+02 -0.75457475589E+01  0.16221817758E+02  0.51100000000E-03 0.  1.
        -12    1    4    4    0    0  0.40201958760E+01  0.12467592487E+02 -0.84428853665E+01  0.15584773037E+02  0.00000000000E+00 0.  1.
</event>
<event>
 8    1  0.6046524E-010  0.9118800E+02  0.7816164E-02  0.1184000E+00
        -11   -1    0    0    0    0  0.00000000000E+00  0.00000000000E+00  0.45593999997E+02  0.45594000000E+02  0.51100000000E-03 0. -1.
         11   -1    0    0    0    0 -0.00000000000E+00 -0.00000000000E+00 -0.45593999997E+02  0.45594000000E+02  0.51100000000E-03 0.  1.
         23    2    1    2    0    0 -0.17763568394E-14  0.00000000000E+00  0.00000000000E+00  0.91188000000E+02  0.91188000000E+02 0.  0.
    9900012    2    3    3    0    0  0.93493049888E+01 -0.34970268713E+02 -0.23943589997E+02  0.47787254619E+02  0.19999925112E+02 0.  0.
         12    1    3    3    0    0 -0.93493049888E+01  0.34970268713E+02  0.23943589997E+02  0.43400745381E+02  0.00000000000E+00 0. -1.
         11    1    4    4    0    0  0.21855966389E+01 -0.28710091579E+00 -0.22139282229E+01  0.31242179887E+01  0.51100000000E-03 0. -1.
        -11    1    4    4    0    0 -0.26214740058E+01 -0.24847612137E+02 -0.12002702709E+02  0.27718961514E+02  0.51100000000E-03 0.  1.
         12    1    4    4    0    0  0.97851823556E+01 -0.98355556604E+01 -0.97269590656E+01  0.16944075116E+02  0.00000000000E+00 0. -1.
</event>
<event>
 8    1  0.6046524E-010  0.9118800E+02  0.7816164E-02  0.1184000E+00
        -11   -1    0    0    0    0  0.00000000000E+00  0.00000000000E+00  0.45593999997E+02  0.45594000000E+02  0.51100000000E-03 0. -1.
         11   -1    0    0    0    0 -0.00000000000E+00 -0.00000000000E+00 -0.45593999997E+02  0.45594000000E+02  0.51100000000E-03 0.  1.
         23    2    1    2    0    0  0.00000000000E+00  0.00000000000E+00  0.00000000000E+00  0.91188000000E+02  0.91188000000E+02 0.  0.
    9900012    2    3    3    0    0  0.41254585558E+02  0.11772073523E+02 -0.65651569599E+01  0.47787264632E+02  0.19999970764E+02 0.  0.
         12    1    3    3    0    0 -0.41254585558E+02 -0.11772073523E+02  0.65651569599E+01  0.43400735368E+02  0.00000000000E+00 0. -1.
         11    1    4    4    0    0  0.70774969594E+01  0.98181248530E+01  0.44983182046E+00  0.12111518805E+02  0.51100000000E-03 0. -1.
        -11    1    4    4    0    0  0.18225476977E+02  0.41922706195E+01 -0.20148573395E+01  0.18809646311E+02  0.51100000000E-03 0.  1.
         12    1    4    4    0    0  0.15951611621E+02 -0.22383219492E+01 -0.50001314409E+01  0.16866099516E+02  0.00000000000E+00 0. -1.
</event>
<event>
 8    1 -0.6046524E-010  0.9118800E+02  0.7816164E-02  0.1184000E+00
        -11   -1    0    0    0    0  0.00000000000E+00  0.00000000000E+00  0.45593999997E+02  0.45594000000E+02  0.51100000000E-03 0.  1.
         11   -1    0    0    0    0 -0.00000000000E+00 -0.00000000000E+00 -0.45593999997E+02  0.45594000000E+02  0.51100000000E-03 0. -1.
         23    2    1    2    0    0  0.71054273576E-14  0.00000000000E+00 -0.88817841970E-15  0.91188000000E+02  0.91188000000E+02 0.  0.
    9900012    2    3    3    0    0  0.41782547665E+02  0.91848457416E+01 -0.73130149775E+01  0.47787275712E+02  0.20000021280E+02 0.  0.
         12    1    3    3    0    0 -0.41782547665E+02 -0.91848457416E+01  0.73130149775E+01  0.43400724288E+02  0.00000000000E+00 0. -1.
         11    1    4    4    0    0  0.18048484493E+02  0.11068528581E+02  0.56967830369E+00  0.21179817069E+02  0.51100000000E-03 0. -1.
        -11    1    4    4    0    0  0.17102840233E+02  0.26582369165E+01 -0.62759249425E+01  0.18410882697E+02  0.51100000000E-03 0.  1.
         12    1    4    4    0    0  0.66312229393E+01 -0.45419197560E+01 -0.16067683388E+01  0.81965759458E+01  0.00000000000E+00 0. -1.
</event>
<event>
 8    1  0.6046524E-010  0.9118800E+02  0.7816164E-02  0.1184000E+00
        -11   -1    0    0    0    0  0.00000000000E+00  0.00000000000E+00  0.45593999997E+02  0.45594000000E+02  0.51100000000E-03 0.  1.
         11   -1    0    0    0    0 -0.00000000000E+00 -0.00000000000E+00 -0.45593999997E+02  0.45594000000E+02  0.51100000000E-03 0. -1.
         23    2    1    2    0    0 -0.17763568394E-14 -0.14210854715E-13  0.17763568394E-14  0.91188000000E+02  0.91188000000E+02 0.  0.
    9900012    2    3    3    0    0  0.76466953532E+01  0.41794904151E+02 -0.88509042522E+01  0.47787257277E+02  0.19999937228E+02 0.  0.
         12    1    3    3    0    0 -0.76466953532E+01 -0.41794904151E+02  0.88509042522E+01  0.43400742723E+02  0.00000000000E+00 0. -1.
         11    1    4    4    0    0 -0.23608208775E+01  0.66584103437E+01  0.36157903649E+00  0.70737997697E+01  0.51100000000E-03 0.  1.
        -11    1    4    4    0    0  0.12185842577E+02  0.33393931509E+02 -0.53488225909E+01  0.35948008627E+02  0.51100000000E-03 0. -1.
         12    1    4    4    0    0 -0.21783263464E+01  0.17425622991E+01 -0.38636606977E+01  0.47654488796E+01  0.00000000000E+00 0. -1.
</event>
<event>
 8    1  0.6046524E-010  0.9118800E+02  0.7816164E-02  0.1184000E+00
        -11   -1    0    0    0    0  0.00000000000E+00  0.00000000000E+00  0.45593999997E+02  0.45594000000E+02  0.51100000000E-03 0. -1.
         11   -1    0    0    0    0 -0.00000000000E+00 -0.00000000000E+00 -0.45593999997E+02  0.45594000000E+02  0.51100000000E-03 0.  1.
         23    2    1    2    0    0  0.00000000000E+00  0.00000000000E+00  0.00000000000E+00  0.91188000000E+02  0.91188000000E+02 0.  0.
    9900012    2    3    3    0    0  0.24405145370E+02  0.47429326342E+01  0.35574098358E+02  0.47787274148E+02  0.20000014150E+02 0.  0.
        -12    1    3    3    0    0 -0.24405145370E+02 -0.47429326342E+01 -0.35574098358E+02  0.43400725852E+02  0.00000000000E+00 0.  1.
         11    1    4    4    0    0  0.13460246265E+02  0.40458299974E+01  0.13816562168E+02  0.19708991864E+02  0.51100000000E-03 0. -1.
        -11    1    4    4    0    0  0.66814860954E+01  0.70953974401E+01  0.14726923895E+02  0.17659819052E+02  0.51100000000E-03 0.  1.
         12    1    4    4    0    0  0.42634130103E+01 -0.63982948033E+01  0.70306122944E+01  0.10418463232E+02  0.00000000000E+00 0. -1.
</event>
<event>
 8    1  0.6046524E-010  0.9118800E+02  0.7816164E-02  0.1184000E+00
        -11   -1    0    0    0    0  0.00000000000E+00  0.00000000000E+00  0.45593999997E+02  0.45594000000E+02  0.51100000000E-03 0. -1.
         11   -1    0    0    0    0 -0.00000000000E+00 -0.00000000000E+00 -0.45593999997E+02  0.45594000000E+02  0.51100000000E-03 0.  1.
         23    2    1    2    0    0  0.00000000000E+00  0.00000000000E+00  0.00000000000E+00  0.91188000000E+02  0.91188000000E+02 0.  0.
    9900012    2    3    3    0    0 -0.15028006425E+02  0.27567467162E+02 -0.29963593452E+02  0.47787272410E+02  0.20000006225E+02 0.  0.
         12    1    3    3    0    0  0.15028006425E+02 -0.27567467162E+02  0.29963593452E+02  0.43400727590E+02  0.00000000000E+00 0. -1.
         11    1    4    4    0    0 -0.76496742619E+01  0.12735061402E+02 -0.38091741160E+01  0.15336528712E+02  0.51100000000E-03 0. -1.
        -11    1    4    4    0    0 -0.62733875366E+01  0.39039525586E+01 -0.60847589179E+01  0.95718612670E+01  0.51100000000E-03 0.  1.
        -12    1    4    4    0    0 -0.11049446263E+01  0.10928453202E+02 -0.20069660418E+02  0.22878882431E+02  0.00000000000E+00 0.  1.
</event>
<event>
 8    1  0.6046524E-010  0.9118800E+02  0.7816164E-02  0.1184000E+00
        -11   -1    0    0    0    0  0.00000000000E+00  0.00000000000E+00  0.45593999997E+02  0.45594000000E+02  0.51100000000E-03 0. -1.
         11   -1    0    0    0    0 -0.00000000000E+00 -0.00000000000E+00 -0.45593999997E+02  0.45594000000E+02  0.51100000000E-03 0.  1.
         23    2    1    2    0    0  0.00000000000E+00 -0.35527136788E-14 -0.71054273576E-14  0.91188000000E+02  0.91188000000E+02 0.  0.
    9900012    2    3    3    0    0 -0.89087903079E+01  0.25911124129E+02  0.33658143276E+02  0.47787268357E+02  0.19999987747E+02 0.  0.
        -12    1    3    3    0    0  0.89087903079E+01 -0.25911124129E+02 -0.33658143276E+02  0.43400731643E+02  0.00000000000E+00 0.  1.
         11    1    4    4    0    0 -0.19620308950E+01  0.92014658827E+01  0.12132655494E+02  0.15353106175E+02  0.51100000000E-03 0. -1.
        -11    1    4    4    0    0 -0.92728609334E+01  0.57749102834E+01  0.39735563614E+01  0.11624314564E+02  0.51100000000E-03 0.  1.
        -12    1    4    4    0    0  0.23261015204E+01  0.10934747963E+02  0.17551931420E+02  0.20809847618E+02  0.00000000000E+00 0.  1.
</event>
<event>
 8    1  0.6046524E-010  0.9118800E+02  0.7816164E-02  0.1184000E+00
        -11   -1    0    0    0    0  0.00000000000E+00  0.00000000000E+00  0.45593999997E+02  0.45594000000E+02  0.51100000000E-03 0. -1.
         11   -1    0    0    0    0 -0.00000000000E+00 -0.00000000000E+00 -0.45593999997E+02  0.45594000000E+02  0.51100000000E-03 0.  1.
         23    2    1    2    0    0  0.00000000000E+00  0.00000000000E+00  0.00000000000E+00  0.91188000000E+02  0.91188000000E+02 0.  0.
    9900012    2    3    3    0    0  0.35478088021E+02  0.12648538153E+02  0.21562537662E+02  0.47787271003E+02  0.19999999811E+02 0.  0.
        -12    1    3    3    0    0 -0.35478088021E+02 -0.12648538153E+02 -0.21562537662E+02  0.43400728997E+02  0.00000000000E+00 0.  1.
         11    1    4    4    0    0  0.30112965346E+02  0.73066353397E+01  0.95400201595E+01  0.32422054019E+02  0.51100000000E-03 0. -1.
        -11    1    4    4    0    0  0.15298864301E+01 -0.10786062316E+01  0.38884699039E+01  0.43155697592E+01  0.51100000000E-03 0.  1.
         12    1    4    4    0    0  0.38352362447E+01  0.64205090448E+01  0.81340475988E+01  0.11049647225E+02  0.00000000000E+00 0. -1.
</event>
<event>
 8    1  0.6046524E-010  0.9118800E+02  0.7816164E-02  0.1184000E+00
        -11   -1    0    0    0    0  0.00000000000E+00  0.00000000000E+00  0.45593999997E+02  0.45594000000E+02  0.51100000000E-03 0. -1.
         11   -1    0    0    0    0 -0.00000000000E+00 -0.00000000000E+00 -0.45593999997E+02  0.45594000000E+02  0.51100000000E-03 0.  1.
         23    2    1    2    0    0  0.00000000000E+00  0.00000000000E+00  0.00000000000E+00  0.91188000000E+02  0.91188000000E+02 0.  0.
    9900012    2    3    3    0    0 -0.18400126448E+02 -0.69756366810E+01  0.38683298597E+02  0.47787288591E+02  0.20000080004E+02 0.  0.
        -12    1    3    3    0    0  0.18400126448E+02  0.69756366810E+01 -0.38683298597E+02  0.43400711409E+02  0.00000000000E+00 0.  1.
         11    1    4    4    0    0  0.16063978875E+01 -0.26075499021E+01  0.99989390542E+00  0.32217415707E+01  0.51100000000E-03 0. -1.
        -11    1    4    4    0    0 -0.12794169181E+02 -0.86113170862E+01  0.24183948226E+02  0.28682902556E+02  0.51100000000E-03 0.  1.
        -12    1    4    4    0    0 -0.72123551549E+01  0.42432303073E+01  0.13499456466E+02  0.15882644465E+02  0.00000000000E+00 0.  1.
</event>
<event>
 8    1  0.6046524E-010  0.9118800E+02  0.7816164E-02  0.1184000E+00
        -11   -1    0    0    0    0  0.00000000000E+00  0.00000000000E+00  0.45593999997E+02  0.45594000000E+02  0.51100000000E-03 0.  1.
         11   -1    0    0    0    0 -0.00000000000E+00 -0.00000000000E+00 -0.45593999997E+02  0.45594000000E+02  0.51100000000E-03 0. -1.
         23    2    1    2    0    0  0.71054273576E-14  0.00000000000E+00  0.69388939039E-16  0.91188000000E+02  0.91188000000E+02 0.  0.
    9900012    2    3    3    0    0 -0.35420562641E+02 -0.25079815584E+02 -0.98447812299E-01  0.47787273053E+02  0.20000009158E+02 0.  0.
        -12    1    3    3    0    0  0.35420562641E+02  0.25079815584E+02  0.98447812299E-01  0.43400726947E+02  0.00000000000E+00 0.  1.
         11    1    4    4    0    0 -0.24691393101E+02 -0.13117675165E+02 -0.34568591282E-02  0.27959583459E+02  0.51100000000E-03 0. -1.
        -11    1    4    4    0    0 -0.30577656361E+01 -0.36156690999E+01 -0.55093262195E+01  0.72646864612E+01  0.51100000000E-03 0.  1.
        -12    1    4    4    0    0 -0.76714039047E+01 -0.83464713186E+01  0.54143352663E+01  0.12563003133E+02  0.00000000000E+00 0.  1.
</event>
<event>
 8    1  0.6046524E-010  0.9118800E+02  0.7816164E-02  0.1184000E+00
        -11   -1    0    0    0    0  0.00000000000E+00  0.00000000000E+00  0.45593999997E+02  0.45594000000E+02  0.51100000000E-03 0.  1.
         11   -1    0    0    0    0 -0.00000000000E+00 -0.00000000000E+00 -0.45593999997E+02  0.45594000000E+02  0.51100000000E-03 0. -1.
         23    2    1    2    0    0  0.00000000000E+00  0.88817841970E-15  0.00000000000E+00  0.91188000000E+02  0.91188000000E+02 0.  0.
    9900012    2    3    3    0    0 -0.36547689896E+02 -0.35849448418E+01 -0.23130846144E+02  0.47787291370E+02  0.20000092674E+02 0.  0.
         12    1    3    3    0    0  0.36547689896E+02  0.35849448418E+01  0.23130846144E+02  0.43400708630E+02  0.00000000000E+00 0. -1.
         11    1    4    4    0    0 -0.71019097270E+01  0.37261413624E+01 -0.73375095578E+00  0.80535484073E+01  0.51100000000E-03 0. -1.
        -11    1    4    4    0    0 -0.13318017531E+02  0.38058644679E+00 -0.15845345082E+02  0.20702400779E+02  0.51100000000E-03 0.  1.
        -12    1    4    4    0    0 -0.16127762638E+02 -0.76916726510E+01 -0.65517501058E+01  0.19031342184E+02  0.00000000000E+00 0.  1.
</event>
<event>
 8    1  0.6046524E-010  0.9118800E+02  0.7816164E-02  0.1184000E+00
        -11   -1    0    0    0    0  0.00000000000E+00  0.00000000000E+00  0.45593999997E+02  0.45594000000E+02  0.51100000000E-03 0. -1.
         11   -1    0    0    0    0 -0.00000000000E+00 -0.00000000000E+00 -0.45593999997E+02  0.45594000000E+02  0.51100000000E-03 0.  1.
         23    2    1    2    0    0  0.17763568394E-14  0.00000000000E+00  0.00000000000E+00  0.91188000000E+02  0.91188000000E+02 0.  0.
    9900012    2    3    3    0    0  0.15676142879E+02 -0.34287943103E+01  0.40325242528E+02  0.47787271078E+02  0.20000000153E+02 0.  0.
        -12    1    3    3    0    0 -0.15676142879E+02  0.34287943103E+01 -0.40325242528E+02  0.43400728922E+02  0.00000000000E+00 0.  1.
         11    1    4    4    0    0  0.35356310778E+01  0.12703722784E+01  0.81917879189E+01  0.90122096299E+01  0.51100000000E-03 0. -1.
        -11    1    4    4    0    0  0.10205134166E+02 -0.58641165085E+01  0.73233369754E+01  0.13862319088E+02  0.51100000000E-03 0.  1.
        -12    1    4    4    0    0  0.19353776352E+01  0.11649499198E+01  0.24810117634E+02  0.24912742360E+02  0.00000000000E+00 0.  1.
</event>
<event>
 8    1  0.6046524E-010  0.9118800E+02  0.7816164E-02  0.1184000E+00
        -11   -1    0    0    0    0  0.00000000000E+00  0.00000000000E+00  0.45593999997E+02  0.45594000000E+02  0.51100000000E-03 0. -1.
         11   -1    0    0    0    0 -0.00000000000E+00 -0.00000000000E+00 -0.45593999997E+02  0.45594000000E+02  0.51100000000E-03 0.  1.
         23    2    1    2    0    0  0.71054273576E-14  0.12212453271E-14  0.00000000000E+00  0.91188000000E+02  0.91188000000E+02 0.  0.
    9900012    2    3    3    0    0 -0.43044042684E+02  0.64768553087E-01  0.55523960459E+01  0.47787275267E+02  0.20000019252E+02 0.  0.
         12    1    3    3    0    0  0.43044042684E+02 -0.64768553087E-01 -0.55523960459E+01  0.43400724733E+02  0.00000000000E+00 0. -1.
         11    1    4    4    0    0 -0.23823231973E+02 -0.93920330601E+01  0.47602456892E+01  0.26046431731E+02  0.51100000000E-03 0. -1.
        -11    1    4    4    0    0 -0.32905221800E+01  0.12658385221E+01 -0.11847732489E+01  0.37193509237E+01  0.51100000000E-03 0.  1.
         12    1    4    4    0    0 -0.15930288531E+02  0.81909630911E+01  0.19769236056E+01  0.18021492612E+02  0.00000000000E+00 0. -1.
</event>
<event>
 8    1  0.6046524E-010  0.9118800E+02  0.7816164E-02  0.1184000E+00
        -11   -1    0    0    0    0  0.00000000000E+00  0.00000000000E+00  0.45593999997E+02  0.45594000000E+02  0.51100000000E-03 0. -1.
         11   -1    0    0    0    0 -0.00000000000E+00 -0.00000000000E+00 -0.45593999997E+02  0.45594000000E+02  0.51100000000E-03 0.  1.
         23    2    1    2    0    0  0.00000000000E+00 -0.11102230246E-15  0.00000000000E+00  0.91188000000E+02  0.91188000000E+02 0.  0.
    9900012    2    3    3    0    0 -0.21958278697E+02 -0.51866616190E+00 -0.37432451476E+02  0.47787269114E+02  0.19999991199E+02 0.  0.
         12    1    3    3    0    0  0.21958278697E+02  0.51866616190E+00  0.37432451476E+02  0.43400730886E+02  0.00000000000E+00 0. -1.
         11    1    4    4    0    0 -0.79946950992E+01 -0.27610110994E+01 -0.50165996263E+01  0.98338499120E+01  0.51100000000E-03 0. -1.
        -11    1    4    4    0    0  0.14611231914E+01  0.38238787609E+01 -0.87527973939E+01  0.96627321311E+01  0.51100000000E-03 0.  1.
        -12    1    4    4    0    0 -0.15424706789E+02 -0.15815338234E+01 -0.23663054456E+02  0.28290687071E+02  0.00000000000E+00 0.  1.
</event>
<event>
 8    1  0.6046524E-010  0.9118800E+02  0.7816164E-02  0.1184000E+00
        -11   -1    0    0    0    0  0.00000000000E+00  0.00000000000E+00  0.45593999997E+02  0.45594000000E+02  0.51100000000E-03 0. -1.
         11   -1    0    0    0    0 -0.00000000000E+00 -0.00000000000E+00 -0.45593999997E+02  0.45594000000E+02  0.51100000000E-03 0.  1.
         23    2    1    2    0    0  0.00000000000E+00  0.00000000000E+00  0.00000000000E+00  0.91188000000E+02  0.91188000000E+02 0.  0.
    9900012    2    3    3    0    0 -0.15469355887E+02 -0.31679309456E+01  0.40426304362E+02  0.47787276015E+02  0.20000022665E+02 0.  0.
        -12    1    3    3    0    0  0.15469355887E+02  0.31679309456E+01 -0.40426304362E+02  0.43400723985E+02  0.00000000000E+00 0.  1.
         11    1    4    4    0    0 -0.10883538735E+02 -0.15879028810E+01  0.16349802697E+02  0.19705047563E+02  0.51100000000E-03 0. -1.
        -11    1    4    4    0    0  0.35341028769E+00 -0.19610351847E+01  0.22905237534E+02  0.22991747750E+02  0.51100000000E-03 0.  1.
        -12    1    4    4    0    0 -0.49392274393E+01  0.38100712006E+00  0.11712641304E+01  0.50904807029E+01  0.00000000000E+00 0.  1.
</event>
<event>
 8    1  0.6046524E-010  0.9118800E+02  0.7816164E-02  0.1184000E+00
        -11   -1    0    0    0    0  0.00000000000E+00  0.00000000000E+00  0.45593999997E+02  0.45594000000E+02  0.51100000000E-03 0. -1.
         11   -1    0    0    0    0 -0.00000000000E+00 -0.00000000000E+00 -0.45593999997E+02  0.45594000000E+02  0.51100000000E-03 0.  1.
         23    2    1    2    0    0  0.17763568394E-14  0.00000000000E+00  0.00000000000E+00  0.91188000000E+02  0.91188000000E+02 0.  0.
    9900012    2    3    3    0    0 -0.11039483230E+02 -0.15171045818E+02  0.39135566125E+02  0.47787270085E+02  0.19999995627E+02 0.  0.
        -12    1    3    3    0    0  0.11039483230E+02  0.15171045818E+02 -0.39135566125E+02  0.43400729915E+02  0.00000000000E+00 0.  1.
         11    1    4    4    0    0 -0.46755937811E+01 -0.12116384695E+02  0.18845621394E+02  0.22887232277E+02  0.51100000000E-03 0. -1.
        -11    1    4    4    0    0 -0.70461547000E+01 -0.45352729244E+01  0.55063060118E+01  0.10026784266E+02  0.51100000000E-03 0.  1.
        -12    1    4    4    0    0  0.68226525107E+00  0.14806118016E+01  0.14783638719E+02  0.14873253543E+02  0.00000000000E+00 0.  1.
</event>
<event>
 8    1  0.6046524E-010  0.9118800E+02  0.7816164E-02  0.1184000E+00
        -11   -1    0    0    0    0  0.00000000000E+00  0.00000000000E+00  0.45593999997E+02  0.45594000000E+02  0.51100000000E-03 0. -1.
         11   -1    0    0    0    0 -0.00000000000E+00 -0.00000000000E+00 -0.45593999997E+02  0.45594000000E+02  0.51100000000E-03 0.  1.
         23    2    1    2    0    0 -0.79797279895E-16  0.00000000000E+00  0.00000000000E+00  0.91188000000E+02  0.91188000000E+02 0.  0.
    9900012    2    3    3    0    0  0.16819503160E-01 -0.18406295533E+02 -0.39304339853E+02  0.47787272708E+02  0.20000007585E+02 0.  0.
         12    1    3    3    0    0 -0.16819503160E-01  0.18406295533E+02  0.39304339853E+02  0.43400727292E+02  0.00000000000E+00 0. -1.
         11    1    4    4    0    0 -0.20152968507E+01  0.75231682790E+00  0.67568606725E+00  0.22547624994E+01  0.51100000000E-03 0. -1.
        -11    1    4    4    0    0  0.17264554237E+01 -0.43917205318E+01 -0.20777712732E+02  0.21306834682E+02  0.51100000000E-03 0.  1.
         12    1    4    4    0    0  0.30566093015E+00 -0.14766891829E+02 -0.19202313189E+02  0.24225675526E+02  0.00000000000E+00 0. -1.
</event>
<event>
 8    1  0.6046524E-010  0.9118800E+02  0.7816164E-02  0.1184000E+00
        -11   -1    0    0    0    0  0.00000000000E+00  0.00000000000E+00  0.45593999997E+02  0.45594000000E+02  0.51100000000E-03 0. -1.
         11   -1    0    0    0    0 -0.00000000000E+00 -0.00000000000E+00 -0.45593999997E+02  0.45594000000E+02  0.51100000000E-03 0.  1.
         23    2    1    2    0    0  0.00000000000E+00 -0.35527136788E-14  0.00000000000E+00  0.91188000000E+02  0.91188000000E+02 0.  0.
    9900012    2    3    3    0    0  0.35876801210E+02  0.16501941562E+02 -0.18004560786E+02  0.47787272478E+02  0.20000006535E+02 0.  0.
         12    1    3    3    0    0 -0.35876801210E+02 -0.16501941562E+02  0.18004560786E+02  0.43400727522E+02  0.00000000000E+00 0. -1.
         11    1    4    4    0    0  0.11488247469E+02  0.12932783886E+02 -0.25128965489E+00  0.17300285423E+02  0.51100000000E-03 0. -1.
        -11    1    4    4    0    0  0.92306925948E+01  0.79360469788E+00 -0.52957346171E+01  0.10671471295E+02  0.51100000000E-03 0.  1.
         12    1    4    4    0    0  0.15157861145E+02  0.27755529786E+01 -0.12457536514E+02  0.19815515760E+02  0.00000000000E+00 0. -1.
</event>
<event>
 8    1  0.6213006E-010  0.9118800E+02  0.7816164E-02  0.1184000E+00
        -11   -1    0    0    0    0  0.00000000000E+00  0.00000000000E+00  0.45593999997E+02  0.45594000000E+02  0.51100000000E-03 0. -1.
         11   -1    0    0    0    0 -0.00000000000E+00 -0.00000000000E+00 -0.45593999997E+02  0.45594000000E+02  0.51100000000E-03 0.  1.
         23    2    1    2    0    0  0.88817841970E-15 -0.22204460493E-15  0.00000000000E+00  0.91188000000E+02  0.91188000000E+02 0.  0.
    9900012    2    3    3    0    0  0.52243532056E+01  0.73364905493E+00 -0.43078894671E+02  0.47787271049E+02  0.20000000022E+02 0.  0.
         12    1    3    3    0    0 -0.52243532056E+01 -0.73364905493E+00  0.43078894671E+02  0.43400728951E+02  0.00000000000E+00 0. -1.
         11    1    4    4    0    0 -0.25820155804E+01  0.25996054438E+01 -0.27938896990E+01  0.46076645746E+01  0.51100000000E-03 0. -1.
        -11    1    4    4    0    0  0.66624666970E+01  0.41571459646E+01 -0.31518182831E+02  0.32481782191E+02  0.51100000000E-03 0.  1.
         12    1    4    4    0    0  0.11439020890E+01 -0.60231023535E+01 -0.87668221408E+01  0.10697824283E+02  0.00000000000E+00 0. -1.
</event>
<event>
 8    1  0.6046524E-010  0.9118800E+02  0.7816164E-02  0.1184000E+00
        -11   -1    0    0    0    0  0.00000000000E+00  0.00000000000E+00  0.45593999997E+02  0.45594000000E+02  0.51100000000E-03 0. -1.
         11   -1    0    0    0    0 -0.00000000000E+00 -0.00000000000E+00 -0.45593999997E+02  0.45594000000E+02  0.51100000000E-03 0.  1.
         23    2    1    2    0    0  0.00000000000E+00  0.17763568394E-14  0.00000000000E+00  0.91188000000E+02  0.91188000000E+02 0.  0.
    9900012    2    3    3    0    0  0.12522658243E+02 -0.76330340804E+01  0.40847798474E+02  0.47787276286E+02  0.20000023897E+02 0.  0.
        -12    1    3    3    0    0 -0.12522658243E+02  0.76330340804E+01 -0.40847798474E+02  0.43400723714E+02  0.00000000000E+00 0.  1.
         11    1    4    4    0    0  0.13998757730E+02 -0.94233278326E+01  0.20114458740E+02  0.26255585617E+02  0.51100000000E-03 0. -1.
        -11    1    4    4    0    0  0.18049099558E+01  0.99888119003E+00  0.11861427620E+02  0.12039473786E+02  0.51100000000E-03 0.  1.
         12    1    4    4    0    0 -0.32810094426E+01  0.79141256217E+00  0.88719121140E+01  0.94922168835E+01  0.00000000000E+00 0. -1.
</event>
<event>
 8    1  0.6046524E-010  0.9118800E+02  0.7816164E-02  0.1184000E+00
        -11   -1    0    0    0    0  0.00000000000E+00  0.00000000000E+00  0.45593999997E+02  0.45594000000E+02  0.51100000000E-03 0. -1.
         11   -1    0    0    0    0 -0.00000000000E+00 -0.00000000000E+00 -0.45593999997E+02  0.45594000000E+02  0.51100000000E-03 0.  1.
         23    2    1    2    0    0  0.00000000000E+00  0.00000000000E+00  0.00000000000E+00  0.91188000000E+02  0.91188000000E+02 0.  0.
    9900012    2    3    3    0    0 -0.96499724229E+01 -0.20297069364E+02  0.37128562642E+02  0.47787272398E+02  0.20000006170E+02 0.  0.
        -12    1    3    3    0    0  0.96499724229E+01  0.20297069364E+02 -0.37128562642E+02  0.43400727602E+02  0.00000000000E+00 0.  1.
         11    1    4    4    0    0  0.24963138700E+00 -0.11054501568E+02  0.12813359469E+02  0.16924730482E+02  0.51100000000E-03 0. -1.
        -11    1    4    4    0    0 -0.45525108759E+01 -0.10115140523E+02  0.80137585606E+01  0.13684361498E+02  0.51100000000E-03 0.  1.
        -12    1    4    4    0    0 -0.53470929339E+01  0.87257272686E+00  0.16301444613E+02  0.17178180418E+02  0.00000000000E+00 0.  1.
</event>
<event>
 8    1  0.6046524E-010  0.9118800E+02  0.7816164E-02  0.1184000E+00
        -11   -1    0    0    0    0  0.00000000000E+00  0.00000000000E+00  0.45593999997E+02  0.45594000000E+02  0.51100000000E-03 0. -1.
         11   -1    0    0    0    0 -0.00000000000E+00 -0.00000000000E+00 -0.45593999997E+02  0.45594000000E+02  0.51100000000E-03 0.  1.
         23    2    1    2    0    0  0.00000000000E+00  0.44408920985E-15  0.00000000000E+00  0.91188000000E+02  0.91188000000E+02 0.  0.
    9900012    2    3    3    0    0  0.42980748151E+02 -0.27656945949E+01 -0.53506325499E+01  0.47787273660E+02  0.20000011924E+02 0.  0.
         12    1    3    3    0    0 -0.42980748151E+02  0.27656945949E+01  0.53506325499E+01  0.43400726340E+02  0.00000000000E+00 0. -1.
         11    1    4    4    0    0  0.12022958937E+02 -0.78752962983E+01  0.19017700093E+01  0.14497881321E+02  0.51100000000E-03 0. -1.
        -11    1    4    4    0    0  0.43048370877E+01 -0.22207143326E+01 -0.91275793007E+00  0.49291299231E+01  0.51100000000E-03 0.  1.
        -12    1    4    4    0    0  0.26652952126E+02  0.73303160360E+01 -0.63396446292E+01  0.28360262415E+02  0.00000000000E+00 0.  1.
</event>
<event>
 8    1  0.6046524E-010  0.9118800E+02  0.7816164E-02  0.1184000E+00
        -11   -1    0    0    0    0  0.00000000000E+00  0.00000000000E+00  0.45593999997E+02  0.45594000000E+02  0.51100000000E-03 0. -1.
         11   -1    0    0    0    0 -0.00000000000E+00 -0.00000000000E+00 -0.45593999997E+02  0.45594000000E+02  0.51100000000E-03 0.  1.
         23    2    1    2    0    0 -0.88817841970E-15  0.00000000000E+00  0.35527136788E-14  0.91188000000E+02  0.91188000000E+02 0.  0.
    9900012    2    3    3    0    0 -0.74247771520E+01 -0.40803017468E+02  0.12791024940E+02  0.47787264185E+02  0.19999968727E+02 0.  0.
        -12    1    3    3    0    0  0.74247771520E+01  0.40803017468E+02 -0.12791024940E+02  0.43400735815E+02  0.00000000000E+00 0.  1.
         11    1    4    4    0    0 -0.66997391501E-01 -0.63654082637E+01  0.44126982000E+01  0.77456321033E+01  0.51100000000E-03 0. -1.
        -11    1    4    4    0    0 -0.98356417167E+01 -0.12466634248E+02  0.83291881314E+01  0.17931318764E+02  0.51100000000E-03 0.  1.
         12    1    4    4    0    0  0.24778619562E+01 -0.21970974956E+02  0.49138608934E-01  0.22110313318E+02  0.00000000000E+00 0. -1.
</event>
<event>
 8    1  0.6046524E-010  0.9118800E+02  0.7816164E-02  0.1184000E+00
        -11   -1    0    0    0    0  0.00000000000E+00  0.00000000000E+00  0.45593999997E+02  0.45594000000E+02  0.51100000000E-03 0. -1.
         11   -1    0    0    0    0 -0.00000000000E+00 -0.00000000000E+00 -0.45593999997E+02  0.45594000000E+02  0.51100000000E-03 0.  1.
         23    2    1    2    0    0 -0.88817841970E-15  0.00000000000E+00  0.00000000000E+00  0.91188000000E+02  0.91188000000E+02 0.  0.
    9900012    2    3    3    0    0 -0.79616363567E+01  0.10675519226E+02 -0.41307008017E+02  0.47787271026E+02  0.19999999914E+02 0.  0.
         12    1    3    3    0    0  0.79616363567E+01 -0.10675519226E+02  0.41307008017E+02  0.43400728974E+02  0.00000000000E+00 0. -1.
         11    1    4    4    0    0 -0.16037180159E+01 -0.22502224664E+01 -0.21088673568E+01  0.34760227865E+01  0.51100000000E-03 0. -1.
        -11    1    4    4    0    0 -0.97535881836E+01  0.13195489004E+02 -0.26541580345E+02  0.31204308997E+02  0.51100000000E-03 0.  1.
        -12    1    4    4    0    0  0.33956698428E+01 -0.26974731153E+00 -0.12656560315E+02  0.13106939242E+02  0.00000000000E+00 0.  1.
</event>
<event>
 8    1  0.6046524E-010  0.9118800E+02  0.7816164E-02  0.1184000E+00
        -11   -1    0    0    0    0  0.00000000000E+00  0.00000000000E+00  0.45593999997E+02  0.45594000000E+02  0.51100000000E-03 0.  1.
         11   -1    0    0    0    0 -0.00000000000E+00 -0.00000000000E+00 -0.45593999997E+02  0.45594000000E+02  0.51100000000E-03 0. -1.
         23    2    1    2    0    0  0.00000000000E+00  0.00000000000E+00  0.00000000000E+00  0.91188000000E+02  0.91188000000E+02 0.  0.
    9900012    2    3    3    0    0  0.16025483277E+02 -0.38942217314E+02  0.10502919425E+02  0.47787265905E+02  0.19999976566E+02 0.  0.
        -12    1    3    3    0    0 -0.16025483277E+02  0.38942217314E+02 -0.10502919425E+02  0.43400734095E+02  0.00000000000E+00 0.  1.
         11    1    4    4    0    0  0.10728034356E+02 -0.11893466623E+02  0.55968138794E+01  0.16966720229E+02  0.51100000000E-03 0. -1.
        -11    1    4    4    0    0  0.92268525638E+01 -0.20452090184E+02  0.17052440747E+01  0.22501792345E+02  0.51100000000E-03 0.  1.
         12    1    4    4    0    0 -0.39294036430E+01 -0.65966605065E+01  0.32008614708E+01  0.83187533310E+01  0.00000000000E+00 0. -1.
</event>
<event>
 8    1  0.6046524E-010  0.9118800E+02  0.7816164E-02  0.1184000E+00
        -11   -1    0    0    0    0  0.00000000000E+00  0.00000000000E+00  0.45593999997E+02  0.45594000000E+02  0.51100000000E-03 0. -1.
         11   -1    0    0    0    0 -0.00000000000E+00 -0.00000000000E+00 -0.45593999997E+02  0.45594000000E+02  0.51100000000E-03 0.  1.
         23    2    1    2    0    0  0.00000000000E+00  0.00000000000E+00  0.00000000000E+00  0.91188000000E+02  0.91188000000E+02 0.  0.
    9900012    2    3    3    0    0 -0.51551591801E+01 -0.39346686218E+02  0.17575145378E+02  0.47787272845E+02  0.20000008210E+02 0.  0.
        -12    1    3    3    0    0  0.51551591801E+01  0.39346686218E+02 -0.17575145378E+02  0.43400727155E+02  0.00000000000E+00 0.  1.
         11    1    4    4    0    0  0.98518722436E+00 -0.11301305291E+01 -0.14788453159E+01  0.21058899804E+01  0.51100000000E-03 0. -1.
        -11    1    4    4    0    0 -0.97234888758E+01 -0.33873659766E+02  0.13402807181E+02  0.37704194759E+02  0.51100000000E-03 0.  1.
         12    1    4    4    0    0  0.35831424713E+01 -0.43428959230E+01  0.56511835135E+01  0.79771881056E+01  0.00000000000E+00 0. -1.
</event>
<event>
 8    1  0.6046524E-010  0.9118800E+02  0.7816164E-02  0.1184000E+00
        -11   -1    0    0    0    0  0.00000000000E+00  0.00000000000E+00  0.45593999997E+02  0.45594000000E+02  0.51100000000E-03 0. -1.
         11   -1    0    0    0    0 -0.00000000000E+00 -0.00000000000E+00 -0.45593999997E+02  0.45594000000E+02  0.51100000000E-03 0.  1.
         23    2    1    2    0    0  0.00000000000E+00 -0.71054273576E-14  0.35527136788E-14  0.91188000000E+02  0.91188000000E+02 0.  0.
    9900012    2    3    3    0    0 -0.95815071783E+01 -0.32966771345E+02  0.26552016871E+02  0.47787275436E+02  0.20000020024E+02 0.  0.
        -12    1    3    3    0    0  0.95815071783E+01  0.32966771345E+02 -0.26552016871E+02  0.43400724564E+02  0.00000000000E+00 0.  1.
         11    1    4    4    0    0 -0.17227738468E+01 -0.11505099970E+01  0.61485206713E+01  0.64881376132E+01  0.51100000000E-03 0. -1.
        -11    1    4    4    0    0 -0.35357186903E+01 -0.17636212100E+02  0.19377828854E+02  0.26439317980E+02  0.51100000000E-03 0.  1.
        -12    1    4    4    0    0 -0.43230146412E+01 -0.14180049248E+02  0.10256673457E+01  0.14859819843E+02  0.00000000000E+00 0.  1.
</event>
<event>
 8    1  0.6046524E-010  0.9118800E+02  0.7816164E-02  0.1184000E+00
        -11   -1    0    0    0    0  0.00000000000E+00  0.00000000000E+00  0.45593999997E+02  0.45594000000E+02  0.51100000000E-03 0. -1.
         11   -1    0    0    0    0 -0.00000000000E+00 -0.00000000000E+00 -0.45593999997E+02  0.45594000000E+02  0.51100000000E-03 0.  1.
         23    2    1    2    0    0  0.35527136788E-14  0.00000000000E+00  0.00000000000E+00  0.91188000000E+02  0.91188000000E+02 0.  0.
    9900012    2    3    3    0    0  0.31102916094E+02 -0.28769978762E+02 -0.94085124548E+01  0.47787272194E+02  0.20000005240E+02 0.  0.
         12    1    3    3    0    0 -0.31102916094E+02  0.28769978762E+02  0.94085124548E+01  0.43400727806E+02  0.00000000000E+00 0. -1.
         11    1    4    4    0    0  0.73988735313E+01 -0.19302162335E+02 -0.64605952406E+01  0.21657702821E+02  0.51100000000E-03 0. -1.
        -11    1    4    4    0    0  0.12150193337E+02 -0.72997068529E+01 -0.95689952786E+00  0.14206638422E+02  0.51100000000E-03 0.  1.
         12    1    4    4    0    0  0.11553849225E+02 -0.21681095736E+01 -0.19910176863E+01  0.11922930952E+02  0.00000000000E+00 0. -1.
</event>
<event>
 8    1  0.1105360E-009  0.9118800E+02  0.7816164E-02  0.1184000E+00
        -11   -1    0    0    0    0  0.00000000000E+00  0.00000000000E+00  0.45593999997E+02  0.45594000000E+02  0.51100000000E-03 0. -1.
         11   -1    0    0    0    0 -0.00000000000E+00 -0.00000000000E+00 -0.45593999997E+02  0.45594000000E+02  0.51100000000E-03 0.  1.
         23    2    1    2    0    0  0.22204460493E-15  0.26645352591E-14 -0.14210854715E-13  0.91188000000E+02  0.91188000000E+02 0.  0.
    9900012    2    3    3    0    0  0.14186243557E+01  0.76393969992E+01 -0.42699514203E+02  0.47787292693E+02  0.20000098703E+02 0.  0.
         12    1    3    3    0    0 -0.14186243557E+01 -0.76393969992E+01  0.42699514203E+02  0.43400707307E+02  0.00000000000E+00 0. -1.
         11    1    4    4    0    0 -0.52105339628E+01  0.13632938638E+01 -0.68437492837E+01  0.87089114622E+01  0.51100000000E-03 0. -1.
        -11    1    4    4    0    0  0.33954185563E+01  0.76386996839E+01 -0.34184286846E+02  0.35191534031E+02  0.51100000000E-03 0.  1.
         12    1    4    4    0    0  0.32337397622E+01 -0.13625965485E+01 -0.16714780737E+01  0.38868471997E+01  0.00000000000E+00 0. -1.
</event>
<event>
 8    1  0.6046524E-010  0.9118800E+02  0.7816164E-02  0.1184000E+00
        -11   -1    0    0    0    0  0.00000000000E+00  0.00000000000E+00  0.45593999997E+02  0.45594000000E+02  0.51100000000E-03 0. -1.
         11   -1    0    0    0    0 -0.00000000000E+00 -0.00000000000E+00 -0.45593999997E+02  0.45594000000E+02  0.51100000000E-03 0.  1.
         23    2    1    2    0    0 -0.35527136788E-14 -0.17763568394E-14  0.71054273576E-14  0.91188000000E+02  0.91188000000E+02 0.  0.
    9900012    2    3    3    0    0 -0.22118578170E+02 -0.12587123549E+02  0.35156174566E+02  0.47787265102E+02  0.19999972908E+02 0.  0.
        -12    1    3    3    0    0  0.22118578170E+02  0.12587123549E+02 -0.35156174566E+02  0.43400734898E+02  0.00000000000E+00 0.  1.
         11    1    4    4    0    0 -0.98640367598E+01 -0.25937461365E+01  0.27340133494E+02  0.29180638100E+02  0.51100000000E-03 0. -1.
        -11    1    4    4    0    0 -0.45854807438E+01 -0.25645068611E+01 -0.19615661006E+00  0.52575476003E+01  0.51100000000E-03 0.  1.
         12    1    4    4    0    0 -0.76690606665E+01 -0.74288705511E+01  0.80121976827E+01  0.13349079402E+02  0.00000000000E+00 0. -1.
</event>
<event>
 8    1  0.6046524E-010  0.9118800E+02  0.7816164E-02  0.1184000E+00
        -11   -1    0    0    0    0  0.00000000000E+00  0.00000000000E+00  0.45593999997E+02  0.45594000000E+02  0.51100000000E-03 0. -1.
         11   -1    0    0    0    0 -0.00000000000E+00 -0.00000000000E+00 -0.45593999997E+02  0.45594000000E+02  0.51100000000E-03 0.  1.
         23    2    1    2    0    0  0.00000000000E+00  0.00000000000E+00  0.00000000000E+00  0.91188000000E+02  0.91188000000E+02 0.  0.
    9900012    2    3    3    0    0 -0.27981811837E+02 -0.97429132962E+01  0.31713045940E+02  0.47787269177E+02  0.19999991487E+02 0.  0.
        -12    1    3    3    0    0  0.27981811837E+02  0.97429132962E+01 -0.31713045940E+02  0.43400730823E+02  0.00000000000E+00 0.  1.
         11    1    4    4    0    0 -0.10969988413E+02  0.13049200372E+01  0.13198820200E+02  0.17211981787E+02  0.51100000000E-03 0.  1.
        -11    1    4    4    0    0 -0.51680139978E+01 -0.63070873688E+01  0.15427504834E+02  0.17449803020E+02  0.51100000000E-03 0. -1.
        -12    1    4    4    0    0 -0.11843809426E+02 -0.47407459646E+01  0.30867209051E+01  0.13125484371E+02  0.00000000000E+00 0.  1.
</event>
<event>
 8    1  0.6046524E-010  0.9118800E+02  0.7816164E-02  0.1184000E+00
        -11   -1    0    0    0    0  0.00000000000E+00  0.00000000000E+00  0.45593999997E+02  0.45594000000E+02  0.51100000000E-03 0. -1.
         11   -1    0    0    0    0 -0.00000000000E+00 -0.00000000000E+00 -0.45593999997E+02  0.45594000000E+02  0.51100000000E-03 0.  1.
         23    2    1    2    0    0  0.00000000000E+00  0.17763568394E-14  0.00000000000E+00  0.91188000000E+02  0.91188000000E+02 0.  0.
    9900012    2    3    3    0    0  0.17750621754E+02 -0.12061508475E+02 -0.37723421568E+02  0.47787296157E+02  0.20000114496E+02 0.  0.
         12    1    3    3    0    0 -0.17750621754E+02  0.12061508475E+02  0.37723421568E+02  0.43400703843E+02  0.00000000000E+00 0. -1.
         11    1    4    4    0    0  0.36020119290E+01  0.26693210402E+01 -0.68164297029E+01  0.81586444283E+01  0.51100000000E-03 0.  1.
        -11    1    4    4    0    0  0.47757833402E+01 -0.45286475465E+00 -0.59225012623E+00  0.48336273617E+01  0.51100000000E-03 0. -1.
        -12    1    4    4    0    0  0.93728264845E+01 -0.14277964760E+02 -0.30314741739E+02  0.34795024367E+02  0.00000000000E+00 0.  1.
</event>
<event>
 8    1  0.6046524E-010  0.9118800E+02  0.7816164E-02  0.1184000E+00
        -11   -1    0    0    0    0  0.00000000000E+00  0.00000000000E+00  0.45593999997E+02  0.45594000000E+02  0.51100000000E-03 0. -1.
         11   -1    0    0    0    0 -0.00000000000E+00 -0.00000000000E+00 -0.45593999997E+02  0.45594000000E+02  0.51100000000E-03 0.  1.
         23    2    1    2    0    0 -0.22204460493E-15  0.00000000000E+00 -0.71054273576E-14  0.91188000000E+02  0.91188000000E+02 0.  0.
    9900012    2    3    3    0    0  0.74248973811E+00  0.44476180648E+01  0.43165850187E+02  0.47787271667E+02  0.20000002840E+02 0.  0.
        -12    1    3    3    0    0 -0.74248973811E+00 -0.44476180648E+01 -0.43165850187E+02  0.43400728333E+02  0.00000000000E+00 0.  1.
         11    1    4    4    0    0 -0.11306233953E+01 -0.99927528785E+00  0.18342753692E+01  0.23751687844E+01  0.51100000000E-03 0. -1.
        -11    1    4    4    0    0  0.15620548932E+01  0.20610215387E+01  0.41887129442E+02  0.41966885022E+02  0.51100000000E-03 0.  1.
        -12    1    4    4    0    0  0.31105824027E+00  0.33858718140E+01 -0.55555462468E+00  0.34452178611E+01  0.00000000000E+00 0.  1.
</event>
<event>
 8    1  0.6046524E-010  0.9118800E+02  0.7816164E-02  0.1184000E+00
        -11   -1    0    0    0    0  0.00000000000E+00  0.00000000000E+00  0.45593999997E+02  0.45594000000E+02  0.51100000000E-03 0. -1.
         11   -1    0    0    0    0 -0.00000000000E+00 -0.00000000000E+00 -0.45593999997E+02  0.45594000000E+02  0.51100000000E-03 0.  1.
         23    2    1    2    0    0  0.88817841970E-15  0.00000000000E+00  0.00000000000E+00  0.91188000000E+02  0.91188000000E+02 0.  0.
    9900012    2    3    3    0    0 -0.53088872712E+01 -0.21808280866E+02  0.37146175603E+02  0.47787265440E+02  0.19999974449E+02 0.  0.
        -12    1    3    3    0    0  0.53088872712E+01  0.21808280866E+02 -0.37146175603E+02  0.43400734560E+02  0.00000000000E+00 0.  1.
         11    1    4    4    0    0 -0.45326598511E+00 -0.41748175713E+01  0.89776987286E+01  0.99112878341E+01  0.51100000000E-03 0. -1.
        -11    1    4    4    0    0  0.37534584641E+01  0.16356391929E+01  0.32963611066E+01  0.52564020791E+01  0.51100000000E-03 0.  1.
         12    1    4    4    0    0 -0.86090797502E+01 -0.19269102488E+02  0.24872115768E+02  0.32619575527E+02  0.00000000000E+00 0. -1.
</event>
<event>
 8    1  0.6046524E-010  0.9118800E+02  0.7816164E-02  0.1184000E+00
        -11   -1    0    0    0    0  0.00000000000E+00  0.00000000000E+00  0.45593999997E+02  0.45594000000E+02  0.51100000000E-03 0. -1.
         11   -1    0    0    0    0 -0.00000000000E+00 -0.00000000000E+00 -0.45593999997E+02  0.45594000000E+02  0.51100000000E-03 0.  1.
         23    2    1    2    0    0  0.00000000000E+00  0.88817841970E-15  0.35527136788E-14  0.91188000000E+02  0.91188000000E+02 0.  0.
    9900012    2    3    3    0    0  0.35873201842E+02  0.63843656673E+01 -0.23579168005E+02  0.47787263840E+02  0.19999967154E+02 0.  0.
         12    1    3    3    0    0 -0.35873201842E+02 -0.63843656673E+01  0.23579168005E+02  0.43400736160E+02  0.00000000000E+00 0. -1.
         11    1    4    4    0    0  0.91218113153E+01 -0.20009807348E+01  0.73150120251E+00  0.93673080361E+01  0.51100000000E-03 0. -1.
        -11    1    4    4    0    0  0.11903336864E+01  0.27829218680E+01 -0.55445274064E+00  0.30771685867E+01  0.51100000000E-03 0.  1.
        -12    1    4    4    0    0  0.25561056840E+02  0.56024245341E+01 -0.23756216467E+02  0.35342787217E+02  0.00000000000E+00 0.  1.
</event>
<event>
 8    1  0.6046524E-010  0.9118800E+02  0.7816164E-02  0.1184000E+00
        -11   -1    0    0    0    0  0.00000000000E+00  0.00000000000E+00  0.45593999997E+02  0.45594000000E+02  0.51100000000E-03 0. -1.
         11   -1    0    0    0    0 -0.00000000000E+00 -0.00000000000E+00 -0.45593999997E+02  0.45594000000E+02  0.51100000000E-03 0.  1.
         23    2    1    2    0    0 -0.88817841970E-15 -0.17763568394E-14  0.00000000000E+00  0.91188000000E+02  0.91188000000E+02 0.  0.
    9900012    2    3    3    0    0  0.26497762324E+01 -0.96049140119E+01 -0.42241538197E+02  0.47787271475E+02  0.20000001964E+02 0.  0.
         12    1    3    3    0    0 -0.26497762324E+01  0.96049140119E+01  0.42241538197E+02  0.43400728525E+02  0.00000000000E+00 0. -1.
         11    1    4    4    0    0  0.56335550805E+01 -0.12240329442E+02 -0.30882369477E+02  0.33693966114E+02  0.51100000000E-03 0. -1.
        -11    1    4    4    0    0  0.18307329239E+01  0.13378339363E+01 -0.77991553925E+00  0.23978430285E+01  0.51100000000E-03 0.  1.
        -12    1    4    4    0    0 -0.48145117719E+01  0.12975814934E+01 -0.10579253180E+02  0.11695462333E+02  0.00000000000E+00 0.  1.
</event>
<event>
 8    1  0.6046524E-010  0.9118800E+02  0.7816164E-02  0.1184000E+00
        -11   -1    0    0    0    0  0.00000000000E+00  0.00000000000E+00  0.45593999997E+02  0.45594000000E+02  0.51100000000E-03 0.  1.
         11   -1    0    0    0    0 -0.00000000000E+00 -0.00000000000E+00 -0.45593999997E+02  0.45594000000E+02  0.51100000000E-03 0. -1.
         23    2    1    2    0    0  0.17763568394E-14  0.71054273576E-14  0.00000000000E+00  0.91188000000E+02  0.91188000000E+02 0.  0.
    9900012    2    3    3    0    0  0.13533402719E+02  0.36944539501E+02 -0.18318559135E+02  0.47787290364E+02  0.20000088088E+02 0.  0.
         12    1    3    3    0    0 -0.13533402719E+02 -0.36944539501E+02  0.18318559135E+02  0.43400709636E+02  0.00000000000E+00 0. -1.
         11    1    4    4    0    0  0.35441697783E+00  0.25566021804E+01  0.14368106427E+01  0.29540228820E+01  0.51100000000E-03 0. -1.
        -11    1    4    4    0    0  0.14625371928E+02  0.24474935792E+02 -0.19975314133E+02  0.34812887858E+02  0.51100000000E-03 0.  1.
        -12    1    4    4    0    0 -0.14463861865E+01  0.99130015281E+01  0.21994435500E+00  0.10020379624E+02  0.00000000000E+00 0.  1.
</event>
<event>
 8    1  0.6046524E-010  0.9118800E+02  0.7816164E-02  0.1184000E+00
        -11   -1    0    0    0    0  0.00000000000E+00  0.00000000000E+00  0.45593999997E+02  0.45594000000E+02  0.51100000000E-03 0. -1.
         11   -1    0    0    0    0 -0.00000000000E+00 -0.00000000000E+00 -0.45593999997E+02  0.45594000000E+02  0.51100000000E-03 0.  1.
         23    2    1    2    0    0  0.00000000000E+00  0.00000000000E+00  0.00000000000E+00  0.91188000000E+02  0.91188000000E+02 0.  0.
    9900012    2    3    3    0    0  0.79501084186E+01  0.26148951829E+02 -0.33714261181E+02  0.47787270598E+02  0.19999997966E+02 0.  0.
         12    1    3    3    0    0 -0.79501084186E+01 -0.26148951829E+02  0.33714261181E+02  0.43400729402E+02  0.00000000000E+00 0. -1.
         11    1    4    4    0    0  0.28941974470E+01 -0.14770151579E+01 -0.43678358951E+01  0.54438904569E+01  0.51100000000E-03 0. -1.
        -11    1    4    4    0    0 -0.34553266000E+01  0.10129808824E+02 -0.13643374680E+02  0.17340530028E+02  0.51100000000E-03 0.  1.
        -12    1    4    4    0    0  0.85112375716E+01  0.17496158164E+02 -0.15703050605E+02  0.25002850114E+02  0.00000000000E+00 0.  1.
</event>
<event>
 8    1  0.6046524E-010  0.9118800E+02  0.7816164E-02  0.1184000E+00
        -11   -1    0    0    0    0  0.00000000000E+00  0.00000000000E+00  0.45593999997E+02  0.45594000000E+02  0.51100000000E-03 0. -1.
         11   -1    0    0    0    0 -0.00000000000E+00 -0.00000000000E+00 -0.45593999997E+02  0.45594000000E+02  0.51100000000E-03 0.  1.
         23    2    1    2    0    0  0.00000000000E+00 -0.22204460493E-15 -0.71054273576E-14  0.91188000000E+02  0.91188000000E+02 0.  0.
    9900012    2    3    3    0    0  0.28306028084E+02  0.14151931564E+01 -0.32869276722E+02  0.47787270170E+02  0.19999996014E+02 0.  0.
         12    1    3    3    0    0 -0.28306028084E+02 -0.14151931564E+01  0.32869276722E+02  0.43400729830E+02  0.00000000000E+00 0. -1.
         11    1    4    4    0    0  0.83591799600E+01  0.18103464500E+01 -0.14746856490E+02  0.17047669063E+02  0.51100000000E-03 0.  1.
        -11    1    4    4    0    0  0.45673037632E+01 -0.67190617885E+01 -0.70965537806E+01  0.10787359770E+02  0.51100000000E-03 0. -1.
         12    1    4    4    0    0  0.15379544361E+02  0.63239084949E+01 -0.11025866451E+02  0.19952241338E+02  0.00000000000E+00 0. -1.
</event>
<event>
 8    1  0.6046524E-010  0.9118800E+02  0.7816164E-02  0.1184000E+00
        -11   -1    0    0    0    0  0.00000000000E+00  0.00000000000E+00  0.45593999997E+02  0.45594000000E+02  0.51100000000E-03 0. -1.
         11   -1    0    0    0    0 -0.00000000000E+00 -0.00000000000E+00 -0.45593999997E+02  0.45594000000E+02  0.51100000000E-03 0.  1.
         23    2    1    2    0    0  0.00000000000E+00  0.17763568394E-14  0.00000000000E+00  0.91188000000E+02  0.91188000000E+02 0.  0.
    9900012    2    3    3    0    0  0.14455160824E+02 -0.13826380251E+02 -0.38516273876E+02  0.47787264769E+02  0.19999971386E+02 0.  0.
         12    1    3    3    0    0 -0.14455160824E+02  0.13826380251E+02  0.38516273876E+02  0.43400735231E+02  0.00000000000E+00 0. -1.
         11    1    4    4    0    0  0.45426171750E+01 -0.14849130276E+02 -0.13736552067E+02  0.20732218976E+02  0.51100000000E-03 0. -1.
        -11    1    4    4    0    0  0.39146921061E+01 -0.15127800452E+01 -0.11985337743E+02  0.12698883369E+02  0.51100000000E-03 0.  1.
         12    1    4    4    0    0  0.59978515434E+01  0.25355300696E+01 -0.12794384067E+02  0.14356162423E+02  0.00000000000E+00 0. -1.
</event>
<event>
 8    1  0.6046524E-010  0.9118800E+02  0.7816164E-02  0.1184000E+00
        -11   -1    0    0    0    0  0.00000000000E+00  0.00000000000E+00  0.45593999997E+02  0.45594000000E+02  0.51100000000E-03 0. -1.
         11   -1    0    0    0    0 -0.00000000000E+00 -0.00000000000E+00 -0.45593999997E+02  0.45594000000E+02  0.51100000000E-03 0.  1.
         23    2    1    2    0    0  0.17763568394E-14  0.88817841970E-15  0.00000000000E+00  0.91188000000E+02  0.91188000000E+02 0.  0.
    9900012    2    3    3    0    0  0.13562323395E+02  0.47932202476E+01 -0.40947676341E+02  0.47787265283E+02  0.19999973731E+02 0.  0.
         12    1    3    3    0    0 -0.13562323395E+02 -0.47932202476E+01  0.40947676341E+02  0.43400734717E+02  0.00000000000E+00 0. -1.
         11    1    4    4    0    0 -0.81829285251E+00  0.90110111084E+00 -0.16021695465E+02  0.16067865827E+02  0.51100000000E-03 0. -1.
        -11    1    4    4    0    0  0.28253001577E+01 -0.19893333084E+01  0.18304490188E+00  0.34602418543E+01  0.51100000000E-03 0.  1.
        -12    1    4    4    0    0  0.11555316090E+02  0.58814524452E+01 -0.25109025778E+02  0.28259157601E+02  0.00000000000E+00 0.  1.
</event>
<event>
 8    1  0.6046524E-010  0.9118800E+02  0.7816164E-02  0.1184000E+00
        -11   -1    0    0    0    0  0.00000000000E+00  0.00000000000E+00  0.45593999997E+02  0.45594000000E+02  0.51100000000E-03 0.  1.
         11   -1    0    0    0    0 -0.00000000000E+00 -0.00000000000E+00 -0.45593999997E+02  0.45594000000E+02  0.51100000000E-03 0. -1.
         23    2    1    2    0    0 -0.35527136788E-14  0.00000000000E+00  0.00000000000E+00  0.91188000000E+02  0.91188000000E+02 0.  0.
    9900012    2    3    3    0    0  0.30976079604E+02 -0.22775340234E+02 -0.20134282998E+02  0.47787274404E+02  0.20000015320E+02 0.  0.
         12    1    3    3    0    0 -0.30976079604E+02  0.22775340234E+02  0.20134282998E+02  0.43400725596E+02  0.00000000000E+00 0. -1.
         11    1    4    4    0    0  0.26029132319E+01  0.13922380337E+01 -0.29587430683E+01  0.41794311623E+01  0.51100000000E-03 0. -1.
        -11    1    4    4    0    0  0.16906038870E+01 -0.13605725043E+01 -0.66002459106E+01  0.69478446574E+01  0.51100000000E-03 0.  1.
        -12    1    4    4    0    0  0.26682562485E+02 -0.22807005763E+02 -0.10575294019E+02  0.36659998585E+02  0.00000000000E+00 0.  1.
</event>
<event>
 8    1  0.6046524E-010  0.9118800E+02  0.7816164E-02  0.1184000E+00
        -11   -1    0    0    0    0  0.00000000000E+00  0.00000000000E+00  0.45593999997E+02  0.45594000000E+02  0.51100000000E-03 0. -1.
         11   -1    0    0    0    0 -0.00000000000E+00 -0.00000000000E+00 -0.45593999997E+02  0.45594000000E+02  0.51100000000E-03 0.  1.
         23    2    1    2    0    0 -0.35527136788E-14  0.00000000000E+00  0.71054273576E-14  0.91188000000E+02  0.91188000000E+02 0.  0.
    9900012    2    3    3    0    0 -0.18177206369E+02 -0.22556922116E+02 -0.32317063044E+02  0.47787330299E+02  0.20000270162E+02 0.  0.
         12    1    3    3    0    0  0.18177206369E+02  0.22556922116E+02  0.32317063044E+02  0.43400669701E+02  0.00000000000E+00 0. -1.
         11    1    4    4    0    0 -0.62647544547E+00  0.14268346346E+01 -0.41466950358E+01  0.44298316604E+01  0.51100000000E-03 0. -1.
        -11    1    4    4    0    0  0.21482495062E+01 -0.15648489483E+01 -0.46633114039E+01  0.53675135474E+01  0.51100000000E-03 0.  1.
        -12    1    4    4    0    0 -0.19698980429E+02 -0.22418907803E+02 -0.23507056604E+02  0.37989985091E+02  0.00000000000E+00 0.  1.
</event>
<event>
 8    1  0.6046524E-010  0.9118800E+02  0.7816164E-02  0.1184000E+00
        -11   -1    0    0    0    0  0.00000000000E+00  0.00000000000E+00  0.45593999997E+02  0.45594000000E+02  0.51100000000E-03 0. -1.
         11   -1    0    0    0    0 -0.00000000000E+00 -0.00000000000E+00 -0.45593999997E+02  0.45594000000E+02  0.51100000000E-03 0.  1.
         23    2    1    2    0    0 -0.17763568394E-14  0.00000000000E+00  0.71054273576E-14  0.91188000000E+02  0.91188000000E+02 0.  0.
    9900012    2    3    3    0    0 -0.11685363201E+02  0.23966930307E+02  0.34244153854E+02  0.47787268040E+02  0.19999986303E+02 0.  0.
        -12    1    3    3    0    0  0.11685363201E+02 -0.23966930307E+02 -0.34244153854E+02  0.43400731960E+02  0.00000000000E+00 0.  1.
         11    1    4    4    0    0 -0.50569800001E+01  0.10102317581E+02  0.46271902526E+01  0.12208224978E+02  0.51100000000E-03 0. -1.
        -11    1    4    4    0    0 -0.10245001906E+02  0.11406139109E+02  0.23524449531E+02  0.28079526339E+02  0.51100000000E-03 0.  1.
        -12    1    4    4    0    0  0.36166187049E+01  0.24584736168E+01  0.60925140699E+01  0.74995167226E+01  0.00000000000E+00 0.  1.
</event>
<event>
 8    1  0.6046524E-010  0.9118800E+02  0.7816164E-02  0.1184000E+00
        -11   -1    0    0    0    0  0.00000000000E+00  0.00000000000E+00  0.45593999997E+02  0.45594000000E+02  0.51100000000E-03 0.  1.
         11   -1    0    0    0    0 -0.00000000000E+00 -0.00000000000E+00 -0.45593999997E+02  0.45594000000E+02  0.51100000000E-03 0. -1.
         23    2    1    2    0    0  0.00000000000E+00  0.00000000000E+00  0.88817841970E-15  0.91188000000E+02  0.91188000000E+02 0.  0.
    9900012    2    3    3    0    0 -0.28276169570E+02 -0.32640750754E+02  0.43200781729E+01  0.47787269007E+02  0.19999990709E+02 0.  0.
        -12    1    3    3    0    0  0.28276169570E+02  0.32640750754E+02 -0.43200781729E+01  0.43400730993E+02  0.00000000000E+00 0.  1.
         11    1    4    4    0    0 -0.22100862801E+02 -0.23091216461E+02  0.10484618589E+02  0.33638960171E+02  0.51100000000E-03 0. -1.
        -11    1    4    4    0    0 -0.16658660206E+00  0.66393670070E+00  0.17870314420E+00  0.70745891286E+00  0.51100000000E-03 0.  1.
         12    1    4    4    0    0 -0.60087201675E+01 -0.10213470993E+02 -0.63432435598E+01  0.13440849923E+02  0.00000000000E+00 0. -1.
</event>
<event>
 8    1  0.6046524E-010  0.9118800E+02  0.7816164E-02  0.1184000E+00
        -11   -1    0    0    0    0  0.00000000000E+00  0.00000000000E+00  0.45593999997E+02  0.45594000000E+02  0.51100000000E-03 0.  1.
         11   -1    0    0    0    0 -0.00000000000E+00 -0.00000000000E+00 -0.45593999997E+02  0.45594000000E+02  0.51100000000E-03 0. -1.
         23    2    1    2    0    0 -0.35527136788E-14  0.00000000000E+00  0.00000000000E+00  0.91188000000E+02  0.91188000000E+02 0.  0.
    9900012    2    3    3    0    0  0.31164452447E+02  0.21193216393E+02 -0.21523188568E+02  0.47787272315E+02  0.20000005795E+02 0.  0.
         12    1    3    3    0    0 -0.31164452447E+02 -0.21193216393E+02  0.21523188568E+02  0.43400727685E+02  0.00000000000E+00 0. -1.
         11    1    4    4    0    0  0.77159740942E+00 -0.49990271995E+00  0.14660156180E+00  0.93099815826E+00  0.51100000000E-03 0. -1.
        -11    1    4    4    0    0  0.21309137470E+02  0.40465578475E+01 -0.11747377225E+02  0.24666877428E+02  0.51100000000E-03 0.  1.
         12    1    4    4    0    0  0.90837175676E+01  0.17646561265E+02 -0.99224129048E+01  0.22189396729E+02  0.00000000000E+00 0. -1.
</event>
<event>
 8    1  0.6046524E-010  0.9118800E+02  0.7816164E-02  0.1184000E+00
        -11   -1    0    0    0    0  0.00000000000E+00  0.00000000000E+00  0.45593999997E+02  0.45594000000E+02  0.51100000000E-03 0. -1.
         11   -1    0    0    0    0 -0.00000000000E+00 -0.00000000000E+00 -0.45593999997E+02  0.45594000000E+02  0.51100000000E-03 0.  1.
         23    2    1    2    0    0  0.88817841970E-15  0.13877787808E-16  0.00000000000E+00  0.91188000000E+02  0.91188000000E+02 0.  0.
    9900012    2    3    3    0    0  0.73181363752E+01  0.59763636330E-01  0.42779259049E+02  0.47787266176E+02  0.19999977803E+02 0.  0.
        -12    1    3    3    0    0 -0.73181363752E+01 -0.59763636330E-01 -0.42779259049E+02  0.43400733824E+02  0.00000000000E+00 0.  1.
         11    1    4    4    0    0  0.88093732755E+01  0.12849248949E+01  0.23625467621E+02  0.25247154494E+02  0.51100000000E-03 0. -1.
        -11    1    4    4    0    0  0.11511923446E+01 -0.13401957564E+01 -0.11217577216E+01  0.20927754602E+01  0.51100000000E-03 0.  1.
        -12    1    4    4    0    0 -0.26424292450E+01  0.11503449784E+00  0.20275549149E+02  0.20447336222E+02  0.00000000000E+00 0.  1.
</event>
<event>
 8    1  0.6046524E-010  0.9118800E+02  0.7816164E-02  0.1184000E+00
        -11   -1    0    0    0    0  0.00000000000E+00  0.00000000000E+00  0.45593999997E+02  0.45594000000E+02  0.51100000000E-03 0. -1.
         11   -1    0    0    0    0 -0.00000000000E+00 -0.00000000000E+00 -0.45593999997E+02  0.45594000000E+02  0.51100000000E-03 0.  1.
         23    2    1    2    0    0  0.44408920985E-15  0.88817841970E-15  0.00000000000E+00  0.91188000000E+02  0.91188000000E+02 0.  0.
    9900012    2    3    3    0    0 -0.24225531789E+01  0.75088900875E+01 -0.42677524297E+02  0.47787271038E+02  0.19999999972E+02 0.  0.
         12    1    3    3    0    0  0.24225531789E+01 -0.75088900875E+01  0.42677524297E+02  0.43400728962E+02  0.00000000000E+00 0. -1.
         11    1    4    4    0    0  0.33554439726E+01  0.41605130455E+01 -0.10261757000E+02  0.11570329729E+02  0.51100000000E-03 0. -1.
        -11    1    4    4    0    0 -0.77667327811E+01  0.61547679093E+01 -0.30914514477E+02  0.32463987921E+02  0.51100000000E-03 0.  1.
         12    1    4    4    0    0  0.19887356296E+01 -0.28063908673E+01 -0.15012528203E+01  0.37529533883E+01  0.00000000000E+00 0. -1.
</event>
<event>
 8    1  0.6046524E-010  0.9118800E+02  0.7816164E-02  0.1184000E+00
        -11   -1    0    0    0    0  0.00000000000E+00  0.00000000000E+00  0.45593999997E+02  0.45594000000E+02  0.51100000000E-03 0. -1.
         11   -1    0    0    0    0 -0.00000000000E+00 -0.00000000000E+00 -0.45593999997E+02  0.45594000000E+02  0.51100000000E-03 0.  1.
         23    2    1    2    0    0  0.00000000000E+00 -0.17763568394E-14  0.00000000000E+00  0.91188000000E+02  0.91188000000E+02 0.  0.
    9900012    2    3    3    0    0 -0.36188677267E+02 -0.90847889382E+01 -0.22169112061E+02  0.47787270951E+02  0.19999999576E+02 0.  0.
         12    1    3    3    0    0  0.36188677267E+02  0.90847889382E+01  0.22169112061E+02  0.43400729049E+02  0.00000000000E+00 0. -1.
         11    1    4    4    0    0 -0.18264438648E+02 -0.34902462728E+01 -0.70643735286E+01  0.19891629189E+02  0.51100000000E-03 0.  1.
        -11    1    4    4    0    0 -0.63109764330E+01  0.47425296738E+01 -0.54858101474E+01  0.96132265385E+01  0.51100000000E-03 0. -1.
         12    1    4    4    0    0 -0.11613262185E+02 -0.10337072339E+02 -0.96189283851E+01  0.18282415224E+02  0.00000000000E+00 0. -1.
</event>
<event>
 8    1  0.6046524E-010  0.9118800E+02  0.7816164E-02  0.1184000E+00
        -11   -1    0    0    0    0  0.00000000000E+00  0.00000000000E+00  0.45593999997E+02  0.45594000000E+02  0.51100000000E-03 0. -1.
         11   -1    0    0    0    0 -0.00000000000E+00 -0.00000000000E+00 -0.45593999997E+02  0.45594000000E+02  0.51100000000E-03 0.  1.
         23    2    1    2    0    0  0.22204460493E-14  0.00000000000E+00  0.00000000000E+00  0.91188000000E+02  0.91188000000E+02 0.  0.
    9900012    2    3    3    0    0 -0.35971923705E+01  0.18453318333E+01  0.43212016061E+02  0.47787269885E+02  0.19999994712E+02 0.  0.
        -12    1    3    3    0    0  0.35971923705E+01 -0.18453318333E+01 -0.43212016061E+02  0.43400730115E+02  0.00000000000E+00 0.  1.
         11    1    4    4    0    0  0.24490175919E+01  0.17512283691E+01  0.17798596051E+01  0.34974831581E+01  0.51100000000E-03 0. -1.
        -11    1    4    4    0    0  0.42556988887E+01 -0.15823371138E+01  0.72939552365E+01  0.85916556627E+01  0.51100000000E-03 0.  1.
         12    1    4    4    0    0 -0.10301908851E+02  0.16764405779E+01  0.34138201219E+02  0.35698131064E+02  0.00000000000E+00 0. -1.
</event>
<event>
 8    1  0.6046524E-010  0.9118800E+02  0.7816164E-02  0.1184000E+00
        -11   -1    0    0    0    0  0.00000000000E+00  0.00000000000E+00  0.45593999997E+02  0.45594000000E+02  0.51100000000E-03 0.  1.
         11   -1    0    0    0    0 -0.00000000000E+00 -0.00000000000E+00 -0.45593999997E+02  0.45594000000E+02  0.51100000000E-03 0. -1.
         23    2    1    2    0    0  0.00000000000E+00 -0.71054273576E-14  0.00000000000E+00  0.91188000000E+02  0.91188000000E+02 0.  0.
    9900012    2    3    3    0    0 -0.20122602308E+02 -0.36030658368E+02 -0.13434877939E+02  0.47787269462E+02  0.19999992783E+02 0.  0.
         12    1    3    3    0    0  0.20122602308E+02  0.36030658368E+02  0.13434877939E+02  0.43400730538E+02  0.00000000000E+00 0. -1.
         11    1    4    4    0    0 -0.99820058823E+01 -0.10096108671E+02 -0.10190729280E+02  0.17476350170E+02  0.51100000000E-03 0. -1.
        -11    1    4    4    0    0 -0.10275493859E+02 -0.24350997653E+02 -0.60247266106E+01  0.27108194181E+02  0.51100000000E-03 0.  1.
        -12    1    4    4    0    0  0.13489743381E+00 -0.15835520433E+01  0.27805779518E+01  0.32027251111E+01  0.00000000000E+00 0.  1.
</event>
<event>
 8    1  0.6046524E-010  0.9118800E+02  0.7816164E-02  0.1184000E+00
        -11   -1    0    0    0    0  0.00000000000E+00  0.00000000000E+00  0.45593999997E+02  0.45594000000E+02  0.51100000000E-03 0. -1.
         11   -1    0    0    0    0 -0.00000000000E+00 -0.00000000000E+00 -0.45593999997E+02  0.45594000000E+02  0.51100000000E-03 0.  1.
         23    2    1    2    0    0  0.00000000000E+00  0.00000000000E+00  0.00000000000E+00  0.91188000000E+02  0.91188000000E+02 0.  0.
    9900012    2    3    3    0    0  0.14183679127E+02  0.21003224344E+02  0.35232250546E+02  0.47787266539E+02  0.19999979457E+02 0.  0.
        -12    1    3    3    0    0 -0.14183679127E+02 -0.21003224344E+02 -0.35232250546E+02  0.43400733461E+02  0.00000000000E+00 0.  1.
         11    1    4    4    0    0  0.82410298108E+01  0.12978415428E+02  0.14930419453E+02  0.21430615126E+02  0.51100000000E-03 0. -1.
        -11    1    4    4    0    0  0.50338846305E+01  0.75602032476E+01  0.38366147184E+01  0.98598316607E+01  0.51100000000E-03 0.  1.
        -12    1    4    4    0    0  0.90876468585E+00  0.46460566893E+00  0.16465216375E+02  0.16496819752E+02  0.00000000000E+00 0.  1.
</event>
<event>
 8    1  0.6046524E-010  0.9118800E+02  0.7816164E-02  0.1184000E+00
        -11   -1    0    0    0    0  0.00000000000E+00  0.00000000000E+00  0.45593999997E+02  0.45594000000E+02  0.51100000000E-03 0.  1.
         11   -1    0    0    0    0 -0.00000000000E+00 -0.00000000000E+00 -0.45593999997E+02  0.45594000000E+02  0.51100000000E-03 0. -1.
         23    2    1    2    0    0  0.00000000000E+00 -0.17763568394E-14  0.35527136788E-14  0.91188000000E+02  0.91188000000E+02 0.  0.
    9900012    2    3    3    0    0  0.39292382303E+02  0.15140613232E+02 -0.10511649565E+02  0.47787259768E+02  0.19999948587E+02 0.  0.
         12    1    3    3    0    0 -0.39292382303E+02 -0.15140613232E+02  0.10511649565E+02  0.43400740232E+02  0.00000000000E+00 0. -1.
         11    1    4    4    0    0  0.11534971374E+01 -0.43686412203E+00 -0.27606005556E+01  0.30236272250E+01  0.51100000000E-03 0. -1.
        -11    1    4    4    0    0  0.37413095230E+02  0.13860791194E+02 -0.10670131781E+02  0.41300277720E+02  0.51100000000E-03 0.  1.
        -12    1    4    4    0    0  0.72578993541E+00  0.17166861603E+01  0.29190827721E+01  0.34633548235E+01  0.00000000000E+00 0.  1.
</event>
<event>
 8    1  0.6046524E-010  0.9118800E+02  0.7816164E-02  0.1184000E+00
        -11   -1    0    0    0    0  0.00000000000E+00  0.00000000000E+00  0.45593999997E+02  0.45594000000E+02  0.51100000000E-03 0. -1.
         11   -1    0    0    0    0 -0.00000000000E+00 -0.00000000000E+00 -0.45593999997E+02  0.45594000000E+02  0.51100000000E-03 0.  1.
         23    2    1    2    0    0  0.13322676296E-14  0.00000000000E+00  0.00000000000E+00  0.91188000000E+02  0.91188000000E+02 0.  0.
    9900012    2    3    3    0    0 -0.28203108463E+01 -0.73685142507E+01  0.42677561020E+02  0.47787269935E+02  0.19999994942E+02 0.  0.
        -12    1    3    3    0    0  0.28203108463E+01  0.73685142507E+01 -0.42677561020E+02  0.43400730065E+02  0.00000000000E+00 0.  1.
         11    1    4    4    0    0  0.93839240124E+00  0.68291764848E+00 -0.60872121811E-01  0.11621800590E+01  0.51100000000E-03 0.  1.
        -11    1    4    4    0    0 -0.89498446210E+01 -0.95816976522E+01  0.27806647220E+02  0.30742776038E+02  0.51100000000E-03 0. -1.
         12    1    4    4    0    0  0.51911413735E+01  0.15302657531E+01  0.14931785922E+02  0.15882313838E+02  0.00000000000E+00 0. -1.
</event>
<event>
 8    1  0.6046524E-010  0.9118800E+02  0.7816164E-02  0.1184000E+00
        -11   -1    0    0    0    0  0.00000000000E+00  0.00000000000E+00  0.45593999997E+02  0.45594000000E+02  0.51100000000E-03 0. -1.
         11   -1    0    0    0    0 -0.00000000000E+00 -0.00000000000E+00 -0.45593999997E+02  0.45594000000E+02  0.51100000000E-03 0.  1.
         23    2    1    2    0    0  0.00000000000E+00  0.71054273576E-14  0.00000000000E+00  0.91188000000E+02  0.91188000000E+02 0.  0.
    9900012    2    3    3    0    0 -0.61788900581E+01  0.32847981030E+02  0.27684867118E+02  0.47787304067E+02  0.20000150564E+02 0.  0.
        -12    1    3    3    0    0  0.61788900581E+01 -0.32847981030E+02 -0.27684867118E+02  0.43400695933E+02  0.00000000000E+00 0.  1.
         11    1    4    4    0    0 -0.24859786844E+01  0.13823566289E+02  0.15312061537E+02  0.20778120794E+02  0.51100000000E-03 0. -1.
        -11    1    4    4    0    0 -0.13896181407E+01  0.16337527385E+00 -0.25097550389E+01  0.28734301233E+01  0.51100000000E-03 0.  1.
        -12    1    4    4    0    0 -0.23032932330E+01  0.18861039467E+02  0.14882560619E+02  0.24135753150E+02  0.00000000000E+00 0.  1.
</event>
<event>
 8    1  0.6046524E-010  0.9118800E+02  0.7816164E-02  0.1184000E+00
        -11   -1    0    0    0    0  0.00000000000E+00  0.00000000000E+00  0.45593999997E+02  0.45594000000E+02  0.51100000000E-03 0. -1.
         11   -1    0    0    0    0 -0.00000000000E+00 -0.00000000000E+00 -0.45593999997E+02  0.45594000000E+02  0.51100000000E-03 0.  1.
         23    2    1    2    0    0  0.00000000000E+00  0.00000000000E+00  0.00000000000E+00  0.91188000000E+02  0.91188000000E+02 0.  0.
    9900012    2    3    3    0    0 -0.15503803689E+02  0.26706436758E+02  0.30496255210E+02  0.47787271032E+02  0.19999999943E+02 0.  0.
        -12    1    3    3    0    0  0.15503803689E+02 -0.26706436758E+02 -0.30496255210E+02  0.43400728968E+02  0.00000000000E+00 0.  1.
         11    1    4    4    0    0 -0.43092589380E+01  0.12201745897E+02  0.15145853939E+02  0.19921074452E+02  0.51100000000E-03 0. -1.
        -11    1    4    4    0    0 -0.43516162696E+01  0.34171049736E+01  0.13647196478E+02  0.14726138072E+02  0.51100000000E-03 0.  1.
         12    1    4    4    0    0 -0.68429284812E+01  0.11087585887E+02  0.17032047933E+01  0.13140058507E+02  0.00000000000E+00 0. -1.
</event>
<event>
 8    1  0.6046524E-010  0.9118800E+02  0.7816164E-02  0.1184000E+00
        -11   -1    0    0    0    0  0.00000000000E+00  0.00000000000E+00  0.45593999997E+02  0.45594000000E+02  0.51100000000E-03 0.  1.
         11   -1    0    0    0    0 -0.00000000000E+00 -0.00000000000E+00 -0.45593999997E+02  0.45594000000E+02  0.51100000000E-03 0. -1.
         23    2    1    2    0    0  0.35527136788E-14  0.00000000000E+00  0.00000000000E+00  0.91188000000E+02  0.91188000000E+02 0.  0.
    9900012    2    3    3    0    0 -0.16826841585E+02 -0.39696142500E+02  0.49696416344E+01  0.47787266538E+02  0.19999979453E+02 0.  0.
         12    1    3    3    0    0  0.16826841585E+02  0.39696142500E+02 -0.49696416344E+01  0.43400733462E+02  0.00000000000E+00 0. -1.
         11    1    4    4    0    0 -0.37959721214E+01 -0.11374279716E+02  0.89646928664E+00  0.12024445968E+02  0.51100000000E-03 0. -1.
        -11    1    4    4    0    0 -0.13014655493E+02 -0.18569456846E+02  0.95188667909E+01  0.24592982950E+02  0.51100000000E-03 0.  1.
         12    1    4    4    0    0 -0.16213970168E-01 -0.97524059381E+01 -0.54456944431E+01  0.11169837619E+02  0.00000000000E+00 0. -1.
</event>
<event>
 8    1  0.6046524E-010  0.9118800E+02  0.7816164E-02  0.1184000E+00
        -11   -1    0    0    0    0  0.00000000000E+00  0.00000000000E+00  0.45593999997E+02  0.45594000000E+02  0.51100000000E-03 0. -1.
         11   -1    0    0    0    0 -0.00000000000E+00 -0.00000000000E+00 -0.45593999997E+02  0.45594000000E+02  0.51100000000E-03 0.  1.
         23    2    1    2    0    0 -0.35527136788E-14  0.00000000000E+00  0.00000000000E+00  0.91188000000E+02  0.91188000000E+02 0.  0.
    9900012    2    3    3    0    0  0.23438302890E+02 -0.15551297426E+02  0.33051872741E+02  0.47787272060E+02  0.20000004632E+02 0.  0.
        -12    1    3    3    0    0 -0.23438302890E+02  0.15551297426E+02 -0.33051872741E+02  0.43400727940E+02  0.00000000000E+00 0.  1.
         11    1    4    4    0    0  0.45675350526E+01 -0.10431329579E+02  0.64004690166E+01  0.13062963566E+02  0.51100000000E-03 0.  1.
        -11    1    4    4    0    0  0.97082228929E+01 -0.66641847706E+01  0.20303755554E+02  0.23471332306E+02  0.51100000000E-03 0. -1.
        -12    1    4    4    0    0  0.91625449448E+01  0.15442169242E+01  0.63476481709E+01  0.11252976188E+02  0.00000000000E+00 0.  1.
</event>
<event>
 8    1  0.6046524E-010  0.9118800E+02  0.7816164E-02  0.1184000E+00
        -11   -1    0    0    0    0  0.00000000000E+00  0.00000000000E+00  0.45593999997E+02  0.45594000000E+02  0.51100000000E-03 0. -1.
         11   -1    0    0    0    0 -0.00000000000E+00 -0.00000000000E+00 -0.45593999997E+02  0.45594000000E+02  0.51100000000E-03 0.  1.
         23    2    1    2    0    0  0.00000000000E+00  0.00000000000E+00 -0.71054273576E-14  0.91188000000E+02  0.91188000000E+02 0.  0.
    9900012    2    3    3    0    0 -0.12457186320E+02  0.83856554694E+01 -0.40720053376E+02  0.47787268951E+02  0.19999990454E+02 0.  0.
         12    1    3    3    0    0  0.12457186320E+02 -0.83856554694E+01  0.40720053376E+02  0.43400731049E+02  0.00000000000E+00 0. -1.
         11    1    4    4    0    0  0.17901172907E+01  0.36706060358E+01 -0.36976393025E+01  0.55091201890E+01  0.51100000000E-03 0. -1.
        -11    1    4    4    0    0 -0.11095929502E+02  0.90422901872E+01 -0.31433897721E+02  0.34539435281E+02  0.51100000000E-03 0.  1.
        -12    1    4    4    0    0 -0.31513741094E+01 -0.43272407535E+01 -0.55885163529E+01  0.77387134811E+01  0.00000000000E+00 0.  1.
</event>
<event>
 8    1  0.6046524E-010  0.9118800E+02  0.7816164E-02  0.1184000E+00
        -11   -1    0    0    0    0  0.00000000000E+00  0.00000000000E+00  0.45593999997E+02  0.45594000000E+02  0.51100000000E-03 0. -1.
         11   -1    0    0    0    0 -0.00000000000E+00 -0.00000000000E+00 -0.45593999997E+02  0.45594000000E+02  0.51100000000E-03 0.  1.
         23    2    1    2    0    0  0.00000000000E+00  0.00000000000E+00 -0.35527136788E-14  0.91188000000E+02  0.91188000000E+02 0.  0.
    9900012    2    3    3    0    0  0.58545859056E+01  0.34554589404E+02 -0.25599365203E+02  0.47787270469E+02  0.19999997377E+02 0.  0.
         12    1    3    3    0    0 -0.58545859056E+01 -0.34554589404E+02  0.25599365203E+02  0.43400729531E+02  0.00000000000E+00 0. -1.
         11    1    4    4    0    0 -0.17612881425E+01  0.55224089073E+00 -0.33476171762E+01  0.38227800017E+01  0.51100000000E-03 0. -1.
        -11    1    4    4    0    0  0.19680683195E+01  0.31015074026E+02 -0.20849107482E+02  0.37423166526E+02  0.51100000000E-03 0.  1.
         12    1    4    4    0    0  0.56478057285E+01  0.29872744871E+01 -0.14026405443E+01  0.65413239413E+01  0.00000000000E+00 0. -1.
</event>
<event>
 8    1  0.6046524E-010  0.9118800E+02  0.7816164E-02  0.1184000E+00
        -11   -1    0    0    0    0  0.00000000000E+00  0.00000000000E+00  0.45593999997E+02  0.45594000000E+02  0.51100000000E-03 0.  1.
         11   -1    0    0    0    0 -0.00000000000E+00 -0.00000000000E+00 -0.45593999997E+02  0.45594000000E+02  0.51100000000E-03 0. -1.
         23    2    1    2    0    0  0.35527136788E-14 -0.35527136788E-14  0.00000000000E+00  0.91188000000E+02  0.91188000000E+02 0.  0.
    9900012    2    3    3    0    0 -0.31704981908E+02  0.25341783152E+02  0.15369169191E+02  0.47787271749E+02  0.20000003211E+02 0.  0.
        -12    1    3    3    0    0  0.31704981908E+02 -0.25341783152E+02 -0.15369169191E+02  0.43400728251E+02  0.00000000000E+00 0.  1.
         11    1    4    4    0    0 -0.85907859686E+01  0.16257244734E+02  0.10082419992E+02  0.20970331497E+02  0.51100000000E-03 0. -1.
        -11    1    4    4    0    0 -0.33888295515E+01 -0.16992688190E+01  0.11239015975E+01  0.39540909588E+01  0.51100000000E-03 0.  1.
        -12    1    4    4    0    0 -0.19725366388E+02  0.10783807236E+02  0.41628476014E+01  0.22862849293E+02  0.00000000000E+00 0.  1.
</event>
<event>
 8    1  0.6046524E-010  0.9118800E+02  0.7816164E-02  0.1184000E+00
        -11   -1    0    0    0    0  0.00000000000E+00  0.00000000000E+00  0.45593999997E+02  0.45594000000E+02  0.51100000000E-03 0. -1.
         11   -1    0    0    0    0 -0.00000000000E+00 -0.00000000000E+00 -0.45593999997E+02  0.45594000000E+02  0.51100000000E-03 0.  1.
         23    2    1    2    0    0  0.00000000000E+00  0.71054273576E-14  0.00000000000E+00  0.91188000000E+02  0.91188000000E+02 0.  0.
    9900012    2    3    3    0    0 -0.18089139969E+02 -0.37532856282E+02  0.12152820281E+02  0.47787270440E+02  0.19999997246E+02 0.  0.
        -12    1    3    3    0    0  0.18089139969E+02  0.37532856282E+02 -0.12152820281E+02  0.43400729560E+02  0.00000000000E+00 0.  1.
         11    1    4    4    0    0 -0.17094943341E+01 -0.11436585421E+02  0.35885736533E+01  0.12107671870E+02  0.51100000000E-03 0. -1.
        -11    1    4    4    0    0 -0.63079751811E+01 -0.92109868970E+00  0.54486499092E+01  0.83861051613E+01  0.51100000000E-03 0.  1.
        -12    1    4    4    0    0 -0.10071670454E+02 -0.25175172171E+02  0.31155967188E+01  0.27293493410E+02  0.00000000000E+00 0.  1.
</event>
<event>
 8    1  0.6046524E-010  0.9118800E+02  0.7816164E-02  0.1184000E+00
        -11   -1    0    0    0    0  0.00000000000E+00  0.00000000000E+00  0.45593999997E+02  0.45594000000E+02  0.51100000000E-03 0. -1.
         11   -1    0    0    0    0 -0.00000000000E+00 -0.00000000000E+00 -0.45593999997E+02  0.45594000000E+02  0.51100000000E-03 0.  1.
         23    2    1    2    0    0  0.00000000000E+00 -0.35527136788E-14  0.00000000000E+00  0.91188000000E+02  0.91188000000E+02 0.  0.
    9900012    2    3    3    0    0  0.16052895391E+02 -0.25863305452E+02  0.30935716463E+02  0.47787256085E+02  0.19999931793E+02 0.  0.
        -12    1    3    3    0    0 -0.16052895391E+02  0.25863305452E+02 -0.30935716463E+02  0.43400743915E+02  0.00000000000E+00 0.  1.
         11    1    4    4    0    0  0.10762641785E+02 -0.55042588351E+01  0.64542568589E+01  0.13703603737E+02  0.51100000000E-03 0. -1.
        -11    1    4    4    0    0  0.85066732607E+01 -0.16615464054E+02  0.17946340591E+02  0.25894174568E+02  0.51100000000E-03 0.  1.
        -12    1    4    4    0    0 -0.32164196543E+01 -0.37435825626E+01  0.65351190126E+01  0.81894777797E+01  0.00000000000E+00 0.  1.
</event>
<event>
 8    1  0.6046524E-010  0.9118800E+02  0.7816164E-02  0.1184000E+00
        -11   -1    0    0    0    0  0.00000000000E+00  0.00000000000E+00  0.45593999997E+02  0.45594000000E+02  0.51100000000E-03 0. -1.
         11   -1    0    0    0    0 -0.00000000000E+00 -0.00000000000E+00 -0.45593999997E+02  0.45594000000E+02  0.51100000000E-03 0.  1.
         23    2    1    2    0    0  0.00000000000E+00 -0.88817841970E-15  0.00000000000E+00  0.91188000000E+02  0.91188000000E+02 0.  0.
    9900012    2    3    3    0    0 -0.32208758135E+02  0.42761671127E+01 -0.28773835463E+02  0.47787270594E+02  0.19999997945E+02 0.  0.
         12    1    3    3    0    0  0.32208758135E+02 -0.42761671127E+01  0.28773835463E+02  0.43400729406E+02  0.00000000000E+00 0. -1.
         11    1    4    4    0    0 -0.12452287026E+02  0.98208392064E+01 -0.14341395301E+02  0.21381860404E+02  0.51100000000E-03 0. -1.
        -11    1    4    4    0    0 -0.10164766692E+01 -0.28505439761E+01 -0.98350311643E+00  0.31821540535E+01  0.51100000000E-03 0.  1.
        -12    1    4    4    0    0 -0.18739994440E+02 -0.26941281176E+01 -0.13448937045E+02  0.23223256136E+02  0.00000000000E+00 0.  1.
</event>
<event>
 8    1  0.6046524E-010  0.9118800E+02  0.7816164E-02  0.1184000E+00
        -11   -1    0    0    0    0  0.00000000000E+00  0.00000000000E+00  0.45593999997E+02  0.45594000000E+02  0.51100000000E-03 0. -1.
         11   -1    0    0    0    0 -0.00000000000E+00 -0.00000000000E+00 -0.45593999997E+02  0.45594000000E+02  0.51100000000E-03 0.  1.
         23    2    1    2    0    0 -0.35527136788E-14  0.35527136788E-14  0.35527136788E-14  0.91188000000E+02  0.91188000000E+02 0.  0.
    9900012    2    3    3    0    0 -0.30241338674E+02  0.16600040420E+02  0.26334829408E+02  0.47787272510E+02  0.20000006681E+02 0.  0.
        -12    1    3    3    0    0  0.30241338674E+02 -0.16600040420E+02 -0.26334829408E+02  0.43400727490E+02  0.00000000000E+00 0.  1.
         11    1    4    4    0    0 -0.59294033640E+01  0.13644515526E+02  0.71588990171E+01  0.16510011011E+02  0.51100000000E-03 0. -1.
        -11    1    4    4    0    0 -0.11473090069E+02  0.28011875752E+01  0.81061207588E+01  0.14324372293E+02  0.51100000000E-03 0.  1.
         12    1    4    4    0    0 -0.12838845241E+02  0.15433731859E+00  0.11069809632E+02  0.16952889206E+02  0.00000000000E+00 0. -1.
</event>
<event>
 8    1  0.6046524E-010  0.9118800E+02  0.7816164E-02  0.1184000E+00
        -11   -1    0    0    0    0  0.00000000000E+00  0.00000000000E+00  0.45593999997E+02  0.45594000000E+02  0.51100000000E-03 0.  1.
         11   -1    0    0    0    0 -0.00000000000E+00 -0.00000000000E+00 -0.45593999997E+02  0.45594000000E+02  0.51100000000E-03 0. -1.
         23    2    1    2    0    0  0.00000000000E+00 -0.13877787808E-15  0.00000000000E+00  0.91188000000E+02  0.91188000000E+02 0.  0.
    9900012    2    3    3    0    0  0.39513300504E+02 -0.10115433364E+00 -0.17953058325E+02  0.47787268991E+02  0.19999990638E+02 0.  0.
         12    1    3    3    0    0 -0.39513300504E+02  0.10115433364E+00  0.17953058325E+02  0.43400731009E+02  0.00000000000E+00 0. -1.
         11    1    4    4    0    0  0.16598954696E+01  0.12191715158E+01  0.21905286782E+01  0.30066673088E+01  0.51100000000E-03 0. -1.
        -11    1    4    4    0    0  0.12899898474E+02 -0.58613698436E+01 -0.10542412482E+02  0.17660846477E+02  0.51100000000E-03 0.  1.
        -12    1    4    4    0    0  0.24953506560E+02  0.45410439942E+01 -0.96011745215E+01  0.27119755206E+02  0.00000000000E+00 0.  1.
</event>
<event>
 8    1  0.6046524E-010  0.9118800E+02  0.7816164E-02  0.1184000E+00
        -11   -1    0    0    0    0  0.00000000000E+00  0.00000000000E+00  0.45593999997E+02  0.45594000000E+02  0.51100000000E-03 0. -1.
         11   -1    0    0    0    0 -0.00000000000E+00 -0.00000000000E+00 -0.45593999997E+02  0.45594000000E+02  0.51100000000E-03 0.  1.
         23    2    1    2    0    0  0.00000000000E+00  0.00000000000E+00  0.00000000000E+00  0.91188000000E+02  0.91188000000E+02 0.  0.
    9900012    2    3    3    0    0  0.13369518617E+02 -0.22707419365E+02  0.34485535118E+02  0.47787273571E+02  0.20000011518E+02 0.  0.
        -12    1    3    3    0    0 -0.13369518617E+02  0.22707419365E+02 -0.34485535118E+02  0.43400726429E+02  0.00000000000E+00 0.  1.
         11    1    4    4    0    0  0.41703214320E+01 -0.14375721439E+02  0.94445149996E+01  0.17698921198E+02  0.51100000000E-03 0. -1.
        -11    1    4    4    0    0 -0.11100785234E+01  0.18706387753E+01  0.34123352749E+01  0.40466771610E+01  0.51100000000E-03 0.  1.
         12    1    4    4    0    0  0.10309275708E+02 -0.10202336702E+02  0.21628684843E+02  0.26041675212E+02  0.00000000000E+00 0. -1.
</event>
<event>
 8    1  0.6046524E-010  0.9118800E+02  0.7816164E-02  0.1184000E+00
        -11   -1    0    0    0    0  0.00000000000E+00  0.00000000000E+00  0.45593999997E+02  0.45594000000E+02  0.51100000000E-03 0. -1.
         11   -1    0    0    0    0 -0.00000000000E+00 -0.00000000000E+00 -0.45593999997E+02  0.45594000000E+02  0.51100000000E-03 0.  1.
         23    2    1    2    0    0 -0.35527136788E-14 -0.22204460493E-15  0.00000000000E+00  0.91188000000E+02  0.91188000000E+02 0.  0.
    9900012    2    3    3    0    0  0.16062995245E+02  0.10958337551E+01  0.40303882670E+02  0.47787266986E+02  0.19999981497E+02 0.  0.
        -12    1    3    3    0    0 -0.16062995245E+02 -0.10958337551E+01 -0.40303882670E+02  0.43400733014E+02  0.00000000000E+00 0.  1.
         11    1    4    4    0    0  0.95556421893E+01  0.28237957832E+01  0.20323452858E+02  0.22634638424E+02  0.51100000000E-03 0. -1.
        -11    1    4    4    0    0  0.60519073924E+01 -0.36702590304E+01  0.24213714055E+01  0.74806031963E+01  0.51100000000E-03 0.  1.
         12    1    4    4    0    0  0.45544566349E+00  0.19422970023E+01  0.17559058407E+02  0.17672025366E+02  0.00000000000E+00 0. -1.
</event>
<event>
 8    1  0.6046524E-010  0.9118800E+02  0.7816164E-02  0.1184000E+00
        -11   -1    0    0    0    0  0.00000000000E+00  0.00000000000E+00  0.45593999997E+02  0.45594000000E+02  0.51100000000E-03 0. -1.
         11   -1    0    0    0    0 -0.00000000000E+00 -0.00000000000E+00 -0.45593999997E+02  0.45594000000E+02  0.51100000000E-03 0.  1.
         23    2    1    2    0    0  0.00000000000E+00 -0.71054273576E-14  0.00000000000E+00  0.91188000000E+02  0.91188000000E+02 0.  0.
    9900012    2    3    3    0    0  0.27111585929E+01  0.39684078921E+02 -0.17362223151E+02  0.47787270818E+02  0.19999998970E+02 0.  0.
         12    1    3    3    0    0 -0.27111585929E+01 -0.39684078921E+02  0.17362223151E+02  0.43400729182E+02  0.00000000000E+00 0. -1.
         11    1    4    4    0    0  0.61845692524E+01  0.10224460120E+02 -0.98506685408E+01  0.15486256893E+02  0.51100000000E-03 0. -1.
        -11    1    4    4    0    0 -0.29791991124E+00  0.26216835291E+02 -0.86735570842E+01  0.27615970049E+02  0.51100000000E-03 0.  1.
        -12    1    4    4    0    0 -0.31754907483E+01  0.32427835094E+01  0.11620024737E+01  0.46850438771E+01  0.00000000000E+00 0.  1.
</event>
<event>
 8    1  0.6046524E-010  0.9118800E+02  0.7816164E-02  0.1184000E+00
        -11   -1    0    0    0    0  0.00000000000E+00  0.00000000000E+00  0.45593999997E+02  0.45594000000E+02  0.51100000000E-03 0.  1.
         11   -1    0    0    0    0 -0.00000000000E+00 -0.00000000000E+00 -0.45593999997E+02  0.45594000000E+02  0.51100000000E-03 0. -1.
         23    2    1    2    0    0  0.00000000000E+00  0.00000000000E+00  0.00000000000E+00  0.91188000000E+02  0.91188000000E+02 0.  0.
    9900012    2    3    3    0    0 -0.11404120432E+02  0.35778250778E+02  0.21759752277E+02  0.47787262555E+02  0.19999961295E+02 0.  0.
        -12    1    3    3    0    0  0.11404120432E+02 -0.35778250778E+02 -0.21759752277E+02  0.43400737445E+02  0.00000000000E+00 0.  1.
         11    1    4    4    0    0  0.36045143032E+01  0.59861517408E+01  0.61235705881E+01  0.92911061254E+01  0.51100000000E-03 0. -1.
        -11    1    4    4    0    0  0.11804235168E+01  0.67315790550E+01  0.45892875619E+01  0.82322000000E+01  0.51100000000E-03 0.  1.
        -12    1    4    4    0    0 -0.16189058252E+02  0.23060519983E+02  0.11046894127E+02  0.30263956430E+02  0.00000000000E+00 0.  1.
</event>
<event>
 8    1  0.6046524E-010  0.9118800E+02  0.7816164E-02  0.1184000E+00
        -11   -1    0    0    0    0  0.00000000000E+00  0.00000000000E+00  0.45593999997E+02  0.45594000000E+02  0.51100000000E-03 0. -1.
         11   -1    0    0    0    0 -0.00000000000E+00 -0.00000000000E+00 -0.45593999997E+02  0.45594000000E+02  0.51100000000E-03 0.  1.
         23    2    1    2    0    0  0.00000000000E+00  0.35527136788E-14  0.00000000000E+00  0.91188000000E+02  0.91188000000E+02 0.  0.
    9900012    2    3    3    0    0  0.29142407885E+02 -0.16286093885E+02 -0.27732774189E+02  0.47787267799E+02  0.19999985201E+02 0.  0.
         12    1    3    3    0    0 -0.29142407885E+02  0.16286093885E+02  0.27732774189E+02  0.43400732201E+02  0.00000000000E+00 0. -1.
         11    1    4    4    0    0 -0.10875862652E+01  0.17028556897E+01 -0.12765256186E+01  0.23899956695E+01  0.51100000000E-03 0. -1.
        -11    1    4    4    0    0  0.15729447226E+02 -0.56606337705E+01 -0.18015116732E+02  0.24576466708E+02  0.51100000000E-03 0.  1.
        -12    1    4    4    0    0  0.14500546924E+02 -0.12328315804E+02 -0.84411318389E+01  0.20820805421E+02  0.00000000000E+00 0.  1.
</event>
<event>
 8    1  0.6046524E-010  0.9118800E+02  0.7816164E-02  0.1184000E+00
        -11   -1    0    0    0    0  0.00000000000E+00  0.00000000000E+00  0.45593999997E+02  0.45594000000E+02  0.51100000000E-03 0. -1.
         11   -1    0    0    0    0 -0.00000000000E+00 -0.00000000000E+00 -0.45593999997E+02  0.45594000000E+02  0.51100000000E-03 0.  1.
         23    2    1    2    0    0 -0.35527136788E-14 -0.88817841970E-15 -0.35527136788E-14  0.91188000000E+02  0.91188000000E+02 0.  0.
    9900012    2    3    3    0    0 -0.29543524644E+02  0.76199591380E+00  0.31783998211E+02  0.47787273872E+02  0.20000012892E+02 0.  0.
        -12    1    3    3    0    0  0.29543524644E+02 -0.76199591380E+00 -0.31783998211E+02  0.43400726128E+02  0.00000000000E+00 0.  1.
         11    1    4    4    0    0 -0.10572479027E+02  0.75588379212E+00  0.12681686373E+02  0.16527971521E+02  0.51100000000E-03 0. -1.
        -11    1    4    4    0    0 -0.15149682284E+01 -0.56593751975E+01  0.76160744649E+01  0.96087588624E+01  0.51100000000E-03 0.  1.
        -12    1    4    4    0    0 -0.17456077388E+02  0.56654873191E+01  0.11486237374E+02  0.21650543489E+02  0.00000000000E+00 0.  1.
</event>
<event>
 8    1  0.6046524E-010  0.9118800E+02  0.7816164E-02  0.1184000E+00
        -11   -1    0    0    0    0  0.00000000000E+00  0.00000000000E+00  0.45593999997E+02  0.45594000000E+02  0.51100000000E-03 0. -1.
         11   -1    0    0    0    0 -0.00000000000E+00 -0.00000000000E+00 -0.45593999997E+02  0.45594000000E+02  0.51100000000E-03 0.  1.
         23    2    1    2    0    0  0.00000000000E+00  0.00000000000E+00 -0.35527136788E-14  0.91188000000E+02  0.91188000000E+02 0.  0.
    9900012    2    3    3    0    0  0.27778046933E+02  0.23255318964E+02 -0.23899656610E+02  0.47787270310E+02  0.19999996652E+02 0.  0.
         12    1    3    3    0    0 -0.27778046933E+02 -0.23255318964E+02  0.23899656610E+02  0.43400729690E+02  0.00000000000E+00 0. -1.
         11    1    4    4    0    0  0.11360469291E+02  0.54986990101E+01 -0.62440234506E+00  0.12636685953E+02  0.51100000000E-03 0. -1.
        -11    1    4    4    0    0  0.11856543935E+02  0.16563055718E+02 -0.13910640711E+02  0.24666138207E+02  0.51100000000E-03 0.  1.
        -12    1    4    4    0    0  0.45610337070E+01  0.11935642361E+01 -0.93646135543E+01  0.10484446151E+02  0.00000000000E+00 0.  1.
</event>
<event>
 8    1  0.6072920E-010  0.9118800E+02  0.7816164E-02  0.1184000E+00
        -11   -1    0    0    0    0  0.00000000000E+00  0.00000000000E+00  0.45593999997E+02  0.45594000000E+02  0.51100000000E-03 0. -1.
         11   -1    0    0    0    0 -0.00000000000E+00 -0.00000000000E+00 -0.45593999997E+02  0.45594000000E+02  0.51100000000E-03 0.  1.
         23    2    1    2    0    0  0.00000000000E+00 -0.35527136788E-14  0.00000000000E+00  0.91188000000E+02  0.91188000000E+02 0.  0.
    9900012    2    3    3    0    0 -0.26390121019E+02  0.28045910041E+02 -0.20015295518E+02  0.47787267148E+02  0.19999982234E+02 0.  0.
         12    1    3    3    0    0  0.26390121019E+02 -0.28045910041E+02  0.20015295518E+02  0.43400732852E+02  0.00000000000E+00 0. -1.
         11    1    4    4    0    0 -0.91352828355E+01  0.13369367734E+01  0.13076106179E+01  0.93247326080E+01  0.51100000000E-03 0. -1.
        -11    1    4    4    0    0 -0.93512204374E+01  0.11350315852E+02 -0.89548608702E+01  0.17218145285E+02  0.51100000000E-03 0.  1.
         12    1    4    4    0    0 -0.79036177460E+01  0.15358657416E+02 -0.12368045266E+02  0.21244389254E+02  0.00000000000E+00 0. -1.
</event>
<event>
 8    1  0.6046524E-010  0.9118800E+02  0.7816164E-02  0.1184000E+00
        -11   -1    0    0    0    0  0.00000000000E+00  0.00000000000E+00  0.45593999997E+02  0.45594000000E+02  0.51100000000E-03 0. -1.
         11   -1    0    0    0    0 -0.00000000000E+00 -0.00000000000E+00 -0.45593999997E+02  0.45594000000E+02  0.51100000000E-03 0.  1.
         23    2    1    2    0    0  0.00000000000E+00  0.00000000000E+00 -0.35527136788E-14  0.91188000000E+02  0.91188000000E+02 0.  0.
    9900012    2    3    3    0    0 -0.96251384209E+01 -0.38353012961E+02 -0.17889281889E+02  0.47787270751E+02  0.19999998661E+02 0.  0.
         12    1    3    3    0    0  0.96251384209E+01  0.38353012961E+02  0.17889281889E+02  0.43400729249E+02  0.00000000000E+00 0. -1.
         11    1    4    4    0    0 -0.20064567566E+01 -0.15781157507E+02 -0.13896906900E+02  0.21123324137E+02  0.51100000000E-03 0. -1.
        -11    1    4    4    0    0 -0.37907138094E+01 -0.40479415837E+00  0.27911859004E-01  0.38123678769E+01  0.51100000000E-03 0.  1.
        -12    1    4    4    0    0 -0.38279678549E+01 -0.22167061296E+02 -0.40202868489E+01  0.22851578736E+02  0.00000000000E+00 0.  1.
</event>
<event>
 8    1  0.6046524E-010  0.9118800E+02  0.7816164E-02  0.1184000E+00
        -11   -1    0    0    0    0  0.00000000000E+00  0.00000000000E+00  0.45593999997E+02  0.45594000000E+02  0.51100000000E-03 0. -1.
         11   -1    0    0    0    0 -0.00000000000E+00 -0.00000000000E+00 -0.45593999997E+02  0.45594000000E+02  0.51100000000E-03 0.  1.
         23    2    1    2    0    0  0.00000000000E+00  0.00000000000E+00  0.00000000000E+00  0.91188000000E+02  0.91188000000E+02 0.  0.
    9900012    2    3    3    0    0 -0.37844807209E+02  0.60474217996E+01 -0.20367193184E+02  0.47787270729E+02  0.19999998560E+02 0.  0.
         12    1    3    3    0    0  0.37844807209E+02 -0.60474217996E+01  0.20367193184E+02  0.43400729271E+02  0.00000000000E+00 0. -1.
         11    1    4    4    0    0 -0.28445285126E+00  0.28417838200E+01 -0.26870104825E+01  0.39213102783E+01  0.51100000000E-03 0. -1.
        -11    1    4    4    0    0 -0.33001708812E+02  0.25340878475E+01 -0.20036048892E+02  0.38690795304E+02  0.51100000000E-03 0.  1.
         12    1    4    4    0    0 -0.45586455452E+01  0.67155013211E+00  0.23558661907E+01  0.51751651466E+01  0.00000000000E+00 0. -1.
</event>
<event>
 8    1  0.6046524E-010  0.9118800E+02  0.7816164E-02  0.1184000E+00
        -11   -1    0    0    0    0  0.00000000000E+00  0.00000000000E+00  0.45593999997E+02  0.45594000000E+02  0.51100000000E-03 0. -1.
         11   -1    0    0    0    0 -0.00000000000E+00 -0.00000000000E+00 -0.45593999997E+02  0.45594000000E+02  0.51100000000E-03 0.  1.
         23    2    1    2    0    0  0.00000000000E+00  0.44408920985E-15  0.00000000000E+00  0.91188000000E+02  0.91188000000E+02 0.  0.
    9900012    2    3    3    0    0  0.15322161903E+02  0.38501131609E+01 -0.40423144167E+02  0.47787278795E+02  0.20000035339E+02 0.  0.
         12    1    3    3    0    0 -0.15322161903E+02 -0.38501131609E+01  0.40423144167E+02  0.43400721205E+02  0.00000000000E+00 0. -1.
         11    1    4    4    0    0  0.81570343346E+01  0.56933543088E+01 -0.10495596091E+02  0.14460602684E+02  0.51100000000E-03 0. -1.
        -11    1    4    4    0    0  0.94384040197E+01 -0.43003097052E+00 -0.28989512178E+02  0.30490329838E+02  0.51100000000E-03 0.  1.
        -12    1    4    4    0    0 -0.22732764517E+01 -0.14132101774E+01 -0.93803589812E+00  0.28363462725E+01  0.00000000000E+00 0.  1.
</event>
<event>
 8    1  0.6046524E-010  0.9118800E+02  0.7816164E-02  0.1184000E+00
        -11   -1    0    0    0    0  0.00000000000E+00  0.00000000000E+00  0.45593999997E+02  0.45594000000E+02  0.51100000000E-03 0. -1.
         11   -1    0    0    0    0 -0.00000000000E+00 -0.00000000000E+00 -0.45593999997E+02  0.45594000000E+02  0.51100000000E-03 0.  1.
         23    2    1    2    0    0  0.00000000000E+00  0.00000000000E+00  0.00000000000E+00  0.91188000000E+02  0.91188000000E+02 0.  0.
    9900012    2    3    3    0    0  0.25408756974E+02  0.33975632755E+02  0.91473806752E+01  0.47787272756E+02  0.20000007803E+02 0.  0.
        -12    1    3    3    0    0 -0.25408756974E+02 -0.33975632755E+02 -0.91473806752E+01  0.43400727244E+02  0.00000000000E+00 0.  1.
         11    1    4    4    0    0  0.99786295502E+01  0.99860187014E+01  0.12234493706E+01  0.14170054546E+02  0.51100000000E-03 0. -1.
        -11    1    4    4    0    0  0.17744503197E+01  0.13293472151E+02  0.91382000064E+01  0.16228733019E+02  0.51100000000E-03 0.  1.
         12    1    4    4    0    0  0.13655677104E+02  0.10696141903E+02 -0.12142687019E+01  0.17388485192E+02  0.00000000000E+00 0. -1.
</event>
<event>
 8    1  0.6046524E-010  0.9118800E+02  0.7816164E-02  0.1184000E+00
        -11   -1    0    0    0    0  0.00000000000E+00  0.00000000000E+00  0.45593999997E+02  0.45594000000E+02  0.51100000000E-03 0.  1.
         11   -1    0    0    0    0 -0.00000000000E+00 -0.00000000000E+00 -0.45593999997E+02  0.45594000000E+02  0.51100000000E-03 0. -1.
         23    2    1    2    0    0  0.00000000000E+00  0.00000000000E+00 -0.44408920985E-15  0.91188000000E+02  0.91188000000E+02 0.  0.
    9900012    2    3    3    0    0 -0.42606775079E+02 -0.80351160697E+01  0.19293967095E+01  0.47787274839E+02  0.20000017301E+02 0.  0.
         12    1    3    3    0    0  0.42606775079E+02  0.80351160697E+01 -0.19293967095E+01  0.43400725161E+02  0.00000000000E+00 0. -1.
         11    1    4    4    0    0 -0.10966912164E+02  0.30162302635E+01  0.12332345776E+01  0.11440789973E+02  0.51100000000E-03 0. -1.
        -11    1    4    4    0    0 -0.31506387456E+02 -0.77624860256E+01  0.25851978182E+01  0.32551373057E+02  0.51100000000E-03 0.  1.
         12    1    4    4    0    0 -0.13347545782E+00 -0.32888603076E+01 -0.18890356863E+01  0.37951118093E+01  0.00000000000E+00 0. -1.
</event>
<event>
 8    1  0.6046524E-010  0.9118800E+02  0.7816164E-02  0.1184000E+00
        -11   -1    0    0    0    0  0.00000000000E+00  0.00000000000E+00  0.45593999997E+02  0.45594000000E+02  0.51100000000E-03 0. -1.
         11   -1    0    0    0    0 -0.00000000000E+00 -0.00000000000E+00 -0.45593999997E+02  0.45594000000E+02  0.51100000000E-03 0.  1.
         23    2    1    2    0    0 -0.17763568394E-14 -0.71054273576E-14  0.22204460493E-15  0.91188000000E+02  0.91188000000E+02 0.  0.
    9900012    2    3    3    0    0 -0.11042294845E+02  0.41954318366E+02  0.12355660762E+01  0.47787265806E+02  0.19999976117E+02 0.  0.
         12    1    3    3    0    0  0.11042294845E+02 -0.41954318366E+02 -0.12355660762E+01  0.43400734194E+02  0.00000000000E+00 0. -1.
         11    1    4    4    0    0 -0.38728473810E+01  0.13673089957E+02 -0.87477937746E+01  0.16687607138E+02  0.51100000000E-03 0.  1.
        -11    1    4    4    0    0 -0.57889549449E+01  0.17556603154E+02  0.47509898927E+01  0.19087121807E+02  0.51100000000E-03 0. -1.
        -12    1    4    4    0    0 -0.13804925194E+01  0.10724625255E+02  0.52323699581E+01  0.12012536861E+02  0.00000000000E+00 0.  1.
</event>
<event>
 8    1  0.6046524E-010  0.9118800E+02  0.7816164E-02  0.1184000E+00
        -11   -1    0    0    0    0  0.00000000000E+00  0.00000000000E+00  0.45593999997E+02  0.45594000000E+02  0.51100000000E-03 0. -1.
         11   -1    0    0    0    0 -0.00000000000E+00 -0.00000000000E+00 -0.45593999997E+02  0.45594000000E+02  0.51100000000E-03 0.  1.
         23    2    1    2    0    0  0.35527136788E-14 -0.17763568394E-14  0.35527136788E-14  0.91188000000E+02  0.91188000000E+02 0.  0.
    9900012    2    3    3    0    0  0.29117785588E+02  0.92178052605E+01  0.30835206797E+02  0.47787270172E+02  0.19999996020E+02 0.  0.
        -12    1    3    3    0    0 -0.29117785588E+02 -0.92178052605E+01 -0.30835206797E+02  0.43400729828E+02  0.00000000000E+00 0.  1.
         11    1    4    4    0    0  0.44110322493E+01  0.76851703288E+00  0.66009887332E+01  0.79762695825E+01  0.51100000000E-03 0. -1.
        -11    1    4    4    0    0  0.14020029583E+02  0.11266543275E+02  0.22203218902E+02  0.28574099404E+02  0.51100000000E-03 0.  1.
        -12    1    4    4    0    0  0.10686723757E+02 -0.28172550474E+01  0.20309991620E+01  0.11236901185E+02  0.00000000000E+00 0.  1.
</event>
<event>
 8    1  0.6046524E-010  0.9118800E+02  0.7816164E-02  0.1184000E+00
        -11   -1    0    0    0    0  0.00000000000E+00  0.00000000000E+00  0.45593999997E+02  0.45594000000E+02  0.51100000000E-03 0. -1.
         11   -1    0    0    0    0 -0.00000000000E+00 -0.00000000000E+00 -0.45593999997E+02  0.45594000000E+02  0.51100000000E-03 0.  1.
         23    2    1    2    0    0  0.17763568394E-14  0.00000000000E+00  0.00000000000E+00  0.91188000000E+02  0.91188000000E+02 0.  0.
    9900012    2    3    3    0    0  0.45613410996E+01  0.22777959220E+02  0.36660360369E+02  0.47787270959E+02  0.19999999612E+02 0.  0.
        -12    1    3    3    0    0 -0.45613410996E+01 -0.22777959220E+02 -0.36660360369E+02  0.43400729041E+02  0.00000000000E+00 0.  1.
         11    1    4    4    0    0  0.82133595082E+01  0.33721895459E+01  0.46564072680E+01  0.10025620462E+02  0.51100000000E-03 0.  1.
        -11    1    4    4    0    0 -0.16634578322E+01  0.39179495678E+01  0.90368273496E+01  0.99890775141E+01  0.51100000000E-03 0. -1.
        -12    1    4    4    0    0 -0.19885605765E+01  0.15487820107E+02  0.22967125752E+02  0.27772572983E+02  0.00000000000E+00 0.  1.
</event>
<event>
 8    1  0.6046524E-010  0.9118800E+02  0.7816164E-02  0.1184000E+00
        -11   -1    0    0    0    0  0.00000000000E+00  0.00000000000E+00  0.45593999997E+02  0.45594000000E+02  0.51100000000E-03 0. -1.
         11   -1    0    0    0    0 -0.00000000000E+00 -0.00000000000E+00 -0.45593999997E+02  0.45594000000E+02  0.51100000000E-03 0.  1.
         23    2    1    2    0    0  0.00000000000E+00 -0.88817841970E-15  0.00000000000E+00  0.91188000000E+02  0.91188000000E+02 0.  0.
    9900012    2    3    3    0    0 -0.12070829671E+02  0.45304860859E+01  0.41441440073E+02  0.47787272028E+02  0.20000004486E+02 0.  0.
        -12    1    3    3    0    0  0.12070829671E+02 -0.45304860859E+01 -0.41441440073E+02  0.43400727972E+02  0.00000000000E+00 0.  1.
         11    1    4    4    0    0 -0.48973466983E+01  0.40926736810E+01  0.99427845052E+01  0.11814945896E+02  0.51100000000E-03 0. -1.
        -11    1    4    4    0    0  0.35942594767E+01 -0.19944743431E+01  0.18346915311E+02  0.18801753397E+02  0.51100000000E-03 0.  1.
        -12    1    4    4    0    0 -0.10767742450E+02  0.24322867480E+01  0.13151740257E+02  0.17170572736E+02  0.00000000000E+00 0.  1.
</event>
<event>
 8    1  0.6046524E-010  0.9118800E+02  0.7816164E-02  0.1184000E+00
        -11   -1    0    0    0    0  0.00000000000E+00  0.00000000000E+00  0.45593999997E+02  0.45594000000E+02  0.51100000000E-03 0. -1.
         11   -1    0    0    0    0 -0.00000000000E+00 -0.00000000000E+00 -0.45593999997E+02  0.45594000000E+02  0.51100000000E-03 0.  1.
         23    2    1    2    0    0  0.00000000000E+00  0.00000000000E+00 -0.71054273576E-14  0.91188000000E+02  0.91188000000E+02 0.  0.
    9900012    2    3    3    0    0  0.27664160977E+01 -0.50719566665E+01 -0.43014479081E+02  0.47787271745E+02  0.20000003195E+02 0.  0.
         12    1    3    3    0    0 -0.27664160977E+01  0.50719566665E+01  0.43014479081E+02  0.43400728255E+02  0.00000000000E+00 0. -1.
         11    1    4    4    0    0  0.63404058428E+01 -0.25328910716E+01 -0.17969416095E+02  0.19222804127E+02  0.51100000000E-03 0. -1.
        -11    1    4    4    0    0 -0.36200378356E+01 -0.47924645623E+01 -0.25556957219E+02  0.26253198911E+02  0.51100000000E-03 0.  1.
        -12    1    4    4    0    0  0.46048090441E-01  0.22533989673E+01  0.51189423309E+00  0.23112687075E+01  0.00000000000E+00 0.  1.
</event>
<event>
 8    1  0.6046524E-010  0.9118800E+02  0.7816164E-02  0.1184000E+00
        -11   -1    0    0    0    0  0.00000000000E+00  0.00000000000E+00  0.45593999997E+02  0.45594000000E+02  0.51100000000E-03 0. -1.
         11   -1    0    0    0    0 -0.00000000000E+00 -0.00000000000E+00 -0.45593999997E+02  0.45594000000E+02  0.51100000000E-03 0.  1.
         23    2    1    2    0    0 -0.17763568394E-14 -0.71054273576E-14  0.35527136788E-14  0.91188000000E+02  0.91188000000E+02 0.  0.
    9900012    2    3    3    0    0  0.12823016606E+02  0.35157041052E+02 -0.21981258432E+02  0.47787274054E+02  0.20000013721E+02 0.  0.
         12    1    3    3    0    0 -0.12823016606E+02 -0.35157041052E+02  0.21981258432E+02  0.43400725946E+02  0.00000000000E+00 0. -1.
         11    1    4    4    0    0  0.11376682853E+02  0.22115854117E+02 -0.99007148059E+01  0.26768714388E+02  0.51100000000E-03 0. -1.
        -11    1    4    4    0    0  0.24435605821E+01  0.12078269923E+02 -0.13999985077E+02  0.18650875986E+02  0.51100000000E-03 0.  1.
        -12    1    4    4    0    0 -0.99722682926E+00  0.96291701257E+00  0.19194414511E+01  0.23676836795E+01  0.00000000000E+00 0.  1.
</event>
<event>
 8    1  0.6046524E-010  0.9118800E+02  0.7816164E-02  0.1184000E+00
        -11   -1    0    0    0    0  0.00000000000E+00  0.00000000000E+00  0.45593999997E+02  0.45594000000E+02  0.51100000000E-03 0. -1.
         11   -1    0    0    0    0 -0.00000000000E+00 -0.00000000000E+00 -0.45593999997E+02  0.45594000000E+02  0.51100000000E-03 0.  1.
         23    2    1    2    0    0  0.00000000000E+00 -0.35527136788E-14  0.00000000000E+00  0.91188000000E+02  0.91188000000E+02 0.  0.
    9900012    2    3    3    0    0 -0.22712144252E+01 -0.23046021214E+02  0.36706209414E+02  0.47787270532E+02  0.19999997666E+02 0.  0.
        -12    1    3    3    0    0  0.22712144252E+01  0.23046021214E+02 -0.36706209414E+02  0.43400729468E+02  0.00000000000E+00 0.  1.
         11    1    4    4    0    0 -0.58604708482E+01 -0.18059038617E+02  0.32033797157E+02  0.37237590616E+02  0.51100000000E-03 0. -1.
        -11    1    4    4    0    0  0.40546478157E+01 -0.56913963410E+01  0.58412485619E+01  0.91078178640E+01  0.51100000000E-03 0.  1.
        -12    1    4    4    0    0 -0.46539139268E+00  0.70441374418E+00 -0.11688363046E+01  0.14418620524E+01  0.00000000000E+00 0.  1.
</event>
<event>
 8    1  0.6046524E-010  0.9118800E+02  0.7816164E-02  0.1184000E+00
        -11   -1    0    0    0    0  0.00000000000E+00  0.00000000000E+00  0.45593999997E+02  0.45594000000E+02  0.51100000000E-03 0. -1.
         11   -1    0    0    0    0 -0.00000000000E+00 -0.00000000000E+00 -0.45593999997E+02  0.45594000000E+02  0.51100000000E-03 0.  1.
         23    2    1    2    0    0  0.35527136788E-14  0.00000000000E+00  0.35527136788E-14  0.91188000000E+02  0.91188000000E+02 0.  0.
    9900012    2    3    3    0    0 -0.19271502550E+02 -0.28363148557E+02 -0.26603837779E+02  0.47787271998E+02  0.20000004346E+02 0.  0.
         12    1    3    3    0    0  0.19271502550E+02  0.28363148557E+02  0.26603837779E+02  0.43400728002E+02  0.00000000000E+00 0. -1.
         11    1    4    4    0    0 -0.16045757044E+01 -0.13435785611E+02 -0.62061296732E+01  0.14886606193E+02  0.51100000000E-03 0.  1.
        -11    1    4    4    0    0 -0.70236231515E+01  0.13572577741E+00 -0.33415577085E+01  0.77791845229E+01  0.51100000000E-03 0. -1.
         12    1    4    4    0    0 -0.10643303694E+02 -0.15063088724E+02 -0.17056150397E+02  0.25121481282E+02  0.00000000000E+00 0. -1.
</event>
<event>
 8    1  0.6046524E-010  0.9118800E+02  0.7816164E-02  0.1184000E+00
        -11   -1    0    0    0    0  0.00000000000E+00  0.00000000000E+00  0.45593999997E+02  0.45594000000E+02  0.51100000000E-03 0.  1.
         11   -1    0    0    0    0 -0.00000000000E+00 -0.00000000000E+00 -0.45593999997E+02  0.45594000000E+02  0.51100000000E-03 0. -1.
         23    2    1    2    0    0  0.17763568394E-14 -0.71054273576E-14  0.35527136788E-14  0.91188000000E+02  0.91188000000E+02 0.  0.
    9900012    2    3    3    0    0 -0.10933705037E+02  0.30548517403E+02 -0.28824736644E+02  0.47787271159E+02  0.20000000521E+02 0.  0.
         12    1    3    3    0    0  0.10933705037E+02 -0.30548517403E+02  0.28824736644E+02  0.43400728841E+02  0.00000000000E+00 0. -1.
         11    1    4    4    0    0  0.15684587614E+01 -0.16438531816E+01 -0.15027584778E+01  0.27240777287E+01  0.51100000000E-03 0. -1.
        -11    1    4    4    0    0 -0.25091133368E+01  0.18410186402E+02 -0.11695625399E+02  0.21954914411E+02  0.51100000000E-03 0.  1.
        -12    1    4    4    0    0 -0.99930504615E+01  0.13782184183E+02 -0.15626352768E+02  0.23108279018E+02  0.00000000000E+00 0.  1.
</event>
<event>
 8    1  0.6046524E-010  0.9118800E+02  0.7816164E-02  0.1184000E+00
        -11   -1    0    0    0    0  0.00000000000E+00  0.00000000000E+00  0.45593999997E+02  0.45594000000E+02  0.51100000000E-03 0. -1.
         11   -1    0    0    0    0 -0.00000000000E+00 -0.00000000000E+00 -0.45593999997E+02  0.45594000000E+02  0.51100000000E-03 0.  1.
         23    2    1    2    0    0  0.00000000000E+00  0.00000000000E+00  0.00000000000E+00  0.91188000000E+02  0.91188000000E+02 0.  0.
    9900012    2    3    3    0    0 -0.24067740747E+02 -0.22250587174E+02 -0.28447847884E+02  0.47787253192E+02  0.19999918604E+02 0.  0.
         12    1    3    3    0    0  0.24067740747E+02  0.22250587174E+02  0.28447847884E+02  0.43400746808E+02  0.00000000000E+00 0. -1.
         11    1    4    4    0    0 -0.23346889818E+02 -0.18286829133E+02 -0.14237690034E+02  0.32896765824E+02  0.51100000000E-03 0.  1.
        -11    1    4    4    0    0  0.35839127939E+00 -0.15702999320E+01 -0.33447680818E+01  0.37123792866E+01  0.51100000000E-03 0. -1.
        -12    1    4    4    0    0 -0.10792422078E+01 -0.23934581097E+01 -0.10865389768E+02  0.11178108081E+02  0.00000000000E+00 0.  1.
</event>
<event>
 8    1  0.6046524E-010  0.9118800E+02  0.7816164E-02  0.1184000E+00
        -11   -1    0    0    0    0  0.00000000000E+00  0.00000000000E+00  0.45593999997E+02  0.45594000000E+02  0.51100000000E-03 0. -1.
         11   -1    0    0    0    0 -0.00000000000E+00 -0.00000000000E+00 -0.45593999997E+02  0.45594000000E+02  0.51100000000E-03 0.  1.
         23    2    1    2    0    0  0.00000000000E+00  0.00000000000E+00  0.00000000000E+00  0.91188000000E+02  0.91188000000E+02 0.  0.
    9900012    2    3    3    0    0 -0.16817985699E+02 -0.22147439097E+02  0.33320704182E+02  0.47787273869E+02  0.20000012880E+02 0.  0.
        -12    1    3    3    0    0  0.16817985699E+02  0.22147439097E+02 -0.33320704182E+02  0.43400726131E+02  0.00000000000E+00 0.  1.
         11    1    4    4    0    0 -0.10329379769E+02 -0.16228102626E+02  0.26169904124E+02  0.32479397830E+02  0.51100000000E-03 0. -1.
        -11    1    4    4    0    0 -0.37107403669E+01 -0.84934074103E+01  0.31263366684E+01  0.97816943693E+01  0.51100000000E-03 0.  1.
        -12    1    4    4    0    0 -0.27778655628E+01  0.25740709393E+01  0.40244633891E+01  0.55261816705E+01  0.00000000000E+00 0.  1.
</event>
<event>
 8    1  0.6046524E-010  0.9118800E+02  0.7816164E-02  0.1184000E+00
        -11   -1    0    0    0    0  0.00000000000E+00  0.00000000000E+00  0.45593999997E+02  0.45594000000E+02  0.51100000000E-03 0. -1.
         11   -1    0    0    0    0 -0.00000000000E+00 -0.00000000000E+00 -0.45593999997E+02  0.45594000000E+02  0.51100000000E-03 0.  1.
         23    2    1    2    0    0  0.00000000000E+00  0.35527136788E-14  0.00000000000E+00  0.91188000000E+02  0.91188000000E+02 0.  0.
    9900012    2    3    3    0    0  0.84906936063E+01  0.19098491087E+02  0.38036549414E+02  0.47787270386E+02  0.19999996998E+02 0.  0.
        -12    1    3    3    0    0 -0.84906936063E+01 -0.19098491087E+02 -0.38036549414E+02  0.43400729614E+02  0.00000000000E+00 0.  1.
         11    1    4    4    0    0 -0.26308522532E+01  0.80153848723E+01  0.13766092017E+02  0.16145372957E+02  0.51100000000E-03 0. -1.
        -11    1    4    4    0    0  0.93520180908E+01  0.12778192719E+02  0.14172685498E+02  0.21251057998E+02  0.51100000000E-03 0.  1.
         12    1    4    4    0    0  0.17695277687E+01 -0.16950865042E+01  0.10097771898E+02  0.10390839431E+02  0.00000000000E+00 0. -1.
</event>
<event>
 8    1  0.6046524E-010  0.9118800E+02  0.7816164E-02  0.1184000E+00
        -11   -1    0    0    0    0  0.00000000000E+00  0.00000000000E+00  0.45593999997E+02  0.45594000000E+02  0.51100000000E-03 0. -1.
         11   -1    0    0    0    0 -0.00000000000E+00 -0.00000000000E+00 -0.45593999997E+02  0.45594000000E+02  0.51100000000E-03 0.  1.
         23    2    1    2    0    0  0.00000000000E+00  0.35527136788E-14  0.00000000000E+00  0.91188000000E+02  0.91188000000E+02 0.  0.
    9900012    2    3    3    0    0 -0.43687466712E+01  0.17893638070E+02  0.39298282064E+02  0.47787271849E+02  0.20000003667E+02 0.  0.
        -12    1    3    3    0    0  0.43687466712E+01 -0.17893638070E+02 -0.39298282064E+02  0.43400728151E+02  0.00000000000E+00 0.  1.
         11    1    4    4    0    0 -0.33869785186E+00 -0.10046363903E+01 -0.83942011265E+00  0.13522710151E+01  0.51100000000E-03 0.  1.
        -11    1    4    4    0    0 -0.44439532618E+01  0.14995914962E+02  0.17546273317E+02  0.23505273743E+02  0.51100000000E-03 0. -1.
         12    1    4    4    0    0  0.41390444245E+00  0.39023594982E+01  0.22591428860E+02  0.22929727091E+02  0.00000000000E+00 0. -1.
</event>
<event>
 8    1  0.6046524E-010  0.9118800E+02  0.7816164E-02  0.1184000E+00
        -11   -1    0    0    0    0  0.00000000000E+00  0.00000000000E+00  0.45593999997E+02  0.45594000000E+02  0.51100000000E-03 0. -1.
         11   -1    0    0    0    0 -0.00000000000E+00 -0.00000000000E+00 -0.45593999997E+02  0.45594000000E+02  0.51100000000E-03 0.  1.
         23    2    1    2    0    0  0.00000000000E+00  0.17763568394E-14 -0.71054273576E-14  0.91188000000E+02  0.91188000000E+02 0.  0.
    9900012    2    3    3    0    0  0.19980306441E+02 -0.88039262135E+01  0.37508699977E+02  0.47787258806E+02  0.19999944200E+02 0.  0.
        -12    1    3    3    0    0 -0.19980306441E+02  0.88039262135E+01 -0.37508699977E+02  0.43400741194E+02  0.00000000000E+00 0.  1.
         11    1    4    4    0    0  0.87985188076E+01 -0.38385493206E+01  0.12399393615E+02  0.15680987098E+02  0.51100000000E-03 0. -1.
        -11    1    4    4    0    0  0.10293943589E+02 -0.30079228553E+01  0.49135052271E+01  0.11796415066E+02  0.51100000000E-03 0.  1.
        -12    1    4    4    0    0  0.88784404385E+00 -0.19574540376E+01  0.20195801135E+02  0.20309856642E+02  0.00000000000E+00 0.  1.
</event>
<event>
 8    1  0.6046524E-010  0.9118800E+02  0.7816164E-02  0.1184000E+00
        -11   -1    0    0    0    0  0.00000000000E+00  0.00000000000E+00  0.45593999997E+02  0.45594000000E+02  0.51100000000E-03 0. -1.
         11   -1    0    0    0    0 -0.00000000000E+00 -0.00000000000E+00 -0.45593999997E+02  0.45594000000E+02  0.51100000000E-03 0.  1.
         23    2    1    2    0    0  0.00000000000E+00 -0.17763568394E-14  0.00000000000E+00  0.91188000000E+02  0.91188000000E+02 0.  0.
    9900012    2    3    3    0    0 -0.72380424900E+01 -0.14063726456E+02 -0.40415926383E+02  0.47787253851E+02  0.19999921607E+02 0.  0.
         12    1    3    3    0    0  0.72380424900E+01  0.14063726456E+02  0.40415926383E+02  0.43400746149E+02  0.00000000000E+00 0. -1.
         11    1    4    4    0    0  0.68869169381E+00  0.23406198867E+01 -0.27069211752E+01  0.36442036459E+01  0.51100000000E-03 0. -1.
        -11    1    4    4    0    0 -0.61257351203E+01 -0.14458601245E+02 -0.16532819584E+02  0.22801532939E+02  0.51100000000E-03 0.  1.
         12    1    4    4    0    0 -0.18009990635E+01 -0.19457450971E+01 -0.21176185624E+02  0.21341517266E+02  0.00000000000E+00 0. -1.
</event>
<event>
 8    1  0.6046524E-010  0.9118800E+02  0.7816164E-02  0.1184000E+00
        -11   -1    0    0    0    0  0.00000000000E+00  0.00000000000E+00  0.45593999997E+02  0.45594000000E+02  0.51100000000E-03 0. -1.
         11   -1    0    0    0    0 -0.00000000000E+00 -0.00000000000E+00 -0.45593999997E+02  0.45594000000E+02  0.51100000000E-03 0.  1.
         23    2    1    2    0    0 -0.12212453271E-14  0.00000000000E+00  0.00000000000E+00  0.91188000000E+02  0.91188000000E+02 0.  0.
    9900012    2    3    3    0    0 -0.25934402135E+00 -0.81794953984E+01 -0.42622202679E+02  0.47787267685E+02  0.19999984683E+02 0.  0.
         12    1    3    3    0    0  0.25934402135E+00  0.81794953984E+01  0.42622202679E+02  0.43400732315E+02  0.00000000000E+00 0. -1.
         11    1    4    4    0    0 -0.59421787782E+01  0.20456821040E+00 -0.60598633142E+01  0.84895983670E+01  0.51100000000E-03 0. -1.
        -11    1    4    4    0    0 -0.82455487354E+00 -0.36653438214E+01 -0.24601844367E+02  0.24887052510E+02  0.51100000000E-03 0.  1.
        -12    1    4    4    0    0  0.65073896304E+01 -0.47187197874E+01 -0.11960494997E+02  0.14410616809E+02  0.00000000000E+00 0.  1.
</event>
<event>
 8    1  0.6046524E-010  0.9118800E+02  0.7816164E-02  0.1184000E+00
        -11   -1    0    0    0    0  0.00000000000E+00  0.00000000000E+00  0.45593999997E+02  0.45594000000E+02  0.51100000000E-03 0. -1.
         11   -1    0    0    0    0 -0.00000000000E+00 -0.00000000000E+00 -0.45593999997E+02  0.45594000000E+02  0.51100000000E-03 0.  1.
         23    2    1    2    0    0  0.00000000000E+00  0.00000000000E+00  0.00000000000E+00  0.91188000000E+02  0.91188000000E+02 0.  0.
    9900012    2    3    3    0    0  0.17504736536E+02  0.32205519750E+02 -0.23238168753E+02  0.47787265092E+02  0.19999972860E+02 0.  0.
         12    1    3    3    0    0 -0.17504736536E+02 -0.32205519750E+02  0.23238168753E+02  0.43400734908E+02  0.00000000000E+00 0. -1.
         11    1    4    4    0    0  0.13311380451E+02  0.73311398245E+01 -0.14577347175E+02  0.21057956016E+02  0.51100000000E-03 0.  1.
        -11    1    4    4    0    0  0.22489069183E+00  0.57638584557E+01 -0.18859258740E+01  0.60687195341E+01  0.51100000000E-03 0. -1.
        -12    1    4    4    0    0  0.39684653936E+01  0.19110521470E+02 -0.67748957033E+01  0.20660589542E+02  0.00000000000E+00 0.  1.
</event>
<event>
 8    1  0.6046524E-010  0.9118800E+02  0.7816164E-02  0.1184000E+00
        -11   -1    0    0    0    0  0.00000000000E+00  0.00000000000E+00  0.45593999997E+02  0.45594000000E+02  0.51100000000E-03 0. -1.
         11   -1    0    0    0    0 -0.00000000000E+00 -0.00000000000E+00 -0.45593999997E+02  0.45594000000E+02  0.51100000000E-03 0.  1.
         23    2    1    2    0    0 -0.17763568394E-14 -0.35527136788E-14  0.71054273576E-14  0.91188000000E+02  0.91188000000E+02 0.  0.
    9900012    2    3    3    0    0  0.12938843670E+02  0.31023070186E+02 -0.27455048419E+02  0.47787259880E+02  0.19999949098E+02 0.  0.
         12    1    3    3    0    0 -0.12938843670E+02 -0.31023070186E+02  0.27455048419E+02  0.43400740120E+02  0.00000000000E+00 0. -1.
         11    1    4    4    0    0  0.11239087199E+01 -0.21396469257E+01 -0.11831703658E-01  0.24168988452E+01  0.51100000000E-03 0. -1.
        -11    1    4    4    0    0  0.88356323103E+01  0.14802145378E+02 -0.16075338781E+02  0.23570923260E+02  0.51100000000E-03 0.  1.
        -12    1    4    4    0    0  0.29793026398E+01  0.18360571734E+02 -0.11367877934E+02  0.21799437775E+02  0.00000000000E+00 0.  1.
</event>
<event>
 8    1  0.6046524E-010  0.9118800E+02  0.7816164E-02  0.1184000E+00
        -11   -1    0    0    0    0  0.00000000000E+00  0.00000000000E+00  0.45593999997E+02  0.45594000000E+02  0.51100000000E-03 0. -1.
         11   -1    0    0    0    0 -0.00000000000E+00 -0.00000000000E+00 -0.45593999997E+02  0.45594000000E+02  0.51100000000E-03 0.  1.
         23    2    1    2    0    0 -0.88817841970E-15  0.00000000000E+00  0.00000000000E+00  0.91188000000E+02  0.91188000000E+02 0.  0.
    9900012    2    3    3    0    0  0.73878273826E+01 -0.76618309696E+01 -0.42075405047E+02  0.47787270086E+02  0.19999995629E+02 0.  0.
         12    1    3    3    0    0 -0.73878273826E+01  0.76618309696E+01  0.42075405047E+02  0.43400729914E+02  0.00000000000E+00 0. -1.
         11    1    4    4    0    0 -0.18852943403E+01 -0.44015516935E+01 -0.72363600979E+01  0.86771481367E+01  0.51100000000E-03 0. -1.
        -11    1    4    4    0    0 -0.25985698234E+01 -0.48969706485E+01 -0.14205079045E+02  0.15248513291E+02  0.51100000000E-03 0.  1.
         12    1    4    4    0    0  0.11871691546E+02  0.16366913724E+01 -0.20633965904E+02  0.23861608658E+02  0.00000000000E+00 0. -1.
</event>
<event>
 8    1  0.6046524E-010  0.9118800E+02  0.7816164E-02  0.1184000E+00
        -11   -1    0    0    0    0  0.00000000000E+00  0.00000000000E+00  0.45593999997E+02  0.45594000000E+02  0.51100000000E-03 0. -1.
         11   -1    0    0    0    0 -0.00000000000E+00 -0.00000000000E+00 -0.45593999997E+02  0.45594000000E+02  0.51100000000E-03 0.  1.
         23    2    1    2    0    0 -0.71054273576E-14  0.00000000000E+00 -0.71054273576E-14  0.91188000000E+02  0.91188000000E+02 0.  0.
    9900012    2    3    3    0    0 -0.24229780194E+02  0.74017861303E+01  0.35238540498E+02  0.47787269331E+02  0.19999992188E+02 0.  0.
        -12    1    3    3    0    0  0.24229780194E+02 -0.74017861303E+01 -0.35238540498E+02  0.43400730669E+02  0.00000000000E+00 0.  1.
         11    1    4    4    0    0 -0.17378573637E+02  0.33358236862E+01  0.25289075225E+02  0.30865512588E+02  0.51100000000E-03 0. -1.
        -11    1    4    4    0    0 -0.65338814433E+01  0.76661498591E+01  0.72424113238E+01  0.12406207415E+02  0.51100000000E-03 0.  1.
        -12    1    4    4    0    0 -0.31732511390E+00 -0.36001874150E+01  0.27070539495E+01  0.45155493283E+01  0.00000000000E+00 0.  1.
</event>
<event>
 8    1  0.6046524E-010  0.9118800E+02  0.7816164E-02  0.1184000E+00
        -11   -1    0    0    0    0  0.00000000000E+00  0.00000000000E+00  0.45593999997E+02  0.45594000000E+02  0.51100000000E-03 0.  1.
         11   -1    0    0    0    0 -0.00000000000E+00 -0.00000000000E+00 -0.45593999997E+02  0.45594000000E+02  0.51100000000E-03 0. -1.
         23    2    1    2    0    0  0.00000000000E+00 -0.71054273576E-14 -0.17763568394E-14  0.91188000000E+02  0.91188000000E+02 0.  0.
    9900012    2    3    3    0    0 -0.26718852068E+01 -0.40594400586E+02  0.15118831942E+02  0.47787269490E+02  0.19999992914E+02 0.  0.
         12    1    3    3    0    0  0.26718852068E+01  0.40594400586E+02 -0.15118831942E+02  0.43400730510E+02  0.00000000000E+00 0. -1.
         11    1    4    4    0    0  0.16247867672E+00 -0.96937381848E+01  0.10645062945E+02  0.14398344512E+02  0.51100000000E-03 0. -1.
        -11    1    4    4    0    0 -0.33121430744E+01 -0.26890695514E+02  0.77590776559E+01  0.28183028285E+02  0.51100000000E-03 0.  1.
         12    1    4    4    0    0  0.47777919084E+00 -0.40099668876E+01 -0.32853086597E+01  0.52058966936E+01  0.00000000000E+00 0. -1.
</event>
<event>
 8    1  0.6046524E-010  0.9118800E+02  0.7816164E-02  0.1184000E+00
        -11   -1    0    0    0    0  0.00000000000E+00  0.00000000000E+00  0.45593999997E+02  0.45594000000E+02  0.51100000000E-03 0. -1.
         11   -1    0    0    0    0 -0.00000000000E+00 -0.00000000000E+00 -0.45593999997E+02  0.45594000000E+02  0.51100000000E-03 0.  1.
         23    2    1    2    0    0 -0.35527136788E-14  0.00000000000E+00  0.17763568394E-14  0.91188000000E+02  0.91188000000E+02 0.  0.
    9900012    2    3    3    0    0 -0.31699004373E+02  0.28543344358E+02 -0.80046276670E+01  0.47787269021E+02  0.19999990776E+02 0.  0.
         12    1    3    3    0    0  0.31699004373E+02 -0.28543344358E+02  0.80046276670E+01  0.43400730979E+02  0.00000000000E+00 0. -1.
         11    1    4    4    0    0 -0.77009662799E+01  0.11801244944E+02 -0.26717549228E+01  0.14342682403E+02  0.51100000000E-03 0. -1.
        -11    1    4    4    0    0 -0.11677011593E+02  0.10610877144E+02  0.46431178227E+01  0.16446940654E+02  0.51100000000E-03 0.  1.
         12    1    4    4    0    0 -0.12321026501E+02  0.61312222699E+01 -0.99759905669E+01  0.16997645965E+02  0.00000000000E+00 0. -1.
</event>
<event>
 8    1  0.6046524E-010  0.9118800E+02  0.7816164E-02  0.1184000E+00
        -11   -1    0    0    0    0  0.00000000000E+00  0.00000000000E+00  0.45593999997E+02  0.45594000000E+02  0.51100000000E-03 0. -1.
         11   -1    0    0    0    0 -0.00000000000E+00 -0.00000000000E+00 -0.45593999997E+02  0.45594000000E+02  0.51100000000E-03 0.  1.
         23    2    1    2    0    0  0.35527136788E-14  0.00000000000E+00  0.71054273576E-14  0.91188000000E+02  0.91188000000E+02 0.  0.
    9900012    2    3    3    0    0 -0.14570977876E+02  0.18023117902E+02 -0.36694376758E+02  0.47787268891E+02  0.19999990182E+02 0.  0.
         12    1    3    3    0    0  0.14570977876E+02 -0.18023117902E+02  0.36694376758E+02  0.43400731109E+02  0.00000000000E+00 0. -1.
         11    1    4    4    0    0 -0.50460581825E+00 -0.14239070827E+01  0.58306005773E+00  0.16192892589E+01  0.51100000000E-03 0. -1.
        -11    1    4    4    0    0 -0.13915895104E+02  0.10644464446E+02 -0.18787303888E+02  0.25688899306E+02  0.51100000000E-03 0.  1.
         12    1    4    4    0    0 -0.15047695349E+00  0.88025605384E+01 -0.18490132927E+02  0.20479080326E+02  0.00000000000E+00 0. -1.
</event>
<event>
 8    1  0.6046524E-010  0.9118800E+02  0.7816164E-02  0.1184000E+00
        -11   -1    0    0    0    0  0.00000000000E+00  0.00000000000E+00  0.45593999997E+02  0.45594000000E+02  0.51100000000E-03 0. -1.
         11   -1    0    0    0    0 -0.00000000000E+00 -0.00000000000E+00 -0.45593999997E+02  0.45594000000E+02  0.51100000000E-03 0.  1.
         23    2    1    2    0    0  0.00000000000E+00  0.00000000000E+00  0.00000000000E+00  0.91188000000E+02  0.91188000000E+02 0.  0.
    9900012    2    3    3    0    0  0.11082842345E+02  0.11122212488E+02 -0.40460974545E+02  0.47787268829E+02  0.19999989897E+02 0.  0.
         12    1    3    3    0    0 -0.11082842345E+02 -0.11122212488E+02  0.40460974545E+02  0.43400731171E+02  0.00000000000E+00 0. -1.
         11    1    4    4    0    0  0.29986806774E+01 -0.42256532493E+00 -0.20768744132E+02  0.20988362974E+02  0.51100000000E-03 0. -1.
        -11    1    4    4    0    0  0.64408970581E+01  0.12714590839E+01 -0.32104568023E+01  0.73081322002E+01  0.51100000000E-03 0.  1.
        -12    1    4    4    0    0  0.16432646095E+01  0.10273318729E+02 -0.16481773611E+02  0.19490773654E+02  0.00000000000E+00 0.  1.
</event>
<event>
 8    1  0.6046524E-010  0.9118800E+02  0.7816164E-02  0.1184000E+00
        -11   -1    0    0    0    0  0.00000000000E+00  0.00000000000E+00  0.45593999997E+02  0.45594000000E+02  0.51100000000E-03 0. -1.
         11   -1    0    0    0    0 -0.00000000000E+00 -0.00000000000E+00 -0.45593999997E+02  0.45594000000E+02  0.51100000000E-03 0.  1.
         23    2    1    2    0    0  0.00000000000E+00  0.00000000000E+00 -0.35527136788E-14  0.91188000000E+02  0.91188000000E+02 0.  0.
    9900012    2    3    3    0    0  0.13125658599E+02 -0.28136043202E+02  0.30326623865E+02  0.47787263188E+02  0.19999964182E+02 0.  0.
        -12    1    3    3    0    0 -0.13125658599E+02  0.28136043202E+02 -0.30326623865E+02  0.43400736812E+02  0.00000000000E+00 0.  1.
         11    1    4    4    0    0 -0.31727953588E+01 -0.47891351968E+01  0.10699814138E+02  0.12144483076E+02  0.51100000000E-03 0. -1.
        -11    1    4    4    0    0  0.53126852618E+01 -0.14612587461E+02  0.12204510659E+02  0.19766193809E+02  0.51100000000E-03 0.  1.
        -12    1    4    4    0    0  0.10985768696E+02 -0.87343205443E+01  0.74222990675E+01  0.15876586304E+02  0.00000000000E+00 0.  1.
</event>
<event>
 8    1  0.6046524E-010  0.9118800E+02  0.7816164E-02  0.1184000E+00
        -11   -1    0    0    0    0  0.00000000000E+00  0.00000000000E+00  0.45593999997E+02  0.45594000000E+02  0.51100000000E-03 0. -1.
         11   -1    0    0    0    0 -0.00000000000E+00 -0.00000000000E+00 -0.45593999997E+02  0.45594000000E+02  0.51100000000E-03 0.  1.
         23    2    1    2    0    0  0.35527136788E-14  0.17763568394E-14  0.00000000000E+00  0.91188000000E+02  0.91188000000E+02 0.  0.
    9900012    2    3    3    0    0  0.20814580595E+02 -0.57280254053E+01  0.37650575737E+02  0.47787275424E+02  0.20000019968E+02 0.  0.
        -12    1    3    3    0    0 -0.20814580595E+02  0.57280254053E+01 -0.37650575737E+02  0.43400724576E+02  0.00000000000E+00 0.  1.
         11    1    4    4    0    0  0.26756961342E+00  0.22692804056E+01  0.31072331941E+01  0.38569580554E+01  0.51100000000E-03 0.  1.
        -11    1    4    4    0    0  0.11053725285E+02 -0.12437037223E+02  0.22039807600E+02  0.27615536512E+02  0.51100000000E-03 0. -1.
         12    1    4    4    0    0  0.94932856962E+01  0.44397314116E+01  0.12503534943E+02  0.16314780857E+02  0.00000000000E+00 0. -1.
</event>
<event>
 8    1  0.6046524E-010  0.9118800E+02  0.7816164E-02  0.1184000E+00
        -11   -1    0    0    0    0  0.00000000000E+00  0.00000000000E+00  0.45593999997E+02  0.45594000000E+02  0.51100000000E-03 0.  1.
         11   -1    0    0    0    0 -0.00000000000E+00 -0.00000000000E+00 -0.45593999997E+02  0.45594000000E+02  0.51100000000E-03 0. -1.
         23    2    1    2    0    0 -0.44408920985E-15  0.00000000000E+00 -0.71054273576E-14  0.91188000000E+02  0.91188000000E+02 0.  0.
    9900012    2    3    3    0    0  0.37976308297E+01 -0.17634867324E+02  0.39474193008E+02  0.47787280431E+02  0.20000042799E+02 0.  0.
        -12    1    3    3    0    0 -0.37976308297E+01  0.17634867324E+02 -0.39474193008E+02  0.43400719569E+02  0.00000000000E+00 0.  1.
         11    1    4    4    0    0 -0.26191048497E+01 -0.17541573948E+01  0.35204970242E+01  0.47255346721E+01  0.51100000000E-03 0. -1.
        -11    1    4    4    0    0  0.11062644106E+02 -0.13956326412E+02  0.32162915551E+02  0.36764307127E+02  0.51100000000E-03 0.  1.
        -12    1    4    4    0    0 -0.46459084271E+01 -0.19243835179E+01  0.37907804326E+01  0.62974386322E+01  0.00000000000E+00 0.  1.
</event>
<event>
 8    1  0.6046524E-010  0.9118800E+02  0.7816164E-02  0.1184000E+00
        -11   -1    0    0    0    0  0.00000000000E+00  0.00000000000E+00  0.45593999997E+02  0.45594000000E+02  0.51100000000E-03 0. -1.
         11   -1    0    0    0    0 -0.00000000000E+00 -0.00000000000E+00 -0.45593999997E+02  0.45594000000E+02  0.51100000000E-03 0.  1.
         23    2    1    2    0    0 -0.71054273576E-14  0.00000000000E+00  0.00000000000E+00  0.91188000000E+02  0.91188000000E+02 0.  0.
    9900012    2    3    3    0    0  0.38613946189E+02  0.11540798326E+02  0.16105785878E+02  0.47787271837E+02  0.20000003616E+02 0.  0.
        -12    1    3    3    0    0 -0.38613946189E+02 -0.11540798326E+02 -0.16105785878E+02  0.43400728163E+02  0.00000000000E+00 0.  1.
         11    1    4    4    0    0  0.22805924514E+02  0.17159125524E+01  0.88719356512E+01  0.24530915011E+02  0.51100000000E-03 0. -1.
        -11    1    4    4    0    0  0.14928989717E+02  0.91865066799E+01  0.16936568885E+01  0.17610653392E+02  0.51100000000E-03 0.  1.
         12    1    4    4    0    0  0.87903195805E+00  0.63837909387E+00  0.55401933382E+01  0.56457034350E+01  0.00000000000E+00 0. -1.
</event>
<event>
 8    1  0.6046524E-010  0.9118800E+02  0.7816164E-02  0.1184000E+00
        -11   -1    0    0    0    0  0.00000000000E+00  0.00000000000E+00  0.45593999997E+02  0.45594000000E+02  0.51100000000E-03 0. -1.
         11   -1    0    0    0    0 -0.00000000000E+00 -0.00000000000E+00 -0.45593999997E+02  0.45594000000E+02  0.51100000000E-03 0.  1.
         23    2    1    2    0    0  0.00000000000E+00  0.17763568394E-14  0.00000000000E+00  0.91188000000E+02  0.91188000000E+02 0.  0.
    9900012    2    3    3    0    0  0.18831708480E+02  0.13452134641E+02 -0.36715535753E+02  0.47787265717E+02  0.19999975712E+02 0.  0.
         12    1    3    3    0    0 -0.18831708480E+02 -0.13452134641E+02  0.36715535753E+02  0.43400734283E+02  0.00000000000E+00 0. -1.
         11    1    4    4    0    0  0.25688349977E+00  0.94721880678E+01 -0.80719693203E+01  0.12447691549E+02  0.51100000000E-03 0. -1.
        -11    1    4    4    0    0 -0.54388191519E+00  0.12790417612E+01 -0.19594487325E+01  0.24023311514E+01  0.51100000000E-03 0.  1.
         12    1    4    4    0    0  0.19118706895E+02  0.27009048116E+01 -0.26684117700E+02  0.32937243017E+02  0.00000000000E+00 0. -1.
</event>
<event>
 8    1  0.6046524E-010  0.9118800E+02  0.7816164E-02  0.1184000E+00
        -11   -1    0    0    0    0  0.00000000000E+00  0.00000000000E+00  0.45593999997E+02  0.45594000000E+02  0.51100000000E-03 0. -1.
         11   -1    0    0    0    0 -0.00000000000E+00 -0.00000000000E+00 -0.45593999997E+02  0.45594000000E+02  0.51100000000E-03 0.  1.
         23    2    1    2    0    0  0.00000000000E+00  0.00000000000E+00  0.00000000000E+00  0.91188000000E+02  0.91188000000E+02 0.  0.
    9900012    2    3    3    0    0  0.14678546209E+02  0.16685192076E+02 -0.37279603980E+02  0.47787260072E+02  0.19999949970E+02 0.  0.
         12    1    3    3    0    0 -0.14678546209E+02 -0.16685192076E+02  0.37279603980E+02  0.43400739928E+02  0.00000000000E+00 0. -1.
         11    1    4    4    0    0  0.22872608134E+01  0.75773533385E+01 -0.14473869971E+02  0.16496689299E+02  0.51100000000E-03 0. -1.
        -11    1    4    4    0    0  0.13450343315E+02  0.74965349223E+01 -0.10045261507E+02  0.18385240008E+02  0.51100000000E-03 0.  1.
        -12    1    4    4    0    0 -0.10590579193E+01  0.16113038147E+01 -0.12760472502E+02  0.12905330765E+02  0.00000000000E+00 0.  1.
</event>
<event>
 8    1  0.6046524E-010  0.9118800E+02  0.7816164E-02  0.1184000E+00
        -11   -1    0    0    0    0  0.00000000000E+00  0.00000000000E+00  0.45593999997E+02  0.45594000000E+02  0.51100000000E-03 0. -1.
         11   -1    0    0    0    0 -0.00000000000E+00 -0.00000000000E+00 -0.45593999997E+02  0.45594000000E+02  0.51100000000E-03 0.  1.
         23    2    1    2    0    0  0.00000000000E+00  0.00000000000E+00  0.00000000000E+00  0.91188000000E+02  0.91188000000E+02 0.  0.
    9900012    2    3    3    0    0 -0.18695733948E+02 -0.78439702313E+01  0.38374012879E+02  0.47787271881E+02  0.20000003812E+02 0.  0.
        -12    1    3    3    0    0  0.18695733948E+02  0.78439702313E+01 -0.38374012879E+02  0.43400728119E+02  0.00000000000E+00 0.  1.
         11    1    4    4    0    0 -0.12163395094E+02 -0.41006480948E+01  0.15581565223E+02  0.20187834705E+02  0.51100000000E-03 0. -1.
        -11    1    4    4    0    0  0.93689757937E+00  0.31960520284E+00 -0.15363267956E+01  0.18276282018E+01  0.51100000000E-03 0.  1.
         12    1    4    4    0    0 -0.74692364336E+01 -0.40629273394E+01  0.24328774452E+02  0.25771808974E+02  0.00000000000E+00 0. -1.
</event>
<event>
 8    1  0.6046524E-010  0.9118800E+02  0.7816164E-02  0.1184000E+00
        -11   -1    0    0    0    0  0.00000000000E+00  0.00000000000E+00  0.45593999997E+02  0.45594000000E+02  0.51100000000E-03 0. -1.
         11   -1    0    0    0    0 -0.00000000000E+00 -0.00000000000E+00 -0.45593999997E+02  0.45594000000E+02  0.51100000000E-03 0.  1.
         23    2    1    2    0    0  0.00000000000E+00  0.00000000000E+00  0.00000000000E+00  0.91188000000E+02  0.91188000000E+02 0.  0.
    9900012    2    3    3    0    0 -0.52394272102E+01 -0.11047669536E+02  0.41642775529E+02  0.47787270128E+02  0.19999995821E+02 0.  0.
        -12    1    3    3    0    0  0.52394272102E+01  0.11047669536E+02 -0.41642775529E+02  0.43400729872E+02  0.00000000000E+00 0.  1.
         11    1    4    4    0    0 -0.57537722633E+01 -0.42016360553E+01  0.94778785254E+01  0.11857057915E+02  0.51100000000E-03 0. -1.
        -11    1    4    4    0    0  0.63820993881E+01 -0.10916930784E+01  0.73772091138E+01  0.98156100649E+01  0.51100000000E-03 0.  1.
        -12    1    4    4    0    0 -0.58677543349E+01 -0.57543404023E+01  0.24787687890E+02  0.26114602148E+02  0.00000000000E+00 0.  1.
</event>
<event>
 8    1  0.6046524E-010  0.9118800E+02  0.7816164E-02  0.1184000E+00
        -11   -1    0    0    0    0  0.00000000000E+00  0.00000000000E+00  0.45593999997E+02  0.45594000000E+02  0.51100000000E-03 0. -1.
         11   -1    0    0    0    0 -0.00000000000E+00 -0.00000000000E+00 -0.45593999997E+02  0.45594000000E+02  0.51100000000E-03 0.  1.
         23    2    1    2    0    0  0.17763568394E-14 -0.71054273576E-14  0.00000000000E+00  0.91188000000E+02  0.91188000000E+02 0.  0.
    9900012    2    3    3    0    0  0.11245324414E+02 -0.32475755902E+02 -0.26504551285E+02  0.47787270957E+02  0.19999999603E+02 0.  0.
         12    1    3    3    0    0 -0.11245324414E+02  0.32475755902E+02  0.26504551285E+02  0.43400729043E+02  0.00000000000E+00 0. -1.
         11    1    4    4    0    0  0.29358529862E+01 -0.10449192437E+02 -0.28321198998E+01  0.11217208152E+02  0.51100000000E-03 0. -1.
        -11    1    4    4    0    0  0.89012818906E+01 -0.13876073680E+02 -0.68198041296E+01  0.17840626914E+02  0.51100000000E-03 0.  1.
        -12    1    4    4    0    0 -0.59181046250E+00 -0.81504897855E+01 -0.16852627256E+02  0.18729435891E+02  0.00000000000E+00 0.  1.
</event>
<event>
 8    1  0.6046524E-010  0.9118800E+02  0.7816164E-02  0.1184000E+00
        -11   -1    0    0    0    0  0.00000000000E+00  0.00000000000E+00  0.45593999997E+02  0.45594000000E+02  0.51100000000E-03 0.  1.
         11   -1    0    0    0    0 -0.00000000000E+00 -0.00000000000E+00 -0.45593999997E+02  0.45594000000E+02  0.51100000000E-03 0. -1.
         23    2    1    2    0    0 -0.71054273576E-14  0.00000000000E+00  0.00000000000E+00  0.91188000000E+02  0.91188000000E+02 0.  0.
    9900012    2    3    3    0    0 -0.34967224178E+02 -0.10905770811E+02 -0.23280483051E+02  0.47787268499E+02  0.19999988396E+02 0.  0.
         12    1    3    3    0    0  0.34967224178E+02  0.10905770811E+02  0.23280483051E+02  0.43400731501E+02  0.00000000000E+00 0. -1.
         11    1    4    4    0    0 -0.67944242353E+01  0.13021930419E+01 -0.11166794177E+02  0.13136102917E+02  0.51100000000E-03 0. -1.
        -11    1    4    4    0    0 -0.14283728827E+02 -0.99104699809E+01 -0.10903532346E+02  0.20521436167E+02  0.51100000000E-03 0.  1.
         12    1    4    4    0    0 -0.13889071115E+02 -0.22974938719E+01 -0.12101565288E+01  0.14129729416E+02  0.00000000000E+00 0. -1.
</event>
<event>
 8    1  0.6046524E-010  0.9118800E+02  0.7816164E-02  0.1184000E+00
        -11   -1    0    0    0    0  0.00000000000E+00  0.00000000000E+00  0.45593999997E+02  0.45594000000E+02  0.51100000000E-03 0.  1.
         11   -1    0    0    0    0 -0.00000000000E+00 -0.00000000000E+00 -0.45593999997E+02  0.45594000000E+02  0.51100000000E-03 0. -1.
         23    2    1    2    0    0  0.00000000000E+00  0.00000000000E+00 -0.35527136788E-14  0.91188000000E+02  0.91188000000E+02 0.  0.
    9900012    2    3    3    0    0  0.37001133396E+02  0.66211272003E+01 -0.21695648040E+02  0.47787258741E+02  0.19999943904E+02 0.  0.
         12    1    3    3    0    0 -0.37001133396E+02 -0.66211272003E+01  0.21695648040E+02  0.43400741259E+02  0.00000000000E+00 0. -1.
         11    1    4    4    0    0  0.22168166390E+01  0.87022253769E-01 -0.41950053432E+01  0.47455156700E+01  0.51100000000E-03 0. -1.
        -11    1    4    4    0    0  0.30583415308E+02  0.58572909073E+01 -0.20978114562E+02  0.37546430450E+02  0.51100000000E-03 0.  1.
        -12    1    4    4    0    0  0.42009014485E+01  0.67681403929E+00  0.34774718659E+01  0.54953126210E+01  0.00000000000E+00 0.  1.
</event>
<event>
 8    1  0.6046524E-010  0.9118800E+02  0.7816164E-02  0.1184000E+00
        -11   -1    0    0    0    0  0.00000000000E+00  0.00000000000E+00  0.45593999997E+02  0.45594000000E+02  0.51100000000E-03 0. -1.
         11   -1    0    0    0    0 -0.00000000000E+00 -0.00000000000E+00 -0.45593999997E+02  0.45594000000E+02  0.51100000000E-03 0.  1.
         23    2    1    2    0    0  0.00000000000E+00  0.22204460493E-15  0.00000000000E+00  0.91188000000E+02  0.91188000000E+02 0.  0.
    9900012    2    3    3    0    0  0.22742037113E+02  0.15273877057E+01  0.36933590544E+02  0.47787271023E+02  0.19999999902E+02 0.  0.
        -12    1    3    3    0    0 -0.22742037113E+02 -0.15273877057E+01 -0.36933590544E+02  0.43400728977E+02  0.00000000000E+00 0.  1.
         11    1    4    4    0    0  0.61170187834E+01 -0.11539350595E+00  0.21719994451E+02  0.22565225318E+02  0.51100000000E-03 0. -1.
        -11    1    4    4    0    0 -0.53341853190E+00  0.14050022026E+01 -0.84147042428E+00  0.17223934671E+01  0.51100000000E-03 0.  1.
         12    1    4    4    0    0  0.17158436862E+02  0.23777900904E+00  0.16055066517E+02  0.23499652237E+02  0.00000000000E+00 0. -1.
</event>
<event>
 8    1  0.6046524E-010  0.9118800E+02  0.7816164E-02  0.1184000E+00
        -11   -1    0    0    0    0  0.00000000000E+00  0.00000000000E+00  0.45593999997E+02  0.45594000000E+02  0.51100000000E-03 0. -1.
         11   -1    0    0    0    0 -0.00000000000E+00 -0.00000000000E+00 -0.45593999997E+02  0.45594000000E+02  0.51100000000E-03 0.  1.
         23    2    1    2    0    0 -0.22204460493E-15  0.00000000000E+00  0.00000000000E+00  0.91188000000E+02  0.91188000000E+02 0.  0.
    9900012    2    3    3    0    0 -0.85464643322E+00  0.28778683633E+01 -0.43296775225E+02  0.47787270839E+02  0.19999999063E+02 0.  0.
         12    1    3    3    0    0  0.85464643322E+00 -0.28778683633E+01  0.43296775225E+02  0.43400729161E+02  0.00000000000E+00 0. -1.
         11    1    4    4    0    0  0.16561534299E+01 -0.66673369046E+00 -0.61264934378E-03  0.17853231175E+01  0.51100000000E-03 0. -1.
        -11    1    4    4    0    0 -0.31198803297E+01 -0.26586656584E+00 -0.41713993739E+02  0.41831347244E+02  0.51100000000E-03 0.  1.
        -12    1    4    4    0    0  0.60908046656E+00  0.38104686196E+01 -0.15821688362E+01  0.41706004773E+01  0.00000000000E+00 0.  1.
</event>
<event>
 8    1  0.6046524E-010  0.9118800E+02  0.7816164E-02  0.1184000E+00
        -11   -1    0    0    0    0  0.00000000000E+00  0.00000000000E+00  0.45593999997E+02  0.45594000000E+02  0.51100000000E-03 0. -1.
         11   -1    0    0    0    0 -0.00000000000E+00 -0.00000000000E+00 -0.45593999997E+02  0.45594000000E+02  0.51100000000E-03 0.  1.
         23    2    1    2    0    0  0.00000000000E+00  0.00000000000E+00  0.00000000000E+00  0.91188000000E+02  0.91188000000E+02 0.  0.
    9900012    2    3    3    0    0  0.31065963210E+02  0.61298152404E+01  0.29680870082E+02  0.47787277035E+02  0.20000027312E+02 0.  0.
        -12    1    3    3    0    0 -0.31065963210E+02 -0.61298152404E+01 -0.29680870082E+02  0.43400722965E+02  0.00000000000E+00 0.  1.
         11    1    4    4    0    0  0.44326524244E+01 -0.21485071721E+01  0.71679102217E+01  0.86973230244E+01  0.51100000000E-03 0. -1.
        -11    1    4    4    0    0  0.51132818530E+01  0.33548770001E-01  0.13339398059E+02  0.14285878260E+02  0.51100000000E-03 0.  1.
         12    1    4    4    0    0  0.21520028933E+02  0.82447736425E+01  0.91735618015E+01  0.24804075750E+02  0.00000000000E+00 0. -1.
</event>
<event>
 8    1  0.6046524E-010  0.9118800E+02  0.7816164E-02  0.1184000E+00
        -11   -1    0    0    0    0  0.00000000000E+00  0.00000000000E+00  0.45593999997E+02  0.45594000000E+02  0.51100000000E-03 0. -1.
         11   -1    0    0    0    0 -0.00000000000E+00 -0.00000000000E+00 -0.45593999997E+02  0.45594000000E+02  0.51100000000E-03 0.  1.
         23    2    1    2    0    0  0.35527136788E-14  0.17763568394E-14  0.00000000000E+00  0.91188000000E+02  0.91188000000E+02 0.  0.
    9900012    2    3    3    0    0  0.26776546651E+02  0.88203331305E+01  0.32997596971E+02  0.47787272668E+02  0.20000007403E+02 0.  0.
        -12    1    3    3    0    0 -0.26776546651E+02 -0.88203331305E+01 -0.32997596971E+02  0.43400727332E+02  0.00000000000E+00 0.  1.
         11    1    4    4    0    0  0.14372810504E+02  0.16680290043E+01  0.13734024831E+02  0.19949522321E+02  0.51100000000E-03 0. -1.
        -11    1    4    4    0    0  0.37689894327E+01  0.65763304436E+01  0.17408695236E+02  0.18987260822E+02  0.51100000000E-03 0.  1.
         12    1    4    4    0    0  0.86347467139E+01  0.57597368249E+00  0.18548769049E+01  0.88504895248E+01  0.00000000000E+00 0. -1.
</event>
<event>
 8    1  0.6046524E-010  0.9118800E+02  0.7816164E-02  0.1184000E+00
        -11   -1    0    0    0    0  0.00000000000E+00  0.00000000000E+00  0.45593999997E+02  0.45594000000E+02  0.51100000000E-03 0.  1.
         11   -1    0    0    0    0 -0.00000000000E+00 -0.00000000000E+00 -0.45593999997E+02  0.45594000000E+02  0.51100000000E-03 0. -1.
         23    2    1    2    0    0  0.00000000000E+00 -0.71054273576E-14  0.00000000000E+00  0.91188000000E+02  0.91188000000E+02 0.  0.
    9900012    2    3    3    0    0  0.15672521447E+02 -0.34420248766E+02  0.21289473349E+02  0.47787272713E+02  0.20000007607E+02 0.  0.
        -12    1    3    3    0    0 -0.15672521447E+02  0.34420248766E+02 -0.21289473349E+02  0.43400727287E+02  0.00000000000E+00 0.  1.
         11    1    4    4    0    0  0.12948673131E+02 -0.34554748116E+02  0.18854560050E+02  0.41439029769E+02  0.51100000000E-03 0. -1.
        -11    1    4    4    0    0 -0.11868881616E+01  0.10077041141E+00 -0.65920845824E+00  0.13614015706E+01  0.51100000000E-03 0.  1.
        -12    1    4    4    0    0  0.39107364776E+01  0.33728938970E-01  0.30941217569E+01  0.49868413736E+01  0.00000000000E+00 0.  1.
</event>
<event>
 8    1  0.6046524E-010  0.9118800E+02  0.7816164E-02  0.1184000E+00
        -11   -1    0    0    0    0  0.00000000000E+00  0.00000000000E+00  0.45593999997E+02  0.45594000000E+02  0.51100000000E-03 0. -1.
         11   -1    0    0    0    0 -0.00000000000E+00 -0.00000000000E+00 -0.45593999997E+02  0.45594000000E+02  0.51100000000E-03 0.  1.
         23    2    1    2    0    0 -0.17763568394E-14  0.00000000000E+00  0.00000000000E+00  0.91188000000E+02  0.91188000000E+02 0.  0.
    9900012    2    3    3    0    0 -0.32360426410E+01 -0.39406466038E+02  0.17896406115E+02  0.47787275474E+02  0.20000020197E+02 0.  0.
        -12    1    3    3    0    0  0.32360426410E+01  0.39406466038E+02 -0.17896406115E+02  0.43400724526E+02  0.00000000000E+00 0.  1.
         11    1    4    4    0    0  0.81006508585E+00 -0.10546963563E+02  0.60794439397E+01  0.12200585425E+02  0.51100000000E-03 0. -1.
        -11    1    4    4    0    0 -0.97928861212E+01 -0.13370655423E+02  0.29395181229E+01  0.16831987764E+02  0.51100000000E-03 0.  1.
        -12    1    4    4    0    0  0.57467783943E+01 -0.15488847052E+02  0.88774440521E+01  0.18754702285E+02  0.00000000000E+00 0.  1.
</event>
<event>
 8    1  0.6046524E-010  0.9118800E+02  0.7816164E-02  0.1184000E+00
        -11   -1    0    0    0    0  0.00000000000E+00  0.00000000000E+00  0.45593999997E+02  0.45594000000E+02  0.51100000000E-03 0. -1.
         11   -1    0    0    0    0 -0.00000000000E+00 -0.00000000000E+00 -0.45593999997E+02  0.45594000000E+02  0.51100000000E-03 0.  1.
         23    2    1    2    0    0 -0.35527136788E-14  0.00000000000E+00 -0.17763568394E-14  0.91188000000E+02  0.91188000000E+02 0.  0.
    9900012    2    3    3    0    0 -0.20384179311E+02  0.35082326571E+02  0.15405805185E+02  0.47787271466E+02  0.20000001924E+02 0.  0.
        -12    1    3    3    0    0  0.20384179311E+02 -0.35082326571E+02 -0.15405805185E+02  0.43400728534E+02  0.00000000000E+00 0.  1.
         11    1    4    4    0    0 -0.18477615803E+02  0.29377775856E+02  0.67593158951E+01  0.35357663266E+02  0.51100000000E-03 0. -1.
        -11    1    4    4    0    0  0.23748650819E+01  0.23512740983E+01  0.22257480447E+01  0.40152744192E+01  0.51100000000E-03 0.  1.
        -12    1    4    4    0    0 -0.42814285907E+01  0.33532766175E+01  0.64207412450E+01  0.84143337815E+01  0.00000000000E+00 0.  1.
</event>
<event>
 8    1  0.6046524E-010  0.9118800E+02  0.7816164E-02  0.1184000E+00
        -11   -1    0    0    0    0  0.00000000000E+00  0.00000000000E+00  0.45593999997E+02  0.45594000000E+02  0.51100000000E-03 0.  1.
         11   -1    0    0    0    0 -0.00000000000E+00 -0.00000000000E+00 -0.45593999997E+02  0.45594000000E+02  0.51100000000E-03 0. -1.
         23    2    1    2    0    0  0.00000000000E+00  0.00000000000E+00  0.00000000000E+00  0.91188000000E+02  0.91188000000E+02 0.  0.
    9900012    2    3    3    0    0 -0.30862840440E+02  0.23567287551E+02  0.19382760013E+02  0.47787270188E+02  0.19999996093E+02 0.  0.
        -12    1    3    3    0    0  0.30862840440E+02 -0.23567287551E+02 -0.19382760013E+02  0.43400729812E+02  0.00000000000E+00 0.  1.
         11    1    4    4    0    0  0.42247731070E+00 -0.71327162576E+00  0.55485712407E+00  0.99755209359E+00  0.51100000000E-03 0. -1.
        -11    1    4    4    0    0  0.47557686676E+00 -0.79648468175E+00 -0.12967699159E+01  0.15944195434E+01  0.51100000000E-03 0.  1.
         12    1    4    4    0    0 -0.31760894617E+02  0.25077043859E+02  0.20124672805E+02  0.45195298551E+02  0.00000000000E+00 0. -1.
</event>
<event>
 8    1  0.6046524E-010  0.9118800E+02  0.7816164E-02  0.1184000E+00
        -11   -1    0    0    0    0  0.00000000000E+00  0.00000000000E+00  0.45593999997E+02  0.45594000000E+02  0.51100000000E-03 0. -1.
         11   -1    0    0    0    0 -0.00000000000E+00 -0.00000000000E+00 -0.45593999997E+02  0.45594000000E+02  0.51100000000E-03 0.  1.
         23    2    1    2    0    0 -0.88817841970E-15  0.00000000000E+00  0.00000000000E+00  0.91188000000E+02  0.91188000000E+02 0.  0.
    9900012    2    3    3    0    0  0.55419576359E+01 -0.17095443278E+02  0.39505133601E+02  0.47787273553E+02  0.20000011437E+02 0.  0.
        -12    1    3    3    0    0 -0.55419576359E+01  0.17095443278E+02 -0.39505133601E+02  0.43400726447E+02  0.00000000000E+00 0.  1.
         11    1    4    4    0    0 -0.26790967989E+01 -0.97073056412E+01  0.28053159902E+02  0.29805857196E+02  0.51100000000E-03 0. -1.
        -11    1    4    4    0    0  0.61276363065E+01 -0.47618846274E+01  0.12276075110E+02  0.14523274158E+02  0.51100000000E-03 0.  1.
         12    1    4    4    0    0  0.20934181283E+01 -0.26262530094E+01 -0.82410141077E+00  0.34581421984E+01  0.00000000000E+00 0. -1.
</event>
<event>
 8    1  0.6046524E-010  0.9118800E+02  0.7816164E-02  0.1184000E+00
        -11   -1    0    0    0    0  0.00000000000E+00  0.00000000000E+00  0.45593999997E+02  0.45594000000E+02  0.51100000000E-03 0. -1.
         11   -1    0    0    0    0 -0.00000000000E+00 -0.00000000000E+00 -0.45593999997E+02  0.45594000000E+02  0.51100000000E-03 0.  1.
         23    2    1    2    0    0  0.00000000000E+00  0.00000000000E+00 -0.35527136788E-14  0.91188000000E+02  0.91188000000E+02 0.  0.
    9900012    2    3    3    0    0 -0.19110153617E+02  0.28476200595E+02 -0.26599458973E+02  0.47787272019E+02  0.20000004444E+02 0.  0.
         12    1    3    3    0    0  0.19110153617E+02 -0.28476200595E+02  0.26599458973E+02  0.43400727981E+02  0.00000000000E+00 0. -1.
         11    1    4    4    0    0 -0.84112539077E+01  0.11437900661E+02 -0.11680584977E+02  0.18385070832E+02  0.51100000000E-03 0.  1.
        -11    1    4    4    0    0 -0.81994530911E+01  0.49097992878E+01  0.56710089392E+00  0.95738583510E+01  0.51100000000E-03 0. -1.
         12    1    4    4    0    0 -0.24994466178E+01  0.12128500647E+02 -0.15485974891E+02  0.19828342837E+02  0.00000000000E+00 0. -1.
</event>
<event>
 8    1  0.6046524E-010  0.9118800E+02  0.7816164E-02  0.1184000E+00
        -11   -1    0    0    0    0  0.00000000000E+00  0.00000000000E+00  0.45593999997E+02  0.45594000000E+02  0.51100000000E-03 0.  1.
         11   -1    0    0    0    0 -0.00000000000E+00 -0.00000000000E+00 -0.45593999997E+02  0.45594000000E+02  0.51100000000E-03 0. -1.
         23    2    1    2    0    0  0.88817841970E-15  0.71054273576E-14  0.17763568394E-14  0.91188000000E+02  0.91188000000E+02 0.  0.
    9900012    2    3    3    0    0  0.32690263293E+01  0.42191322047E+02  0.96348183955E+01  0.47787263661E+02  0.19999966337E+02 0.  0.
        -12    1    3    3    0    0 -0.32690263293E+01 -0.42191322047E+02 -0.96348183955E+01  0.43400736339E+02  0.00000000000E+00 0.  1.
         11    1    4    4    0    0  0.20557418562E+01  0.39092019598E+01  0.43595150821E+01  0.62059090031E+01  0.51100000000E-03 0. -1.
        -11    1    4    4    0    0  0.74108988613E-01  0.48309999217E+01  0.64873952184E+01  0.80889028531E+01  0.51100000000E-03 0.  1.
         12    1    4    4    0    0  0.11391754845E+01  0.33451120166E+02 -0.12120919051E+01  0.33492451805E+02  0.00000000000E+00 0. -1.
</event>
<event>
 8    1  0.6046524E-010  0.9118800E+02  0.7816164E-02  0.1184000E+00
        -11   -1    0    0    0    0  0.00000000000E+00  0.00000000000E+00  0.45593999997E+02  0.45594000000E+02  0.51100000000E-03 0. -1.
         11   -1    0    0    0    0 -0.00000000000E+00 -0.00000000000E+00 -0.45593999997E+02  0.45594000000E+02  0.51100000000E-03 0.  1.
         23    2    1    2    0    0  0.71054273576E-14  0.35527136788E-14 -0.17763568394E-14  0.91188000000E+02  0.91188000000E+02 0.  0.
    9900012    2    3    3    0    0  0.34180938871E+02  0.24088212250E+02 -0.11620872713E+02  0.47787271502E+02  0.20000002087E+02 0.  0.
         12    1    3    3    0    0 -0.34180938871E+02 -0.24088212250E+02  0.11620872713E+02  0.43400728498E+02  0.00000000000E+00 0. -1.
         11    1    4    4    0    0  0.20147458324E+02  0.11073496206E+02 -0.64934403732E+00  0.22999218314E+02  0.51100000000E-03 0. -1.
        -11    1    4    4    0    0  0.14980127321E+02  0.14111956217E+02 -0.11006045762E+02  0.23338478236E+02  0.51100000000E-03 0.  1.
        -12    1    4    4    0    0 -0.94664677293E+00 -0.10972401730E+01  0.34517086457E-01  0.14495749512E+01  0.00000000000E+00 0.  1.
</event>
<event>
 8    1  0.6046524E-010  0.9118800E+02  0.7816164E-02  0.1184000E+00
        -11   -1    0    0    0    0  0.00000000000E+00  0.00000000000E+00  0.45593999997E+02  0.45594000000E+02  0.51100000000E-03 0.  1.
         11   -1    0    0    0    0 -0.00000000000E+00 -0.00000000000E+00 -0.45593999997E+02  0.45594000000E+02  0.51100000000E-03 0. -1.
         23    2    1    2    0    0  0.00000000000E+00 -0.88817841970E-15  0.35527136788E-14  0.91188000000E+02  0.91188000000E+02 0.  0.
    9900012    2    3    3    0    0  0.35628942924E+02 -0.40220902083E+01  0.24454540595E+02  0.47787270291E+02  0.19999996565E+02 0.  0.
        -12    1    3    3    0    0 -0.35628942924E+02  0.40220902083E+01 -0.24454540595E+02  0.43400729709E+02  0.00000000000E+00 0.  1.
         11    1    4    4    0    0  0.88040340670E+01 -0.19596412644E-01  0.58214940824E+01  0.10554676380E+02  0.51100000000E-03 0. -1.
        -11    1    4    4    0    0  0.26791354830E+02 -0.72075206272E+01  0.19501112902E+02  0.33911921973E+02  0.51100000000E-03 0.  1.
         12    1    4    4    0    0  0.33554027205E-01  0.32050268316E+01 -0.86806638955E+00  0.33206719381E+01  0.00000000000E+00 0. -1.
</event>
<event>
 8    1  0.6046524E-010  0.9118800E+02  0.7816164E-02  0.1184000E+00
        -11   -1    0    0    0    0  0.00000000000E+00  0.00000000000E+00  0.45593999997E+02  0.45594000000E+02  0.51100000000E-03 0. -1.
         11   -1    0    0    0    0 -0.00000000000E+00 -0.00000000000E+00 -0.45593999997E+02  0.45594000000E+02  0.51100000000E-03 0.  1.
         23    2    1    2    0    0  0.35527136788E-14  0.00000000000E+00  0.35527136788E-14  0.91188000000E+02  0.91188000000E+02 0.  0.
    9900012    2    3    3    0    0  0.29459028259E+02  0.44214335036E+01  0.31563267151E+02  0.47787271280E+02  0.20000001074E+02 0.  0.
        -12    1    3    3    0    0 -0.29459028259E+02 -0.44214335036E+01 -0.31563267151E+02  0.43400728720E+02  0.00000000000E+00 0.  1.
         11    1    4    4    0    0  0.74887696007E+01 -0.69947234701E+00  0.12133558272E+02  0.14275649488E+02  0.51100000000E-03 0. -1.
        -11    1    4    4    0    0  0.33981477409E+01 -0.28776917307E+00 -0.25306699823E+01  0.42467057806E+01  0.51100000000E-03 0.  1.
        -12    1    4    4    0    0  0.18572110917E+02  0.54086750237E+01  0.21960378861E+02  0.29264916012E+02  0.00000000000E+00 0.  1.
</event>
<event>
 8    1  0.6046524E-010  0.9118800E+02  0.7816164E-02  0.1184000E+00
        -11   -1    0    0    0    0  0.00000000000E+00  0.00000000000E+00  0.45593999997E+02  0.45594000000E+02  0.51100000000E-03 0.  1.
         11   -1    0    0    0    0 -0.00000000000E+00 -0.00000000000E+00 -0.45593999997E+02  0.45594000000E+02  0.51100000000E-03 0. -1.
         23    2    1    2    0    0  0.00000000000E+00  0.00000000000E+00  0.00000000000E+00  0.91188000000E+02  0.91188000000E+02 0.  0.
    9900012    2    3    3    0    0  0.39635998724E+02  0.16590479448E+02 -0.61128321235E+01  0.47787272821E+02  0.20000008098E+02 0.  0.
         12    1    3    3    0    0 -0.39635998724E+02 -0.16590479448E+02  0.61128321235E+01  0.43400727179E+02  0.00000000000E+00 0. -1.
         11    1    4    4    0    0  0.18622523184E+01 -0.56792577000E+00 -0.22979903237E+01  0.30118570959E+01  0.51100000000E-03 0. -1.
        -11    1    4    4    0    0  0.32921981384E+02  0.19294925237E+02  0.14266420297E+00  0.38159813305E+02  0.51100000000E-03 0.  1.
        -12    1    4    4    0    0  0.48517650210E+01 -0.21365200187E+01 -0.39575060029E+01  0.66156024194E+01  0.00000000000E+00 0.  1.
</event>
<event>
 8    1  0.6046524E-010  0.9118800E+02  0.7816164E-02  0.1184000E+00
        -11   -1    0    0    0    0  0.00000000000E+00  0.00000000000E+00  0.45593999997E+02  0.45594000000E+02  0.51100000000E-03 0. -1.
         11   -1    0    0    0    0 -0.00000000000E+00 -0.00000000000E+00 -0.45593999997E+02  0.45594000000E+02  0.51100000000E-03 0.  1.
         23    2    1    2    0    0  0.00000000000E+00  0.00000000000E+00  0.00000000000E+00  0.91188000000E+02  0.91188000000E+02 0.  0.
    9900012    2    3    3    0    0 -0.27239780386E+02  0.29320628778E+02  0.16790422648E+02  0.47787271894E+02  0.20000003873E+02 0.  0.
        -12    1    3    3    0    0  0.27239780386E+02 -0.29320628778E+02 -0.16790422648E+02  0.43400728106E+02  0.00000000000E+00 0.  1.
         11    1    4    4    0    0 -0.10111337595E+01  0.22485454450E+01 -0.87903839682E+00  0.26174523609E+01  0.51100000000E-03 0. -1.
        -11    1    4    4    0    0 -0.74740979719E+01  0.74322555420E+01 -0.30942428779E+01  0.10985212887E+02  0.51100000000E-03 0.  1.
         12    1    4    4    0    0 -0.18754548655E+02  0.19639827791E+02  0.20763703923E+02  0.34184606646E+02  0.00000000000E+00 0. -1.
</event>
<event>
 8    1  0.6046524E-010  0.9118800E+02  0.7816164E-02  0.1184000E+00
        -11   -1    0    0    0    0  0.00000000000E+00  0.00000000000E+00  0.45593999997E+02  0.45594000000E+02  0.51100000000E-03 0. -1.
         11   -1    0    0    0    0 -0.00000000000E+00 -0.00000000000E+00 -0.45593999997E+02  0.45594000000E+02  0.51100000000E-03 0.  1.
         23    2    1    2    0    0  0.00000000000E+00  0.00000000000E+00  0.00000000000E+00  0.91188000000E+02  0.91188000000E+02 0.  0.
    9900012    2    3    3    0    0 -0.38645777942E+02 -0.39914833044E+01 -0.19344201504E+02  0.47787237063E+02  0.19999845062E+02 0.  0.
         12    1    3    3    0    0  0.38645777942E+02  0.39914833044E+01  0.19344201504E+02  0.43400762937E+02  0.00000000000E+00 0. -1.
         11    1    4    4    0    0 -0.29255334533E+00  0.24438851019E+01 -0.14180096855E+01  0.28405833170E+01  0.51100000000E-03 0. -1.
        -11    1    4    4    0    0 -0.13975033295E+02 -0.18535526704E+01 -0.13935621855E+02  0.19822683215E+02  0.51100000000E-03 0.  1.
         12    1    4    4    0    0 -0.24378191302E+02 -0.45818157359E+01 -0.39905699637E+01  0.25123970530E+02  0.00000000000E+00 0. -1.
</event>
<event>
 8    1  0.6046524E-010  0.9118800E+02  0.7816164E-02  0.1184000E+00
        -11   -1    0    0    0    0  0.00000000000E+00  0.00000000000E+00  0.45593999997E+02  0.45594000000E+02  0.51100000000E-03 0. -1.
         11   -1    0    0    0    0 -0.00000000000E+00 -0.00000000000E+00 -0.45593999997E+02  0.45594000000E+02  0.51100000000E-03 0.  1.
         23    2    1    2    0    0  0.14210854715E-13  0.00000000000E+00  0.00000000000E+00  0.91188000000E+02  0.91188000000E+02 0.  0.
    9900012    2    3    3    0    0  0.38942031086E+02 -0.86954768008E+01 -0.17074254233E+02  0.47787271210E+02  0.20000000753E+02 0.  0.
         12    1    3    3    0    0 -0.38942031086E+02  0.86954768008E+01  0.17074254233E+02  0.43400728790E+02  0.00000000000E+00 0. -1.
         11    1    4    4    0    0  0.24906508657E+02 -0.26722606760E+01 -0.74254215128E+01  0.26126845112E+02  0.51100000000E-03 0. -1.
        -11    1    4    4    0    0  0.89757565670E+01 -0.37685337132E+00 -0.10738520711E+02  0.14000787540E+02  0.51100000000E-03 0.  1.
        -12    1    4    4    0    0  0.50597658625E+01 -0.56463627534E+01  0.10896879903E+01  0.76596385582E+01  0.00000000000E+00 0.  1.
</event>
<event>
 8    1  0.6046524E-010  0.9118800E+02  0.7816164E-02  0.1184000E+00
        -11   -1    0    0    0    0  0.00000000000E+00  0.00000000000E+00  0.45593999997E+02  0.45594000000E+02  0.51100000000E-03 0. -1.
         11   -1    0    0    0    0 -0.00000000000E+00 -0.00000000000E+00 -0.45593999997E+02  0.45594000000E+02  0.51100000000E-03 0.  1.
         23    2    1    2    0    0  0.00000000000E+00  0.00000000000E+00  0.00000000000E+00  0.91188000000E+02  0.91188000000E+02 0.  0.
    9900012    2    3    3    0    0  0.85217629763E+01  0.40657823430E+02  0.12567591112E+02  0.47787269630E+02  0.19999993549E+02 0.  0.
        -12    1    3    3    0    0 -0.85217629763E+01 -0.40657823430E+02 -0.12567591112E+02  0.43400730370E+02  0.00000000000E+00 0.  1.
         11    1    4    4    0    0  0.53061774903E+01  0.32826974585E+01  0.47368207559E+01  0.78338428180E+01  0.51100000000E-03 0. -1.
        -11    1    4    4    0    0  0.34721988097E+01  0.20382627400E+02 -0.11952335854E+01  0.20710776129E+02  0.51100000000E-03 0.  1.
         12    1    4    4    0    0 -0.25661332368E+00  0.16992498572E+02  0.90260039418E+01  0.19242650682E+02  0.00000000000E+00 0. -1.
</event>
<event>
 8    1  0.6046524E-010  0.9118800E+02  0.7816164E-02  0.1184000E+00
        -11   -1    0    0    0    0  0.00000000000E+00  0.00000000000E+00  0.45593999997E+02  0.45594000000E+02  0.51100000000E-03 0. -1.
         11   -1    0    0    0    0 -0.00000000000E+00 -0.00000000000E+00 -0.45593999997E+02  0.45594000000E+02  0.51100000000E-03 0.  1.
         23    2    1    2    0    0 -0.35527136788E-14  0.17763568394E-14  0.00000000000E+00  0.91188000000E+02  0.91188000000E+02 0.  0.
    9900012    2    3    3    0    0  0.23701755696E+02  0.14982359462E+02  0.33126709416E+02  0.47787271955E+02  0.20000004152E+02 0.  0.
        -12    1    3    3    0    0 -0.23701755696E+02 -0.14982359462E+02 -0.33126709416E+02  0.43400728045E+02  0.00000000000E+00 0.  1.
         11    1    4    4    0    0  0.19443867773E+02  0.16132613013E+02  0.29764845859E+02  0.39041916524E+02  0.51100000000E-03 0. -1.
        -11    1    4    4    0    0  0.20111928958E+01  0.19523199878E+01 -0.96693845023E+00  0.29650329554E+01  0.51100000000E-03 0.  1.
         12    1    4    4    0    0  0.22466950265E+01 -0.31025735388E+01  0.43288020070E+01  0.57803224755E+01  0.00000000000E+00 0. -1.
</event>
<event>
 8    1  0.6046524E-010  0.9118800E+02  0.7816164E-02  0.1184000E+00
        -11   -1    0    0    0    0  0.00000000000E+00  0.00000000000E+00  0.45593999997E+02  0.45594000000E+02  0.51100000000E-03 0.  1.
         11   -1    0    0    0    0 -0.00000000000E+00 -0.00000000000E+00 -0.45593999997E+02  0.45594000000E+02  0.51100000000E-03 0. -1.
         23    2    1    2    0    0  0.17763568394E-14  0.00000000000E+00  0.35527136788E-14  0.91188000000E+02  0.91188000000E+02 0.  0.
    9900012    2    3    3    0    0 -0.13558935151E+02  0.36185600390E+02 -0.19758073350E+02  0.47787264286E+02  0.19999969184E+02 0.  0.
         12    1    3    3    0    0  0.13558935151E+02 -0.36185600390E+02  0.19758073350E+02  0.43400735714E+02  0.00000000000E+00 0. -1.
         11    1    4    4    0    0 -0.17447015111E+01  0.12379311383E+02 -0.63420053844E+01  0.14018286851E+02  0.51100000000E-03 0. -1.
        -11    1    4    4    0    0 -0.13657764272E+01 -0.17279759123E+01  0.12408895226E+01  0.25280532177E+01  0.51100000000E-03 0.  1.
        -12    1    4    4    0    0 -0.10448457213E+02  0.25534264920E+02 -0.14656957488E+02  0.31240924217E+02  0.00000000000E+00 0.  1.
</event>
<event>
 8    1  0.6046524E-010  0.9118800E+02  0.7816164E-02  0.1184000E+00
        -11   -1    0    0    0    0  0.00000000000E+00  0.00000000000E+00  0.45593999997E+02  0.45594000000E+02  0.51100000000E-03 0. -1.
         11   -1    0    0    0    0 -0.00000000000E+00 -0.00000000000E+00 -0.45593999997E+02  0.45594000000E+02  0.51100000000E-03 0.  1.
         23    2    1    2    0    0  0.00000000000E+00 -0.33306690739E-15 -0.71054273576E-14  0.91188000000E+02  0.91188000000E+02 0.  0.
    9900012    2    3    3    0    0  0.18758073753E+02  0.70092509953E+00 -0.39131397863E+02  0.47787275057E+02  0.20000018294E+02 0.  0.
         12    1    3    3    0    0 -0.18758073753E+02 -0.70092509953E+00  0.39131397863E+02  0.43400724943E+02  0.00000000000E+00 0. -1.
         11    1    4    4    0    0  0.57751977701E+01 -0.12207200617E+01 -0.13367391831E+01  0.60522672328E+01  0.51100000000E-03 0. -1.
        -11    1    4    4    0    0  0.29268008318E+01 -0.43012992269E+01 -0.68073403974E+01  0.85678014505E+01  0.51100000000E-03 0.  1.
        -12    1    4    4    0    0  0.10056075151E+02  0.62229443882E+01 -0.30987318282E+02  0.33167206373E+02  0.00000000000E+00 0.  1.
</event>
<event>
 8    1  0.6046524E-010  0.9118800E+02  0.7816164E-02  0.1184000E+00
        -11   -1    0    0    0    0  0.00000000000E+00  0.00000000000E+00  0.45593999997E+02  0.45594000000E+02  0.51100000000E-03 0. -1.
         11   -1    0    0    0    0 -0.00000000000E+00 -0.00000000000E+00 -0.45593999997E+02  0.45594000000E+02  0.51100000000E-03 0.  1.
         23    2    1    2    0    0  0.17763568394E-14  0.00000000000E+00  0.00000000000E+00  0.91188000000E+02  0.91188000000E+02 0.  0.
    9900012    2    3    3    0    0 -0.15661830468E+02 -0.18515545280E+02  0.35993054566E+02  0.47787328028E+02  0.20000259811E+02 0.  0.
        -12    1    3    3    0    0  0.15661830468E+02  0.18515545280E+02 -0.35993054566E+02  0.43400671972E+02  0.00000000000E+00 0.  1.
         11    1    4    4    0    0 -0.86261766838E+01 -0.19090211913E+02  0.18489111609E+02  0.27940908421E+02  0.51100000000E-03 0. -1.
        -11    1    4    4    0    0 -0.36550764056E+01 -0.21936047085E+01  0.12481431096E+02  0.13189298982E+02  0.51100000000E-03 0.  1.
        -12    1    4    4    0    0 -0.33805773788E+01  0.27682713417E+01  0.50225118603E+01  0.66571206255E+01  0.00000000000E+00 0.  1.
</event>
<event>
 8    1  0.6046524E-010  0.9118800E+02  0.7816164E-02  0.1184000E+00
        -11   -1    0    0    0    0  0.00000000000E+00  0.00000000000E+00  0.45593999997E+02  0.45594000000E+02  0.51100000000E-03 0. -1.
         11   -1    0    0    0    0 -0.00000000000E+00 -0.00000000000E+00 -0.45593999997E+02  0.45594000000E+02  0.51100000000E-03 0.  1.
         23    2    1    2    0    0  0.00000000000E+00  0.00000000000E+00  0.35527136788E-14  0.91188000000E+02  0.91188000000E+02 0.  0.
    9900012    2    3    3    0    0  0.15466412644E+02 -0.32151152111E+02 -0.24712686836E+02  0.47787269675E+02  0.19999993756E+02 0.  0.
         12    1    3    3    0    0 -0.15466412644E+02  0.32151152111E+02  0.24712686836E+02  0.43400730325E+02  0.00000000000E+00 0. -1.
         11    1    4    4    0    0  0.11612519542E+02 -0.13304460576E+02 -0.10762288493E+02  0.20680573860E+02  0.51100000000E-03 0. -1.
        -11    1    4    4    0    0  0.76348891289E+01 -0.56367427452E+01 -0.61044798049E+01  0.11284018554E+02  0.51100000000E-03 0.  1.
         12    1    4    4    0    0 -0.37809960272E+01 -0.13209948789E+02 -0.78459185379E+01  0.15822677260E+02  0.00000000000E+00 0. -1.
</event>
<event>
 8    1  0.6046524E-010  0.9118800E+02  0.7816164E-02  0.1184000E+00
        -11   -1    0    0    0    0  0.00000000000E+00  0.00000000000E+00  0.45593999997E+02  0.45594000000E+02  0.51100000000E-03 0.  1.
         11   -1    0    0    0    0 -0.00000000000E+00 -0.00000000000E+00 -0.45593999997E+02  0.45594000000E+02  0.51100000000E-03 0. -1.
         23    2    1    2    0    0  0.00000000000E+00  0.00000000000E+00  0.00000000000E+00  0.91188000000E+02  0.91188000000E+02 0.  0.
    9900012    2    3    3    0    0 -0.19384426117E+02 -0.38027011888E+02 -0.78621589346E+01  0.47787272447E+02  0.20000006396E+02 0.  0.
         12    1    3    3    0    0  0.19384426117E+02  0.38027011888E+02  0.78621589346E+01  0.43400727553E+02  0.00000000000E+00 0. -1.
         11    1    4    4    0    0 -0.13860713401E+02 -0.20956606091E+02 -0.22389173181E+01  0.25225214882E+02  0.51100000000E-03 0. -1.
        -11    1    4    4    0    0  0.21556327748E+01 -0.52790672729E+01  0.25966334425E+01  0.62656052723E+01  0.51100000000E-03 0.  1.
         12    1    4    4    0    0 -0.76793454899E+01 -0.11791338524E+02 -0.82198750589E+01  0.16296452293E+02  0.00000000000E+00 0. -1.
</event>
<event>
 8    1  0.6341391E-010  0.9118800E+02  0.7816164E-02  0.1184000E+00
        -11   -1    0    0    0    0  0.00000000000E+00  0.00000000000E+00  0.45593999997E+02  0.45594000000E+02  0.51100000000E-03 0. -1.
         11   -1    0    0    0    0 -0.00000000000E+00 -0.00000000000E+00 -0.45593999997E+02  0.45594000000E+02  0.51100000000E-03 0.  1.
         23    2    1    2    0    0  0.00000000000E+00 -0.35527136788E-14  0.00000000000E+00  0.91188000000E+02  0.91188000000E+02 0.  0.
    9900012    2    3    3    0    0 -0.84254929977E+01  0.31657623974E+02 -0.28468048768E+02  0.47787263962E+02  0.19999967709E+02 0.  0.
         12    1    3    3    0    0  0.84254929977E+01 -0.31657623974E+02  0.28468048768E+02  0.43400736038E+02  0.00000000000E+00 0. -1.
         11    1    4    4    0    0 -0.88856215207E+01  0.81969141461E+01 -0.16885241867E+02  0.20766681596E+02  0.51100000000E-03 0. -1.
        -11    1    4    4    0    0 -0.29220705928E+01  0.13828988232E+02 -0.77253642095E+01  0.16107782731E+02  0.51100000000E-03 0.  1.
         12    1    4    4    0    0  0.33821991158E+01  0.96317215961E+01 -0.38574426910E+01  0.10912799635E+02  0.00000000000E+00 0. -1.
</event>
<event>
 8    1  0.6046524E-010  0.9118800E+02  0.7816164E-02  0.1184000E+00
        -11   -1    0    0    0    0  0.00000000000E+00  0.00000000000E+00  0.45593999997E+02  0.45594000000E+02  0.51100000000E-03 0. -1.
         11   -1    0    0    0    0 -0.00000000000E+00 -0.00000000000E+00 -0.45593999997E+02  0.45594000000E+02  0.51100000000E-03 0.  1.
         23    2    1    2    0    0  0.00000000000E+00  0.00000000000E+00 -0.71054273576E-14  0.91188000000E+02  0.91188000000E+02 0.  0.
    9900012    2    3    3    0    0  0.56296309714E+01  0.19278395276E+02  0.38474332298E+02  0.47787268265E+02  0.19999987329E+02 0.  0.
        -12    1    3    3    0    0 -0.56296309714E+01 -0.19278395276E+02 -0.38474332298E+02  0.43400731735E+02  0.00000000000E+00 0.  1.
         11    1    4    4    0    0  0.32939577373E+01  0.80401610939E+01  0.11169021819E+02  0.14150667710E+02  0.51100000000E-03 0. -1.
        -11    1    4    4    0    0 -0.15257205850E+01  0.14828533381E+00  0.19445886698E+02  0.19506212384E+02  0.51100000000E-03 0.  1.
        -12    1    4    4    0    0  0.38613938190E+01  0.11089948848E+02  0.78594237808E+01  0.14130388171E+02  0.00000000000E+00 0.  1.
</event>
<event>
 8    1  0.6046524E-010  0.9118800E+02  0.7816164E-02  0.1184000E+00
        -11   -1    0    0    0    0  0.00000000000E+00  0.00000000000E+00  0.45593999997E+02  0.45594000000E+02  0.51100000000E-03 0. -1.
         11   -1    0    0    0    0 -0.00000000000E+00 -0.00000000000E+00 -0.45593999997E+02  0.45594000000E+02  0.51100000000E-03 0.  1.
         23    2    1    2    0    0  0.00000000000E+00  0.00000000000E+00  0.00000000000E+00  0.91188000000E+02  0.91188000000E+02 0.  0.
    9900012    2    3    3    0    0 -0.20297971869E+02 -0.24154690342E+02 -0.29802112452E+02  0.47787278415E+02  0.20000033607E+02 0.  0.
         12    1    3    3    0    0  0.20297971869E+02  0.24154690342E+02  0.29802112452E+02  0.43400721585E+02  0.00000000000E+00 0. -1.
         11    1    4    4    0    0 -0.54924055189E+01 -0.84019952078E+01 -0.14314883078E+02  0.17483590010E+02  0.51100000000E-03 0. -1.
        -11    1    4    4    0    0 -0.97049781527E+00 -0.65775112674E+01 -0.11415621263E+02  0.13210674834E+02  0.51100000000E-03 0.  1.
         12    1    4    4    0    0 -0.13835068535E+02 -0.91751838664E+01 -0.40716081111E+01  0.17093013571E+02  0.00000000000E+00 0. -1.
</event>
<event>
 8    1  0.6046524E-010  0.9118800E+02  0.7816164E-02  0.1184000E+00
        -11   -1    0    0    0    0  0.00000000000E+00  0.00000000000E+00  0.45593999997E+02  0.45594000000E+02  0.51100000000E-03 0.  1.
         11   -1    0    0    0    0 -0.00000000000E+00 -0.00000000000E+00 -0.45593999997E+02  0.45594000000E+02  0.51100000000E-03 0. -1.
         23    2    1    2    0    0  0.17763568394E-14  0.00000000000E+00 -0.17763568394E-14  0.91188000000E+02  0.91188000000E+02 0.  0.
    9900012    2    3    3    0    0 -0.91026576201E+01 -0.39950068927E+02  0.14309318787E+02  0.47787274348E+02  0.20000015061E+02 0.  0.
        -12    1    3    3    0    0  0.91026576201E+01  0.39950068927E+02 -0.14309318787E+02  0.43400725652E+02  0.00000000000E+00 0.  1.
         11    1    4    4    0    0 -0.54193950439E+01 -0.51604807985E+01  0.57842546251E+01  0.94582242807E+01  0.51100000000E-03 0. -1.
        -11    1    4    4    0    0 -0.40622767798E+01 -0.17849196016E+02 -0.19481401715E+01  0.18408996209E+02  0.51100000000E-03 0.  1.
         12    1    4    4    0    0  0.37901420369E+00 -0.16940392112E+02  0.10473204334E+02  0.19920053858E+02  0.00000000000E+00 0. -1.
</event>
<event>
 8    1  0.6046524E-010  0.9118800E+02  0.7816164E-02  0.1184000E+00
        -11   -1    0    0    0    0  0.00000000000E+00  0.00000000000E+00  0.45593999997E+02  0.45594000000E+02  0.51100000000E-03 0. -1.
         11   -1    0    0    0    0 -0.00000000000E+00 -0.00000000000E+00 -0.45593999997E+02  0.45594000000E+02  0.51100000000E-03 0.  1.
         23    2    1    2    0    0 -0.88817841970E-15  0.00000000000E+00  0.00000000000E+00  0.91188000000E+02  0.91188000000E+02 0.  0.
    9900012    2    3    3    0    0  0.70632013538E+01 -0.22154036524E+02  0.36646057587E+02  0.47787266316E+02  0.19999978439E+02 0.  0.
        -12    1    3    3    0    0 -0.70632013538E+01  0.22154036524E+02 -0.36646057587E+02  0.43400733684E+02  0.00000000000E+00 0.  1.
         11    1    4    4    0    0  0.58250064013E+01 -0.77375159107E+01  0.10899023438E+02  0.14580417148E+02  0.51100000000E-03 0. -1.
        -11    1    4    4    0    0 -0.39395805797E+01 -0.14477578926E+02  0.22663784274E+02  0.27180281540E+02  0.51100000000E-03 0.  1.
        -12    1    4    4    0    0  0.51777755322E+01  0.61058312830E-01  0.30832498751E+01  0.60265676277E+01  0.00000000000E+00 0.  1.
</event>
<event>
 8    1  0.6046524E-010  0.9118800E+02  0.7816164E-02  0.1184000E+00
        -11   -1    0    0    0    0  0.00000000000E+00  0.00000000000E+00  0.45593999997E+02  0.45594000000E+02  0.51100000000E-03 0. -1.
         11   -1    0    0    0    0 -0.00000000000E+00 -0.00000000000E+00 -0.45593999997E+02  0.45594000000E+02  0.51100000000E-03 0.  1.
         23    2    1    2    0    0  0.00000000000E+00 -0.35527136788E-14  0.71054273576E-14  0.91188000000E+02  0.91188000000E+02 0.  0.
    9900012    2    3    3    0    0 -0.26039009736E+02 -0.10697922055E+02  0.33032519357E+02  0.47787275359E+02  0.20000019670E+02 0.  0.
        -12    1    3    3    0    0  0.26039009736E+02  0.10697922055E+02 -0.33032519357E+02  0.43400724641E+02  0.00000000000E+00 0.  1.
         11    1    4    4    0    0 -0.17718612446E+02 -0.11981705536E+02  0.16794043513E+02  0.27194675809E+02  0.51100000000E-03 0. -1.
        -11    1    4    4    0    0  0.12304956111E+01 -0.69571238804E-01 -0.45393223980E+00  0.13133980150E+01  0.51100000000E-03 0.  1.
         12    1    4    4    0    0 -0.95508929010E+01  0.13533547193E+01  0.16692408084E+02  0.19279201535E+02  0.00000000000E+00 0. -1.
</event>
<event>
 8    1  0.6046524E-010  0.9118800E+02  0.7816164E-02  0.1184000E+00
        -11   -1    0    0    0    0  0.00000000000E+00  0.00000000000E+00  0.45593999997E+02  0.45594000000E+02  0.51100000000E-03 0. -1.
         11   -1    0    0    0    0 -0.00000000000E+00 -0.00000000000E+00 -0.45593999997E+02  0.45594000000E+02  0.51100000000E-03 0.  1.
         23    2    1    2    0    0  0.88817841970E-15  0.71054273576E-14 -0.35527136788E-14  0.91188000000E+02  0.91188000000E+02 0.  0.
    9900012    2    3    3    0    0  0.47039220244E+01  0.33519040335E+02 -0.27165608440E+02  0.47787271558E+02  0.20000002340E+02 0.  0.
         12    1    3    3    0    0 -0.47039220244E+01 -0.33519040335E+02  0.27165608440E+02  0.43400728442E+02  0.00000000000E+00 0. -1.
         11    1    4    4    0    0  0.58013466295E+01  0.49074907457E+01 -0.10312343223E+01  0.76682809431E+01  0.51100000000E-03 0. -1.
        -11    1    4    4    0    0  0.17819584206E+01  0.13445683386E+02 -0.18383874983E+02  0.22845757531E+02  0.51100000000E-03 0.  1.
        -12    1    4    4    0    0 -0.28793830256E+01  0.15165866204E+02 -0.77504991347E+01  0.17273233083E+02  0.00000000000E+00 0.  1.
</event>
<event>
 8    1  0.6046524E-010  0.9118800E+02  0.7816164E-02  0.1184000E+00
        -11   -1    0    0    0    0  0.00000000000E+00  0.00000000000E+00  0.45593999997E+02  0.45594000000E+02  0.51100000000E-03 0. -1.
         11   -1    0    0    0    0 -0.00000000000E+00 -0.00000000000E+00 -0.45593999997E+02  0.45594000000E+02  0.51100000000E-03 0.  1.
         23    2    1    2    0    0 -0.35527136788E-14  0.00000000000E+00  0.88817841970E-15  0.91188000000E+02  0.91188000000E+02 0.  0.
    9900012    2    3    3    0    0 -0.18209613852E+02 -0.39028543477E+02  0.53672556930E+01  0.47787254888E+02  0.19999926337E+02 0.  0.
        -12    1    3    3    0    0  0.18209613852E+02  0.39028543477E+02 -0.53672556930E+01  0.43400745112E+02  0.00000000000E+00 0.  1.
         11    1    4    4    0    0  0.84522641168E+00  0.60756207751E+00 -0.23012155038E+01  0.25256944433E+01  0.51100000000E-03 0. -1.
        -11    1    4    4    0    0 -0.76157296133E+01 -0.98391176827E+01  0.43123874238E+01  0.13168305125E+02  0.51100000000E-03 0.  1.
         12    1    4    4    0    0 -0.11439110650E+02 -0.29796987872E+02  0.33560837729E+01  0.32093255320E+02  0.00000000000E+00 0. -1.
</event>
<event>
 8    1  0.6046524E-010  0.9118800E+02  0.7816164E-02  0.1184000E+00
        -11   -1    0    0    0    0  0.00000000000E+00  0.00000000000E+00  0.45593999997E+02  0.45594000000E+02  0.51100000000E-03 0. -1.
         11   -1    0    0    0    0 -0.00000000000E+00 -0.00000000000E+00 -0.45593999997E+02  0.45594000000E+02  0.51100000000E-03 0.  1.
         23    2    1    2    0    0 -0.35527136788E-14  0.35527136788E-14  0.00000000000E+00  0.91188000000E+02  0.91188000000E+02 0.  0.
    9900012    2    3    3    0    0 -0.27375533022E+02 -0.19612177732E+02  0.27378224475E+02  0.47787256930E+02  0.19999935646E+02 0.  0.
        -12    1    3    3    0    0  0.27375533022E+02  0.19612177732E+02 -0.27378224475E+02  0.43400743070E+02  0.00000000000E+00 0.  1.
         11    1    4    4    0    0 -0.83499685500E+01 -0.44995780702E+01  0.61177807386E+01  0.11286957917E+02  0.51100000000E-03 0. -1.
        -11    1    4    4    0    0 -0.19207717948E+02 -0.17659403215E+02  0.15879299786E+02  0.30544117480E+02  0.51100000000E-03 0.  1.
         12    1    4    4    0    0  0.18215347614E+00  0.25468035537E+01  0.53811439509E+01  0.59561815326E+01  0.00000000000E+00 0. -1.
</event>
<event>
 8    1  0.6046524E-010  0.9118800E+02  0.7816164E-02  0.1184000E+00
        -11   -1    0    0    0    0  0.00000000000E+00  0.00000000000E+00  0.45593999997E+02  0.45594000000E+02  0.51100000000E-03 0. -1.
         11   -1    0    0    0    0 -0.00000000000E+00 -0.00000000000E+00 -0.45593999997E+02  0.45594000000E+02  0.51100000000E-03 0.  1.
         23    2    1    2    0    0 -0.35527136788E-14 -0.55511151231E-16  0.00000000000E+00  0.91188000000E+02  0.91188000000E+02 0.  0.
    9900012    2    3    3    0    0  0.27700285084E+02 -0.37587910585E+00  0.33409213104E+02  0.47787278818E+02  0.20000035443E+02 0.  0.
        -12    1    3    3    0    0 -0.27700285084E+02  0.37587910585E+00 -0.33409213104E+02  0.43400721182E+02  0.00000000000E+00 0.  1.
         11    1    4    4    0    0  0.83533526487E+01  0.50243612897E+01  0.88690776386E+01  0.13178893932E+02  0.51100000000E-03 0. -1.
        -11    1    4    4    0    0  0.41973160689E+01  0.21669605423E+01  0.13724914381E+02  0.14515042377E+02  0.51100000000E-03 0.  1.
        -12    1    4    4    0    0  0.15149616367E+02 -0.75672009379E+01  0.10815221085E+02  0.20093342510E+02  0.00000000000E+00 0.  1.
</event>
<event>
 8    1  0.6046524E-010  0.9118800E+02  0.7816164E-02  0.1184000E+00
        -11   -1    0    0    0    0  0.00000000000E+00  0.00000000000E+00  0.45593999997E+02  0.45594000000E+02  0.51100000000E-03 0. -1.
         11   -1    0    0    0    0 -0.00000000000E+00 -0.00000000000E+00 -0.45593999997E+02  0.45594000000E+02  0.51100000000E-03 0.  1.
         23    2    1    2    0    0  0.00000000000E+00  0.00000000000E+00  0.35527136788E-14  0.91188000000E+02  0.91188000000E+02 0.  0.
    9900012    2    3    3    0    0 -0.22882363191E+01  0.34252945912E+02  0.26554148950E+02  0.47787272407E+02  0.20000006212E+02 0.  0.
        -12    1    3    3    0    0  0.22882363191E+01 -0.34252945912E+02 -0.26554148950E+02  0.43400727593E+02  0.00000000000E+00 0.  1.
         11    1    4    4    0    0  0.27544877972E+01  0.19098402926E+02  0.18681636543E+02  0.26857768737E+02  0.51100000000E-03 0. -1.
        -11    1    4    4    0    0  0.87261618757E-01 -0.11670240088E+01 -0.11039966229E+01  0.16088407105E+01  0.51100000000E-03 0.  1.
         12    1    4    4    0    0 -0.51299857351E+01  0.16321566995E+02  0.89765090303E+01  0.19320662959E+02  0.00000000000E+00 0. -1.
</event>
<event>
 8    1  0.6046524E-010  0.9118800E+02  0.7816164E-02  0.1184000E+00
        -11   -1    0    0    0    0  0.00000000000E+00  0.00000000000E+00  0.45593999997E+02  0.45594000000E+02  0.51100000000E-03 0. -1.
         11   -1    0    0    0    0 -0.00000000000E+00 -0.00000000000E+00 -0.45593999997E+02  0.45594000000E+02  0.51100000000E-03 0.  1.
         23    2    1    2    0    0  0.35527136788E-14  0.17763568394E-14  0.00000000000E+00  0.91188000000E+02  0.91188000000E+02 0.  0.
    9900012    2    3    3    0    0  0.24084133821E+02  0.12703214261E+02 -0.33796548775E+02  0.47787264251E+02  0.19999969024E+02 0.  0.
         12    1    3    3    0    0 -0.24084133821E+02 -0.12703214261E+02  0.33796548775E+02  0.43400735749E+02  0.00000000000E+00 0. -1.
         11    1    4    4    0    0  0.98003728084E+01  0.55614723917E+01 -0.28937827484E+01  0.11634056094E+02  0.51100000000E-03 0. -1.
        -11    1    4    4    0    0 -0.13500371443E+01  0.94160640983E+00 -0.50485477715E+01  0.53100901860E+01  0.51100000000E-03 0.  1.
         12    1    4    4    0    0  0.15633798157E+02  0.62001354595E+01 -0.25854218255E+02  0.30843117970E+02  0.00000000000E+00 0. -1.
</event>
<event>
 8    1  0.6046524E-010  0.9118800E+02  0.7816164E-02  0.1184000E+00
        -11   -1    0    0    0    0  0.00000000000E+00  0.00000000000E+00  0.45593999997E+02  0.45594000000E+02  0.51100000000E-03 0. -1.
         11   -1    0    0    0    0 -0.00000000000E+00 -0.00000000000E+00 -0.45593999997E+02  0.45594000000E+02  0.51100000000E-03 0.  1.
         23    2    1    2    0    0 -0.71054273576E-14  0.71054273576E-14 -0.35527136788E-14  0.91188000000E+02  0.91188000000E+02 0.  0.
    9900012    2    3    3    0    0  0.22270441745E+02 -0.25133393462E+02  0.27494794397E+02  0.47787265428E+02  0.19999974393E+02 0.  0.
        -12    1    3    3    0    0 -0.22270441745E+02  0.25133393462E+02 -0.27494794397E+02  0.43400734572E+02  0.00000000000E+00 0.  1.
         11    1    4    4    0    0  0.15027769846E+02 -0.14014116172E+02  0.24824583733E+02  0.32225599706E+02  0.51100000000E-03 0. -1.
        -11    1    4    4    0    0  0.88311601933E+01 -0.98045272649E+01  0.28231027509E+01  0.13494000691E+02  0.51100000000E-03 0.  1.
        -12    1    4    4    0    0 -0.15884882942E+01 -0.13147500255E+01 -0.15289208707E+00  0.20676650311E+01  0.00000000000E+00 0.  1.
</event>
<event>
 8    1  0.6046524E-010  0.9118800E+02  0.7816164E-02  0.1184000E+00
        -11   -1    0    0    0    0  0.00000000000E+00  0.00000000000E+00  0.45593999997E+02  0.45594000000E+02  0.51100000000E-03 0. -1.
         11   -1    0    0    0    0 -0.00000000000E+00 -0.00000000000E+00 -0.45593999997E+02  0.45594000000E+02  0.51100000000E-03 0.  1.
         23    2    1    2    0    0  0.00000000000E+00  0.00000000000E+00  0.71054273576E-14  0.91188000000E+02  0.91188000000E+02 0.  0.
    9900012    2    3    3    0    0  0.15809321495E+02  0.12822630443E+02  0.38331041279E+02  0.47787271629E+02  0.20000002664E+02 0.  0.
        -12    1    3    3    0    0 -0.15809321495E+02 -0.12822630443E+02 -0.38331041279E+02  0.43400728371E+02  0.00000000000E+00 0.  1.
         11    1    4    4    0    0  0.27381051926E+01 -0.20361427817E+01  0.15099080259E+02  0.15479835994E+02  0.51100000000E-03 0. -1.
        -11    1    4    4    0    0  0.40178932654E+01  0.36726180500E+01  0.58472436795E+00  0.54748052460E+01  0.51100000000E-03 0.  1.
         12    1    4    4    0    0  0.90533230370E+01  0.11186155175E+02  0.22647236652E+02  0.26832630389E+02  0.00000000000E+00 0. -1.
</event>
<event>
 8    1  0.6407760E-010  0.9118800E+02  0.7816164E-02  0.1184000E+00
        -11   -1    0    0    0    0  0.00000000000E+00  0.00000000000E+00  0.45593999997E+02  0.45594000000E+02  0.51100000000E-03 0. -1.
         11   -1    0    0    0    0 -0.00000000000E+00 -0.00000000000E+00 -0.45593999997E+02  0.45594000000E+02  0.51100000000E-03 0.  1.
         23    2    1    2    0    0  0.00000000000E+00  0.00000000000E+00  0.00000000000E+00  0.91188000000E+02  0.91188000000E+02 0.  0.
    9900012    2    3    3    0    0 -0.17103080634E+02 -0.36098913100E+02 -0.16969865657E+02  0.47787271497E+02  0.20000002065E+02 0.  0.
         12    1    3    3    0    0  0.17103080634E+02  0.36098913100E+02  0.16969865657E+02  0.43400728503E+02  0.00000000000E+00 0. -1.
         11    1    4    4    0    0 -0.37440187880E+01 -0.23298777109E+02 -0.31440363794E+01  0.23806210460E+02  0.51100000000E-03 0. -1.
        -11    1    4    4    0    0 -0.87869911437E+01 -0.10395586124E+02 -0.66772093708E+01  0.15161284558E+02  0.51100000000E-03 0.  1.
         12    1    4    4    0    0 -0.45720707028E+01 -0.24045498675E+01 -0.71486199066E+01  0.88197764794E+01  0.00000000000E+00 0. -1.
</event>
<event>
 8    1  0.6046524E-010  0.9118800E+02  0.7816164E-02  0.1184000E+00
        -11   -1    0    0    0    0  0.00000000000E+00  0.00000000000E+00  0.45593999997E+02  0.45594000000E+02  0.51100000000E-03 0. -1.
         11   -1    0    0    0    0 -0.00000000000E+00 -0.00000000000E+00 -0.45593999997E+02  0.45594000000E+02  0.51100000000E-03 0.  1.
         23    2    1    2    0    0  0.00000000000E+00  0.35527136788E-14  0.00000000000E+00  0.91188000000E+02  0.91188000000E+02 0.  0.
    9900012    2    3    3    0    0 -0.89788115352E+01 -0.18560851765E+02 -0.38190303920E+02  0.47787267422E+02  0.19999983482E+02 0.  0.
         12    1    3    3    0    0  0.89788115352E+01  0.18560851765E+02  0.38190303920E+02  0.43400732578E+02  0.00000000000E+00 0. -1.
         11    1    4    4    0    0 -0.82299972044E+01 -0.11332238313E+02 -0.12163595074E+02  0.18550081524E+02  0.51100000000E-03 0. -1.
        -11    1    4    4    0    0  0.87011859840E+00  0.20829609003E+01 -0.96949591704E+00  0.24567773773E+01  0.51100000000E-03 0.  1.
        -12    1    4    4    0    0 -0.16189329292E+01 -0.93115743531E+01 -0.25057212929E+02  0.26780408520E+02  0.00000000000E+00 0.  1.
</event>
<event>
 8    1  0.6046524E-010  0.9118800E+02  0.7816164E-02  0.1184000E+00
        -11   -1    0    0    0    0  0.00000000000E+00  0.00000000000E+00  0.45593999997E+02  0.45594000000E+02  0.51100000000E-03 0.  1.
         11   -1    0    0    0    0 -0.00000000000E+00 -0.00000000000E+00 -0.45593999997E+02  0.45594000000E+02  0.51100000000E-03 0. -1.
         23    2    1    2    0    0  0.00000000000E+00  0.00000000000E+00 -0.35527136788E-14  0.91188000000E+02  0.91188000000E+02 0.  0.
    9900012    2    3    3    0    0  0.39388200125E+02  0.52943018379E+01 -0.17440269153E+02  0.47787275015E+02  0.20000018104E+02 0.  0.
         12    1    3    3    0    0 -0.39388200125E+02 -0.52943018379E+01  0.17440269153E+02  0.43400724985E+02  0.00000000000E+00 0. -1.
         11    1    4    4    0    0  0.12958063628E+02  0.18920327134E+01 -0.87011255963E+01  0.15722620255E+02  0.51100000000E-03 0.  1.
        -11    1    4    4    0    0 -0.19971052294E+01 -0.72459247524E+00 -0.53554126046E+00  0.21909514497E+01  0.51100000000E-03 0. -1.
         12    1    4    4    0    0  0.28427241727E+02  0.41268615998E+01 -0.82036022963E+01  0.29873703310E+02  0.00000000000E+00 0. -1.
</event>
<event>
 8    1  0.6046524E-010  0.9118800E+02  0.7816164E-02  0.1184000E+00
        -11   -1    0    0    0    0  0.00000000000E+00  0.00000000000E+00  0.45593999997E+02  0.45594000000E+02  0.51100000000E-03 0. -1.
         11   -1    0    0    0    0 -0.00000000000E+00 -0.00000000000E+00 -0.45593999997E+02  0.45594000000E+02  0.51100000000E-03 0.  1.
         23    2    1    2    0    0  0.00000000000E+00  0.00000000000E+00  0.71054273576E-14  0.91188000000E+02  0.91188000000E+02 0.  0.
    9900012    2    3    3    0    0  0.12358363522E+02  0.95234447496E+01 -0.40499361940E+02  0.47787268827E+02  0.19999989890E+02 0.  0.
         12    1    3    3    0    0 -0.12358363522E+02 -0.95234447496E+01  0.40499361940E+02  0.43400731173E+02  0.00000000000E+00 0. -1.
         11    1    4    4    0    0  0.97443514477E+01  0.45318450783E+01 -0.11344718257E+02  0.15626664313E+02  0.51100000000E-03 0. -1.
        -11    1    4    4    0    0  0.19414958341E+01 -0.39740420828E+01 -0.12066100418E+02  0.12851194345E+02  0.51100000000E-03 0.  1.
         12    1    4    4    0    0  0.67251624031E+00  0.89656417541E+01 -0.17088543265E+02  0.19309410169E+02  0.00000000000E+00 0. -1.
</event>
<event>
 8    1  0.6046524E-010  0.9118800E+02  0.7816164E-02  0.1184000E+00
        -11   -1    0    0    0    0  0.00000000000E+00  0.00000000000E+00  0.45593999997E+02  0.45594000000E+02  0.51100000000E-03 0.  1.
         11   -1    0    0    0    0 -0.00000000000E+00 -0.00000000000E+00 -0.45593999997E+02  0.45594000000E+02  0.51100000000E-03 0. -1.
         23    2    1    2    0    0  0.00000000000E+00  0.00000000000E+00  0.17763568394E-14  0.91188000000E+02  0.91188000000E+02 0.  0.
    9900012    2    3    3    0    0 -0.32183435312E+02  0.26136871256E+02  0.12834049001E+02  0.47787281558E+02  0.20000047935E+02 0.  0.
         12    1    3    3    0    0  0.32183435312E+02 -0.26136871256E+02 -0.12834049001E+02  0.43400718442E+02  0.00000000000E+00 0. -1.
         11    1    4    4    0    0 -0.11247036305E+02  0.13421136709E+02  0.72162953096E+01  0.18939315047E+02  0.51100000000E-03 0. -1.
        -11    1    4    4    0    0  0.80124068612E+00  0.47076990110E+01  0.27359547420E+01  0.55036229183E+01  0.51100000000E-03 0.  1.
         12    1    4    4    0    0 -0.21737639693E+02  0.80080355367E+01  0.28817989491E+01  0.23344343593E+02  0.00000000000E+00 0. -1.
</event>
<event>
 8    1  0.6046524E-010  0.9118800E+02  0.7816164E-02  0.1184000E+00
        -11   -1    0    0    0    0  0.00000000000E+00  0.00000000000E+00  0.45593999997E+02  0.45594000000E+02  0.51100000000E-03 0. -1.
         11   -1    0    0    0    0 -0.00000000000E+00 -0.00000000000E+00 -0.45593999997E+02  0.45594000000E+02  0.51100000000E-03 0.  1.
         23    2    1    2    0    0  0.88817841970E-15  0.00000000000E+00  0.00000000000E+00  0.91188000000E+02  0.91188000000E+02 0.  0.
    9900012    2    3    3    0    0 -0.63156834861E+01  0.42021502973E+02 -0.88277228579E+01  0.47787271194E+02  0.20000000684E+02 0.  0.
         12    1    3    3    0    0  0.63156834861E+01 -0.42021502973E+02  0.88277228579E+01  0.43400728806E+02  0.00000000000E+00 0. -1.
         11    1    4    4    0    0 -0.77246654460E+01  0.14616019417E+02 -0.54250463815E+01  0.17399126655E+02  0.51100000000E-03 0. -1.
        -11    1    4    4    0    0  0.28688337517E+01  0.21057696694E+02 -0.76782505084E+01  0.22596732690E+02  0.51100000000E-03 0.  1.
        -12    1    4    4    0    0 -0.14598517918E+01  0.63477868620E+01  0.42755740320E+01  0.77914118491E+01  0.00000000000E+00 0.  1.
</event>
<event>
 8    1  0.6046524E-010  0.9118800E+02  0.7816164E-02  0.1184000E+00
        -11   -1    0    0    0    0  0.00000000000E+00  0.00000000000E+00  0.45593999997E+02  0.45594000000E+02  0.51100000000E-03 0. -1.
         11   -1    0    0    0    0 -0.00000000000E+00 -0.00000000000E+00 -0.45593999997E+02  0.45594000000E+02  0.51100000000E-03 0.  1.
         23    2    1    2    0    0  0.00000000000E+00  0.35527136788E-14  0.35527136788E-14  0.91188000000E+02  0.91188000000E+02 0.  0.
    9900012    2    3    3    0    0 -0.16142226821E+02  0.26176847932E+02 -0.30623917723E+02  0.47787271998E+02  0.20000004348E+02 0.  0.
         12    1    3    3    0    0  0.16142226821E+02 -0.26176847932E+02  0.30623917723E+02  0.43400728002E+02  0.00000000000E+00 0. -1.
         11    1    4    4    0    0 -0.37839499053E+01 -0.70156275938E+00 -0.10485241974E+02  0.11169188275E+02  0.51100000000E-03 0. -1.
        -11    1    4    4    0    0 -0.43836570187E+01  0.14391918525E+02 -0.14098959027E+02  0.20618545380E+02  0.51100000000E-03 0.  1.
        -12    1    4    4    0    0 -0.79746198974E+01  0.12486492166E+02 -0.60397167218E+01  0.15999538344E+02  0.00000000000E+00 0.  1.
</event>
<event>
 8    1  0.6046524E-010  0.9118800E+02  0.7816164E-02  0.1184000E+00
        -11   -1    0    0    0    0  0.00000000000E+00  0.00000000000E+00  0.45593999997E+02  0.45594000000E+02  0.51100000000E-03 0. -1.
         11   -1    0    0    0    0 -0.00000000000E+00 -0.00000000000E+00 -0.45593999997E+02  0.45594000000E+02  0.51100000000E-03 0.  1.
         23    2    1    2    0    0 -0.13322676296E-14  0.35527136788E-14  0.00000000000E+00  0.91188000000E+02  0.91188000000E+02 0.  0.
    9900012    2    3    3    0    0  0.64992409906E+00 -0.28048065667E+02  0.33113546303E+02  0.47787270309E+02  0.19999996647E+02 0.  0.
        -12    1    3    3    0    0 -0.64992409906E+00  0.28048065667E+02 -0.33113546303E+02  0.43400729691E+02  0.00000000000E+00 0.  1.
         11    1    4    4    0    0 -0.57189980450E+01 -0.37099640768E+01  0.73174163914E+01  0.10000767720E+02  0.51100000000E-03 0. -1.
        -11    1    4    4    0    0 -0.31645282056E+01 -0.88159674519E+01  0.79559380812E+01  0.12289526919E+02  0.51100000000E-03 0.  1.
         12    1    4    4    0    0  0.95334503497E+01 -0.15522134138E+02  0.17840191830E+02  0.25496975670E+02  0.00000000000E+00 0. -1.
</event>
<event>
 8    1  0.6046524E-010  0.9118800E+02  0.7816164E-02  0.1184000E+00
        -11   -1    0    0    0    0  0.00000000000E+00  0.00000000000E+00  0.45593999997E+02  0.45594000000E+02  0.51100000000E-03 0.  1.
         11   -1    0    0    0    0 -0.00000000000E+00 -0.00000000000E+00 -0.45593999997E+02  0.45594000000E+02  0.51100000000E-03 0. -1.
         23    2    1    2    0    0  0.00000000000E+00  0.00000000000E+00  0.22204460493E-15  0.91188000000E+02  0.91188000000E+02 0.  0.
    9900012    2    3    3    0    0 -0.35923545029E+02  0.24340470101E+02  0.81451039060E+00  0.47787274207E+02  0.20000014418E+02 0.  0.
         12    1    3    3    0    0  0.35923545029E+02 -0.24340470101E+02 -0.81451039060E+00  0.43400725793E+02  0.00000000000E+00 0. -1.
         11    1    4    4    0    0 -0.15265336910E+01 -0.27706025237E+01  0.19417469758E+01  0.37117280387E+01  0.51100000000E-03 0. -1.
        -11    1    4    4    0    0 -0.17907523208E+02  0.13188858689E+02  0.17254741821E+01  0.22307008817E+02  0.51100000000E-03 0.  1.
         12    1    4    4    0    0 -0.16489488130E+02  0.13922213936E+02 -0.28527107673E+01  0.21768537351E+02  0.00000000000E+00 0. -1.
</event>
<event>
 8    1  0.6046524E-010  0.9118800E+02  0.7816164E-02  0.1184000E+00
        -11   -1    0    0    0    0  0.00000000000E+00  0.00000000000E+00  0.45593999997E+02  0.45594000000E+02  0.51100000000E-03 0. -1.
         11   -1    0    0    0    0 -0.00000000000E+00 -0.00000000000E+00 -0.45593999997E+02  0.45594000000E+02  0.51100000000E-03 0.  1.
         23    2    1    2    0    0  0.00000000000E+00 -0.88817841970E-15  0.00000000000E+00  0.91188000000E+02  0.91188000000E+02 0.  0.
    9900012    2    3    3    0    0  0.41858161453E+02 -0.34428283026E+01 -0.10939135439E+02  0.47787269233E+02  0.19999991740E+02 0.  0.
         12    1    3    3    0    0 -0.41858161453E+02  0.34428283026E+01  0.10939135439E+02  0.43400730767E+02  0.00000000000E+00 0. -1.
         11    1    4    4    0    0  0.17654433547E+02  0.37855569292E+00 -0.96015030540E+01  0.20100029588E+02  0.51100000000E-03 0. -1.
        -11    1    4    4    0    0  0.12308004157E+02 -0.83494666196E+01 -0.15803643590E+01  0.14956540740E+02  0.51100000000E-03 0.  1.
         12    1    4    4    0    0  0.11895723750E+02  0.45280826241E+01  0.24273197397E+00  0.12730698904E+02  0.00000000000E+00 0. -1.
</event>
<event>
 8    1  0.6046524E-010  0.9118800E+02  0.7816164E-02  0.1184000E+00
        -11   -1    0    0    0    0  0.00000000000E+00  0.00000000000E+00  0.45593999997E+02  0.45594000000E+02  0.51100000000E-03 0.  1.
         11   -1    0    0    0    0 -0.00000000000E+00 -0.00000000000E+00 -0.45593999997E+02  0.45594000000E+02  0.51100000000E-03 0. -1.
         23    2    1    2    0    0  0.00000000000E+00 -0.17763568394E-14 -0.88817841970E-15  0.91188000000E+02  0.91188000000E+02 0.  0.
    9900012    2    3    3    0    0 -0.41852413037E+02  0.93639399301E+01  0.66569902223E+01  0.47787269974E+02  0.19999995117E+02 0.  0.
        -12    1    3    3    0    0  0.41852413037E+02 -0.93639399301E+01 -0.66569902223E+01  0.43400730026E+02  0.00000000000E+00 0.  1.
         11    1    4    4    0    0 -0.12924940114E+02  0.10331530177E+02 -0.92627688322E+00  0.16572645591E+02  0.51100000000E-03 0. -1.
        -11    1    4    4    0    0 -0.21309111054E+02  0.31339575599E+01  0.64816843876E+01  0.22492490673E+02  0.51100000000E-03 0.  1.
        -12    1    4    4    0    0 -0.76183618679E+01 -0.41015478068E+01  0.11015827179E+01  0.87221337095E+01  0.00000000000E+00 0.  1.
</event>
<event>
 8    1  0.6046524E-010  0.9118800E+02  0.7816164E-02  0.1184000E+00
        -11   -1    0    0    0    0  0.00000000000E+00  0.00000000000E+00  0.45593999997E+02  0.45594000000E+02  0.51100000000E-03 0. -1.
         11   -1    0    0    0    0 -0.00000000000E+00 -0.00000000000E+00 -0.45593999997E+02  0.45594000000E+02  0.51100000000E-03 0.  1.
         23    2    1    2    0    0 -0.35527136788E-14  0.00000000000E+00 -0.71054273576E-14  0.91188000000E+02  0.91188000000E+02 0.  0.
    9900012    2    3    3    0    0 -0.19447156380E+02  0.20084489842E+02 -0.33197069285E+02  0.47787262303E+02  0.19999960145E+02 0.  0.
         12    1    3    3    0    0  0.19447156380E+02 -0.20084489842E+02  0.33197069285E+02  0.43400737697E+02  0.00000000000E+00 0. -1.
         11    1    4    4    0    0 -0.16836047712E+02  0.83198102032E+01 -0.14028228814E+02  0.23440626022E+02  0.51100000000E-03 0. -1.
        -11    1    4    4    0    0 -0.50189543840E+01  0.11365542533E+02 -0.14635321644E+02  0.19197867071E+02  0.51100000000E-03 0.  1.
        -12    1    4    4    0    0  0.24078457158E+01  0.39913710531E+00 -0.45335188279E+01  0.51487692105E+01  0.00000000000E+00 0.  1.
</event>
<event>
 8    1  0.6046524E-010  0.9118800E+02  0.7816164E-02  0.1184000E+00
        -11   -1    0    0    0    0  0.00000000000E+00  0.00000000000E+00  0.45593999997E+02  0.45594000000E+02  0.51100000000E-03 0. -1.
         11   -1    0    0    0    0 -0.00000000000E+00 -0.00000000000E+00 -0.45593999997E+02  0.45594000000E+02  0.51100000000E-03 0.  1.
         23    2    1    2    0    0  0.17763568394E-14  0.17763568394E-14  0.71054273576E-14  0.91188000000E+02  0.91188000000E+02 0.  0.
    9900012    2    3    3    0    0 -0.85071207205E+01 -0.49023782197E+01 -0.42275508962E+02  0.47787273356E+02  0.20000010541E+02 0.  0.
         12    1    3    3    0    0  0.85071207205E+01  0.49023782197E+01  0.42275508962E+02  0.43400726644E+02  0.00000000000E+00 0. -1.
         11    1    4    4    0    0  0.86810144823E+00 -0.71814032518E+01 -0.13463731695E+02  0.15283920446E+02  0.51100000000E-03 0. -1.
        -11    1    4    4    0    0 -0.29992687503E+01 -0.45335232249E+01 -0.13750585877E+02  0.14786042678E+02  0.51100000000E-03 0.  1.
        -12    1    4    4    0    0 -0.63759534185E+01  0.68125482571E+01 -0.15061191391E+02  0.17717310232E+02  0.00000000000E+00 0.  1.
</event>
<event>
 8    1  0.6046524E-010  0.9118800E+02  0.7816164E-02  0.1184000E+00
        -11   -1    0    0    0    0  0.00000000000E+00  0.00000000000E+00  0.45593999997E+02  0.45594000000E+02  0.51100000000E-03 0. -1.
         11   -1    0    0    0    0 -0.00000000000E+00 -0.00000000000E+00 -0.45593999997E+02  0.45594000000E+02  0.51100000000E-03 0.  1.
         23    2    1    2    0    0  0.00000000000E+00  0.00000000000E+00  0.00000000000E+00  0.91188000000E+02  0.91188000000E+02 0.  0.
    9900012    2    3    3    0    0  0.24511541193E+02 -0.14482320124E+02  0.32757751601E+02  0.47787268004E+02  0.19999986136E+02 0.  0.
        -12    1    3    3    0    0 -0.24511541193E+02  0.14482320124E+02 -0.32757751601E+02  0.43400731996E+02  0.00000000000E+00 0.  1.
         11    1    4    4    0    0  0.30703810576E+01 -0.87561754776E+01  0.10156499428E+02  0.13756901168E+02  0.51100000000E-03 0. -1.
        -11    1    4    4    0    0  0.15828953720E+01 -0.80965211182E+00  0.96615684775E+01  0.98237976367E+01  0.51100000000E-03 0.  1.
         12    1    4    4    0    0  0.19858264764E+02 -0.49164925345E+01  0.12939683695E+02  0.24206569199E+02  0.00000000000E+00 0. -1.
</event>
<event>
 8    1  0.6046524E-010  0.9118800E+02  0.7816164E-02  0.1184000E+00
        -11   -1    0    0    0    0  0.00000000000E+00  0.00000000000E+00  0.45593999997E+02  0.45594000000E+02  0.51100000000E-03 0. -1.
         11   -1    0    0    0    0 -0.00000000000E+00 -0.00000000000E+00 -0.45593999997E+02  0.45594000000E+02  0.51100000000E-03 0.  1.
         23    2    1    2    0    0  0.00000000000E+00  0.88817841970E-15  0.00000000000E+00  0.91188000000E+02  0.91188000000E+02 0.  0.
    9900012    2    3    3    0    0 -0.24341901080E+02  0.72577897853E+01  0.35191186622E+02  0.47787271013E+02  0.19999999855E+02 0.  0.
        -12    1    3    3    0    0  0.24341901080E+02 -0.72577897853E+01 -0.35191186622E+02  0.43400728987E+02  0.00000000000E+00 0.  1.
         11    1    4    4    0    0  0.10255362205E+01 -0.13504904168E+01  0.15304182213E+01  0.22842349044E+01  0.51100000000E-03 0. -1.
        -11    1    4    4    0    0 -0.10402688172E+01  0.52980651241E+01  0.10219234361E+02  0.11557871970E+02  0.51100000000E-03 0.  1.
         12    1    4    4    0    0 -0.24327168483E+02  0.33102150780E+01  0.23441534040E+02  0.33945164139E+02  0.00000000000E+00 0. -1.
</event>
<event>
 8    1  0.6046524E-010  0.9118800E+02  0.7816164E-02  0.1184000E+00
        -11   -1    0    0    0    0  0.00000000000E+00  0.00000000000E+00  0.45593999997E+02  0.45594000000E+02  0.51100000000E-03 0. -1.
         11   -1    0    0    0    0 -0.00000000000E+00 -0.00000000000E+00 -0.45593999997E+02  0.45594000000E+02  0.51100000000E-03 0.  1.
         23    2    1    2    0    0  0.00000000000E+00  0.71054273576E-14  0.00000000000E+00  0.91188000000E+02  0.91188000000E+02 0.  0.
    9900012    2    3    3    0    0 -0.15856781586E+02 -0.32782602567E+02  0.23611186543E+02  0.47787254807E+02  0.19999925965E+02 0.  0.
        -12    1    3    3    0    0  0.15856781586E+02  0.32782602567E+02 -0.23611186543E+02  0.43400745193E+02  0.00000000000E+00 0.  1.
         11    1    4    4    0    0  0.16927291917E+01 -0.93088680337E+01  0.10004645745E+02  0.13770014267E+02  0.51100000000E-03 0. -1.
        -11    1    4    4    0    0 -0.13268489321E+02 -0.22552022651E+02  0.13899354885E+02  0.29628341179E+02  0.51100000000E-03 0.  1.
        -12    1    4    4    0    0 -0.42810214569E+01 -0.92171188255E+00 -0.29281408670E+00  0.43888993607E+01  0.00000000000E+00 0.  1.
</event>
<event>
 8    1  0.6046524E-010  0.9118800E+02  0.7816164E-02  0.1184000E+00
        -11   -1    0    0    0    0  0.00000000000E+00  0.00000000000E+00  0.45593999997E+02  0.45594000000E+02  0.51100000000E-03 0. -1.
         11   -1    0    0    0    0 -0.00000000000E+00 -0.00000000000E+00 -0.45593999997E+02  0.45594000000E+02  0.51100000000E-03 0.  1.
         23    2    1    2    0    0  0.00000000000E+00  0.00000000000E+00 -0.35527136788E-14  0.91188000000E+02  0.91188000000E+02 0.  0.
    9900012    2    3    3    0    0 -0.19699597190E+02  0.23977522612E+02  0.30341845266E+02  0.47787270810E+02  0.19999998930E+02 0.  0.
        -12    1    3    3    0    0  0.19699597190E+02 -0.23977522612E+02 -0.30341845266E+02  0.43400729190E+02  0.00000000000E+00 0.  1.
         11    1    4    4    0    0 -0.56552669414E+01  0.13828727277E+02  0.15074804826E+02  0.21224172142E+02  0.51100000000E-03 0. -1.
        -11    1    4    4    0    0 -0.14721520757E+01 -0.12895707518E+01  0.77231003754E+01  0.79672143267E+01  0.51100000000E-03 0.  1.
         12    1    4    4    0    0 -0.12572178173E+02  0.11438366086E+02  0.75439400650E+01  0.18595884342E+02  0.00000000000E+00 0. -1.
</event>
<event>
 8    1  0.6046524E-010  0.9118800E+02  0.7816164E-02  0.1184000E+00
        -11   -1    0    0    0    0  0.00000000000E+00  0.00000000000E+00  0.45593999997E+02  0.45594000000E+02  0.51100000000E-03 0. -1.
         11   -1    0    0    0    0 -0.00000000000E+00 -0.00000000000E+00 -0.45593999997E+02  0.45594000000E+02  0.51100000000E-03 0.  1.
         23    2    1    2    0    0  0.00000000000E+00 -0.44408920985E-15  0.71054273576E-14  0.91188000000E+02  0.91188000000E+02 0.  0.
    9900012    2    3    3    0    0  0.58990219704E+01  0.35010251182E+01 -0.42855197003E+02  0.47787267895E+02  0.19999985639E+02 0.  0.
         12    1    3    3    0    0 -0.58990219704E+01 -0.35010251182E+01  0.42855197003E+02  0.43400732105E+02  0.00000000000E+00 0. -1.
         11    1    4    4    0    0  0.48256693648E+00 -0.28772515068E+01 -0.17756596017E+02  0.17994670029E+02  0.51100000000E-03 0.  1.
        -11    1    4    4    0    0 -0.28066985832E+01  0.56727212218E+01 -0.50014031324E+01  0.80666818799E+01  0.51100000000E-03 0. -1.
         12    1    4    4    0    0  0.82231536172E+01  0.70555540323E+00 -0.20097197854E+02  0.21725915986E+02  0.00000000000E+00 0. -1.
</event>
<event>
 8    1  0.6046524E-010  0.9118800E+02  0.7816164E-02  0.1184000E+00
        -11   -1    0    0    0    0  0.00000000000E+00  0.00000000000E+00  0.45593999997E+02  0.45594000000E+02  0.51100000000E-03 0. -1.
         11   -1    0    0    0    0 -0.00000000000E+00 -0.00000000000E+00 -0.45593999997E+02  0.45594000000E+02  0.51100000000E-03 0.  1.
         23    2    1    2    0    0  0.00000000000E+00  0.00000000000E+00  0.00000000000E+00  0.91188000000E+02  0.91188000000E+02 0.  0.
    9900012    2    3    3    0    0  0.17503075971E+02  0.53193815865E+01 -0.39356953868E+02  0.47787270667E+02  0.19999998278E+02 0.  0.
         12    1    3    3    0    0 -0.17503075971E+02 -0.53193815865E+01  0.39356953868E+02  0.43400729333E+02  0.00000000000E+00 0. -1.
         11    1    4    4    0    0  0.18070156465E+01 -0.11325695016E+01 -0.62158515945E-01  0.21335142758E+01  0.51100000000E-03 0. -1.
        -11    1    4    4    0    0  0.14311094531E+02  0.80645975127E+01 -0.40136066707E+02  0.43367603239E+02  0.51100000000E-03 0.  1.
        -12    1    4    4    0    0  0.13849657937E+01 -0.16126464246E+01  0.84127135548E+00  0.22861531519E+01  0.00000000000E+00 0.  1.
</event>
<event>
 8    1  0.6046524E-010  0.9118800E+02  0.7816164E-02  0.1184000E+00
        -11   -1    0    0    0    0  0.00000000000E+00  0.00000000000E+00  0.45593999997E+02  0.45594000000E+02  0.51100000000E-03 0. -1.
         11   -1    0    0    0    0 -0.00000000000E+00 -0.00000000000E+00 -0.45593999997E+02  0.45594000000E+02  0.51100000000E-03 0.  1.
         23    2    1    2    0    0  0.35527136788E-14  0.00000000000E+00  0.00000000000E+00  0.91188000000E+02  0.91188000000E+02 0.  0.
    9900012    2    3    3    0    0 -0.16628095916E+02 -0.19554753919E+02  0.34996302758E+02  0.47787272110E+02  0.20000004859E+02 0.  0.
        -12    1    3    3    0    0  0.16628095916E+02  0.19554753919E+02 -0.34996302758E+02  0.43400727890E+02  0.00000000000E+00 0.  1.
         11    1    4    4    0    0  0.16843116640E+00 -0.60268180783E+01  0.10392067056E+02  0.12014406484E+02  0.51100000000E-03 0. -1.
        -11    1    4    4    0    0 -0.15322519530E+02 -0.12396374282E+02  0.12090835255E+02  0.23122240322E+02  0.51100000000E-03 0.  1.
        -12    1    4    4    0    0 -0.14740075525E+01 -0.11315615588E+01  0.12513400448E+02  0.12650625304E+02  0.00000000000E+00 0.  1.
</event>
<event>
 8    1  0.6046524E-010  0.9118800E+02  0.7816164E-02  0.1184000E+00
        -11   -1    0    0    0    0  0.00000000000E+00  0.00000000000E+00  0.45593999997E+02  0.45594000000E+02  0.51100000000E-03 0. -1.
         11   -1    0    0    0    0 -0.00000000000E+00 -0.00000000000E+00 -0.45593999997E+02  0.45594000000E+02  0.51100000000E-03 0.  1.
         23    2    1    2    0    0  0.00000000000E+00 -0.35527136788E-14  0.71054273576E-14  0.91188000000E+02  0.91188000000E+02 0.  0.
    9900012    2    3    3    0    0  0.17537949103E+02 -0.13255710438E+02  0.37420983208E+02  0.47787268414E+02  0.19999988008E+02 0.  0.
        -12    1    3    3    0    0 -0.17537949103E+02  0.13255710438E+02 -0.37420983208E+02  0.43400731586E+02  0.00000000000E+00 0.  1.
         11    1    4    4    0    0  0.53763221062E+01 -0.12212157191E+02  0.28531616829E+02  0.31497536123E+02  0.51100000000E-03 0. -1.
        -11    1    4    4    0    0  0.22792836237E+01 -0.16331809703E+01 -0.25138889454E+00  0.28152460917E+01  0.51100000000E-03 0.  1.
         12    1    4    4    0    0  0.98823433729E+01  0.58962772344E+00  0.91407552731E+01  0.13474486200E+02  0.00000000000E+00 0. -1.
</event>
<event>
 8    1  0.6046524E-010  0.9118800E+02  0.7816164E-02  0.1184000E+00
        -11   -1    0    0    0    0  0.00000000000E+00  0.00000000000E+00  0.45593999997E+02  0.45594000000E+02  0.51100000000E-03 0. -1.
         11   -1    0    0    0    0 -0.00000000000E+00 -0.00000000000E+00 -0.45593999997E+02  0.45594000000E+02  0.51100000000E-03 0.  1.
         23    2    1    2    0    0  0.88817841970E-15  0.00000000000E+00 -0.71054273576E-14  0.91188000000E+02  0.91188000000E+02 0.  0.
    9900012    2    3    3    0    0 -0.43573631697E+01  0.16411261273E+02  0.39941295235E+02  0.47787272179E+02  0.20000005171E+02 0.  0.
        -12    1    3    3    0    0  0.43573631697E+01 -0.16411261273E+02 -0.39941295235E+02  0.43400727821E+02  0.00000000000E+00 0.  1.
         11    1    4    4    0    0 -0.67259360042E+01  0.21261349076E+01  0.20053556701E+02  0.21258029104E+02  0.51100000000E-03 0. -1.
        -11    1    4    4    0    0  0.34840347101E+01  0.72436589348E+00  0.20925599047E+01  0.41281970671E+01  0.51100000000E-03 0.  1.
        -12    1    4    4    0    0 -0.11154618755E+01  0.13560760472E+02  0.17795178629E+02  0.22401046007E+02  0.00000000000E+00 0.  1.
</event>
<event>
 8    1  0.7026795E-010  0.9118800E+02  0.7816164E-02  0.1184000E+00
        -11   -1    0    0    0    0  0.00000000000E+00  0.00000000000E+00  0.45593999997E+02  0.45594000000E+02  0.51100000000E-03 0. -1.
         11   -1    0    0    0    0 -0.00000000000E+00 -0.00000000000E+00 -0.45593999997E+02  0.45594000000E+02  0.51100000000E-03 0.  1.
         23    2    1    2    0    0  0.00000000000E+00  0.44408920985E-15 -0.71054273576E-14  0.91188000000E+02  0.91188000000E+02 0.  0.
    9900012    2    3    3    0    0  0.25388527226E+01 -0.14601716419E+01 -0.43301801109E+02  0.47787264365E+02  0.19999969546E+02 0.  0.
         12    1    3    3    0    0 -0.25388527226E+01  0.14601716419E+01  0.43301801109E+02  0.43400735635E+02  0.00000000000E+00 0. -1.
         11    1    4    4    0    0 -0.16411340156E+01  0.59118649734E+01 -0.29934324613E+02  0.30556623809E+02  0.51100000000E-03 0. -1.
        -11    1    4    4    0    0  0.39910969060E+01 -0.28150869703E+01 -0.11121704603E+02  0.12146846615E+02  0.51100000000E-03 0.  1.
         12    1    4    4    0    0  0.18888983224E+00 -0.45569496449E+01 -0.22457718937E+01  0.50837939409E+01  0.00000000000E+00 0. -1.
</event>
<event>
 8    1  0.6046524E-010  0.9118800E+02  0.7816164E-02  0.1184000E+00
        -11   -1    0    0    0    0  0.00000000000E+00  0.00000000000E+00  0.45593999997E+02  0.45594000000E+02  0.51100000000E-03 0. -1.
         11   -1    0    0    0    0 -0.00000000000E+00 -0.00000000000E+00 -0.45593999997E+02  0.45594000000E+02  0.51100000000E-03 0.  1.
         23    2    1    2    0    0  0.17763568394E-14  0.00000000000E+00  0.00000000000E+00  0.91188000000E+02  0.91188000000E+02 0.  0.
    9900012    2    3    3    0    0 -0.15219357598E+02  0.77734784764E+01  0.39894460564E+02  0.47787265018E+02  0.19999972521E+02 0.  0.
        -12    1    3    3    0    0  0.15219357598E+02 -0.77734784764E+01 -0.39894460564E+02  0.43400734982E+02  0.00000000000E+00 0.  1.
         11    1    4    4    0    0 -0.52642375850E+01  0.59692887327E+01  0.40838034588E+01  0.89455048084E+01  0.51100000000E-03 0. -1.
        -11    1    4    4    0    0  0.83294224443E+00  0.24552147675E+01  0.16586121892E+02  0.16787534424E+02  0.51100000000E-03 0.  1.
        -12    1    4    4    0    0 -0.10788062258E+02 -0.65102502384E+00  0.19224535213E+02  0.22054225786E+02  0.00000000000E+00 0.  1.
</event>
<event>
 8    1  0.6046524E-010  0.9118800E+02  0.7816164E-02  0.1184000E+00
        -11   -1    0    0    0    0  0.00000000000E+00  0.00000000000E+00  0.45593999997E+02  0.45594000000E+02  0.51100000000E-03 0. -1.
         11   -1    0    0    0    0 -0.00000000000E+00 -0.00000000000E+00 -0.45593999997E+02  0.45594000000E+02  0.51100000000E-03 0.  1.
         23    2    1    2    0    0  0.00000000000E+00  0.00000000000E+00  0.00000000000E+00  0.91188000000E+02  0.91188000000E+02 0.  0.
    9900012    2    3    3    0    0  0.43636719240E+01  0.23099083511E+02  0.36483064276E+02  0.47787271081E+02  0.20000000167E+02 0.  0.
        -12    1    3    3    0    0 -0.43636719240E+01 -0.23099083511E+02 -0.36483064276E+02  0.43400728919E+02  0.00000000000E+00 0.  1.
         11    1    4    4    0    0  0.19461015471E+01  0.17974081515E+01  0.15333054040E+02  0.15560222805E+02  0.51100000000E-03 0. -1.
        -11    1    4    4    0    0 -0.26842122083E+01  0.39742020317E+00  0.32765908087E+01  0.42542902564E+01  0.51100000000E-03 0.  1.
         12    1    4    4    0    0  0.51017825852E+01  0.20904255156E+02  0.17873419428E+02  0.27972758020E+02  0.00000000000E+00 0. -1.
</event>
<event>
 8    1  0.6046524E-010  0.9118800E+02  0.7816164E-02  0.1184000E+00
        -11   -1    0    0    0    0  0.00000000000E+00  0.00000000000E+00  0.45593999997E+02  0.45594000000E+02  0.51100000000E-03 0. -1.
         11   -1    0    0    0    0 -0.00000000000E+00 -0.00000000000E+00 -0.45593999997E+02  0.45594000000E+02  0.51100000000E-03 0.  1.
         23    2    1    2    0    0  0.17763568394E-14  0.00000000000E+00  0.00000000000E+00  0.91188000000E+02  0.91188000000E+02 0.  0.
    9900012    2    3    3    0    0  0.10295449850E+02 -0.86283972719E+01 -0.41269573099E+02  0.47787272001E+02  0.20000004360E+02 0.  0.
         12    1    3    3    0    0 -0.10295449850E+02  0.86283972719E+01  0.41269573099E+02  0.43400727999E+02  0.00000000000E+00 0. -1.
         11    1    4    4    0    0 -0.43297535505E+01 -0.21238193193E+01 -0.47669465704E+01  0.67809405082E+01  0.51100000000E-03 0. -1.
        -11    1    4    4    0    0  0.85203421201E+01 -0.11666338112E+01 -0.95095428086E+01  0.12821414469E+02  0.51100000000E-03 0.  1.
        -12    1    4    4    0    0  0.61048612808E+01 -0.53379441414E+01 -0.26993083720E+02  0.28184917024E+02  0.00000000000E+00 0.  1.
</event>
<event>
 8    1  0.6046524E-010  0.9118800E+02  0.7816164E-02  0.1184000E+00
        -11   -1    0    0    0    0  0.00000000000E+00  0.00000000000E+00  0.45593999997E+02  0.45594000000E+02  0.51100000000E-03 0. -1.
         11   -1    0    0    0    0 -0.00000000000E+00 -0.00000000000E+00 -0.45593999997E+02  0.45594000000E+02  0.51100000000E-03 0.  1.
         23    2    1    2    0    0  0.00000000000E+00  0.00000000000E+00  0.35527136788E-14  0.91188000000E+02  0.91188000000E+02 0.  0.
    9900012    2    3    3    0    0 -0.29363980480E+02 -0.12271188953E+02 -0.29509281614E+02  0.47787272710E+02  0.20000007594E+02 0.  0.
         12    1    3    3    0    0  0.29363980480E+02  0.12271188953E+02  0.29509281614E+02  0.43400727290E+02  0.00000000000E+00 0. -1.
         11    1    4    4    0    0 -0.15131100792E+02 -0.73475827507E+00 -0.17362124342E+02  0.23041993031E+02  0.51100000000E-03 0.  1.
        -11    1    4    4    0    0  0.73484407390E+00 -0.40866481268E+01 -0.51641158509E+01  0.66263701608E+01  0.51100000000E-03 0. -1.
        -12    1    4    4    0    0 -0.14967723761E+02 -0.74497825509E+01 -0.69830414214E+01  0.18118909519E+02  0.00000000000E+00 0.  1.
</event>
<event>
 8    1  0.6046524E-010  0.9118800E+02  0.7816164E-02  0.1184000E+00
        -11   -1    0    0    0    0  0.00000000000E+00  0.00000000000E+00  0.45593999997E+02  0.45594000000E+02  0.51100000000E-03 0.  1.
         11   -1    0    0    0    0 -0.00000000000E+00 -0.00000000000E+00 -0.45593999997E+02  0.45594000000E+02  0.51100000000E-03 0. -1.
         23    2    1    2    0    0  0.00000000000E+00  0.35527136788E-14  0.00000000000E+00  0.91188000000E+02  0.91188000000E+02 0.  0.
    9900012    2    3    3    0    0  0.38384453844E+02  0.16216502476E+02 -0.12135983693E+02  0.47787270172E+02  0.19999996021E+02 0.  0.
        -12    1    3    3    0    0 -0.38384453844E+02 -0.16216502476E+02  0.12135983693E+02  0.43400729828E+02  0.00000000000E+00 0.  1.
         11    1    4    4    0    0  0.10068381294E+02 -0.21079305677E+01 -0.16149677447E+01  0.10412674692E+02  0.51100000000E-03 0.  1.
        -11    1    4    4    0    0  0.71395127485E+01  0.11402557543E+02 -0.24251709947E+01  0.13670128581E+02  0.51100000000E-03 0. -1.
         12    1    4    4    0    0  0.21176559801E+02  0.69218755010E+01 -0.80958449535E+01  0.23704466899E+02  0.00000000000E+00 0. -1.
</event>
<event>
 8    1  0.6046524E-010  0.9118800E+02  0.7816164E-02  0.1184000E+00
        -11   -1    0    0    0    0  0.00000000000E+00  0.00000000000E+00  0.45593999997E+02  0.45594000000E+02  0.51100000000E-03 0. -1.
         11   -1    0    0    0    0 -0.00000000000E+00 -0.00000000000E+00 -0.45593999997E+02  0.45594000000E+02  0.51100000000E-03 0.  1.
         23    2    1    2    0    0  0.00000000000E+00  0.00000000000E+00  0.00000000000E+00  0.91188000000E+02  0.91188000000E+02 0.  0.
    9900012    2    3    3    0    0  0.16581811271E+02 -0.18366928523E+02  0.35655614810E+02  0.47787269639E+02  0.19999993592E+02 0.  0.
        -12    1    3    3    0    0 -0.16581811271E+02  0.18366928523E+02 -0.35655614810E+02  0.43400730361E+02  0.00000000000E+00 0.  1.
         11    1    4    4    0    0 -0.13771541386E+01 -0.17563049715E+00  0.21298172622E+01  0.25423456540E+01  0.51100000000E-03 0. -1.
        -11    1    4    4    0    0  0.17649567257E+02 -0.15304595733E+02  0.34928422114E+02  0.42020620492E+02  0.51100000000E-03 0.  1.
        -12    1    4    4    0    0  0.30939815242E+00 -0.28867022921E+01 -0.14026245659E+01  0.32243034927E+01  0.00000000000E+00 0.  1.
</event>
<event>
 8    1  0.6046524E-010  0.9118800E+02  0.7816164E-02  0.1184000E+00
        -11   -1    0    0    0    0  0.00000000000E+00  0.00000000000E+00  0.45593999997E+02  0.45594000000E+02  0.51100000000E-03 0. -1.
         11   -1    0    0    0    0 -0.00000000000E+00 -0.00000000000E+00 -0.45593999997E+02  0.45594000000E+02  0.51100000000E-03 0.  1.
         23    2    1    2    0    0  0.35527136788E-14  0.44408920985E-15  0.00000000000E+00  0.91188000000E+02  0.91188000000E+02 0.  0.
    9900012    2    3    3    0    0  0.28288545132E+02 -0.34547921750E+01 -0.32732954496E+02  0.47787266312E+02  0.19999978422E+02 0.  0.
         12    1    3    3    0    0 -0.28288545132E+02  0.34547921750E+01  0.32732954496E+02  0.43400733688E+02  0.00000000000E+00 0. -1.
         11    1    4    4    0    0  0.79872366948E+00  0.17680509812E+01 -0.82134338322E+01  0.84394584749E+01  0.51100000000E-03 0. -1.
        -11    1    4    4    0    0  0.20517035470E+02  0.20918168801E+01 -0.17443509272E+02  0.27011117310E+02  0.51100000000E-03 0.  1.
         12    1    4    4    0    0  0.69727859921E+01 -0.73146600363E+01 -0.70760113917E+01  0.12336690527E+02  0.00000000000E+00 0. -1.
</event>
<event>
 8    1  0.6046524E-010  0.9118800E+02  0.7816164E-02  0.1184000E+00
        -11   -1    0    0    0    0  0.00000000000E+00  0.00000000000E+00  0.45593999997E+02  0.45594000000E+02  0.51100000000E-03 0.  1.
         11   -1    0    0    0    0 -0.00000000000E+00 -0.00000000000E+00 -0.45593999997E+02  0.45594000000E+02  0.51100000000E-03 0. -1.
         23    2    1    2    0    0  0.10269562978E-14  0.00000000000E+00  0.00000000000E+00  0.91188000000E+02  0.91188000000E+02 0.  0.
    9900012    2    3    3    0    0 -0.24366802950E+00 -0.37253256617E+02 -0.22265600001E+02  0.47787292101E+02  0.20000096007E+02 0.  0.
         12    1    3    3    0    0  0.24366802950E+00  0.37253256617E+02  0.22265600001E+02  0.43400707899E+02  0.00000000000E+00 0. -1.
         11    1    4    4    0    0 -0.96467011001E+00 -0.12855799447E+02 -0.64981851888E+01  0.14437055755E+02  0.51100000000E-03 0. -1.
        -11    1    4    4    0    0  0.80007401964E+01 -0.16079505599E+02 -0.71357356889E+01  0.19325658284E+02  0.51100000000E-03 0.  1.
         12    1    4    4    0    0 -0.72797381159E+01 -0.83179515704E+01 -0.86316791234E+01  0.14024578063E+02  0.00000000000E+00 0. -1.
</event>
<event>
 8    1  0.6046524E-010  0.9118800E+02  0.7816164E-02  0.1184000E+00
        -11   -1    0    0    0    0  0.00000000000E+00  0.00000000000E+00  0.45593999997E+02  0.45594000000E+02  0.51100000000E-03 0. -1.
         11   -1    0    0    0    0 -0.00000000000E+00 -0.00000000000E+00 -0.45593999997E+02  0.45594000000E+02  0.51100000000E-03 0.  1.
         23    2    1    2    0    0  0.00000000000E+00  0.00000000000E+00 -0.35527136788E-14  0.91188000000E+02  0.91188000000E+02 0.  0.
    9900012    2    3    3    0    0  0.23519261094E+02 -0.32730355552E+02 -0.16099424871E+02  0.47787270765E+02  0.19999998726E+02 0.  0.
         12    1    3    3    0    0 -0.23519261094E+02  0.32730355552E+02  0.16099424871E+02  0.43400729235E+02  0.00000000000E+00 0. -1.
         11    1    4    4    0    0 -0.23931882939E+01 -0.42127106826E+01 -0.26399945149E+01  0.55175948388E+01  0.51100000000E-03 0. -1.
        -11    1    4    4    0    0  0.15135087477E+01 -0.65596816350E+01 -0.49615081079E+01  0.83628162032E+01  0.51100000000E-03 0.  1.
         12    1    4    4    0    0  0.24398940640E+02 -0.21957963234E+02 -0.84979222486E+01  0.33906859723E+02  0.00000000000E+00 0. -1.
</event>
<event>
 8    1  0.6046524E-010  0.9118800E+02  0.7816164E-02  0.1184000E+00
        -11   -1    0    0    0    0  0.00000000000E+00  0.00000000000E+00  0.45593999997E+02  0.45594000000E+02  0.51100000000E-03 0.  1.
         11   -1    0    0    0    0 -0.00000000000E+00 -0.00000000000E+00 -0.45593999997E+02  0.45594000000E+02  0.51100000000E-03 0. -1.
         23    2    1    2    0    0 -0.12212453271E-14  0.14210854715E-13  0.00000000000E+00  0.91188000000E+02  0.91188000000E+02 0.  0.
    9900012    2    3    3    0    0 -0.44394409104E+00  0.40889844033E+02  0.14541220242E+02  0.47787268238E+02  0.19999987203E+02 0.  0.
        -12    1    3    3    0    0  0.44394409104E+00 -0.40889844033E+02 -0.14541220242E+02  0.43400731762E+02  0.00000000000E+00 0.  1.
         11    1    4    4    0    0 -0.52335074904E+01  0.98381130552E+01  0.10718905772E+01  0.11194955061E+02  0.51100000000E-03 0. -1.
        -11    1    4    4    0    0  0.67057846683E+00  0.29662707999E+02  0.11975357158E+02  0.31995860680E+02  0.51100000000E-03 0.  1.
        -12    1    4    4    0    0  0.41189849325E+01  0.13890229781E+01  0.14939725067E+01  0.45964524972E+01  0.00000000000E+00 0.  1.
</event>
<event>
 8    1  0.6046524E-010  0.9118800E+02  0.7816164E-02  0.1184000E+00
        -11   -1    0    0    0    0  0.00000000000E+00  0.00000000000E+00  0.45593999997E+02  0.45594000000E+02  0.51100000000E-03 0. -1.
         11   -1    0    0    0    0 -0.00000000000E+00 -0.00000000000E+00 -0.45593999997E+02  0.45594000000E+02  0.51100000000E-03 0.  1.
         23    2    1    2    0    0  0.00000000000E+00  0.00000000000E+00  0.00000000000E+00  0.91188000000E+02  0.91188000000E+02 0.  0.
    9900012    2    3    3    0    0  0.33111902217E+01 -0.12172377365E+02 -0.41527008673E+02  0.47787271887E+02  0.20000003841E+02 0.  0.
         12    1    3    3    0    0 -0.33111902217E+01  0.12172377365E+02  0.41527008673E+02  0.43400728113E+02  0.00000000000E+00 0. -1.
         11    1    4    4    0    0  0.27839529710E+01  0.85014128275E+00 -0.11603583045E+01  0.31336186752E+01  0.51100000000E-03 0. -1.
        -11    1    4    4    0    0 -0.40392730159E+01 -0.13854108114E+02 -0.29670337830E+02  0.32993650683E+02  0.51100000000E-03 0.  1.
        -12    1    4    4    0    0  0.45665102666E+01  0.83158946707E+00 -0.10696312539E+02  0.11660002529E+02  0.00000000000E+00 0.  1.
</event>
<event>
 8    1  0.6046524E-010  0.9118800E+02  0.7816164E-02  0.1184000E+00
        -11   -1    0    0    0    0  0.00000000000E+00  0.00000000000E+00  0.45593999997E+02  0.45594000000E+02  0.51100000000E-03 0. -1.
         11   -1    0    0    0    0 -0.00000000000E+00 -0.00000000000E+00 -0.45593999997E+02  0.45594000000E+02  0.51100000000E-03 0.  1.
         23    2    1    2    0    0  0.00000000000E+00 -0.17763568394E-14  0.00000000000E+00  0.91188000000E+02  0.91188000000E+02 0.  0.
    9900012    2    3    3    0    0 -0.74098839138E+01  0.13128919096E+02  0.40698260355E+02  0.47787270834E+02  0.19999999039E+02 0.  0.
        -12    1    3    3    0    0  0.74098839138E+01 -0.13128919096E+02 -0.40698260355E+02  0.43400729166E+02  0.00000000000E+00 0.  1.
         11    1    4    4    0    0 -0.11404449607E+01  0.77718244327E+01  0.12381666651E+02  0.14663135375E+02  0.51100000000E-03 0. -1.
        -11    1    4    4    0    0 -0.17937233656E+01  0.46207023808E+01  0.54723156563E+00  0.49867621411E+01  0.51100000000E-03 0.  1.
         12    1    4    4    0    0 -0.44757155876E+01  0.73639228288E+00  0.27769362139E+02  0.28137373317E+02  0.00000000000E+00 0. -1.
</event>
<event>
 8    1  0.6046524E-010  0.9118800E+02  0.7816164E-02  0.1184000E+00
        -11   -1    0    0    0    0  0.00000000000E+00  0.00000000000E+00  0.45593999997E+02  0.45594000000E+02  0.51100000000E-03 0. -1.
         11   -1    0    0    0    0 -0.00000000000E+00 -0.00000000000E+00 -0.45593999997E+02  0.45594000000E+02  0.51100000000E-03 0.  1.
         23    2    1    2    0    0  0.35527136788E-14  0.35527136788E-14  0.00000000000E+00  0.91188000000E+02  0.91188000000E+02 0.  0.
    9900012    2    3    3    0    0  0.26476929705E+02  0.29345945660E+02 -0.17927922913E+02  0.47787277042E+02  0.20000027346E+02 0.  0.
         12    1    3    3    0    0 -0.26476929705E+02 -0.29345945660E+02  0.17927922913E+02  0.43400722958E+02  0.00000000000E+00 0. -1.
         11    1    4    4    0    0  0.13506762622E+02  0.16205283510E+02 -0.91465048312E+01  0.22993529548E+02  0.51100000000E-03 0. -1.
        -11    1    4    4    0    0 -0.16318242320E+01  0.38019168617E+01 -0.59257332904E+01  0.72271527891E+01  0.51100000000E-03 0.  1.
         12    1    4    4    0    0  0.14601991314E+02  0.93387452883E+01 -0.28556847912E+01  0.17566594705E+02  0.00000000000E+00 0. -1.
</event>
<event>
 8    1  0.6046524E-010  0.9118800E+02  0.7816164E-02  0.1184000E+00
        -11   -1    0    0    0    0  0.00000000000E+00  0.00000000000E+00  0.45593999997E+02  0.45594000000E+02  0.51100000000E-03 0. -1.
         11   -1    0    0    0    0 -0.00000000000E+00 -0.00000000000E+00 -0.45593999997E+02  0.45594000000E+02  0.51100000000E-03 0.  1.
         23    2    1    2    0    0  0.17763568394E-14  0.35527136788E-14  0.00000000000E+00  0.91188000000E+02  0.91188000000E+02 0.  0.
    9900012    2    3    3    0    0  0.14685271301E+02  0.21593565776E+02  0.34665318401E+02  0.47787267564E+02  0.19999984131E+02 0.  0.
        -12    1    3    3    0    0 -0.14685271301E+02 -0.21593565776E+02 -0.34665318401E+02  0.43400732436E+02  0.00000000000E+00 0.  1.
         11    1    4    4    0    0  0.10751652000E+02  0.11637606959E+02  0.23411155049E+02  0.28268606216E+02  0.51100000000E-03 0. -1.
        -11    1    4    4    0    0  0.36707771323E+01 -0.15389246035E+01  0.97996382943E+00  0.40991734603E+01  0.51100000000E-03 0.  1.
        -12    1    4    4    0    0  0.26284216940E+00  0.11494883420E+02  0.10274199524E+02  0.15419487887E+02  0.00000000000E+00 0.  1.
</event>
<event>
 8    1  0.6046524E-010  0.9118800E+02  0.7816164E-02  0.1184000E+00
        -11   -1    0    0    0    0  0.00000000000E+00  0.00000000000E+00  0.45593999997E+02  0.45594000000E+02  0.51100000000E-03 0. -1.
         11   -1    0    0    0    0 -0.00000000000E+00 -0.00000000000E+00 -0.45593999997E+02  0.45594000000E+02  0.51100000000E-03 0.  1.
         23    2    1    2    0    0  0.00000000000E+00  0.00000000000E+00  0.00000000000E+00  0.91188000000E+02  0.91188000000E+02 0.  0.
    9900012    2    3    3    0    0  0.11951001913E+02 -0.26213208522E+02 -0.32460203989E+02  0.47787267394E+02  0.19999983355E+02 0.  0.
         12    1    3    3    0    0 -0.11951001913E+02  0.26213208522E+02  0.32460203989E+02  0.43400732606E+02  0.00000000000E+00 0. -1.
         11    1    4    4    0    0 -0.76170613426E+00 -0.91084081709E+01 -0.48115093625E+01  0.10329274817E+02  0.51100000000E-03 0.  1.
        -11    1    4    4    0    0  0.26775548257E+01 -0.23361691502E+00 -0.12159116620E+02  0.12452630001E+02  0.51100000000E-03 0. -1.
         12    1    4    4    0    0  0.10035153221E+02 -0.16871183436E+02 -0.15489578007E+02  0.25005362576E+02  0.00000000000E+00 0. -1.
</event>
<event>
 8    1  0.6046524E-010  0.9118800E+02  0.7816164E-02  0.1184000E+00
        -11   -1    0    0    0    0  0.00000000000E+00  0.00000000000E+00  0.45593999997E+02  0.45594000000E+02  0.51100000000E-03 0.  1.
         11   -1    0    0    0    0 -0.00000000000E+00 -0.00000000000E+00 -0.45593999997E+02  0.45594000000E+02  0.51100000000E-03 0. -1.
         23    2    1    2    0    0  0.00000000000E+00  0.00000000000E+00 -0.13322676296E-14  0.91188000000E+02  0.91188000000E+02 0.  0.
    9900012    2    3    3    0    0  0.37025826699E+02  0.22389889603E+02 -0.33770284919E+01  0.47787270506E+02  0.19999997545E+02 0.  0.
         12    1    3    3    0    0 -0.37025826699E+02 -0.22389889603E+02  0.33770284919E+01  0.43400729494E+02  0.00000000000E+00 0. -1.
         11    1    4    4    0    0  0.37060267681E+01  0.83481639492E-01 -0.31756926143E+01  0.48812526498E+01  0.51100000000E-03 0. -1.
        -11    1    4    4    0    0  0.28524947690E+02  0.24486127955E+02 -0.82498770336E+00  0.37602176904E+02  0.51100000000E-03 0.  1.
         12    1    4    4    0    0  0.47948522409E+01 -0.21797199907E+01  0.62365182572E+00  0.53038409525E+01  0.00000000000E+00 0. -1.
</event>
<event>
 8    1  0.6046524E-010  0.9118800E+02  0.7816164E-02  0.1184000E+00
        -11   -1    0    0    0    0  0.00000000000E+00  0.00000000000E+00  0.45593999997E+02  0.45594000000E+02  0.51100000000E-03 0. -1.
         11   -1    0    0    0    0 -0.00000000000E+00 -0.00000000000E+00 -0.45593999997E+02  0.45594000000E+02  0.51100000000E-03 0.  1.
         23    2    1    2    0    0 -0.17763568394E-14  0.00000000000E+00  0.00000000000E+00  0.91188000000E+02  0.91188000000E+02 0.  0.
    9900012    2    3    3    0    0 -0.13647059435E+02  0.71563728424E+01 -0.40572994140E+02  0.47787265479E+02  0.19999974626E+02 0.  0.
         12    1    3    3    0    0  0.13647059435E+02 -0.71563728424E+01  0.40572994140E+02  0.43400734521E+02  0.00000000000E+00 0. -1.
         11    1    4    4    0    0 -0.44037888622E+00  0.47192595743E+01 -0.33381439772E+01  0.57972881562E+01  0.51100000000E-03 0. -1.
        -11    1    4    4    0    0 -0.76439435821E+01 -0.47912845778E+01 -0.11067345566E+02  0.14278389948E+02  0.51100000000E-03 0.  1.
         12    1    4    4    0    0 -0.55627369669E+01  0.72283978459E+01 -0.26167504597E+02  0.27711587374E+02  0.00000000000E+00 0. -1.
</event>
<event>
 8    1  0.6046524E-010  0.9118800E+02  0.7816164E-02  0.1184000E+00
        -11   -1    0    0    0    0  0.00000000000E+00  0.00000000000E+00  0.45593999997E+02  0.45594000000E+02  0.51100000000E-03 0. -1.
         11   -1    0    0    0    0 -0.00000000000E+00 -0.00000000000E+00 -0.45593999997E+02  0.45594000000E+02  0.51100000000E-03 0.  1.
         23    2    1    2    0    0  0.71054273576E-14  0.24980018054E-15  0.35527136788E-14  0.91188000000E+02  0.91188000000E+02 0.  0.
    9900012    2    3    3    0    0 -0.36485303223E+02 -0.22557646394E+00 -0.23503082694E+02  0.47787272677E+02  0.20000007445E+02 0.  0.
         12    1    3    3    0    0  0.36485303223E+02  0.22557646394E+00  0.23503082694E+02  0.43400727323E+02  0.00000000000E+00 0. -1.
         11    1    4    4    0    0 -0.19889260299E+01 -0.34173534248E+01 -0.48675516027E+01  0.62711394538E+01  0.51100000000E-03 0. -1.
        -11    1    4    4    0    0 -0.27381343159E+02 -0.19275166389E+01 -0.10006661049E+02  0.29216203368E+02  0.51100000000E-03 0.  1.
         12    1    4    4    0    0 -0.71150340338E+01  0.51192935998E+01 -0.86288700419E+01  0.12299929856E+02  0.00000000000E+00 0. -1.
</event>
<event>
 8    1  0.6046524E-010  0.9118800E+02  0.7816164E-02  0.1184000E+00
        -11   -1    0    0    0    0  0.00000000000E+00  0.00000000000E+00  0.45593999997E+02  0.45594000000E+02  0.51100000000E-03 0. -1.
         11   -1    0    0    0    0 -0.00000000000E+00 -0.00000000000E+00 -0.45593999997E+02  0.45594000000E+02  0.51100000000E-03 0.  1.
         23    2    1    2    0    0  0.00000000000E+00  0.00000000000E+00  0.00000000000E+00  0.91188000000E+02  0.91188000000E+02 0.  0.
    9900012    2    3    3    0    0 -0.19296937437E+02  0.33195049394E+02 -0.20232151772E+02  0.47787273462E+02  0.20000011024E+02 0.  0.
         12    1    3    3    0    0  0.19296937437E+02 -0.33195049394E+02  0.20232151772E+02  0.43400726538E+02  0.00000000000E+00 0. -1.
         11    1    4    4    0    0 -0.40110689627E+01  0.22041266819E+01  0.11454678760E+01  0.47179386992E+01  0.51100000000E-03 0. -1.
        -11    1    4    4    0    0 -0.14140288281E+02  0.29935438814E+02 -0.14720120033E+02  0.36232032564E+02  0.51100000000E-03 0.  1.
        -12    1    4    4    0    0 -0.11455801930E+01  0.10554838972E+01 -0.66574996148E+01  0.68373021988E+01  0.00000000000E+00 0.  1.
</event>
<event>
 8    1  0.6046524E-010  0.9118800E+02  0.7816164E-02  0.1184000E+00
        -11   -1    0    0    0    0  0.00000000000E+00  0.00000000000E+00  0.45593999997E+02  0.45594000000E+02  0.51100000000E-03 0. -1.
         11   -1    0    0    0    0 -0.00000000000E+00 -0.00000000000E+00 -0.45593999997E+02  0.45594000000E+02  0.51100000000E-03 0.  1.
         23    2    1    2    0    0 -0.35527136788E-14  0.00000000000E+00  0.00000000000E+00  0.91188000000E+02  0.91188000000E+02 0.  0.
    9900012    2    3    3    0    0  0.13231611107E+02 -0.10205827817E+02 -0.40054826420E+02  0.47787267593E+02  0.19999984265E+02 0.  0.
         12    1    3    3    0    0 -0.13231611107E+02  0.10205827817E+02  0.40054826420E+02  0.43400732407E+02  0.00000000000E+00 0. -1.
         11    1    4    4    0    0  0.80987419826E+01  0.16167339990E+01 -0.13331592898E+02  0.15682309140E+02  0.51100000000E-03 0. -1.
        -11    1    4    4    0    0  0.84140496374E+01 -0.98804065130E+01 -0.15302328762E+02  0.20064394582E+02  0.51100000000E-03 0.  1.
        -12    1    4    4    0    0 -0.32811805127E+01 -0.19421553032E+01 -0.11420904760E+02  0.12040563871E+02  0.00000000000E+00 0.  1.
</event>
<event>
 8    1  0.6046524E-010  0.9118800E+02  0.7816164E-02  0.1184000E+00
        -11   -1    0    0    0    0  0.00000000000E+00  0.00000000000E+00  0.45593999997E+02  0.45594000000E+02  0.51100000000E-03 0. -1.
         11   -1    0    0    0    0 -0.00000000000E+00 -0.00000000000E+00 -0.45593999997E+02  0.45594000000E+02  0.51100000000E-03 0.  1.
         23    2    1    2    0    0  0.00000000000E+00 -0.17763568394E-14 -0.35527136788E-14  0.91188000000E+02  0.91188000000E+02 0.  0.
    9900012    2    3    3    0    0  0.32496548632E+02 -0.10927787664E+02 -0.26611669523E+02  0.47787272230E+02  0.20000005404E+02 0.  0.
         12    1    3    3    0    0 -0.32496548632E+02  0.10927787664E+02  0.26611669523E+02  0.43400727770E+02  0.00000000000E+00 0. -1.
         11    1    4    4    0    0  0.54556227514E+01 -0.25011432417E+00  0.11831184591E+01  0.55880359994E+01  0.51100000000E-03 0. -1.
        -11    1    4    4    0    0  0.93825185113E+01  0.33677981660E+00 -0.15221704872E+02  0.17884221362E+02  0.51100000000E-03 0.  1.
        -12    1    4    4    0    0  0.17658407369E+02 -0.11014453156E+02 -0.12573083110E+02  0.24315014868E+02  0.00000000000E+00 0.  1.
</event>
<event>
 8    1  0.6046524E-010  0.9118800E+02  0.7816164E-02  0.1184000E+00
        -11   -1    0    0    0    0  0.00000000000E+00  0.00000000000E+00  0.45593999997E+02  0.45594000000E+02  0.51100000000E-03 0. -1.
         11   -1    0    0    0    0 -0.00000000000E+00 -0.00000000000E+00 -0.45593999997E+02  0.45594000000E+02  0.51100000000E-03 0.  1.
         23    2    1    2    0    0 -0.17763568394E-14  0.00000000000E+00  0.71054273576E-14  0.91188000000E+02  0.91188000000E+02 0.  0.
    9900012    2    3    3    0    0  0.80381881732E+01  0.81600419034E+01 -0.41861969735E+02  0.47787271169E+02  0.20000000568E+02 0.  0.
         12    1    3    3    0    0 -0.80381881732E+01 -0.81600419034E+01  0.41861969735E+02  0.43400728831E+02  0.00000000000E+00 0. -1.
         11    1    4    4    0    0  0.24003810260E+01  0.10915367201E+02 -0.31108238867E+02  0.33054948130E+02  0.51100000000E-03 0. -1.
        -11    1    4    4    0    0  0.64432750780E+00 -0.24601964309E+01 -0.91232845878E+01  0.94711164256E+01  0.51100000000E-03 0.  1.
         12    1    4    4    0    0  0.49934796394E+01 -0.29512886634E+00 -0.16304462798E+01  0.52612066134E+01  0.00000000000E+00 0. -1.
</event>
<event>
 8    1  0.6046524E-010  0.9118800E+02  0.7816164E-02  0.1184000E+00
        -11   -1    0    0    0    0  0.00000000000E+00  0.00000000000E+00  0.45593999997E+02  0.45594000000E+02  0.51100000000E-03 0.  1.
         11   -1    0    0    0    0 -0.00000000000E+00 -0.00000000000E+00 -0.45593999997E+02  0.45594000000E+02  0.51100000000E-03 0. -1.
         23    2    1    2    0    0  0.00000000000E+00  0.00000000000E+00  0.17763568394E-14  0.91188000000E+02  0.91188000000E+02 0.  0.
    9900012    2    3    3    0    0  0.32522549865E+02 -0.25844259903E+02 -0.12569009599E+02  0.47787285467E+02  0.20000065760E+02 0.  0.
         12    1    3    3    0    0 -0.32522549865E+02  0.25844259903E+02  0.12569009599E+02  0.43400714533E+02  0.00000000000E+00 0. -1.
         11    1    4    4    0    0 -0.27936222631E+00  0.10605144513E+01 -0.32531484267E+01  0.34330320567E+01  0.51100000000E-03 0. -1.
        -11    1    4    4    0    0  0.99980969751E+01 -0.37240259339E+01 -0.40581050156E+01  0.11414838100E+02  0.51100000000E-03 0.  1.
        -12    1    4    4    0    0  0.22803815116E+02 -0.23180748420E+02 -0.52577561569E+01  0.32939415310E+02  0.00000000000E+00 0.  1.
</event>
<event>
 8    1  0.6046524E-010  0.9118800E+02  0.7816164E-02  0.1184000E+00
        -11   -1    0    0    0    0  0.00000000000E+00  0.00000000000E+00  0.45593999997E+02  0.45594000000E+02  0.51100000000E-03 0. -1.
         11   -1    0    0    0    0 -0.00000000000E+00 -0.00000000000E+00 -0.45593999997E+02  0.45594000000E+02  0.51100000000E-03 0.  1.
         23    2    1    2    0    0  0.00000000000E+00  0.00000000000E+00  0.71054273576E-14  0.91188000000E+02  0.91188000000E+02 0.  0.
    9900012    2    3    3    0    0 -0.21905557712E+02 -0.88918454818E+01 -0.36396494733E+02  0.47787271854E+02  0.20000003692E+02 0.  0.
         12    1    3    3    0    0  0.21905557712E+02  0.88918454818E+01  0.36396494733E+02  0.43400728146E+02  0.00000000000E+00 0. -1.
         11    1    4    4    0    0 -0.96277252841E+01 -0.42272629911E+01 -0.31268763905E+01  0.10969968221E+02  0.51100000000E-03 0. -1.
        -11    1    4    4    0    0 -0.20092036302E+01 -0.47773080099E+01 -0.14850917163E+02  0.15729250201E+02  0.51100000000E-03 0.  1.
        -12    1    4    4    0    0 -0.10268628797E+02  0.11272551922E+00 -0.18418701179E+02  0.21088053432E+02  0.00000000000E+00 0.  1.
</event>
<event>
 8    1  0.6046524E-010  0.9118800E+02  0.7816164E-02  0.1184000E+00
        -11   -1    0    0    0    0  0.00000000000E+00  0.00000000000E+00  0.45593999997E+02  0.45594000000E+02  0.51100000000E-03 0. -1.
         11   -1    0    0    0    0 -0.00000000000E+00 -0.00000000000E+00 -0.45593999997E+02  0.45594000000E+02  0.51100000000E-03 0.  1.
         23    2    1    2    0    0  0.00000000000E+00 -0.17763568394E-14  0.00000000000E+00  0.91188000000E+02  0.91188000000E+02 0.  0.
    9900012    2    3    3    0    0  0.22903587046E+02  0.15972808807E+02 -0.33225266063E+02  0.47787271599E+02  0.20000002528E+02 0.  0.
         12    1    3    3    0    0 -0.22903587046E+02 -0.15972808807E+02  0.33225266063E+02  0.43400728401E+02  0.00000000000E+00 0. -1.
         11    1    4    4    0    0  0.93722606803E+00  0.34314826594E+01 -0.13070114144E+01  0.37896893069E+01  0.51100000000E-03 0. -1.
        -11    1    4    4    0    0  0.34582440163E+01  0.10688754981E+02 -0.15788422425E+02  0.19377389340E+02  0.51100000000E-03 0.  1.
         12    1    4    4    0    0  0.18508116962E+02  0.18525711665E+01 -0.16129832224E+02  0.24620192952E+02  0.00000000000E+00 0. -1.
</event>
<event>
 8    1  0.6046524E-010  0.9118800E+02  0.7816164E-02  0.1184000E+00
        -11   -1    0    0    0    0  0.00000000000E+00  0.00000000000E+00  0.45593999997E+02  0.45594000000E+02  0.51100000000E-03 0. -1.
         11   -1    0    0    0    0 -0.00000000000E+00 -0.00000000000E+00 -0.45593999997E+02  0.45594000000E+02  0.51100000000E-03 0.  1.
         23    2    1    2    0    0 -0.35527136788E-14  0.28449465006E-15  0.00000000000E+00  0.91188000000E+02  0.91188000000E+02 0.  0.
    9900012    2    3    3    0    0 -0.31692922708E+02 -0.51961408790E-01 -0.29650925774E+02  0.47787292068E+02  0.20000095855E+02 0.  0.
         12    1    3    3    0    0  0.31692922708E+02  0.51961408790E-01  0.29650925774E+02  0.43400707932E+02  0.00000000000E+00 0. -1.
         11    1    4    4    0    0 -0.95739726959E+01  0.62279332581E+01 -0.15027430401E+02  0.18875162796E+02  0.51100000000E-03 0. -1.
        -11    1    4    4    0    0 -0.67969272346E+01 -0.47643645121E+01 -0.96572888160E+01  0.12734230113E+02  0.51100000000E-03 0.  1.
         12    1    4    4    0    0 -0.15322022778E+02 -0.15155301547E+01 -0.49662065566E+01  0.16177899159E+02  0.00000000000E+00 0. -1.
</event>
<event>
 8    1  0.6046524E-010  0.9118800E+02  0.7816164E-02  0.1184000E+00
        -11   -1    0    0    0    0  0.00000000000E+00  0.00000000000E+00  0.45593999997E+02  0.45594000000E+02  0.51100000000E-03 0. -1.
         11   -1    0    0    0    0 -0.00000000000E+00 -0.00000000000E+00 -0.45593999997E+02  0.45594000000E+02  0.51100000000E-03 0.  1.
         23    2    1    2    0    0  0.00000000000E+00 -0.35527136788E-14  0.00000000000E+00  0.91188000000E+02  0.91188000000E+02 0.  0.
    9900012    2    3    3    0    0 -0.14066974019E+02 -0.20459631938E+02  0.35597006699E+02  0.47787272091E+02  0.20000004772E+02 0.  0.
        -12    1    3    3    0    0  0.14066974019E+02  0.20459631938E+02 -0.35597006699E+02  0.43400727909E+02  0.00000000000E+00 0.  1.
         11    1    4    4    0    0 -0.66968474605E+01 -0.15738200939E+02  0.22882001511E+02  0.28567896809E+02  0.51100000000E-03 0. -1.
        -11    1    4    4    0    0 -0.37971474916E+01 -0.79742697605E+01  0.50945698106E+01  0.10196173258E+02  0.51100000000E-03 0.  1.
         12    1    4    4    0    0 -0.35729790668E+01  0.32528387617E+01  0.76204353780E+01  0.90232020243E+01  0.00000000000E+00 0. -1.
</event>
<event>
 8    1  0.6046524E-010  0.9118800E+02  0.7816164E-02  0.1184000E+00
        -11   -1    0    0    0    0  0.00000000000E+00  0.00000000000E+00  0.45593999997E+02  0.45594000000E+02  0.51100000000E-03 0. -1.
         11   -1    0    0    0    0 -0.00000000000E+00 -0.00000000000E+00 -0.45593999997E+02  0.45594000000E+02  0.51100000000E-03 0.  1.
         23    2    1    2    0    0  0.35527136788E-14  0.00000000000E+00  0.00000000000E+00  0.91188000000E+02  0.91188000000E+02 0.  0.
    9900012    2    3    3    0    0 -0.24757993718E+02 -0.24624808294E+02 -0.25773695164E+02  0.47787276516E+02  0.20000024949E+02 0.  0.
         12    1    3    3    0    0  0.24757993718E+02  0.24624808294E+02  0.25773695164E+02  0.43400723484E+02  0.00000000000E+00 0. -1.
         11    1    4    4    0    0 -0.32747942306E+01  0.45548634131E+00 -0.50983729109E+00  0.33453967454E+01  0.51100000000E-03 0. -1.
        -11    1    4    4    0    0 -0.78662241709E+01 -0.19986114386E+02 -0.11239342706E+02  0.24241391785E+02  0.51100000000E-03 0.  1.
        -12    1    4    4    0    0 -0.13616975316E+02 -0.50941802498E+01 -0.14024515167E+02  0.20200487986E+02  0.00000000000E+00 0.  1.
</event>
<event>
 8    1  0.6046524E-010  0.9118800E+02  0.7816164E-02  0.1184000E+00
        -11   -1    0    0    0    0  0.00000000000E+00  0.00000000000E+00  0.45593999997E+02  0.45594000000E+02  0.51100000000E-03 0.  1.
         11   -1    0    0    0    0 -0.00000000000E+00 -0.00000000000E+00 -0.45593999997E+02  0.45594000000E+02  0.51100000000E-03 0. -1.
         23    2    1    2    0    0 -0.71054273576E-14 -0.35527136788E-14  0.00000000000E+00  0.91188000000E+02  0.91188000000E+02 0.  0.
    9900012    2    3    3    0    0  0.39134688150E+02  0.14429515967E+02  0.11995355716E+02  0.47787270670E+02  0.19999998292E+02 0.  0.
         12    1    3    3    0    0 -0.39134688150E+02 -0.14429515967E+02 -0.11995355716E+02  0.43400729330E+02  0.00000000000E+00 0. -1.
         11    1    4    4    0    0  0.32630793165E+01 -0.22806113853E+01  0.44208086866E+01  0.59491532692E+01  0.51100000000E-03 0. -1.
        -11    1    4    4    0    0  0.23826011909E+02  0.12033791634E+02  0.10337801015E+02  0.28624484531E+02  0.51100000000E-03 0.  1.
         12    1    4    4    0    0  0.12045596924E+02  0.46763357180E+01 -0.27632539859E+01  0.13213632869E+02  0.00000000000E+00 0. -1.
</event>
<event>
 8    1  0.6046524E-010  0.9118800E+02  0.7816164E-02  0.1184000E+00
        -11   -1    0    0    0    0  0.00000000000E+00  0.00000000000E+00  0.45593999997E+02  0.45594000000E+02  0.51100000000E-03 0. -1.
         11   -1    0    0    0    0 -0.00000000000E+00 -0.00000000000E+00 -0.45593999997E+02  0.45594000000E+02  0.51100000000E-03 0.  1.
         23    2    1    2    0    0  0.00000000000E+00  0.00000000000E+00  0.35527136788E-14  0.91188000000E+02  0.91188000000E+02 0.  0.
    9900012    2    3    3    0    0 -0.21157981600E+02 -0.33823752019E+02  0.17085509926E+02  0.47787296832E+02  0.20000117576E+02 0.  0.
        -12    1    3    3    0    0  0.21157981600E+02  0.33823752019E+02 -0.17085509926E+02  0.43400703168E+02  0.00000000000E+00 0.  1.
         11    1    4    4    0    0 -0.60454809162E+01 -0.28133293069E+00  0.59136812766E+01  0.84615964350E+01  0.51100000000E-03 0. -1.
        -11    1    4    4    0    0 -0.32100280792E+01 -0.10514781368E+02 -0.25551308158E+00  0.10996826574E+02  0.51100000000E-03 0.  1.
        -12    1    4    4    0    0 -0.11902472605E+02 -0.23027637720E+02  0.11427341731E+02  0.28328873824E+02  0.00000000000E+00 0.  1.
</event>
<event>
 8    1  0.6046524E-010  0.9118800E+02  0.7816164E-02  0.1184000E+00
        -11   -1    0    0    0    0  0.00000000000E+00  0.00000000000E+00  0.45593999997E+02  0.45594000000E+02  0.51100000000E-03 0. -1.
         11   -1    0    0    0    0 -0.00000000000E+00 -0.00000000000E+00 -0.45593999997E+02  0.45594000000E+02  0.51100000000E-03 0.  1.
         23    2    1    2    0    0  0.00000000000E+00  0.00000000000E+00  0.00000000000E+00  0.91188000000E+02  0.91188000000E+02 0.  0.
    9900012    2    3    3    0    0 -0.18471181850E+02 -0.21313372166E+02 -0.32987555415E+02  0.47787271846E+02  0.20000003656E+02 0.  0.
         12    1    3    3    0    0  0.18471181850E+02  0.21313372166E+02  0.32987555415E+02  0.43400728154E+02  0.00000000000E+00 0. -1.
         11    1    4    4    0    0  0.26848778815E+00  0.60548402707E+00 -0.43924649107E+01  0.44421216612E+01  0.51100000000E-03 0. -1.
        -11    1    4    4    0    0 -0.16729661497E+02 -0.11084976088E+02 -0.11869347256E+02  0.23316081858E+02  0.51100000000E-03 0.  1.
        -12    1    4    4    0    0 -0.20100081418E+01 -0.10833880105E+02 -0.16725743247E+02  0.20029068327E+02  0.00000000000E+00 0.  1.
</event>
<event>
 8    1  0.1019381E-009  0.9118800E+02  0.7816164E-02  0.1184000E+00
        -11   -1    0    0    0    0  0.00000000000E+00  0.00000000000E+00  0.45593999997E+02  0.45594000000E+02  0.51100000000E-03 0. -1.
         11   -1    0    0    0    0 -0.00000000000E+00 -0.00000000000E+00 -0.45593999997E+02  0.45594000000E+02  0.51100000000E-03 0.  1.
         23    2    1    2    0    0 -0.55511151231E-16  0.88817841970E-15  0.00000000000E+00  0.91188000000E+02  0.91188000000E+02 0.  0.
    9900012    2    3    3    0    0  0.49371938662E+00 -0.62348719768E+01 -0.42947713228E+02  0.47787268913E+02  0.19999990282E+02 0.  0.
         12    1    3    3    0    0 -0.49371938662E+00  0.62348719768E+01  0.42947713228E+02  0.43400731087E+02  0.00000000000E+00 0. -1.
         11    1    4    4    0    0  0.79751795018E+01  0.52542547750E+00 -0.79455216905E+01  0.11269910169E+02  0.51100000000E-03 0. -1.
        -11    1    4    4    0    0 -0.25960161566E+01 -0.11686041999E+01 -0.12563263578E+02  0.12881790545E+02  0.51100000000E-03 0.  1.
         12    1    4    4    0    0 -0.48854439586E+01 -0.55916932543E+01 -0.22438927959E+02  0.23635568199E+02  0.00000000000E+00 0. -1.
</event>
<event>
 8    1  0.6046524E-010  0.9118800E+02  0.7816164E-02  0.1184000E+00
        -11   -1    0    0    0    0  0.00000000000E+00  0.00000000000E+00  0.45593999997E+02  0.45594000000E+02  0.51100000000E-03 0. -1.
         11   -1    0    0    0    0 -0.00000000000E+00 -0.00000000000E+00 -0.45593999997E+02  0.45594000000E+02  0.51100000000E-03 0.  1.
         23    2    1    2    0    0  0.35527136788E-14  0.00000000000E+00  0.00000000000E+00  0.91188000000E+02  0.91188000000E+02 0.  0.
    9900012    2    3    3    0    0  0.21848603467E+02 -0.30493495307E+02  0.21826785569E+02  0.47787270769E+02  0.19999998745E+02 0.  0.
        -12    1    3    3    0    0 -0.21848603467E+02  0.30493495307E+02 -0.21826785569E+02  0.43400729231E+02  0.00000000000E+00 0.  1.
         11    1    4    4    0    0  0.29491288293E+00 -0.13430761942E+02  0.51695515721E+01  0.14394325398E+02  0.51100000000E-03 0.  1.
        -11    1    4    4    0    0  0.14614767613E+02 -0.13722736117E+02  0.74437086434E+01  0.21384894612E+02  0.51100000000E-03 0. -1.
        -12    1    4    4    0    0  0.69389229707E+01 -0.33399972488E+01  0.92135253530E+01  0.12008050760E+02  0.00000000000E+00 0.  1.
</event>
<event>
 8    1  0.6046524E-010  0.9118800E+02  0.7816164E-02  0.1184000E+00
        -11   -1    0    0    0    0  0.00000000000E+00  0.00000000000E+00  0.45593999997E+02  0.45594000000E+02  0.51100000000E-03 0. -1.
         11   -1    0    0    0    0 -0.00000000000E+00 -0.00000000000E+00 -0.45593999997E+02  0.45594000000E+02  0.51100000000E-03 0.  1.
         23    2    1    2    0    0  0.00000000000E+00  0.00000000000E+00 -0.71054273576E-14  0.91188000000E+02  0.91188000000E+02 0.  0.
    9900012    2    3    3    0    0 -0.10454640674E+02  0.93202288931E+01 -0.41078668801E+02  0.47787271795E+02  0.20000003424E+02 0.  0.
         12    1    3    3    0    0  0.10454640674E+02 -0.93202288931E+01  0.41078668801E+02  0.43400728205E+02  0.00000000000E+00 0. -1.
         11    1    4    4    0    0  0.61428766649E+00  0.52543303661E+01 -0.73812075722E+01  0.90811652567E+01  0.51100000000E-03 0. -1.
        -11    1    4    4    0    0 -0.13342485301E+02  0.58020006029E+01 -0.32494097978E+02  0.35602689908E+02  0.51100000000E-03 0.  1.
         12    1    4    4    0    0  0.22735569605E+01 -0.17361020759E+01 -0.12033632503E+01  0.31034166306E+01  0.00000000000E+00 0. -1.
</event>
<event>
 8    1  0.6046524E-010  0.9118800E+02  0.7816164E-02  0.1184000E+00
        -11   -1    0    0    0    0  0.00000000000E+00  0.00000000000E+00  0.45593999997E+02  0.45594000000E+02  0.51100000000E-03 0. -1.
         11   -1    0    0    0    0 -0.00000000000E+00 -0.00000000000E+00 -0.45593999997E+02  0.45594000000E+02  0.51100000000E-03 0.  1.
         23    2    1    2    0    0  0.00000000000E+00  0.00000000000E+00  0.00000000000E+00  0.91188000000E+02  0.91188000000E+02 0.  0.
    9900012    2    3    3    0    0  0.25588864118E+02  0.20902977159E+02  0.28140690589E+02  0.47787275493E+02  0.20000020282E+02 0.  0.
        -12    1    3    3    0    0 -0.25588864118E+02 -0.20902977159E+02 -0.28140690589E+02  0.43400724507E+02  0.00000000000E+00 0.  1.
         11    1    4    4    0    0  0.42611511229E+01  0.79623999170E+01  0.20304395705E+01  0.92563441186E+01  0.51100000000E-03 0. -1.
        -11    1    4    4    0    0 -0.76176401824E+00  0.29518664054E+01  0.21122015744E+00  0.30558818549E+01  0.51100000000E-03 0.  1.
         12    1    4    4    0    0  0.22089477013E+02  0.99887108362E+01  0.25899030861E+02  0.35475049519E+02  0.00000000000E+00 0. -1.
</event>
<event>
 8    1  0.6046524E-010  0.9118800E+02  0.7816164E-02  0.1184000E+00
        -11   -1    0    0    0    0  0.00000000000E+00  0.00000000000E+00  0.45593999997E+02  0.45594000000E+02  0.51100000000E-03 0. -1.
         11   -1    0    0    0    0 -0.00000000000E+00 -0.00000000000E+00 -0.45593999997E+02  0.45594000000E+02  0.51100000000E-03 0.  1.
         23    2    1    2    0    0  0.88817841970E-15  0.00000000000E+00  0.71054273576E-14  0.91188000000E+02  0.91188000000E+02 0.  0.
    9900012    2    3    3    0    0  0.42378919060E+01 -0.66639553688E+01  0.42676165340E+02  0.47787272851E+02  0.20000008236E+02 0.  0.
        -12    1    3    3    0    0 -0.42378919060E+01  0.66639553688E+01 -0.42676165340E+02  0.43400727149E+02  0.00000000000E+00 0.  1.
         11    1    4    4    0    0  0.47011931808E+01 -0.36738432809E+01  0.22635155444E+02  0.23408302032E+02  0.51100000000E-03 0. -1.
        -11    1    4    4    0    0  0.24733426580E+01  0.33393036329E+01  0.15515578078E+02  0.16062426218E+02  0.51100000000E-03 0.  1.
        -12    1    4    4    0    0 -0.29366439328E+01 -0.63294157208E+01  0.45254318175E+01  0.83165446004E+01  0.00000000000E+00 0.  1.
</event>
<event>
 8    1  0.6046524E-010  0.9118800E+02  0.7816164E-02  0.1184000E+00
        -11   -1    0    0    0    0  0.00000000000E+00  0.00000000000E+00  0.45593999997E+02  0.45594000000E+02  0.51100000000E-03 0. -1.
         11   -1    0    0    0    0 -0.00000000000E+00 -0.00000000000E+00 -0.45593999997E+02  0.45594000000E+02  0.51100000000E-03 0.  1.
         23    2    1    2    0    0  0.35527136788E-14 -0.35527136788E-14 -0.71054273576E-14  0.91188000000E+02  0.91188000000E+02 0.  0.
    9900012    2    3    3    0    0 -0.17878764542E+02  0.19863859535E+02  0.34196495010E+02  0.47787269498E+02  0.19999992949E+02 0.  0.
        -12    1    3    3    0    0  0.17878764542E+02 -0.19863859535E+02 -0.34196495010E+02  0.43400730502E+02  0.00000000000E+00 0.  1.
         11    1    4    4    0    0 -0.20422476089E+02  0.13357118803E+02  0.29496256353E+02  0.38282101450E+02  0.51100000000E-03 0. -1.
        -11    1    4    4    0    0  0.13594524388E+01 -0.10504199945E+00  0.16146512086E+01  0.21133488925E+01  0.51100000000E-03 0.  1.
         12    1    4    4    0    0  0.11842591082E+01  0.66117827315E+01  0.30855874477E+01  0.73918191551E+01  0.00000000000E+00 0. -1.
</event>
<event>
 8    1  0.6911799E-010  0.9118800E+02  0.7816164E-02  0.1184000E+00
        -11   -1    0    0    0    0  0.00000000000E+00  0.00000000000E+00  0.45593999997E+02  0.45594000000E+02  0.51100000000E-03 0. -1.
         11   -1    0    0    0    0 -0.00000000000E+00 -0.00000000000E+00 -0.45593999997E+02  0.45594000000E+02  0.51100000000E-03 0.  1.
         23    2    1    2    0    0  0.00000000000E+00  0.00000000000E+00  0.00000000000E+00  0.91188000000E+02  0.91188000000E+02 0.  0.
    9900012    2    3    3    0    0  0.11809956913E+02 -0.13670009823E+02 -0.39462373243E+02  0.47787272439E+02  0.20000006357E+02 0.  0.
         12    1    3    3    0    0 -0.11809956913E+02  0.13670009823E+02  0.39462373243E+02  0.43400727561E+02  0.00000000000E+00 0. -1.
         11    1    4    4    0    0  0.35112105613E+01 -0.15668019782E+02 -0.20489490908E+02  0.26031417200E+02  0.51100000000E-03 0. -1.
        -11    1    4    4    0    0  0.53777373268E+01 -0.12492584086E+01 -0.14447697702E+02  0.15466630999E+02  0.51100000000E-03 0.  1.
         12    1    4    4    0    0  0.29210090246E+01  0.32472683671E+01 -0.45251846334E+01  0.62892242396E+01  0.00000000000E+00 0. -1.
</event>
<event>
 8    1  0.6046524E-010  0.9118800E+02  0.7816164E-02  0.1184000E+00
        -11   -1    0    0    0    0  0.00000000000E+00  0.00000000000E+00  0.45593999997E+02  0.45594000000E+02  0.51100000000E-03 0. -1.
         11   -1    0    0    0    0 -0.00000000000E+00 -0.00000000000E+00 -0.45593999997E+02  0.45594000000E+02  0.51100000000E-03 0.  1.
         23    2    1    2    0    0  0.00000000000E+00  0.00000000000E+00  0.00000000000E+00  0.91188000000E+02  0.91188000000E+02 0.  0.
    9900012    2    3    3    0    0  0.12352376843E+02  0.38128776760E+02  0.16650476607E+02  0.47787271871E+02  0.20000003767E+02 0.  0.
        -12    1    3    3    0    0 -0.12352376843E+02 -0.38128776760E+02 -0.16650476607E+02  0.43400728129E+02  0.00000000000E+00 0.  1.
         11    1    4    4    0    0  0.73184239978E+01  0.95158660821E+01  0.34586733384E+01  0.12492936349E+02  0.51100000000E-03 0. -1.
        -11    1    4    4    0    0  0.93727141096E+01  0.26077462316E+02  0.11226765495E+02  0.29898529636E+02  0.51100000000E-03 0.  1.
        -12    1    4    4    0    0 -0.43387612642E+01  0.25354483620E+01  0.19650377732E+01  0.53958058855E+01  0.00000000000E+00 0.  1.
</event>
<event>
 8    1  0.6046524E-010  0.9118800E+02  0.7816164E-02  0.1184000E+00
        -11   -1    0    0    0    0  0.00000000000E+00  0.00000000000E+00  0.45593999997E+02  0.45594000000E+02  0.51100000000E-03 0. -1.
         11   -1    0    0    0    0 -0.00000000000E+00 -0.00000000000E+00 -0.45593999997E+02  0.45594000000E+02  0.51100000000E-03 0.  1.
         23    2    1    2    0    0  0.17763568394E-14  0.00000000000E+00  0.35527136788E-14  0.91188000000E+02  0.91188000000E+02 0.  0.
    9900012    2    3    3    0    0  0.14672997434E+02  0.33000094343E+02  0.24069074358E+02  0.47787269352E+02  0.19999992283E+02 0.  0.
        -12    1    3    3    0    0 -0.14672997434E+02 -0.33000094343E+02 -0.24069074358E+02  0.43400730648E+02  0.00000000000E+00 0.  1.
         11    1    4    4    0    0  0.70522744279E+01  0.17515689476E+02  0.14565587060E+02  0.23847227912E+02  0.51100000000E-03 0. -1.
        -11    1    4    4    0    0  0.99111623191E+01  0.15318776626E+02  0.10898985268E+02  0.21252857125E+02  0.51100000000E-03 0.  1.
        -12    1    4    4    0    0 -0.22904393132E+01  0.16562824064E+00 -0.13954979694E+01  0.26871843152E+01  0.00000000000E+00 0.  1.
</event>
<event>
 8    1  0.6046524E-010  0.9118800E+02  0.7816164E-02  0.1184000E+00
        -11   -1    0    0    0    0  0.00000000000E+00  0.00000000000E+00  0.45593999997E+02  0.45594000000E+02  0.51100000000E-03 0. -1.
         11   -1    0    0    0    0 -0.00000000000E+00 -0.00000000000E+00 -0.45593999997E+02  0.45594000000E+02  0.51100000000E-03 0.  1.
         23    2    1    2    0    0  0.35527136788E-14 -0.11102230246E-15  0.00000000000E+00  0.91188000000E+02  0.91188000000E+02 0.  0.
    9900012    2    3    3    0    0  0.29176661349E+02  0.80076835025E+00  0.32120145859E+02  0.47787279183E+02  0.20000037107E+02 0.  0.
        -12    1    3    3    0    0 -0.29176661349E+02 -0.80076835025E+00 -0.32120145859E+02  0.43400720817E+02  0.00000000000E+00 0.  1.
         11    1    4    4    0    0  0.11543499028E+02 -0.13922799574E+01  0.15966827713E+02  0.19751718932E+02  0.51100000000E-03 0. -1.
        -11    1    4    4    0    0  0.30516157138E+00  0.52776030685E+01  0.43198049790E+01  0.68269270578E+01  0.51100000000E-03 0.  1.
         12    1    4    4    0    0  0.17328000750E+02 -0.30845547609E+01  0.11833513167E+02  0.21208633193E+02  0.00000000000E+00 0. -1.
</event>
<event>
 8    1  0.6046524E-010  0.9118800E+02  0.7816164E-02  0.1184000E+00
        -11   -1    0    0    0    0  0.00000000000E+00  0.00000000000E+00  0.45593999997E+02  0.45594000000E+02  0.51100000000E-03 0. -1.
         11   -1    0    0    0    0 -0.00000000000E+00 -0.00000000000E+00 -0.45593999997E+02  0.45594000000E+02  0.51100000000E-03 0.  1.
         23    2    1    2    0    0 -0.55511151231E-15  0.00000000000E+00  0.00000000000E+00  0.91188000000E+02  0.91188000000E+02 0.  0.
    9900012    2    3    3    0    0 -0.28713097711E+00  0.37132468568E+02 -0.22465981555E+02  0.47787274276E+02  0.20000014734E+02 0.  0.
         12    1    3    3    0    0  0.28713097711E+00 -0.37132468568E+02  0.22465981555E+02  0.43400725724E+02  0.00000000000E+00 0. -1.
         11    1    4    4    0    0  0.19396851746E+00 -0.10177945887E+01 -0.42802020458E+01  0.44038232735E+01  0.51100000000E-03 0. -1.
        -11    1    4    4    0    0 -0.43239451043E+01  0.14429412871E+02 -0.96158907971E+01  0.17870920881E+02  0.51100000000E-03 0.  1.
         12    1    4    4    0    0  0.38428456097E+01  0.23720850286E+02 -0.85698887117E+01  0.25512530121E+02  0.00000000000E+00 0. -1.
</event>
<event>
 8    1  0.6046524E-010  0.9118800E+02  0.7816164E-02  0.1184000E+00
        -11   -1    0    0    0    0  0.00000000000E+00  0.00000000000E+00  0.45593999997E+02  0.45594000000E+02  0.51100000000E-03 0. -1.
         11   -1    0    0    0    0 -0.00000000000E+00 -0.00000000000E+00 -0.45593999997E+02  0.45594000000E+02  0.51100000000E-03 0.  1.
         23    2    1    2    0    0 -0.35527136788E-14  0.00000000000E+00  0.00000000000E+00  0.91188000000E+02  0.91188000000E+02 0.  0.
    9900012    2    3    3    0    0 -0.19468926630E+02 -0.96511939679E+01 -0.37569119396E+02  0.47787269806E+02  0.19999994354E+02 0.  0.
         12    1    3    3    0    0  0.19468926630E+02  0.96511939679E+01  0.37569119396E+02  0.43400730194E+02  0.00000000000E+00 0. -1.
         11    1    4    4    0    0 -0.66712908130E+01  0.27927612275E+01 -0.85160853962E+01  0.11172705452E+02  0.51100000000E-03 0. -1.
        -11    1    4    4    0    0 -0.14677443738E+02 -0.11822082276E+02 -0.29057934855E+02  0.34634557343E+02  0.51100000000E-03 0.  1.
         12    1    4    4    0    0  0.18798079208E+01 -0.62187291913E+00  0.49008547158E-02  0.19800070114E+01  0.00000000000E+00 0. -1.
</event>
<event>
 8    1  0.6046524E-010  0.9118800E+02  0.7816164E-02  0.1184000E+00
        -11   -1    0    0    0    0  0.00000000000E+00  0.00000000000E+00  0.45593999997E+02  0.45594000000E+02  0.51100000000E-03 0. -1.
         11   -1    0    0    0    0 -0.00000000000E+00 -0.00000000000E+00 -0.45593999997E+02  0.45594000000E+02  0.51100000000E-03 0.  1.
         23    2    1    2    0    0  0.13322676296E-14  0.00000000000E+00  0.00000000000E+00  0.91188000000E+02  0.91188000000E+02 0.  0.
    9900012    2    3    3    0    0 -0.24563897112E+01 -0.19707678668E+02  0.38590111702E+02  0.47787272240E+02  0.20000005452E+02 0.  0.
        -12    1    3    3    0    0  0.24563897112E+01  0.19707678668E+02 -0.38590111702E+02  0.43400727760E+02  0.00000000000E+00 0.  1.
         11    1    4    4    0    0  0.37855082308E+01 -0.21694232964E+01  0.36861644877E+01  0.57117667053E+01  0.51100000000E-03 0. -1.
        -11    1    4    4    0    0 -0.92089495857E+01 -0.47379659426E+01  0.15345177881E+02  0.18512902479E+02  0.51100000000E-03 0.  1.
         12    1    4    4    0    0  0.29670516436E+01 -0.12800289429E+02  0.19558769334E+02  0.23562603056E+02  0.00000000000E+00 0. -1.
</event>
<event>
 8    1  0.6046524E-010  0.9118800E+02  0.7816164E-02  0.1184000E+00
        -11   -1    0    0    0    0  0.00000000000E+00  0.00000000000E+00  0.45593999997E+02  0.45594000000E+02  0.51100000000E-03 0. -1.
         11   -1    0    0    0    0 -0.00000000000E+00 -0.00000000000E+00 -0.45593999997E+02  0.45594000000E+02  0.51100000000E-03 0.  1.
         23    2    1    2    0    0  0.00000000000E+00 -0.17763568394E-14  0.00000000000E+00  0.91188000000E+02  0.91188000000E+02 0.  0.
    9900012    2    3    3    0    0  0.15440571299E+02 -0.13801292720E+02  0.38140981330E+02  0.47787292867E+02  0.20000099498E+02 0.  0.
        -12    1    3    3    0    0 -0.15440571299E+02  0.13801292720E+02 -0.38140981330E+02  0.43400707133E+02  0.00000000000E+00 0.  1.
         11    1    4    4    0    0  0.87407097863E+01 -0.54140766803E+01  0.27538709896E+02  0.29395455038E+02  0.51100000000E-03 0. -1.
        -11    1    4    4    0    0  0.73803744993E+01 -0.17980351201E+01  0.85938441280E+01  0.11469830653E+02  0.51100000000E-03 0.  1.
        -12    1    4    4    0    0 -0.68051298622E+00 -0.65891809191E+01  0.20084273062E+01  0.69220071766E+01  0.00000000000E+00 0.  1.
</event>
<event>
 8    1  0.6046524E-010  0.9118800E+02  0.7816164E-02  0.1184000E+00
        -11   -1    0    0    0    0  0.00000000000E+00  0.00000000000E+00  0.45593999997E+02  0.45594000000E+02  0.51100000000E-03 0. -1.
         11   -1    0    0    0    0 -0.00000000000E+00 -0.00000000000E+00 -0.45593999997E+02  0.45594000000E+02  0.51100000000E-03 0.  1.
         23    2    1    2    0    0  0.00000000000E+00  0.00000000000E+00  0.00000000000E+00  0.91188000000E+02  0.91188000000E+02 0.  0.
    9900012    2    3    3    0    0 -0.30549248351E+02 -0.99190625253E+01 -0.29188685160E+02  0.47787265933E+02  0.19999976694E+02 0.  0.
         12    1    3    3    0    0  0.30549248351E+02  0.99190625253E+01  0.29188685160E+02  0.43400734067E+02  0.00000000000E+00 0. -1.
         11    1    4    4    0    0 -0.22104680779E+02 -0.14878485147E+01 -0.12781787783E+02  0.25577425686E+02  0.51100000000E-03 0. -1.
        -11    1    4    4    0    0 -0.25590881445E+01  0.35483473762E+00 -0.88307903203E+01  0.92009617848E+01  0.51100000000E-03 0.  1.
        -12    1    4    4    0    0 -0.58854794284E+01 -0.87860487483E+01 -0.75761070567E+01  0.13008878462E+02  0.00000000000E+00 0.  1.
</event>
<event>
 8    1  0.6046524E-010  0.9118800E+02  0.7816164E-02  0.1184000E+00
        -11   -1    0    0    0    0  0.00000000000E+00  0.00000000000E+00  0.45593999997E+02  0.45594000000E+02  0.51100000000E-03 0. -1.
         11   -1    0    0    0    0 -0.00000000000E+00 -0.00000000000E+00 -0.45593999997E+02  0.45594000000E+02  0.51100000000E-03 0.  1.
         23    2    1    2    0    0  0.00000000000E+00 -0.13322676296E-14  0.00000000000E+00  0.91188000000E+02  0.91188000000E+02 0.  0.
    9900012    2    3    3    0    0  0.38642668169E+02 -0.33478989694E+01  0.19472008060E+02  0.47787270414E+02  0.19999997125E+02 0.  0.
        -12    1    3    3    0    0 -0.38642668169E+02  0.33478989694E+01 -0.19472008060E+02  0.43400729586E+02  0.00000000000E+00 0.  1.
         11    1    4    4    0    0  0.19386418951E+02 -0.56504422805E+01  0.28302586732E+01  0.20390465962E+02  0.51100000000E-03 0. -1.
        -11    1    4    4    0    0  0.15330252170E+00 -0.53711651390E+00  0.46078122142E+01  0.46415438676E+01  0.51100000000E-03 0.  1.
         12    1    4    4    0    0  0.19102946696E+02  0.28396598250E+01  0.12033937172E+02  0.22755260584E+02  0.00000000000E+00 0. -1.
</event>
<event>
 8    1  0.6046524E-010  0.9118800E+02  0.7816164E-02  0.1184000E+00
        -11   -1    0    0    0    0  0.00000000000E+00  0.00000000000E+00  0.45593999997E+02  0.45594000000E+02  0.51100000000E-03 0. -1.
         11   -1    0    0    0    0 -0.00000000000E+00 -0.00000000000E+00 -0.45593999997E+02  0.45594000000E+02  0.51100000000E-03 0.  1.
         23    2    1    2    0    0  0.00000000000E+00 -0.33306690739E-15  0.35527136788E-14  0.91188000000E+02  0.91188000000E+02 0.  0.
    9900012    2    3    3    0    0  0.31802533701E+02 -0.89174838145E+00  0.29519922991E+02  0.47787283204E+02  0.20000055441E+02 0.  0.
        -12    1    3    3    0    0 -0.31802533701E+02  0.89174838145E+00 -0.29519922991E+02  0.43400716796E+02  0.00000000000E+00 0.  1.
         11    1    4    4    0    0  0.24393166704E+02 -0.36034651933E+01  0.18223479542E+02  0.30661160287E+02  0.51100000000E-03 0. -1.
        -11    1    4    4    0    0  0.52262024589E+01  0.19169243753E+01 -0.27053281980E-01  0.55667336332E+01  0.51100000000E-03 0.  1.
        -12    1    4    4    0    0  0.21831645388E+01  0.79479243658E+00  0.11323496731E+02  0.11559389284E+02  0.00000000000E+00 0.  1.
</event>
<event>
 8    1  0.6046524E-010  0.9118800E+02  0.7816164E-02  0.1184000E+00
        -11   -1    0    0    0    0  0.00000000000E+00  0.00000000000E+00  0.45593999997E+02  0.45594000000E+02  0.51100000000E-03 0. -1.
         11   -1    0    0    0    0 -0.00000000000E+00 -0.00000000000E+00 -0.45593999997E+02  0.45594000000E+02  0.51100000000E-03 0.  1.
         23    2    1    2    0    0  0.00000000000E+00  0.00000000000E+00  0.00000000000E+00  0.91188000000E+02  0.91188000000E+02 0.  0.
    9900012    2    3    3    0    0 -0.15797018487E+02 -0.16157088534E+02  0.37054359406E+02  0.47787275882E+02  0.20000022057E+02 0.  0.
        -12    1    3    3    0    0  0.15797018487E+02  0.16157088534E+02 -0.37054359406E+02  0.43400724118E+02  0.00000000000E+00 0.  1.
         11    1    4    4    0    0 -0.12020306994E+02 -0.46877462286E+01  0.20757111292E+02  0.24440139410E+02  0.51100000000E-03 0. -1.
        -11    1    4    4    0    0 -0.13329526103E+01 -0.10408950435E+02  0.17515003813E+02  0.20418089300E+02  0.51100000000E-03 0.  1.
         12    1    4    4    0    0 -0.24437588829E+01 -0.10603918709E+01 -0.12177556991E+01  0.29290471728E+01  0.00000000000E+00 0. -1.
</event>
<event>
 8    1  0.6046524E-010  0.9118800E+02  0.7816164E-02  0.1184000E+00
        -11   -1    0    0    0    0  0.00000000000E+00  0.00000000000E+00  0.45593999997E+02  0.45594000000E+02  0.51100000000E-03 0. -1.
         11   -1    0    0    0    0 -0.00000000000E+00 -0.00000000000E+00 -0.45593999997E+02  0.45594000000E+02  0.51100000000E-03 0.  1.
         23    2    1    2    0    0  0.00000000000E+00  0.00000000000E+00  0.71054273576E-14  0.91188000000E+02  0.91188000000E+02 0.  0.
    9900012    2    3    3    0    0  0.76911541969E+00 -0.12034908115E+02  0.41691638569E+02  0.47787270992E+02  0.19999999760E+02 0.  0.
        -12    1    3    3    0    0 -0.76911541969E+00  0.12034908115E+02 -0.41691638569E+02  0.43400729008E+02  0.00000000000E+00 0.  1.
         11    1    4    4    0    0  0.10134355669E+01 -0.15362681376E+02  0.39301692307E+02  0.42209738795E+02  0.51100000000E-03 0. -1.
        -11    1    4    4    0    0 -0.11666315624E+01  0.73942858206E-01 -0.35507186489E+00  0.12217090648E+01  0.51100000000E-03 0.  1.
         12    1    4    4    0    0  0.92231141524E+00  0.32538304028E+01  0.27450181273E+01  0.43558231318E+01  0.00000000000E+00 0. -1.
</event>
<event>
 8    1  0.6046524E-010  0.9118800E+02  0.7816164E-02  0.1184000E+00
        -11   -1    0    0    0    0  0.00000000000E+00  0.00000000000E+00  0.45593999997E+02  0.45594000000E+02  0.51100000000E-03 0.  1.
         11   -1    0    0    0    0 -0.00000000000E+00 -0.00000000000E+00 -0.45593999997E+02  0.45594000000E+02  0.51100000000E-03 0. -1.
         23    2    1    2    0    0  0.00000000000E+00  0.35527136788E-14  0.00000000000E+00  0.91188000000E+02  0.91188000000E+02 0.  0.
    9900012    2    3    3    0    0  0.20184038204E+02 -0.27817413611E+02  0.26503193168E+02  0.47787272514E+02  0.20000006700E+02 0.  0.
        -12    1    3    3    0    0 -0.20184038204E+02  0.27817413611E+02 -0.26503193168E+02  0.43400727486E+02  0.00000000000E+00 0.  1.
         11    1    4    4    0    0 -0.21897820178E+01 -0.68242052592E+01  0.55188545106E+01  0.90455888739E+01  0.51100000000E-03 0. -1.
        -11    1    4    4    0    0  0.22892327145E+01 -0.84480172928E+01  0.41471688145E+01  0.96854835727E+01  0.51100000000E-03 0.  1.
         12    1    4    4    0    0  0.20084587507E+02 -0.12545191059E+02  0.16837169843E+02  0.29056200067E+02  0.00000000000E+00 0. -1.
</event>
<event>
 8    1  0.6046524E-010  0.9118800E+02  0.7816164E-02  0.1184000E+00
        -11   -1    0    0    0    0  0.00000000000E+00  0.00000000000E+00  0.45593999997E+02  0.45594000000E+02  0.51100000000E-03 0. -1.
         11   -1    0    0    0    0 -0.00000000000E+00 -0.00000000000E+00 -0.45593999997E+02  0.45594000000E+02  0.51100000000E-03 0.  1.
         23    2    1    2    0    0 -0.44408920985E-15  0.00000000000E+00  0.00000000000E+00  0.91188000000E+02  0.91188000000E+02 0.  0.
    9900012    2    3    3    0    0  0.23448280166E+01 -0.40119602003E+02 -0.16387266452E+02  0.47787272067E+02  0.20000004664E+02 0.  0.
         12    1    3    3    0    0 -0.23448280166E+01  0.40119602003E+02  0.16387266452E+02  0.43400727933E+02  0.00000000000E+00 0. -1.
         11    1    4    4    0    0  0.56296025081E+01 -0.16551545394E+02 -0.15776183927E+02  0.23548546853E+02  0.51100000000E-03 0.  1.
        -11    1    4    4    0    0 -0.18347035259E+01 -0.40987016314E+01  0.11519594866E+01  0.46360007561E+01  0.51100000000E-03 0. -1.
        -12    1    4    4    0    0 -0.14500709656E+01 -0.19469354978E+02 -0.17630420118E+01  0.19602724459E+02  0.00000000000E+00 0.  1.
</event>
<event>
 8    1  0.6046524E-010  0.9118800E+02  0.7816164E-02  0.1184000E+00
        -11   -1    0    0    0    0  0.00000000000E+00  0.00000000000E+00  0.45593999997E+02  0.45594000000E+02  0.51100000000E-03 0. -1.
         11   -1    0    0    0    0 -0.00000000000E+00 -0.00000000000E+00 -0.45593999997E+02  0.45594000000E+02  0.51100000000E-03 0.  1.
         23    2    1    2    0    0  0.88817841970E-15  0.00000000000E+00 -0.35527136788E-14  0.91188000000E+02  0.91188000000E+02 0.  0.
    9900012    2    3    3    0    0  0.73757086087E+01 -0.39020539524E+02 -0.17510554372E+02  0.47787273086E+02  0.20000009310E+02 0.  0.
         12    1    3    3    0    0 -0.73757086087E+01  0.39020539524E+02  0.17510554372E+02  0.43400726914E+02  0.00000000000E+00 0. -1.
         11    1    4    4    0    0 -0.46085580893E+01 -0.52244578185E+01 -0.56116611639E+01  0.89456418685E+01  0.51100000000E-03 0. -1.
        -11    1    4    4    0    0  0.39753814508E+01 -0.14471485790E+02 -0.49303004694E+00  0.15015679723E+02  0.51100000000E-03 0.  1.
        -12    1    4    4    0    0  0.80088852473E+01 -0.19324595915E+02 -0.11405863161E+02  0.23825951495E+02  0.00000000000E+00 0.  1.
</event>
<event>
 8    1  0.6046524E-010  0.9118800E+02  0.7816164E-02  0.1184000E+00
        -11   -1    0    0    0    0  0.00000000000E+00  0.00000000000E+00  0.45593999997E+02  0.45594000000E+02  0.51100000000E-03 0.  1.
         11   -1    0    0    0    0 -0.00000000000E+00 -0.00000000000E+00 -0.45593999997E+02  0.45594000000E+02  0.51100000000E-03 0. -1.
         23    2    1    2    0    0  0.44408920985E-15  0.00000000000E+00  0.44408920985E-15  0.91188000000E+02  0.91188000000E+02 0.  0.
    9900012    2    3    3    0    0  0.18101376612E+01 -0.43276548295E+02  0.27362673136E+01  0.47787269713E+02  0.19999993928E+02 0.  0.
         12    1    3    3    0    0 -0.18101376612E+01  0.43276548295E+02 -0.27362673136E+01  0.43400730287E+02  0.00000000000E+00 0. -1.
         11    1    4    4    0    0  0.11683354271E+01 -0.11669339108E+02  0.57919589985E+01  0.13079956888E+02  0.51100000000E-03 0. -1.
        -11    1    4    4    0    0  0.21123853800E+01 -0.20199143244E+02  0.46851612363E+01  0.20842703660E+02  0.51100000000E-03 0.  1.
        -12    1    4    4    0    0 -0.14705831459E+01 -0.11408065944E+02 -0.77408529212E+01  0.13864609165E+02  0.00000000000E+00 0.  1.
</event>
<event>
 8    1  0.6046524E-010  0.9118800E+02  0.7816164E-02  0.1184000E+00
        -11   -1    0    0    0    0  0.00000000000E+00  0.00000000000E+00  0.45593999997E+02  0.45594000000E+02  0.51100000000E-03 0. -1.
         11   -1    0    0    0    0 -0.00000000000E+00 -0.00000000000E+00 -0.45593999997E+02  0.45594000000E+02  0.51100000000E-03 0.  1.
         23    2    1    2    0    0 -0.35527136788E-14  0.00000000000E+00  0.00000000000E+00  0.91188000000E+02  0.91188000000E+02 0.  0.
    9900012    2    3    3    0    0 -0.27193817999E+02  0.15094013316E+02 -0.30270294345E+02  0.47787266192E+02  0.19999977875E+02 0.  0.
         12    1    3    3    0    0  0.27193817999E+02 -0.15094013316E+02  0.30270294345E+02  0.43400733808E+02  0.00000000000E+00 0. -1.
         11    1    4    4    0    0 -0.18715795570E+02  0.97431740825E+01 -0.19595882580E+02  0.28795990335E+02  0.51100000000E-03 0.  1.
        -11    1    4    4    0    0 -0.14315213385E+01 -0.38560152390E+01 -0.27358491392E+01  0.49399370077E+01  0.51100000000E-03 0. -1.
         12    1    4    4    0    0 -0.70465010906E+01  0.92068544723E+01 -0.79385626260E+01  0.14051338849E+02  0.00000000000E+00 0. -1.
</event>
<event>
 8    1  0.6046524E-010  0.9118800E+02  0.7816164E-02  0.1184000E+00
        -11   -1    0    0    0    0  0.00000000000E+00  0.00000000000E+00  0.45593999997E+02  0.45594000000E+02  0.51100000000E-03 0. -1.
         11   -1    0    0    0    0 -0.00000000000E+00 -0.00000000000E+00 -0.45593999997E+02  0.45594000000E+02  0.51100000000E-03 0.  1.
         23    2    1    2    0    0 -0.35527136788E-14  0.00000000000E+00 -0.35527136788E-14  0.91188000000E+02  0.91188000000E+02 0.  0.
    9900012    2    3    3    0    0  0.26476924656E+02 -0.15440294378E+02  0.30727680193E+02  0.47787302313E+02  0.20000142564E+02 0.  0.
        -12    1    3    3    0    0 -0.26476924656E+02  0.15440294378E+02 -0.30727680193E+02  0.43400697687E+02  0.00000000000E+00 0.  1.
         11    1    4    4    0    0  0.11847226320E+02 -0.12920529743E+02  0.12553183039E+02  0.21561058995E+02  0.51100000000E-03 0. -1.
        -11    1    4    4    0    0  0.83200069407E+01 -0.38821698621E+01  0.17466382681E+02  0.19732417048E+02  0.51100000000E-03 0.  1.
        -12    1    4    4    0    0  0.63096913955E+01  0.13624052275E+01  0.70811447213E+00  0.64938262693E+01  0.00000000000E+00 0.  1.
</event>
<event>
 8    1  0.6046524E-010  0.9118800E+02  0.7816164E-02  0.1184000E+00
        -11   -1    0    0    0    0  0.00000000000E+00  0.00000000000E+00  0.45593999997E+02  0.45594000000E+02  0.51100000000E-03 0. -1.
         11   -1    0    0    0    0 -0.00000000000E+00 -0.00000000000E+00 -0.45593999997E+02  0.45594000000E+02  0.51100000000E-03 0.  1.
         23    2    1    2    0    0  0.00000000000E+00  0.00000000000E+00  0.00000000000E+00  0.91188000000E+02  0.91188000000E+02 0.  0.
    9900012    2    3    3    0    0  0.10789883666E+02  0.48994379787E+01  0.41751616828E+02  0.47787267405E+02  0.19999983407E+02 0.  0.
        -12    1    3    3    0    0 -0.10789883666E+02 -0.48994379787E+01 -0.41751616828E+02  0.43400732595E+02  0.00000000000E+00 0.  1.
         11    1    4    4    0    0 -0.12120496060E+01 -0.43718192153E+01  0.20735994640E+01  0.49881542174E+01  0.51100000000E-03 0.  1.
        -11    1    4    4    0    0  0.53762715092E+01  0.29914294004E+01  0.99262692616E+01  0.11678346069E+02  0.51100000000E-03 0. -1.
        -12    1    4    4    0    0  0.66256617630E+01  0.62798277937E+01  0.29751748102E+02  0.31120767119E+02  0.00000000000E+00 0.  1.
</event>
<event>
 8    1  0.6046524E-010  0.9118800E+02  0.7816164E-02  0.1184000E+00
        -11   -1    0    0    0    0  0.00000000000E+00  0.00000000000E+00  0.45593999997E+02  0.45594000000E+02  0.51100000000E-03 0. -1.
         11   -1    0    0    0    0 -0.00000000000E+00 -0.00000000000E+00 -0.45593999997E+02  0.45594000000E+02  0.51100000000E-03 0.  1.
         23    2    1    2    0    0  0.00000000000E+00  0.00000000000E+00  0.00000000000E+00  0.91188000000E+02  0.91188000000E+02 0.  0.
    9900012    2    3    3    0    0 -0.53143174066E+01  0.26341623186E+02 -0.34080798062E+02  0.47787264083E+02  0.19999968262E+02 0.  0.
         12    1    3    3    0    0  0.53143174066E+01 -0.26341623186E+02  0.34080798062E+02  0.43400735917E+02  0.00000000000E+00 0. -1.
         11    1    4    4    0    0 -0.17101914551E+01  0.29852115657E+01  0.57749949407E+00  0.34885167094E+01  0.51100000000E-03 0. -1.
        -11    1    4    4    0    0 -0.72711882117E+01  0.50114577725E+01 -0.98831305987E+01  0.13253722410E+02  0.51100000000E-03 0.  1.
         12    1    4    4    0    0  0.36670622602E+01  0.18344953847E+02 -0.24775166957E+02  0.31045024965E+02  0.00000000000E+00 0. -1.
</event>
<event>
 8    1  0.6046524E-010  0.9118800E+02  0.7816164E-02  0.1184000E+00
        -11   -1    0    0    0    0  0.00000000000E+00  0.00000000000E+00  0.45593999997E+02  0.45594000000E+02  0.51100000000E-03 0.  1.
         11   -1    0    0    0    0 -0.00000000000E+00 -0.00000000000E+00 -0.45593999997E+02  0.45594000000E+02  0.51100000000E-03 0. -1.
         23    2    1    2    0    0 -0.17763568394E-14  0.35527136788E-14 -0.35527136788E-14  0.91188000000E+02  0.91188000000E+02 0.  0.
    9900012    2    3    3    0    0 -0.15262687608E+02 -0.29528984593E+02  0.27905429736E+02  0.47787267600E+02  0.19999984294E+02 0.  0.
        -12    1    3    3    0    0  0.15262687608E+02  0.29528984593E+02 -0.27905429736E+02  0.43400732400E+02  0.00000000000E+00 0.  1.
         11    1    4    4    0    0 -0.31169292147E-01 -0.23509980816E+00  0.63955160526E+01  0.63999116622E+01  0.51100000000E-03 0.  1.
        -11    1    4    4    0    0 -0.17487922104E+02 -0.25022473856E+02  0.18550110143E+02  0.35721956889E+02  0.51100000000E-03 0. -1.
         12    1    4    4    0    0  0.22564037884E+01 -0.42714109289E+01  0.29598035404E+01  0.56653990484E+01  0.00000000000E+00 0. -1.
</event>
<event>
 8    1  0.6046524E-010  0.9118800E+02  0.7816164E-02  0.1184000E+00
        -11   -1    0    0    0    0  0.00000000000E+00  0.00000000000E+00  0.45593999997E+02  0.45594000000E+02  0.51100000000E-03 0.  1.
         11   -1    0    0    0    0 -0.00000000000E+00 -0.00000000000E+00 -0.45593999997E+02  0.45594000000E+02  0.51100000000E-03 0. -1.
         23    2    1    2    0    0  0.00000000000E+00  0.88817841970E-15  0.00000000000E+00  0.91188000000E+02  0.91188000000E+02 0.  0.
    9900012    2    3    3    0    0 -0.36325154548E+02 -0.60698730064E+01 -0.22962200187E+02  0.47787275943E+02  0.20000022333E+02 0.  0.
         12    1    3    3    0    0  0.36325154548E+02  0.60698730064E+01  0.22962200187E+02  0.43400724057E+02  0.00000000000E+00 0. -1.
         11    1    4    4    0    0 -0.90292554303E+01 -0.49732652750E+01  0.16060761333E+01  0.10432655555E+02  0.51100000000E-03 0. -1.
        -11    1    4    4    0    0 -0.29555677007E+01  0.15822008455E+01 -0.49470767598E+01  0.59759776336E+01  0.51100000000E-03 0.  1.
        -12    1    4    4    0    0 -0.24340331417E+02 -0.26788085769E+01 -0.19621199561E+02  0.31378642754E+02  0.00000000000E+00 0.  1.
</event>
<event>
 8    1  0.6046524E-010  0.9118800E+02  0.7816164E-02  0.1184000E+00
        -11   -1    0    0    0    0  0.00000000000E+00  0.00000000000E+00  0.45593999997E+02  0.45594000000E+02  0.51100000000E-03 0. -1.
         11   -1    0    0    0    0 -0.00000000000E+00 -0.00000000000E+00 -0.45593999997E+02  0.45594000000E+02  0.51100000000E-03 0.  1.
         23    2    1    2    0    0  0.00000000000E+00 -0.17763568394E-14  0.35527136788E-14  0.91188000000E+02  0.91188000000E+02 0.  0.
    9900012    2    3    3    0    0  0.30642014428E+02  0.12828528679E+02  0.27930609901E+02  0.47787272291E+02  0.20000005682E+02 0.  0.
        -12    1    3    3    0    0 -0.30642014428E+02 -0.12828528679E+02 -0.27930609901E+02  0.43400727709E+02  0.00000000000E+00 0.  1.
         11    1    4    4    0    0 -0.60636289939E-01  0.22684682636E+01  0.71352569243E+01  0.74874239001E+01  0.51100000000E-03 0. -1.
        -11    1    4    4    0    0  0.16144778446E+02 -0.48670949918E+00  0.82828183053E+01  0.18152020178E+02  0.51100000000E-03 0.  1.
         12    1    4    4    0    0  0.14557872272E+02  0.11046769915E+02  0.12512534671E+02  0.22147828212E+02  0.00000000000E+00 0. -1.
</event>
<event>
 8    1  0.6046524E-010  0.9118800E+02  0.7816164E-02  0.1184000E+00
        -11   -1    0    0    0    0  0.00000000000E+00  0.00000000000E+00  0.45593999997E+02  0.45594000000E+02  0.51100000000E-03 0. -1.
         11   -1    0    0    0    0 -0.00000000000E+00 -0.00000000000E+00 -0.45593999997E+02  0.45594000000E+02  0.51100000000E-03 0.  1.
         23    2    1    2    0    0 -0.44408920985E-15 -0.17763568394E-14  0.00000000000E+00  0.91188000000E+02  0.91188000000E+02 0.  0.
    9900012    2    3    3    0    0  0.23382816098E+01 -0.97011245470E+01  0.42237946471E+02  0.47787268434E+02  0.19999988098E+02 0.  0.
        -12    1    3    3    0    0 -0.23382816098E+01  0.97011245470E+01 -0.42237946471E+02  0.43400731566E+02  0.00000000000E+00 0.  1.
         11    1    4    4    0    0  0.43047256067E+01 -0.36207356416E+01  0.43732464641E+01  0.71250034408E+01  0.51100000000E-03 0. -1.
        -11    1    4    4    0    0 -0.42581683715E+01  0.31575153392E+01  0.13174774912E+02  0.14201288507E+02  0.51100000000E-03 0.  1.
         12    1    4    4    0    0  0.22917243747E+01 -0.92379042446E+01  0.24689925095E+02  0.26460976487E+02  0.00000000000E+00 0. -1.
</event>
<event>
 8    1  0.6046524E-010  0.9118800E+02  0.7816164E-02  0.1184000E+00
        -11   -1    0    0    0    0  0.00000000000E+00  0.00000000000E+00  0.45593999997E+02  0.45594000000E+02  0.51100000000E-03 0. -1.
         11   -1    0    0    0    0 -0.00000000000E+00 -0.00000000000E+00 -0.45593999997E+02  0.45594000000E+02  0.51100000000E-03 0.  1.
         23    2    1    2    0    0 -0.71054273576E-14 -0.22204460493E-15  0.00000000000E+00  0.91188000000E+02  0.91188000000E+02 0.  0.
    9900012    2    3    3    0    0  0.38525501138E+02 -0.12957753888E+01 -0.19943160979E+02  0.47787274872E+02  0.20000017450E+02 0.  0.
         12    1    3    3    0    0 -0.38525501138E+02  0.12957753888E+01  0.19943160979E+02  0.43400725128E+02  0.00000000000E+00 0. -1.
         11    1    4    4    0    0  0.20708932540E+02 -0.48333344101E+01 -0.19264400014E+02  0.28693868972E+02  0.51100000000E-03 0.  1.
        -11    1    4    4    0    0  0.16187384000E+02  0.22697444298E+01 -0.22489739103E+01  0.16499728012E+02  0.51100000000E-03 0. -1.
        -12    1    4    4    0    0  0.16291845983E+01  0.12678145915E+01  0.15702129445E+01  0.25936778876E+01  0.00000000000E+00 0.  1.
</event>
<event>
 8    1  0.6046524E-010  0.9118800E+02  0.7816164E-02  0.1184000E+00
        -11   -1    0    0    0    0  0.00000000000E+00  0.00000000000E+00  0.45593999997E+02  0.45594000000E+02  0.51100000000E-03 0. -1.
         11   -1    0    0    0    0 -0.00000000000E+00 -0.00000000000E+00 -0.45593999997E+02  0.45594000000E+02  0.51100000000E-03 0.  1.
         23    2    1    2    0    0  0.00000000000E+00  0.35527136788E-14  0.71054273576E-14  0.91188000000E+02  0.91188000000E+02 0.  0.
    9900012    2    3    3    0    0  0.35893160666E+01 -0.17182462230E+02 -0.39692610364E+02  0.47787268259E+02  0.19999987301E+02 0.  0.
         12    1    3    3    0    0 -0.35893160666E+01  0.17182462230E+02  0.39692610364E+02  0.43400731741E+02  0.00000000000E+00 0. -1.
         11    1    4    4    0    0  0.62789574717E+00  0.21835792991E+01 -0.58415265791E+00  0.23459552881E+01  0.51100000000E-03 0. -1.
        -11    1    4    4    0    0  0.81051982092E+00 -0.79199281221E+01 -0.28826239509E+02  0.29905422390E+02  0.51100000000E-03 0.  1.
        -12    1    4    4    0    0  0.21509004985E+01 -0.11446113407E+02 -0.10282218197E+02  0.15535890581E+02  0.00000000000E+00 0.  1.
</event>
<event>
 8    1  0.6046524E-010  0.9118800E+02  0.7816164E-02  0.1184000E+00
        -11   -1    0    0    0    0  0.00000000000E+00  0.00000000000E+00  0.45593999997E+02  0.45594000000E+02  0.51100000000E-03 0.  1.
         11   -1    0    0    0    0 -0.00000000000E+00 -0.00000000000E+00 -0.45593999997E+02  0.45594000000E+02  0.51100000000E-03 0. -1.
         23    2    1    2    0    0  0.00000000000E+00  0.44408920985E-15  0.35527136788E-14  0.91188000000E+02  0.91188000000E+02 0.  0.
    9900012    2    3    3    0    0  0.29706952064E+02  0.28616286308E+01 -0.31510810248E+02  0.47787273257E+02  0.20000010086E+02 0.  0.
         12    1    3    3    0    0 -0.29706952064E+02 -0.28616286308E+01  0.31510810248E+02  0.43400726743E+02  0.00000000000E+00 0. -1.
         11    1    4    4    0    0  0.16059828317E+00 -0.49314522378E+00 -0.55708247676E+01  0.55949149121E+01  0.51100000000E-03 0. -1.
        -11    1    4    4    0    0  0.25952782756E+02 -0.22045103364E+01 -0.23668613737E+02  0.35193892582E+02  0.51100000000E-03 0.  1.
        -12    1    4    4    0    0  0.35935710254E+01  0.55592841910E+01 -0.22713717431E+01  0.69984657623E+01  0.00000000000E+00 0.  1.
</event>
<event>
 8    1  0.6046524E-010  0.9118800E+02  0.7816164E-02  0.1184000E+00
        -11   -1    0    0    0    0  0.00000000000E+00  0.00000000000E+00  0.45593999997E+02  0.45594000000E+02  0.51100000000E-03 0. -1.
         11   -1    0    0    0    0 -0.00000000000E+00 -0.00000000000E+00 -0.45593999997E+02  0.45594000000E+02  0.51100000000E-03 0.  1.
         23    2    1    2    0    0  0.17763568394E-14  0.35527136788E-14  0.00000000000E+00  0.91188000000E+02  0.91188000000E+02 0.  0.
    9900012    2    3    3    0    0  0.10057319463E+02  0.21751282402E+02 -0.36185018122E+02  0.47787268469E+02  0.19999988259E+02 0.  0.
         12    1    3    3    0    0 -0.10057319463E+02 -0.21751282402E+02  0.36185018122E+02  0.43400731531E+02  0.00000000000E+00 0. -1.
         11    1    4    4    0    0  0.12906294142E+02  0.86940861658E+01 -0.13262625568E+02  0.20446437342E+02  0.51100000000E-03 0. -1.
        -11    1    4    4    0    0  0.58389132131E+00  0.99180801166E+01 -0.12822182708E+02  0.16220900466E+02  0.51100000000E-03 0.  1.
         12    1    4    4    0    0 -0.34328660005E+01  0.31391161196E+01 -0.10100209846E+02  0.11119930662E+02  0.00000000000E+00 0. -1.
</event>
<event>
 8    1  0.6046524E-010  0.9118800E+02  0.7816164E-02  0.1184000E+00
        -11   -1    0    0    0    0  0.00000000000E+00  0.00000000000E+00  0.45593999997E+02  0.45594000000E+02  0.51100000000E-03 0. -1.
         11   -1    0    0    0    0 -0.00000000000E+00 -0.00000000000E+00 -0.45593999997E+02  0.45594000000E+02  0.51100000000E-03 0.  1.
         23    2    1    2    0    0  0.00000000000E+00  0.00000000000E+00  0.00000000000E+00  0.91188000000E+02  0.91188000000E+02 0.  0.
    9900012    2    3    3    0    0 -0.98006429774E+01 -0.80606378352E+01 -0.41504178568E+02  0.47787270470E+02  0.19999997382E+02 0.  0.
         12    1    3    3    0    0  0.98006429774E+01  0.80606378352E+01  0.41504178568E+02  0.43400729530E+02  0.00000000000E+00 0. -1.
         11    1    4    4    0    0  0.27025744481E+01  0.35085793124E+01 -0.16146394274E+02  0.16742762190E+02  0.51100000000E-03 0. -1.
        -11    1    4    4    0    0 -0.20486182052E+01 -0.52030869360E+01 -0.93284610679E+01  0.10876080929E+02  0.51100000000E-03 0.  1.
         12    1    4    4    0    0 -0.10454599220E+02 -0.63661302116E+01 -0.16029323227E+02  0.20168427351E+02  0.00000000000E+00 0. -1.
</event>
<event>
 8    1  0.6046524E-010  0.9118800E+02  0.7816164E-02  0.1184000E+00
        -11   -1    0    0    0    0  0.00000000000E+00  0.00000000000E+00  0.45593999997E+02  0.45594000000E+02  0.51100000000E-03 0. -1.
         11   -1    0    0    0    0 -0.00000000000E+00 -0.00000000000E+00 -0.45593999997E+02  0.45594000000E+02  0.51100000000E-03 0.  1.
         23    2    1    2    0    0  0.35527136788E-14  0.00000000000E+00  0.00000000000E+00  0.91188000000E+02  0.91188000000E+02 0.  0.
    9900012    2    3    3    0    0 -0.22280300397E+02  0.28125898149E+02 -0.24416083505E+02  0.47787273437E+02  0.20000010908E+02 0.  0.
         12    1    3    3    0    0  0.22280300397E+02 -0.28125898149E+02  0.24416083505E+02  0.43400726563E+02  0.00000000000E+00 0. -1.
         11    1    4    4    0    0  0.37874611022E-02 -0.13782118984E+01 -0.33316409343E+01  0.36054561373E+01  0.51100000000E-03 0. -1.
        -11    1    4    4    0    0 -0.53861824423E+01  0.15763268852E+02 -0.60750661967E+01  0.17731272818E+02  0.51100000000E-03 0.  1.
        -12    1    4    4    0    0 -0.16897905416E+02  0.13740841195E+02 -0.15009376374E+02  0.26450544481E+02  0.00000000000E+00 0.  1.
</event>
<event>
 8    1  0.6046524E-010  0.9118800E+02  0.7816164E-02  0.1184000E+00
        -11   -1    0    0    0    0  0.00000000000E+00  0.00000000000E+00  0.45593999997E+02  0.45594000000E+02  0.51100000000E-03 0. -1.
         11   -1    0    0    0    0 -0.00000000000E+00 -0.00000000000E+00 -0.45593999997E+02  0.45594000000E+02  0.51100000000E-03 0.  1.
         23    2    1    2    0    0  0.00000000000E+00  0.88817841970E-15  0.00000000000E+00  0.91188000000E+02  0.91188000000E+02 0.  0.
    9900012    2    3    3    0    0 -0.24445253772E+02  0.60176489668E+01  0.35353094409E+02  0.47787264807E+02  0.19999971560E+02 0.  0.
        -12    1    3    3    0    0  0.24445253772E+02 -0.60176489668E+01 -0.35353094409E+02  0.43400735193E+02  0.00000000000E+00 0.  1.
         11    1    4    4    0    0 -0.15879296038E+02  0.11420387411E+02  0.18147016130E+02  0.26681294683E+02  0.51100000000E-03 0. -1.
        -11    1    4    4    0    0 -0.18007376297E+01  0.55524879681E+00  0.24792467394E+00  0.19006378252E+01  0.51100000000E-03 0.  1.
        -12    1    4    4    0    0 -0.67652201038E+01 -0.59579872406E+01  0.16958153605E+02  0.19205332299E+02  0.00000000000E+00 0.  1.
</event>
<event>
 8    1  0.6046524E-010  0.9118800E+02  0.7816164E-02  0.1184000E+00
        -11   -1    0    0    0    0  0.00000000000E+00  0.00000000000E+00  0.45593999997E+02  0.45594000000E+02  0.51100000000E-03 0. -1.
         11   -1    0    0    0    0 -0.00000000000E+00 -0.00000000000E+00 -0.45593999997E+02  0.45594000000E+02  0.51100000000E-03 0.  1.
         23    2    1    2    0    0  0.00000000000E+00 -0.44408920985E-15 -0.35527136788E-14  0.91188000000E+02  0.91188000000E+02 0.  0.
    9900012    2    3    3    0    0  0.33477873097E+02  0.13559270605E+01 -0.27586515133E+02  0.47787281775E+02  0.20000048924E+02 0.  0.
         12    1    3    3    0    0 -0.33477873097E+02 -0.13559270605E+01  0.27586515133E+02  0.43400718225E+02  0.00000000000E+00 0. -1.
         11    1    4    4    0    0  0.18141598186E+02  0.10269395667E+00 -0.53038781982E+01  0.18901302997E+02  0.51100000000E-03 0. -1.
        -11    1    4    4    0    0  0.81573187988E+00 -0.31087683243E+01 -0.41834188712E+01  0.52754954939E+01  0.51100000000E-03 0.  1.
         12    1    4    4    0    0  0.14520543031E+02  0.43620014281E+01 -0.18099218064E+02  0.23610483284E+02  0.00000000000E+00 0. -1.
</event>
<event>
 8    1  0.6046524E-010  0.9118800E+02  0.7816164E-02  0.1184000E+00
        -11   -1    0    0    0    0  0.00000000000E+00  0.00000000000E+00  0.45593999997E+02  0.45594000000E+02  0.51100000000E-03 0. -1.
         11   -1    0    0    0    0 -0.00000000000E+00 -0.00000000000E+00 -0.45593999997E+02  0.45594000000E+02  0.51100000000E-03 0.  1.
         23    2    1    2    0    0 -0.35527136788E-14 -0.88817841970E-15  0.00000000000E+00  0.91188000000E+02  0.91188000000E+02 0.  0.
    9900012    2    3    3    0    0  0.22231179195E+02  0.70204119950E+01  0.36607554104E+02  0.47787256568E+02  0.19999933997E+02 0.  0.
        -12    1    3    3    0    0 -0.22231179195E+02 -0.70204119950E+01 -0.36607554104E+02  0.43400743432E+02  0.00000000000E+00 0.  1.
         11    1    4    4    0    0  0.31435665668E+01 -0.38050692902E+01  0.22566291554E+01  0.54270561513E+01  0.51100000000E-03 0. -1.
        -11    1    4    4    0    0  0.38386954749E+01  0.36031058862E+01  0.18410062407E+02  0.19148063951E+02  0.51100000000E-03 0.  1.
         12    1    4    4    0    0  0.15248917153E+02  0.72223753990E+01  0.15940862541E+02  0.23212136466E+02  0.00000000000E+00 0. -1.
</event>
<event>
 8    1  0.6046524E-010  0.9118800E+02  0.7816164E-02  0.1184000E+00
        -11   -1    0    0    0    0  0.00000000000E+00  0.00000000000E+00  0.45593999997E+02  0.45594000000E+02  0.51100000000E-03 0. -1.
         11   -1    0    0    0    0 -0.00000000000E+00 -0.00000000000E+00 -0.45593999997E+02  0.45594000000E+02  0.51100000000E-03 0.  1.
         23    2    1    2    0    0  0.00000000000E+00  0.00000000000E+00  0.00000000000E+00  0.91188000000E+02  0.91188000000E+02 0.  0.
    9900012    2    3    3    0    0 -0.25134329948E+02  0.22379480614E+02  0.27405251771E+02  0.47787268219E+02  0.19999987118E+02 0.  0.
        -12    1    3    3    0    0  0.25134329948E+02 -0.22379480614E+02 -0.27405251771E+02  0.43400731781E+02  0.00000000000E+00 0.  1.
         11    1    4    4    0    0 -0.31343495337E+01 -0.15515415724E+01  0.37944675443E+01  0.51603694108E+01  0.51100000000E-03 0. -1.
        -11    1    4    4    0    0 -0.23197987976E+00  0.47339591502E+01 -0.66909452409E+00  0.47866346888E+01  0.51100000000E-03 0.  1.
         12    1    4    4    0    0 -0.21768000534E+02  0.19197063036E+02  0.24279878751E+02  0.37840264120E+02  0.00000000000E+00 0. -1.
</event>
<event>
 8    1  0.6046524E-010  0.9118800E+02  0.7816164E-02  0.1184000E+00
        -11   -1    0    0    0    0  0.00000000000E+00  0.00000000000E+00  0.45593999997E+02  0.45594000000E+02  0.51100000000E-03 0. -1.
         11   -1    0    0    0    0 -0.00000000000E+00 -0.00000000000E+00 -0.45593999997E+02  0.45594000000E+02  0.51100000000E-03 0.  1.
         23    2    1    2    0    0 -0.35527136788E-14 -0.88817841970E-15  0.35527136788E-14  0.91188000000E+02  0.91188000000E+02 0.  0.
    9900012    2    3    3    0    0  0.29570223056E+02  0.54942049625E+01  0.31289511869E+02  0.47787332577E+02  0.20000280550E+02 0.  0.
        -12    1    3    3    0    0 -0.29570223056E+02 -0.54942049625E+01 -0.31289511869E+02  0.43400667423E+02  0.00000000000E+00 0.  1.
         11    1    4    4    0    0  0.16612300895E+02  0.52780067696E+01  0.14941464644E+02  0.22958076192E+02  0.51100000000E-03 0. -1.
        -11    1    4    4    0    0 -0.47168907836E+00 -0.11895120939E+01  0.96898120808E+01  0.97739392279E+01  0.51100000000E-03 0.  1.
         12    1    4    4    0    0  0.13429611240E+02  0.14057102868E+01  0.66582351442E+01  0.15055317157E+02  0.00000000000E+00 0. -1.
</event>
<event>
 8    1  0.6046524E-010  0.9118800E+02  0.7816164E-02  0.1184000E+00
        -11   -1    0    0    0    0  0.00000000000E+00  0.00000000000E+00  0.45593999997E+02  0.45594000000E+02  0.51100000000E-03 0.  1.
         11   -1    0    0    0    0 -0.00000000000E+00 -0.00000000000E+00 -0.45593999997E+02  0.45594000000E+02  0.51100000000E-03 0. -1.
         23    2    1    2    0    0  0.00000000000E+00  0.19428902931E-15 -0.17763568394E-14  0.91188000000E+02  0.91188000000E+02 0.  0.
    9900012    2    3    3    0    0 -0.41821165171E+02 -0.19423199272E+00 -0.11600678568E+02  0.47787270449E+02  0.19999997286E+02 0.  0.
         12    1    3    3    0    0  0.41821165171E+02  0.19423199272E+00  0.11600678568E+02  0.43400729551E+02  0.00000000000E+00 0. -1.
         11    1    4    4    0    0 -0.16671411293E+02 -0.28542170236E+01 -0.13400532223E+02  0.21579081849E+02  0.51100000000E-03 0. -1.
        -11    1    4    4    0    0 -0.45249635449E+01 -0.13168256725E+01  0.21972632015E+01  0.51997394908E+01  0.51100000000E-03 0.  1.
        -12    1    4    4    0    0 -0.20624790333E+02  0.39768107034E+01 -0.39740954627E+00  0.21008449110E+02  0.00000000000E+00 0.  1.
</event>
<event>
 8    1  0.6046524E-010  0.9118800E+02  0.7816164E-02  0.1184000E+00
        -11   -1    0    0    0    0  0.00000000000E+00  0.00000000000E+00  0.45593999997E+02  0.45594000000E+02  0.51100000000E-03 0. -1.
         11   -1    0    0    0    0 -0.00000000000E+00 -0.00000000000E+00 -0.45593999997E+02  0.45594000000E+02  0.51100000000E-03 0.  1.
         23    2    1    2    0    0  0.00000000000E+00  0.17763568394E-14  0.00000000000E+00  0.91188000000E+02  0.91188000000E+02 0.  0.
    9900012    2    3    3    0    0 -0.24791790675E+01 -0.10101968817E+02 -0.42135813692E+02  0.47787275371E+02  0.20000019726E+02 0.  0.
         12    1    3    3    0    0  0.24791790675E+01  0.10101968817E+02  0.42135813692E+02  0.43400724629E+02  0.00000000000E+00 0. -1.
         11    1    4    4    0    0  0.42017260561E+01  0.14747693777E+01 -0.59755846178E+01  0.74523189916E+01  0.51100000000E-03 0. -1.
        -11    1    4    4    0    0 -0.46973032721E+01 -0.16521438612E+01 -0.24013627578E+02  0.24524447947E+02  0.51100000000E-03 0.  1.
         12    1    4    4    0    0 -0.19836018515E+01 -0.99245943333E+01 -0.12146601496E+02  0.15810508433E+02  0.00000000000E+00 0. -1.
</event>
<event>
 8    1  0.6924743E-010  0.9118800E+02  0.7816164E-02  0.1184000E+00
        -11   -1    0    0    0    0  0.00000000000E+00  0.00000000000E+00  0.45593999997E+02  0.45594000000E+02  0.51100000000E-03 0. -1.
         11   -1    0    0    0    0 -0.00000000000E+00 -0.00000000000E+00 -0.45593999997E+02  0.45594000000E+02  0.51100000000E-03 0.  1.
         23    2    1    2    0    0  0.00000000000E+00  0.00000000000E+00  0.00000000000E+00  0.91188000000E+02  0.91188000000E+02 0.  0.
    9900012    2    3    3    0    0  0.20651613556E+02 -0.95309028025E+01 -0.36963471622E+02  0.47787245570E+02  0.19999883854E+02 0.  0.
         12    1    3    3    0    0 -0.20651613556E+02  0.95309028025E+01  0.36963471622E+02  0.43400754430E+02  0.00000000000E+00 0. -1.
         11    1    4    4    0    0  0.12100518917E+02 -0.22836494926E+01 -0.24147886454E+02  0.27106420522E+02  0.51100000000E-03 0.  1.
        -11    1    4    4    0    0  0.71511572297E+01 -0.48162073877E+00 -0.11644203102E+02  0.13673275920E+02  0.51100000000E-03 0. -1.
         12    1    4    4    0    0  0.13999374094E+01 -0.67656325711E+01 -0.11713820665E+01  0.70075491281E+01  0.00000000000E+00 0. -1.
</event>
<event>
 8    1  0.6046524E-010  0.9118800E+02  0.7816164E-02  0.1184000E+00
        -11   -1    0    0    0    0  0.00000000000E+00  0.00000000000E+00  0.45593999997E+02  0.45594000000E+02  0.51100000000E-03 0. -1.
         11   -1    0    0    0    0 -0.00000000000E+00 -0.00000000000E+00 -0.45593999997E+02  0.45594000000E+02  0.51100000000E-03 0.  1.
         23    2    1    2    0    0  0.00000000000E+00  0.00000000000E+00  0.00000000000E+00  0.91188000000E+02  0.91188000000E+02 0.  0.
    9900012    2    3    3    0    0  0.19301045205E+02  0.19392172030E+02  0.33690307724E+02  0.47787268248E+02  0.19999987251E+02 0.  0.
        -12    1    3    3    0    0 -0.19301045205E+02 -0.19392172030E+02 -0.33690307724E+02  0.43400731752E+02  0.00000000000E+00 0.  1.
         11    1    4    4    0    0  0.11028170985E+02  0.64613557348E+01  0.82864191623E+01  0.15232675931E+02  0.51100000000E-03 0. -1.
        -11    1    4    4    0    0 -0.11086413572E+01  0.59347252974E+01  0.19523886896E+01  0.63452243358E+01  0.51100000000E-03 0.  1.
        -12    1    4    4    0    0  0.93815155772E+01  0.69960909981E+01  0.23451499872E+02  0.26209367982E+02  0.00000000000E+00 0.  1.
</event>
<event>
 8    1  0.6046524E-010  0.9118800E+02  0.7816164E-02  0.1184000E+00
        -11   -1    0    0    0    0  0.00000000000E+00  0.00000000000E+00  0.45593999997E+02  0.45594000000E+02  0.51100000000E-03 0. -1.
         11   -1    0    0    0    0 -0.00000000000E+00 -0.00000000000E+00 -0.45593999997E+02  0.45594000000E+02  0.51100000000E-03 0.  1.
         23    2    1    2    0    0  0.44408920985E-15 -0.88817841970E-15  0.00000000000E+00  0.91188000000E+02  0.91188000000E+02 0.  0.
    9900012    2    3    3    0    0  0.32503463445E+01  0.57682870364E+01 -0.42892721208E+02  0.47787269369E+02  0.19999992361E+02 0.  0.
         12    1    3    3    0    0 -0.32503463445E+01 -0.57682870364E+01  0.42892721208E+02  0.43400730631E+02  0.00000000000E+00 0. -1.
         11    1    4    4    0    0  0.35645532400E+01 -0.64049544881E+01 -0.12063075206E+02  0.14115497351E+02  0.51100000000E-03 0. -1.
        -11    1    4    4    0    0 -0.27972960580E+01  0.47162593023E+01 -0.99342918458E+01  0.11347163601E+02  0.51100000000E-03 0.  1.
        -12    1    4    4    0    0  0.24830891625E+01  0.74569822223E+01 -0.20895354156E+02  0.22324608417E+02  0.00000000000E+00 0.  1.
</event>
<event>
 8    1  0.6046524E-010  0.9118800E+02  0.7816164E-02  0.1184000E+00
        -11   -1    0    0    0    0  0.00000000000E+00  0.00000000000E+00  0.45593999997E+02  0.45594000000E+02  0.51100000000E-03 0. -1.
         11   -1    0    0    0    0 -0.00000000000E+00 -0.00000000000E+00 -0.45593999997E+02  0.45594000000E+02  0.51100000000E-03 0.  1.
         23    2    1    2    0    0  0.00000000000E+00  0.00000000000E+00  0.00000000000E+00  0.91188000000E+02  0.91188000000E+02 0.  0.
    9900012    2    3    3    0    0 -0.90055644030E+01  0.56526102948E+01 -0.42078160738E+02  0.47787264931E+02  0.19999972128E+02 0.  0.
         12    1    3    3    0    0  0.90055644030E+01 -0.56526102948E+01  0.42078160738E+02  0.43400735069E+02  0.00000000000E+00 0. -1.
         11    1    4    4    0    0  0.60708396785E+01  0.27161505152E+01 -0.12179462430E+02  0.13877026820E+02  0.51100000000E-03 0.  1.
        -11    1    4    4    0    0 -0.41103410430E+01 -0.10856763086E+01 -0.94139149918E+01  0.10329346169E+02  0.51100000000E-03 0. -1.
         12    1    4    4    0    0 -0.10966063039E+02  0.40221360883E+01 -0.20484783316E+02  0.23580891942E+02  0.00000000000E+00 0. -1.
</event>
<event>
 8    1  0.6046524E-010  0.9118800E+02  0.7816164E-02  0.1184000E+00
        -11   -1    0    0    0    0  0.00000000000E+00  0.00000000000E+00  0.45593999997E+02  0.45594000000E+02  0.51100000000E-03 0. -1.
         11   -1    0    0    0    0 -0.00000000000E+00 -0.00000000000E+00 -0.45593999997E+02  0.45594000000E+02  0.51100000000E-03 0.  1.
         23    2    1    2    0    0  0.00000000000E+00 -0.44408920985E-15 -0.35527136788E-14  0.91188000000E+02  0.91188000000E+02 0.  0.
    9900012    2    3    3    0    0  0.29322061710E+02  0.22874884042E+01  0.31915628700E+02  0.47787271188E+02  0.20000000655E+02 0.  0.
        -12    1    3    3    0    0 -0.29322061710E+02 -0.22874884042E+01 -0.31915628700E+02  0.43400728812E+02  0.00000000000E+00 0.  1.
         11    1    4    4    0    0  0.10811888893E+02  0.22676622697E+01  0.14576381835E+02  0.18289618401E+02  0.51100000000E-03 0. -1.
        -11    1    4    4    0    0  0.17128902597E+02 -0.29610678878E+01  0.71572855232E+01  0.18798775586E+02  0.51100000000E-03 0.  1.
        -12    1    4    4    0    0  0.13812702194E+01  0.29808940222E+01  0.10181961342E+02  0.10698877201E+02  0.00000000000E+00 0.  1.
</event>
<event>
 8    1  0.6046524E-010  0.9118800E+02  0.7816164E-02  0.1184000E+00
        -11   -1    0    0    0    0  0.00000000000E+00  0.00000000000E+00  0.45593999997E+02  0.45594000000E+02  0.51100000000E-03 0. -1.
         11   -1    0    0    0    0 -0.00000000000E+00 -0.00000000000E+00 -0.45593999997E+02  0.45594000000E+02  0.51100000000E-03 0.  1.
         23    2    1    2    0    0  0.00000000000E+00  0.00000000000E+00  0.00000000000E+00  0.91188000000E+02  0.91188000000E+02 0.  0.
    9900012    2    3    3    0    0  0.31966970458E+02 -0.25755452763E+02  0.14085207655E+02  0.47787267034E+02  0.19999981716E+02 0.  0.
        -12    1    3    3    0    0 -0.31966970458E+02  0.25755452763E+02 -0.14085207655E+02  0.43400732966E+02  0.00000000000E+00 0.  1.
         11    1    4    4    0    0  0.14358081479E+02 -0.16600397729E+02  0.48419708758E+01  0.22476040371E+02  0.51100000000E-03 0. -1.
        -11    1    4    4    0    0  0.10969316969E+02 -0.78977643106E+01  0.11940335869E+02  0.18035304733E+02  0.51100000000E-03 0.  1.
        -12    1    4    4    0    0  0.66395720097E+01 -0.12572907234E+01 -0.26970990904E+01  0.72759219305E+01  0.00000000000E+00 0.  1.
</event>
<event>
 8    1  0.6046524E-010  0.9118800E+02  0.7816164E-02  0.1184000E+00
        -11   -1    0    0    0    0  0.00000000000E+00  0.00000000000E+00  0.45593999997E+02  0.45594000000E+02  0.51100000000E-03 0. -1.
         11   -1    0    0    0    0 -0.00000000000E+00 -0.00000000000E+00 -0.45593999997E+02  0.45594000000E+02  0.51100000000E-03 0.  1.
         23    2    1    2    0    0  0.35527136788E-14 -0.35527136788E-14  0.35527136788E-14  0.91188000000E+02  0.91188000000E+02 0.  0.
    9900012    2    3    3    0    0 -0.30513139213E+02  0.22042984328E+02 -0.21602738581E+02  0.47787272623E+02  0.20000007196E+02 0.  0.
         12    1    3    3    0    0  0.30513139213E+02 -0.22042984328E+02  0.21602738581E+02  0.43400727377E+02  0.00000000000E+00 0. -1.
         11    1    4    4    0    0 -0.34322938052E+01  0.69730443118E+01 -0.21683304819E+01  0.80688069180E+01  0.51100000000E-03 0. -1.
        -11    1    4    4    0    0 -0.25838721348E+02  0.85966746973E+01 -0.11928688458E+02  0.29729378489E+02  0.51100000000E-03 0.  1.
        -12    1    4    4    0    0 -0.12421240592E+01  0.64732653186E+01 -0.75057196416E+01  0.99890872156E+01  0.00000000000E+00 0.  1.
</event>
<event>
 8    1  0.6046524E-010  0.9118800E+02  0.7816164E-02  0.1184000E+00
        -11   -1    0    0    0    0  0.00000000000E+00  0.00000000000E+00  0.45593999997E+02  0.45594000000E+02  0.51100000000E-03 0.  1.
         11   -1    0    0    0    0 -0.00000000000E+00 -0.00000000000E+00 -0.45593999997E+02  0.45594000000E+02  0.51100000000E-03 0. -1.
         23    2    1    2    0    0 -0.35527136788E-14  0.71054273576E-14  0.35527136788E-14  0.91188000000E+02  0.91188000000E+02 0.  0.
    9900012    2    3    3    0    0  0.17618742835E+02 -0.34228723909E+02  0.20039827329E+02  0.47787305088E+02  0.20000155216E+02 0.  0.
        -12    1    3    3    0    0 -0.17618742835E+02  0.34228723909E+02 -0.20039827329E+02  0.43400694912E+02  0.00000000000E+00 0.  1.
         11    1    4    4    0    0  0.48229244981E+01 -0.14574507268E+02  0.11521547380E+02  0.19194345967E+02  0.51100000000E-03 0. -1.
        -11    1    4    4    0    0  0.15188837406E+02 -0.17512366532E+02  0.47883296050E+01  0.23670907544E+02  0.51100000000E-03 0.  1.
         12    1    4    4    0    0 -0.23930190688E+01 -0.21418501085E+01  0.37299503440E+01  0.49220515763E+01  0.00000000000E+00 0. -1.
</event>
<event>
 8    1  0.6046524E-010  0.9118800E+02  0.7816164E-02  0.1184000E+00
        -11   -1    0    0    0    0  0.00000000000E+00  0.00000000000E+00  0.45593999997E+02  0.45594000000E+02  0.51100000000E-03 0. -1.
         11   -1    0    0    0    0 -0.00000000000E+00 -0.00000000000E+00 -0.45593999997E+02  0.45594000000E+02  0.51100000000E-03 0.  1.
         23    2    1    2    0    0 -0.35527136788E-14  0.00000000000E+00  0.00000000000E+00  0.91188000000E+02  0.91188000000E+02 0.  0.
    9900012    2    3    3    0    0 -0.24129206898E+02  0.71334019229E+01  0.35362673290E+02  0.47787277532E+02  0.20000029580E+02 0.  0.
        -12    1    3    3    0    0  0.24129206898E+02 -0.71334019229E+01 -0.35362673290E+02  0.43400722468E+02  0.00000000000E+00 0.  1.
         11    1    4    4    0    0 -0.43331403040E+01  0.87183814438E+01  0.18328104009E+02  0.20753449755E+02  0.51100000000E-03 0. -1.
        -11    1    4    4    0    0 -0.80663889073E+01 -0.20251051195E+01  0.11131169985E+02  0.13894985651E+02  0.51100000000E-03 0.  1.
         12    1    4    4    0    0 -0.11729677687E+02  0.44012559853E+00  0.59033992961E+01  0.13138842127E+02  0.00000000000E+00 0. -1.
</event>
<event>
 8    1  0.6046524E-010  0.9118800E+02  0.7816164E-02  0.1184000E+00
        -11   -1    0    0    0    0  0.00000000000E+00  0.00000000000E+00  0.45593999997E+02  0.45594000000E+02  0.51100000000E-03 0.  1.
         11   -1    0    0    0    0 -0.00000000000E+00 -0.00000000000E+00 -0.45593999997E+02  0.45594000000E+02  0.51100000000E-03 0. -1.
         23    2    1    2    0    0  0.35527136788E-14  0.00000000000E+00  0.88817841970E-15  0.91188000000E+02  0.91188000000E+02 0.  0.
    9900012    2    3    3    0    0  0.25696744381E+02 -0.34794181684E+02  0.35588636945E+01  0.47787271185E+02  0.20000000643E+02 0.  0.
         12    1    3    3    0    0 -0.25696744381E+02  0.34794181684E+02 -0.35588636945E+01  0.43400728815E+02  0.00000000000E+00 0. -1.
         11    1    4    4    0    0  0.11732922297E+02 -0.16771211558E+02 -0.13635430356E+01  0.20513270159E+02  0.51100000000E-03 0. -1.
        -11    1    4    4    0    0  0.26300254396E+01  0.20382394798E+01 -0.10171046410E+01  0.34793614504E+01  0.51100000000E-03 0.  1.
        -12    1    4    4    0    0  0.11333796645E+02 -0.20061209606E+02  0.59395113712E+01  0.23794639576E+02  0.00000000000E+00 0.  1.
</event>
<event>
 8    1  0.6046524E-010  0.9118800E+02  0.7816164E-02  0.1184000E+00
        -11   -1    0    0    0    0  0.00000000000E+00  0.00000000000E+00  0.45593999997E+02  0.45594000000E+02  0.51100000000E-03 0. -1.
         11   -1    0    0    0    0 -0.00000000000E+00 -0.00000000000E+00 -0.45593999997E+02  0.45594000000E+02  0.51100000000E-03 0.  1.
         23    2    1    2    0    0  0.35527136788E-14  0.17763568394E-14  0.00000000000E+00  0.91188000000E+02  0.91188000000E+02 0.  0.
    9900012    2    3    3    0    0  0.22437938911E+02  0.80394889587E+01 -0.36270225285E+02  0.47787265818E+02  0.19999976170E+02 0.  0.
         12    1    3    3    0    0 -0.22437938911E+02 -0.80394889587E+01  0.36270225285E+02  0.43400734182E+02  0.00000000000E+00 0. -1.
         11    1    4    4    0    0 -0.14204457617E+00  0.22465060264E+01  0.14092172282E+00  0.22553991180E+01  0.51100000000E-03 0. -1.
        -11    1    4    4    0    0  0.21773010623E+02  0.47423448982E+01 -0.22887789056E+02  0.31943774274E+02  0.51100000000E-03 0.  1.
         12    1    4    4    0    0  0.80697286422E+00  0.10506380341E+01 -0.13523357952E+02  0.13588092426E+02  0.00000000000E+00 0. -1.
</event>
<event>
 8    1  0.6046524E-010  0.9118800E+02  0.7816164E-02  0.1184000E+00
        -11   -1    0    0    0    0  0.00000000000E+00  0.00000000000E+00  0.45593999997E+02  0.45594000000E+02  0.51100000000E-03 0. -1.
         11   -1    0    0    0    0 -0.00000000000E+00 -0.00000000000E+00 -0.45593999997E+02  0.45594000000E+02  0.51100000000E-03 0.  1.
         23    2    1    2    0    0  0.17763568394E-14  0.71054273576E-14  0.17763568394E-14  0.91188000000E+02  0.91188000000E+02 0.  0.
    9900012    2    3    3    0    0 -0.15552958386E+02 -0.38761946584E+02 -0.11800008361E+02  0.47787271724E+02  0.20000003100E+02 0.  0.
         12    1    3    3    0    0  0.15552958386E+02  0.38761946584E+02  0.11800008361E+02  0.43400728276E+02  0.00000000000E+00 0. -1.
         11    1    4    4    0    0  0.13870963495E+01 -0.13701594866E+02  0.33727452870E+00  0.13775757421E+02  0.51100000000E-03 0. -1.
        -11    1    4    4    0    0 -0.80717587988E+01 -0.79146947256E+01 -0.18264734095E+00  0.11306150672E+02  0.51100000000E-03 0.  1.
         12    1    4    4    0    0 -0.88682959367E+01 -0.17145656993E+02 -0.11954635549E+02  0.22705363631E+02  0.00000000000E+00 0. -1.
</event>
<event>
 8    1  0.6046524E-010  0.9118800E+02  0.7816164E-02  0.1184000E+00
        -11   -1    0    0    0    0  0.00000000000E+00  0.00000000000E+00  0.45593999997E+02  0.45594000000E+02  0.51100000000E-03 0. -1.
         11   -1    0    0    0    0 -0.00000000000E+00 -0.00000000000E+00 -0.45593999997E+02  0.45594000000E+02  0.51100000000E-03 0.  1.
         23    2    1    2    0    0 -0.35527136788E-14  0.00000000000E+00 -0.17763568394E-14  0.91188000000E+02  0.91188000000E+02 0.  0.
    9900012    2    3    3    0    0  0.22996087386E+02 -0.35742997083E+02  0.87887009668E+01  0.47787272584E+02  0.20000007021E+02 0.  0.
        -12    1    3    3    0    0 -0.22996087386E+02  0.35742997083E+02 -0.87887009668E+01  0.43400727416E+02  0.00000000000E+00 0.  1.
         11    1    4    4    0    0 -0.26281800830E+01 -0.70755995134E+01  0.16231326007E+01  0.77204921296E+01  0.51100000000E-03 0.  1.
        -11    1    4    4    0    0  0.13472760968E+02 -0.20197271160E+02  0.19244700229E+01  0.24354642997E+02  0.51100000000E-03 0. -1.
        -12    1    4    4    0    0  0.12151506501E+02 -0.84701264096E+01  0.52410983432E+01  0.15712137458E+02  0.00000000000E+00 0.  1.
</event>
<event>
 8    1  0.6046524E-010  0.9118800E+02  0.7816164E-02  0.1184000E+00
        -11   -1    0    0    0    0  0.00000000000E+00  0.00000000000E+00  0.45593999997E+02  0.45594000000E+02  0.51100000000E-03 0. -1.
         11   -1    0    0    0    0 -0.00000000000E+00 -0.00000000000E+00 -0.45593999997E+02  0.45594000000E+02  0.51100000000E-03 0.  1.
         23    2    1    2    0    0  0.17763568394E-14  0.00000000000E+00  0.00000000000E+00  0.91188000000E+02  0.91188000000E+02 0.  0.
    9900012    2    3    3    0    0  0.15735772526E+02 -0.17344631303E+02 -0.36539987487E+02  0.47787291969E+02  0.20000095402E+02 0.  0.
         12    1    3    3    0    0 -0.15735772526E+02  0.17344631303E+02  0.36539987487E+02  0.43400708031E+02  0.00000000000E+00 0. -1.
         11    1    4    4    0    0 -0.17107594638E+00 -0.89975484941E+01 -0.21333833841E+02  0.23154213710E+02  0.51100000000E-03 0. -1.
        -11    1    4    4    0    0  0.95164548008E+01 -0.79855392339E+01 -0.12681557245E+02  0.17752567230E+02  0.51100000000E-03 0.  1.
         12    1    4    4    0    0  0.63903936718E+01 -0.36154357552E+00 -0.25245964009E+01  0.68805110294E+01  0.00000000000E+00 0. -1.
</event>
<event>
 8    1  0.6378573E-010  0.9118800E+02  0.7816164E-02  0.1184000E+00
        -11   -1    0    0    0    0  0.00000000000E+00  0.00000000000E+00  0.45593999997E+02  0.45594000000E+02  0.51100000000E-03 0. -1.
         11   -1    0    0    0    0 -0.00000000000E+00 -0.00000000000E+00 -0.45593999997E+02  0.45594000000E+02  0.51100000000E-03 0.  1.
         23    2    1    2    0    0  0.71054273576E-14  0.00000000000E+00 -0.71054273576E-14  0.91188000000E+02  0.91188000000E+02 0.  0.
    9900012    2    3    3    0    0  0.32378381017E+02  0.17053651303E+02 -0.23333201166E+02  0.47787252809E+02  0.19999916858E+02 0.  0.
         12    1    3    3    0    0 -0.32378381017E+02 -0.17053651303E+02  0.23333201166E+02  0.43400747191E+02  0.00000000000E+00 0. -1.
         11    1    4    4    0    0  0.32775377221E+01  0.70053232210E+01 -0.64054652148E+01  0.10042250337E+02  0.51100000000E-03 0.  1.
        -11    1    4    4    0    0  0.27838222297E+02  0.12072594253E+02 -0.17830290526E+02  0.35194224145E+02  0.51100000000E-03 0. -1.
         12    1    4    4    0    0  0.12626209981E+01 -0.20242661705E+01  0.90255457504E+00  0.25507783272E+01  0.00000000000E+00 0. -1.
</event>
<event>
 8    1  0.6067678E-010  0.9118800E+02  0.7816164E-02  0.1184000E+00
        -11   -1    0    0    0    0  0.00000000000E+00  0.00000000000E+00  0.45593999997E+02  0.45594000000E+02  0.51100000000E-03 0. -1.
         11   -1    0    0    0    0 -0.00000000000E+00 -0.00000000000E+00 -0.45593999997E+02  0.45594000000E+02  0.51100000000E-03 0.  1.
         23    2    1    2    0    0 -0.44408920985E-15  0.00000000000E+00 -0.35527136788E-14  0.91188000000E+02  0.91188000000E+02 0.  0.
    9900012    2    3    3    0    0 -0.27547164862E+01 -0.30660751232E+02 -0.30593351134E+02  0.47787271174E+02  0.20000000591E+02 0.  0.
         12    1    3    3    0    0  0.27547164862E+01  0.30660751232E+02  0.30593351134E+02  0.43400728826E+02  0.00000000000E+00 0. -1.
         11    1    4    4    0    0 -0.19696822839E+01 -0.17019832450E+02 -0.11414546597E+02  0.20587525815E+02  0.51100000000E-03 0.  1.
        -11    1    4    4    0    0  0.37715265950E+01 -0.11387488568E+02 -0.18531699123E+02  0.22075397649E+02  0.51100000000E-03 0. -1.
         12    1    4    4    0    0 -0.45565607973E+01 -0.22534302144E+01 -0.64710541423E+00  0.51243477095E+01  0.00000000000E+00 0. -1.
</event>
<event>
 8    1  0.6046524E-010  0.9118800E+02  0.7816164E-02  0.1184000E+00
        -11   -1    0    0    0    0  0.00000000000E+00  0.00000000000E+00  0.45593999997E+02  0.45594000000E+02  0.51100000000E-03 0. -1.
         11   -1    0    0    0    0 -0.00000000000E+00 -0.00000000000E+00 -0.45593999997E+02  0.45594000000E+02  0.51100000000E-03 0.  1.
         23    2    1    2    0    0  0.00000000000E+00 -0.35527136788E-14  0.00000000000E+00  0.91188000000E+02  0.91188000000E+02 0.  0.
    9900012    2    3    3    0    0 -0.15550557498E+02  0.30924004204E+02 -0.26182211372E+02  0.47787284950E+02  0.20000063402E+02 0.  0.
         12    1    3    3    0    0  0.15550557498E+02 -0.30924004204E+02  0.26182211372E+02  0.43400715050E+02  0.00000000000E+00 0. -1.
         11    1    4    4    0    0  0.13903338762E+01  0.31521230313E+01 -0.75107230894E+01  0.82631634063E+01  0.51100000000E-03 0.  1.
        -11    1    4    4    0    0 -0.11566246279E+02  0.13718216010E+02 -0.37452724855E+01  0.18330154656E+02  0.51100000000E-03 0. -1.
         12    1    4    4    0    0 -0.53746450954E+01  0.14053665163E+02 -0.14926215797E+02  0.21193966888E+02  0.00000000000E+00 0. -1.
</event>
<event>
 8    1  0.6046524E-010  0.9118800E+02  0.7816164E-02  0.1184000E+00
        -11   -1    0    0    0    0  0.00000000000E+00  0.00000000000E+00  0.45593999997E+02  0.45594000000E+02  0.51100000000E-03 0. -1.
         11   -1    0    0    0    0 -0.00000000000E+00 -0.00000000000E+00 -0.45593999997E+02  0.45594000000E+02  0.51100000000E-03 0.  1.
         23    2    1    2    0    0  0.00000000000E+00  0.35527136788E-14  0.00000000000E+00  0.91188000000E+02  0.91188000000E+02 0.  0.
    9900012    2    3    3    0    0  0.29038343880E+01  0.24103607605E+02 -0.35975088526E+02  0.47787272493E+02  0.20000006604E+02 0.  0.
         12    1    3    3    0    0 -0.29038343880E+01 -0.24103607605E+02  0.35975088526E+02  0.43400727507E+02  0.00000000000E+00 0. -1.
         11    1    4    4    0    0 -0.31461058184E+01  0.15228054964E+02 -0.11373719310E+02  0.19265334957E+02  0.51100000000E-03 0. -1.
        -11    1    4    4    0    0  0.20046527062E+01  0.95542642669E+01 -0.20578277177E+02  0.22776481072E+02  0.51100000000E-03 0.  1.
         12    1    4    4    0    0  0.40452875002E+01 -0.67871162646E+00 -0.40230920379E+01  0.57454564637E+01  0.00000000000E+00 0. -1.
</event>
<event>
 8    1  0.6046524E-010  0.9118800E+02  0.7816164E-02  0.1184000E+00
        -11   -1    0    0    0    0  0.00000000000E+00  0.00000000000E+00  0.45593999997E+02  0.45594000000E+02  0.51100000000E-03 0. -1.
         11   -1    0    0    0    0 -0.00000000000E+00 -0.00000000000E+00 -0.45593999997E+02  0.45594000000E+02  0.51100000000E-03 0.  1.
         23    2    1    2    0    0  0.00000000000E+00  0.17763568394E-14  0.00000000000E+00  0.91188000000E+02  0.91188000000E+02 0.  0.
    9900012    2    3    3    0    0 -0.34054978018E+02  0.14371206373E+02 -0.22745330501E+02  0.47787272356E+02  0.20000005979E+02 0.  0.
         12    1    3    3    0    0  0.34054978018E+02 -0.14371206373E+02  0.22745330501E+02  0.43400727644E+02  0.00000000000E+00 0. -1.
         11    1    4    4    0    0 -0.20857023504E+02  0.24670357719E+01 -0.14096607398E+02  0.25294585099E+02  0.51100000000E-03 0. -1.
        -11    1    4    4    0    0  0.22199501541E+00  0.51868190969E+00  0.18948433142E+01  0.19770544142E+01  0.51100000000E-03 0.  1.
        -12    1    4    4    0    0 -0.13419949530E+02  0.11385488692E+02 -0.10543566418E+02  0.20515632843E+02  0.00000000000E+00 0.  1.
</event>
<event>
 8    1  0.6046524E-010  0.9118800E+02  0.7816164E-02  0.1184000E+00
        -11   -1    0    0    0    0  0.00000000000E+00  0.00000000000E+00  0.45593999997E+02  0.45594000000E+02  0.51100000000E-03 0. -1.
         11   -1    0    0    0    0 -0.00000000000E+00 -0.00000000000E+00 -0.45593999997E+02  0.45594000000E+02  0.51100000000E-03 0.  1.
         23    2    1    2    0    0 -0.17763568394E-14  0.00000000000E+00  0.00000000000E+00  0.91188000000E+02  0.91188000000E+02 0.  0.
    9900012    2    3    3    0    0  0.12782851384E+02  0.37445938980E+02 -0.17833210022E+02  0.47787274023E+02  0.20000013582E+02 0.  0.
         12    1    3    3    0    0 -0.12782851384E+02 -0.37445938980E+02  0.17833210022E+02  0.43400725977E+02  0.00000000000E+00 0. -1.
         11    1    4    4    0    0  0.77743726353E+01  0.69553441534E+01  0.64485113272E+00  0.10451483886E+02  0.51100000000E-03 0. -1.
        -11    1    4    4    0    0  0.49315793870E+01  0.12169944085E+02 -0.12325158373E+02  0.18009373767E+02  0.51100000000E-03 0.  1.
        -12    1    4    4    0    0  0.76899361986E-01  0.18320650741E+02 -0.61529027818E+01  0.19326416371E+02  0.00000000000E+00 0.  1.
</event>
<event>
 8    1  0.6046524E-010  0.9118800E+02  0.7816164E-02  0.1184000E+00
        -11   -1    0    0    0    0  0.00000000000E+00  0.00000000000E+00  0.45593999997E+02  0.45594000000E+02  0.51100000000E-03 0. -1.
         11   -1    0    0    0    0 -0.00000000000E+00 -0.00000000000E+00 -0.45593999997E+02  0.45594000000E+02  0.51100000000E-03 0.  1.
         23    2    1    2    0    0  0.17763568394E-14  0.00000000000E+00  0.71054273576E-14  0.91188000000E+02  0.91188000000E+02 0.  0.
    9900012    2    3    3    0    0  0.15497913716E+02 -0.14767272965E+02  0.37754016056E+02  0.47787269491E+02  0.19999992916E+02 0.  0.
        -12    1    3    3    0    0 -0.15497913716E+02  0.14767272965E+02 -0.37754016056E+02  0.43400730509E+02  0.00000000000E+00 0.  1.
         11    1    4    4    0    0  0.21232541139E+01  0.22107780250E+01  0.49486341328E+01  0.58210589715E+01  0.51100000000E-03 0.  1.
        -11    1    4    4    0    0  0.37283350837E+01 -0.11174918198E+02  0.26646028103E+02  0.29134002354E+02  0.51100000000E-03 0. -1.
         12    1    4    4    0    0  0.96463245183E+01 -0.58031327919E+01  0.61593538201E+01  0.12832208165E+02  0.00000000000E+00 0. -1.
</event>
<event>
 8    1  0.7960626E-010  0.9118800E+02  0.7816164E-02  0.1184000E+00
        -11   -1    0    0    0    0  0.00000000000E+00  0.00000000000E+00  0.45593999997E+02  0.45594000000E+02  0.51100000000E-03 0. -1.
         11   -1    0    0    0    0 -0.00000000000E+00 -0.00000000000E+00 -0.45593999997E+02  0.45594000000E+02  0.51100000000E-03 0.  1.
         23    2    1    2    0    0 -0.35527136788E-14  0.00000000000E+00  0.00000000000E+00  0.91188000000E+02  0.91188000000E+02 0.  0.
    9900012    2    3    3    0    0  0.22887483261E+02 -0.46265055465E+01 -0.36583900949E+02  0.47787271294E+02  0.20000001137E+02 0.  0.
         12    1    3    3    0    0 -0.22887483261E+02  0.46265055465E+01  0.36583900949E+02  0.43400728706E+02  0.00000000000E+00 0. -1.
         11    1    4    4    0    0  0.57538449716E+01 -0.18810788502E+01 -0.20769402698E+02  0.21633614545E+02  0.51100000000E-03 0. -1.
        -11    1    4    4    0    0  0.16616313525E+02  0.67618954764E+00 -0.15405424812E+02  0.22669058678E+02  0.51100000000E-03 0.  1.
         12    1    4    4    0    0  0.51732476368E+00 -0.34216162439E+01 -0.40907343942E+00  0.34845980702E+01  0.00000000000E+00 0. -1.
</event>
<event>
 8    1  0.6046524E-010  0.9118800E+02  0.7816164E-02  0.1184000E+00
        -11   -1    0    0    0    0  0.00000000000E+00  0.00000000000E+00  0.45593999997E+02  0.45594000000E+02  0.51100000000E-03 0. -1.
         11   -1    0    0    0    0 -0.00000000000E+00 -0.00000000000E+00 -0.45593999997E+02  0.45594000000E+02  0.51100000000E-03 0.  1.
         23    2    1    2    0    0  0.00000000000E+00  0.00000000000E+00  0.00000000000E+00  0.91188000000E+02  0.91188000000E+02 0.  0.
    9900012    2    3    3    0    0 -0.20781835972E+02  0.27284753727E+01 -0.38003903635E+02  0.47787239918E+02  0.19999858080E+02 0.  0.
         12    1    3    3    0    0  0.20781835972E+02 -0.27284753727E+01  0.38003903635E+02  0.43400760082E+02  0.00000000000E+00 0. -1.
         11    1    4    4    0    0 -0.15257118601E+02 -0.57476329665E+01 -0.17162287815E+02  0.23671904783E+02  0.51100000000E-03 0. -1.
        -11    1    4    4    0    0 -0.23988336796E+01  0.13481545261E+01 -0.12108385504E+02  0.12417122188E+02  0.51100000000E-03 0.  1.
         12    1    4    4    0    0 -0.31258836917E+01  0.71279538131E+01 -0.87332303153E+01  0.11698212947E+02  0.00000000000E+00 0. -1.
</event>
<event>
 8    1  0.6046524E-010  0.9118800E+02  0.7816164E-02  0.1184000E+00
        -11   -1    0    0    0    0  0.00000000000E+00  0.00000000000E+00  0.45593999997E+02  0.45594000000E+02  0.51100000000E-03 0. -1.
         11   -1    0    0    0    0 -0.00000000000E+00 -0.00000000000E+00 -0.45593999997E+02  0.45594000000E+02  0.51100000000E-03 0.  1.
         23    2    1    2    0    0  0.00000000000E+00  0.00000000000E+00  0.71054273576E-14  0.91188000000E+02  0.91188000000E+02 0.  0.
    9900012    2    3    3    0    0 -0.10088286793E+02  0.82753579287E+01 -0.41392852741E+02  0.47787270314E+02  0.19999996668E+02 0.  0.
         12    1    3    3    0    0  0.10088286793E+02 -0.82753579287E+01  0.41392852741E+02  0.43400729686E+02  0.00000000000E+00 0. -1.
         11    1    4    4    0    0  0.10037893082E+01  0.24478683154E+01 -0.15046992293E+01  0.30436445746E+01  0.51100000000E-03 0. -1.
        -11    1    4    4    0    0 -0.12316845814E+02  0.76838751206E+01 -0.39963271916E+02  0.42518345807E+02  0.51100000000E-03 0.  1.
         12    1    4    4    0    0  0.12247697122E+01 -0.18563855073E+01  0.75118404480E-01  0.22252799317E+01  0.00000000000E+00 0. -1.
</event>
<event>
 8    1  0.6046524E-010  0.9118800E+02  0.7816164E-02  0.1184000E+00
        -11   -1    0    0    0    0  0.00000000000E+00  0.00000000000E+00  0.45593999997E+02  0.45594000000E+02  0.51100000000E-03 0. -1.
         11   -1    0    0    0    0 -0.00000000000E+00 -0.00000000000E+00 -0.45593999997E+02  0.45594000000E+02  0.51100000000E-03 0.  1.
         23    2    1    2    0    0  0.00000000000E+00  0.00000000000E+00  0.00000000000E+00  0.91188000000E+02  0.91188000000E+02 0.  0.
    9900012    2    3    3    0    0  0.10376878119E+02 -0.36103174249E+02 -0.21737179089E+02  0.47787265615E+02  0.19999975246E+02 0.  0.
         12    1    3    3    0    0 -0.10376878119E+02  0.36103174249E+02  0.21737179089E+02  0.43400734385E+02  0.00000000000E+00 0. -1.
         11    1    4    4    0    0 -0.15974989366E+01 -0.22300369680E+01  0.20909243415E+01  0.34492075313E+01  0.51100000000E-03 0. -1.
        -11    1    4    4    0    0  0.20548585431E+01 -0.20497697560E+02 -0.11273566792E+02  0.23483427292E+02  0.51100000000E-03 0.  1.
        -12    1    4    4    0    0  0.99195185127E+01 -0.13375439721E+02 -0.12554536639E+02  0.20854630792E+02  0.00000000000E+00 0.  1.
</event>
<event>
 8    1  0.6046524E-010  0.9118800E+02  0.7816164E-02  0.1184000E+00
        -11   -1    0    0    0    0  0.00000000000E+00  0.00000000000E+00  0.45593999997E+02  0.45594000000E+02  0.51100000000E-03 0. -1.
         11   -1    0    0    0    0 -0.00000000000E+00 -0.00000000000E+00 -0.45593999997E+02  0.45594000000E+02  0.51100000000E-03 0.  1.
         23    2    1    2    0    0  0.00000000000E+00 -0.35527136788E-14 -0.71054273576E-14  0.91188000000E+02  0.91188000000E+02 0.  0.
    9900012    2    3    3    0    0 -0.16846331101E+02 -0.21626030288E+02 -0.33647276738E+02  0.47787270865E+02  0.19999999181E+02 0.  0.
         12    1    3    3    0    0  0.16846331101E+02  0.21626030288E+02  0.33647276738E+02  0.43400729135E+02  0.00000000000E+00 0. -1.
         11    1    4    4    0    0 -0.12695849081E+02 -0.16286970247E+02 -0.19274364740E+02  0.28248028606E+02  0.51100000000E-03 0. -1.
        -11    1    4    4    0    0  0.12282364662E+01 -0.69504693288E+01 -0.10739601644E+02  0.12851328042E+02  0.51100000000E-03 0.  1.
         12    1    4    4    0    0 -0.53787184857E+01  0.16114092882E+01 -0.36333103533E+01  0.66879142164E+01  0.00000000000E+00 0. -1.
</event>
<event>
 8    1  0.6046524E-010  0.9118800E+02  0.7816164E-02  0.1184000E+00
        -11   -1    0    0    0    0  0.00000000000E+00  0.00000000000E+00  0.45593999997E+02  0.45594000000E+02  0.51100000000E-03 0. -1.
         11   -1    0    0    0    0 -0.00000000000E+00 -0.00000000000E+00 -0.45593999997E+02  0.45594000000E+02  0.51100000000E-03 0.  1.
         23    2    1    2    0    0  0.00000000000E+00  0.00000000000E+00  0.00000000000E+00  0.91188000000E+02  0.91188000000E+02 0.  0.
    9900012    2    3    3    0    0 -0.95377788080E+01 -0.95985876994E+01 -0.41237372394E+02  0.47787274288E+02  0.20000014788E+02 0.  0.
         12    1    3    3    0    0  0.95377788080E+01  0.95985876994E+01  0.41237372394E+02  0.43400725712E+02  0.00000000000E+00 0. -1.
         11    1    4    4    0    0 -0.39243310629E+01 -0.70050740567E+01 -0.53359381417E+01  0.96407298969E+01  0.51100000000E-03 0. -1.
        -11    1    4    4    0    0 -0.75891245332E+01  0.13580429513E+01 -0.15999564309E+02  0.17760212560E+02  0.51100000000E-03 0.  1.
        -12    1    4    4    0    0  0.19756767881E+01 -0.39515565940E+01 -0.19901869943E+02  0.20386331831E+02  0.00000000000E+00 0.  1.
</event>
<event>
 8    1  0.6046524E-010  0.9118800E+02  0.7816164E-02  0.1184000E+00
        -11   -1    0    0    0    0  0.00000000000E+00  0.00000000000E+00  0.45593999997E+02  0.45594000000E+02  0.51100000000E-03 0. -1.
         11   -1    0    0    0    0 -0.00000000000E+00 -0.00000000000E+00 -0.45593999997E+02  0.45594000000E+02  0.51100000000E-03 0.  1.
         23    2    1    2    0    0  0.00000000000E+00  0.35527136788E-14 -0.35527136788E-14  0.91188000000E+02  0.91188000000E+02 0.  0.
    9900012    2    3    3    0    0 -0.36179205041E+02 -0.16966424546E+02  0.16936021268E+02  0.47787271254E+02  0.20000000957E+02 0.  0.
        -12    1    3    3    0    0  0.36179205041E+02  0.16966424546E+02 -0.16936021268E+02  0.43400728746E+02  0.00000000000E+00 0.  1.
         11    1    4    4    0    0 -0.22958166964E+02 -0.17479320840E+02  0.13058156299E+02  0.31672062351E+02  0.51100000000E-03 0. -1.
        -11    1    4    4    0    0 -0.13860835810E+02 -0.79614434809E+00  0.24943511358E+01  0.14105970474E+02  0.51100000000E-03 0.  1.
        -12    1    4    4    0    0  0.63979773245E+00  0.13090406418E+01  0.13835138327E+01  0.20092384292E+01  0.00000000000E+00 0.  1.
</event>
<event>
 8    1  0.6046524E-010  0.9118800E+02  0.7816164E-02  0.1184000E+00
        -11   -1    0    0    0    0  0.00000000000E+00  0.00000000000E+00  0.45593999997E+02  0.45594000000E+02  0.51100000000E-03 0. -1.
         11   -1    0    0    0    0 -0.00000000000E+00 -0.00000000000E+00 -0.45593999997E+02  0.45594000000E+02  0.51100000000E-03 0.  1.
         23    2    1    2    0    0  0.00000000000E+00  0.35527136788E-14  0.00000000000E+00  0.91188000000E+02  0.91188000000E+02 0.  0.
    9900012    2    3    3    0    0 -0.61368836337E+01 -0.24829190115E+02 -0.35063842329E+02  0.47787273492E+02  0.20000011161E+02 0.  0.
         12    1    3    3    0    0  0.61368836337E+01  0.24829190115E+02  0.35063842329E+02  0.43400726508E+02  0.00000000000E+00 0. -1.
         11    1    4    4    0    0 -0.39058428038E+01 -0.18836653554E+02 -0.12644100997E+02  0.23020608493E+02  0.51100000000E-03 0. -1.
        -11    1    4    4    0    0 -0.45350672427E+01 -0.64712706130E+01 -0.14610512908E+02  0.16610576929E+02  0.51100000000E-03 0.  1.
        -12    1    4    4    0    0  0.23040264128E+01  0.47873405245E+00 -0.78092284251E+01  0.81560880696E+01  0.00000000000E+00 0.  1.
</event>
<event>
 8    1  0.6046524E-010  0.9118800E+02  0.7816164E-02  0.1184000E+00
        -11   -1    0    0    0    0  0.00000000000E+00  0.00000000000E+00  0.45593999997E+02  0.45594000000E+02  0.51100000000E-03 0.  1.
         11   -1    0    0    0    0 -0.00000000000E+00 -0.00000000000E+00 -0.45593999997E+02  0.45594000000E+02  0.51100000000E-03 0. -1.
         23    2    1    2    0    0  0.00000000000E+00 -0.71054273576E-14 -0.17763568394E-14  0.91188000000E+02  0.91188000000E+02 0.  0.
    9900012    2    3    3    0    0  0.16753975559E+02 -0.38565236990E+02 -0.10754077331E+02  0.47787269818E+02  0.19999994408E+02 0.  0.
         12    1    3    3    0    0 -0.16753975559E+02  0.38565236990E+02  0.10754077331E+02  0.43400730182E+02  0.00000000000E+00 0. -1.
         11    1    4    4    0    0  0.46754546518E+01 -0.31720028576E+01  0.19248166464E+00  0.56531874002E+01  0.51100000000E-03 0.  1.
        -11    1    4    4    0    0  0.16087493252E+01  0.32789129873E+00  0.21218419945E+01  0.26828717461E+01  0.51100000000E-03 0. -1.
        -12    1    4    4    0    0  0.10469771582E+02 -0.35721125431E+02 -0.13068400990E+02  0.39451210672E+02  0.00000000000E+00 0.  1.
</event>
<event>
 8    1  0.6046524E-010  0.9118800E+02  0.7816164E-02  0.1184000E+00
        -11   -1    0    0    0    0  0.00000000000E+00  0.00000000000E+00  0.45593999997E+02  0.45594000000E+02  0.51100000000E-03 0. -1.
         11   -1    0    0    0    0 -0.00000000000E+00 -0.00000000000E+00 -0.45593999997E+02  0.45594000000E+02  0.51100000000E-03 0.  1.
         23    2    1    2    0    0  0.00000000000E+00  0.00000000000E+00  0.00000000000E+00  0.91188000000E+02  0.91188000000E+02 0.  0.
    9900012    2    3    3    0    0 -0.17317930212E+02  0.22396909558E+02  0.32895147478E+02  0.47787274290E+02  0.20000014798E+02 0.  0.
        -12    1    3    3    0    0  0.17317930212E+02 -0.22396909558E+02 -0.32895147478E+02  0.43400725710E+02  0.00000000000E+00 0.  1.
         11    1    4    4    0    0 -0.40357670676E+01  0.29045180483E+01  0.14145043939E+02  0.14993528912E+02  0.51100000000E-03 0. -1.
        -11    1    4    4    0    0  0.72910330020E-01  0.34310993590E+01 -0.14593273867E+01  0.37292620463E+01  0.51100000000E-03 0.  1.
         12    1    4    4    0    0 -0.13355073474E+02  0.16061292151E+02  0.20209430925E+02  0.29064483332E+02  0.00000000000E+00 0. -1.
</event>
<event>
 8    1  0.6046524E-010  0.9118800E+02  0.7816164E-02  0.1184000E+00
        -11   -1    0    0    0    0  0.00000000000E+00  0.00000000000E+00  0.45593999997E+02  0.45594000000E+02  0.51100000000E-03 0. -1.
         11   -1    0    0    0    0 -0.00000000000E+00 -0.00000000000E+00 -0.45593999997E+02  0.45594000000E+02  0.51100000000E-03 0.  1.
         23    2    1    2    0    0  0.00000000000E+00 -0.88817841970E-15  0.00000000000E+00  0.91188000000E+02  0.91188000000E+02 0.  0.
    9900012    2    3    3    0    0  0.21938288079E+02  0.40813318319E+01 -0.37224691040E+02  0.47787269863E+02  0.19999994614E+02 0.  0.
         12    1    3    3    0    0 -0.21938288079E+02 -0.40813318319E+01  0.37224691040E+02  0.43400730137E+02  0.00000000000E+00 0. -1.
         11    1    4    4    0    0 -0.13261614481E+01  0.21484175340E+01 -0.77012115525E+01  0.81045087282E+01  0.51100000000E-03 0. -1.
        -11    1    4    4    0    0  0.15091247878E+02  0.63749115901E+01 -0.23329329160E+02  0.28506891441E+02  0.51100000000E-03 0.  1.
        -12    1    4    4    0    0  0.81732016489E+01 -0.44419972922E+01 -0.61941503274E+01  0.11175869694E+02  0.00000000000E+00 0.  1.
</event>
<event>
 8    1  0.6046524E-010  0.9118800E+02  0.7816164E-02  0.1184000E+00
        -11   -1    0    0    0    0  0.00000000000E+00  0.00000000000E+00  0.45593999997E+02  0.45594000000E+02  0.51100000000E-03 0. -1.
         11   -1    0    0    0    0 -0.00000000000E+00 -0.00000000000E+00 -0.45593999997E+02  0.45594000000E+02  0.51100000000E-03 0.  1.
         23    2    1    2    0    0  0.00000000000E+00  0.00000000000E+00  0.00000000000E+00  0.91188000000E+02  0.91188000000E+02 0.  0.
    9900012    2    3    3    0    0  0.34182294297E+02 -0.89551717695E+01  0.25199186941E+02  0.47787269968E+02  0.19999995094E+02 0.  0.
        -12    1    3    3    0    0 -0.34182294297E+02  0.89551717695E+01 -0.25199186941E+02  0.43400730032E+02  0.00000000000E+00 0.  1.
         11    1    4    4    0    0  0.19555428520E+02  0.30990530021E+01  0.93202487399E+01  0.21883462956E+02  0.51100000000E-03 0.  1.
        -11    1    4    4    0    0  0.10301936359E+02 -0.54507480982E+01  0.13102269252E+02  0.17535963258E+02  0.51100000000E-03 0. -1.
        -12    1    4    4    0    0  0.43249294172E+01 -0.66034766734E+01  0.27766689489E+01  0.83678437540E+01  0.00000000000E+00 0.  1.
</event>
<event>
 8    1  0.6046524E-010  0.9118800E+02  0.7816164E-02  0.1184000E+00
        -11   -1    0    0    0    0  0.00000000000E+00  0.00000000000E+00  0.45593999997E+02  0.45594000000E+02  0.51100000000E-03 0. -1.
         11   -1    0    0    0    0 -0.00000000000E+00 -0.00000000000E+00 -0.45593999997E+02  0.45594000000E+02  0.51100000000E-03 0.  1.
         23    2    1    2    0    0  0.00000000000E+00  0.17763568394E-14  0.35527136788E-14  0.91188000000E+02  0.91188000000E+02 0.  0.
    9900012    2    3    3    0    0 -0.27303204534E+02  0.12259439543E+02 -0.31430313935E+02  0.47787268788E+02  0.19999989711E+02 0.  0.
         12    1    3    3    0    0  0.27303204534E+02 -0.12259439543E+02  0.31430313935E+02  0.43400731212E+02  0.00000000000E+00 0. -1.
         11    1    4    4    0    0 -0.71948119998E+00 -0.35966593913E+01 -0.67177834350E+01  0.76539026983E+01  0.51100000000E-03 0. -1.
        -11    1    4    4    0    0 -0.14718586785E+02  0.63217607853E+01 -0.15774560968E+02  0.22481953438E+02  0.51100000000E-03 0.  1.
        -12    1    4    4    0    0 -0.11865136549E+02  0.95343381486E+01 -0.89379695314E+01  0.17651412652E+02  0.00000000000E+00 0.  1.
</event>
<event>
 8    1  0.6046524E-010  0.9118800E+02  0.7816164E-02  0.1184000E+00
        -11   -1    0    0    0    0  0.00000000000E+00  0.00000000000E+00  0.45593999997E+02  0.45594000000E+02  0.51100000000E-03 0. -1.
         11   -1    0    0    0    0 -0.00000000000E+00 -0.00000000000E+00 -0.45593999997E+02  0.45594000000E+02  0.51100000000E-03 0.  1.
         23    2    1    2    0    0  0.00000000000E+00  0.00000000000E+00  0.71054273576E-14  0.91188000000E+02  0.91188000000E+02 0.  0.
    9900012    2    3    3    0    0  0.92980416304E+01 -0.27215889710E+02  0.32503307375E+02  0.47787271651E+02  0.20000002768E+02 0.  0.
        -12    1    3    3    0    0 -0.92980416304E+01  0.27215889710E+02 -0.32503307375E+02  0.43400728349E+02  0.00000000000E+00 0.  1.
         11    1    4    4    0    0  0.55935434262E+01 -0.13562697649E+02  0.11823954202E+02  0.18842515458E+02  0.51100000000E-03 0. -1.
        -11    1    4    4    0    0  0.22133656197E+01 -0.65826202016E+01  0.20577639152E+02  0.21717944410E+02  0.51100000000E-03 0.  1.
        -12    1    4    4    0    0  0.14911325845E+01 -0.70705718592E+01  0.10171402177E+00  0.72268117827E+01  0.00000000000E+00 0.  1.
</event>
<event>
 8    1  0.6046524E-010  0.9118800E+02  0.7816164E-02  0.1184000E+00
        -11   -1    0    0    0    0  0.00000000000E+00  0.00000000000E+00  0.45593999997E+02  0.45594000000E+02  0.51100000000E-03 0. -1.
         11   -1    0    0    0    0 -0.00000000000E+00 -0.00000000000E+00 -0.45593999997E+02  0.45594000000E+02  0.51100000000E-03 0.  1.
         23    2    1    2    0    0  0.00000000000E+00 -0.88817841970E-15  0.00000000000E+00  0.91188000000E+02  0.91188000000E+02 0.  0.
    9900012    2    3    3    0    0  0.16330743837E+02  0.36130276053E+01 -0.40048418522E+02  0.47787274328E+02  0.20000014971E+02 0.  0.
         12    1    3    3    0    0 -0.16330743837E+02 -0.36130276053E+01  0.40048418522E+02  0.43400725672E+02  0.00000000000E+00 0. -1.
         11    1    4    4    0    0  0.38747558999E+01  0.93902686254E+01 -0.10406240791E+02  0.14542376897E+02  0.51100000000E-03 0. -1.
        -11    1    4    4    0    0  0.40527917383E+01 -0.17337223349E+01 -0.16833605052E+02  0.17401183101E+02  0.51100000000E-03 0.  1.
         12    1    4    4    0    0  0.84031961983E+01 -0.40435186852E+01 -0.12808572679E+02  0.15843714330E+02  0.00000000000E+00 0. -1.
</event>
<event>
 8    1  0.6046524E-010  0.9118800E+02  0.7816164E-02  0.1184000E+00
        -11   -1    0    0    0    0  0.00000000000E+00  0.00000000000E+00  0.45593999997E+02  0.45594000000E+02  0.51100000000E-03 0. -1.
         11   -1    0    0    0    0 -0.00000000000E+00 -0.00000000000E+00 -0.45593999997E+02  0.45594000000E+02  0.51100000000E-03 0.  1.
         23    2    1    2    0    0  0.00000000000E+00 -0.44408920985E-15  0.71054273576E-14  0.91188000000E+02  0.91188000000E+02 0.  0.
    9900012    2    3    3    0    0 -0.20290634045E+02  0.30213727774E+01 -0.38246368566E+02  0.47787271529E+02  0.20000002207E+02 0.  0.
         12    1    3    3    0    0  0.20290634045E+02 -0.30213727774E+01  0.38246368566E+02  0.43400728471E+02  0.00000000000E+00 0. -1.
         11    1    4    4    0    0 -0.10294543039E+02 -0.13871942982E+01 -0.27510189017E+02  0.29405993002E+02  0.51100000000E-03 0. -1.
        -11    1    4    4    0    0 -0.56895830906E+01  0.70220985306E+01 -0.96627908991E+01  0.13230674652E+02  0.51100000000E-03 0.  1.
         12    1    4    4    0    0 -0.43065079147E+01 -0.26135314551E+01 -0.10733886499E+01  0.51506038752E+01  0.00000000000E+00 0. -1.
</event>
<event>
 8    1  0.6046524E-010  0.9118800E+02  0.7816164E-02  0.1184000E+00
        -11   -1    0    0    0    0  0.00000000000E+00  0.00000000000E+00  0.45593999997E+02  0.45594000000E+02  0.51100000000E-03 0. -1.
         11   -1    0    0    0    0 -0.00000000000E+00 -0.00000000000E+00 -0.45593999997E+02  0.45594000000E+02  0.51100000000E-03 0.  1.
         23    2    1    2    0    0  0.00000000000E+00 -0.11102230246E-14  0.00000000000E+00  0.91188000000E+02  0.91188000000E+02 0.  0.
    9900012    2    3    3    0    0  0.15495637338E+01  0.12422829782E+01 -0.43355260685E+02  0.47787273695E+02  0.20000012084E+02 0.  0.
         12    1    3    3    0    0 -0.15495637338E+01 -0.12422829782E+01  0.43355260685E+02  0.43400726305E+02  0.00000000000E+00 0. -1.
         11    1    4    4    0    0 -0.11909412443E+01  0.91982728280E+01 -0.11438266274E+02  0.14726184152E+02  0.51100000000E-03 0. -1.
        -11    1    4    4    0    0  0.21190981267E+01 -0.34970027345E+01 -0.13795724932E+02  0.14388941298E+02  0.51100000000E-03 0.  1.
         12    1    4    4    0    0  0.62140685132E+00 -0.44589871153E+01 -0.18121269479E+02  0.18672148245E+02  0.00000000000E+00 0. -1.
</event>
<event>
 8    1  0.6046524E-010  0.9118800E+02  0.7816164E-02  0.1184000E+00
        -11   -1    0    0    0    0  0.00000000000E+00  0.00000000000E+00  0.45593999997E+02  0.45594000000E+02  0.51100000000E-03 0. -1.
         11   -1    0    0    0    0 -0.00000000000E+00 -0.00000000000E+00 -0.45593999997E+02  0.45594000000E+02  0.51100000000E-03 0.  1.
         23    2    1    2    0    0  0.00000000000E+00  0.71054273576E-14 -0.35527136788E-14  0.91188000000E+02  0.91188000000E+02 0.  0.
    9900012    2    3    3    0    0  0.48573018838E+01  0.40043037541E+02 -0.16018258476E+02  0.47787276023E+02  0.20000022702E+02 0.  0.
         12    1    3    3    0    0 -0.48573018838E+01 -0.40043037541E+02  0.16018258476E+02  0.43400723977E+02  0.00000000000E+00 0. -1.
         11    1    4    4    0    0 -0.17297179057E+01  0.99701974007E+01  0.15732813715E-01  0.10119140676E+02  0.51100000000E-03 0. -1.
        -11    1    4    4    0    0  0.35106583769E+01  0.28291337152E+02 -0.17891093129E+02  0.33657327489E+02  0.51100000000E-03 0.  1.
         12    1    4    4    0    0  0.30763614126E+01  0.17815029884E+01  0.18571018391E+01  0.40108078587E+01  0.00000000000E+00 0. -1.
</event>
<event>
 8    1  0.6046524E-010  0.9118800E+02  0.7816164E-02  0.1184000E+00
        -11   -1    0    0    0    0  0.00000000000E+00  0.00000000000E+00  0.45593999997E+02  0.45594000000E+02  0.51100000000E-03 0. -1.
         11   -1    0    0    0    0 -0.00000000000E+00 -0.00000000000E+00 -0.45593999997E+02  0.45594000000E+02  0.51100000000E-03 0.  1.
         23    2    1    2    0    0 -0.88817841970E-15  0.00000000000E+00  0.00000000000E+00  0.91188000000E+02  0.91188000000E+02 0.  0.
    9900012    2    3    3    0    0 -0.72261441715E+01  0.44004913894E+01  0.42568085712E+02  0.47787269531E+02  0.19999993100E+02 0.  0.
        -12    1    3    3    0    0  0.72261441715E+01 -0.44004913894E+01 -0.42568085712E+02  0.43400730469E+02  0.00000000000E+00 0.  1.
         11    1    4    4    0    0  0.36334785546E+01 -0.92340023487E+00  0.43248579307E+01  0.57235680116E+01  0.51100000000E-03 0. -1.
        -11    1    4    4    0    0 -0.64789364589E+01 -0.37146975662E+01  0.15895837628E+02  0.17562837179E+02  0.51100000000E-03 0.  1.
         12    1    4    4    0    0 -0.43806862673E+01  0.90385891905E+01  0.22347390154E+02  0.24500864340E+02  0.00000000000E+00 0. -1.
</event>
<event>
 8    1  0.6046524E-010  0.9118800E+02  0.7816164E-02  0.1184000E+00
        -11   -1    0    0    0    0  0.00000000000E+00  0.00000000000E+00  0.45593999997E+02  0.45594000000E+02  0.51100000000E-03 0. -1.
         11   -1    0    0    0    0 -0.00000000000E+00 -0.00000000000E+00 -0.45593999997E+02  0.45594000000E+02  0.51100000000E-03 0.  1.
         23    2    1    2    0    0  0.22204460493E-15  0.17763568394E-14  0.00000000000E+00  0.91188000000E+02  0.91188000000E+02 0.  0.
    9900012    2    3    3    0    0  0.16082011221E+01  0.13770048516E+02 -0.41126910848E+02  0.47787270249E+02  0.19999996375E+02 0.  0.
         12    1    3    3    0    0 -0.16082011221E+01 -0.13770048516E+02  0.41126910848E+02  0.43400729751E+02  0.00000000000E+00 0. -1.
         11    1    4    4    0    0 -0.49022566858E+00 -0.48006452916E+01 -0.11116197510E+02  0.12118430747E+02  0.51100000000E-03 0.  1.
        -11    1    4    4    0    0 -0.12146901423E+01  0.65916887867E+01 -0.12674891395E+02  0.14338016088E+02  0.51100000000E-03 0. -1.
        -12    1    4    4    0    0  0.33131169330E+01  0.11979005021E+02 -0.17335821943E+02  0.21330823415E+02  0.00000000000E+00 0.  1.
</event>
<event>
 8    1  0.6046524E-010  0.9118800E+02  0.7816164E-02  0.1184000E+00
        -11   -1    0    0    0    0  0.00000000000E+00  0.00000000000E+00  0.45593999997E+02  0.45594000000E+02  0.51100000000E-03 0. -1.
         11   -1    0    0    0    0 -0.00000000000E+00 -0.00000000000E+00 -0.45593999997E+02  0.45594000000E+02  0.51100000000E-03 0.  1.
         23    2    1    2    0    0  0.00000000000E+00  0.35527136788E-14  0.00000000000E+00  0.91188000000E+02  0.91188000000E+02 0.  0.
    9900012    2    3    3    0    0 -0.36513512433E+02  0.22275543309E+02 -0.73612271901E+01  0.47787261692E+02  0.19999957360E+02 0.  0.
        -12    1    3    3    0    0  0.36513512433E+02 -0.22275543309E+02  0.73612271901E+01  0.43400738308E+02  0.00000000000E+00 0.  1.
         11    1    4    4    0    0 -0.19537792118E+02  0.20938152126E+02 -0.18001085375E+01  0.28694458112E+02  0.51100000000E-03 0. -1.
        -11    1    4    4    0    0 -0.57375676951E+01  0.27152624336E+01  0.27757956772E+00  0.63536905667E+01  0.51100000000E-03 0.  1.
        -12    1    4    4    0    0 -0.11238152619E+02 -0.13778712504E+01 -0.58386982203E+01  0.12739113014E+02  0.00000000000E+00 0.  1.
</event>
<event>
 8    1  0.6046524E-010  0.9118800E+02  0.7816164E-02  0.1184000E+00
        -11   -1    0    0    0    0  0.00000000000E+00  0.00000000000E+00  0.45593999997E+02  0.45594000000E+02  0.51100000000E-03 0. -1.
         11   -1    0    0    0    0 -0.00000000000E+00 -0.00000000000E+00 -0.45593999997E+02  0.45594000000E+02  0.51100000000E-03 0.  1.
         23    2    1    2    0    0  0.00000000000E+00  0.00000000000E+00  0.00000000000E+00  0.91188000000E+02  0.91188000000E+02 0.  0.
    9900012    2    3    3    0    0 -0.10909755893E+02  0.26599905942E+02 -0.32512239972E+02  0.47787268235E+02  0.19999987191E+02 0.  0.
         12    1    3    3    0    0  0.10909755893E+02 -0.26599905942E+02  0.32512239972E+02  0.43400731765E+02  0.00000000000E+00 0. -1.
         11    1    4    4    0    0 -0.61532303019E+01  0.26728300367E+01 -0.25112681969E+01  0.71632905686E+01  0.51100000000E-03 0. -1.
        -11    1    4    4    0    0 -0.36556675053E+01  0.25519274666E+00 -0.34075774920E+01  0.50040596392E+01  0.51100000000E-03 0.  1.
        -12    1    4    4    0    0 -0.11008580856E+01  0.23671883159E+02 -0.26593394283E+02  0.35619918027E+02  0.00000000000E+00 0.  1.
</event>
<event>
 8    1  0.6046524E-010  0.9118800E+02  0.7816164E-02  0.1184000E+00
        -11   -1    0    0    0    0  0.00000000000E+00  0.00000000000E+00  0.45593999997E+02  0.45594000000E+02  0.51100000000E-03 0. -1.
         11   -1    0    0    0    0 -0.00000000000E+00 -0.00000000000E+00 -0.45593999997E+02  0.45594000000E+02  0.51100000000E-03 0.  1.
         23    2    1    2    0    0  0.00000000000E+00  0.00000000000E+00  0.00000000000E+00  0.91188000000E+02  0.91188000000E+02 0.  0.
    9900012    2    3    3    0    0  0.16227998796E+02  0.24576120713E+02 -0.31879350734E+02  0.47787232064E+02  0.19999822272E+02 0.  0.
         12    1    3    3    0    0 -0.16227998796E+02 -0.24576120713E+02  0.31879350734E+02  0.43400767936E+02  0.00000000000E+00 0. -1.
         11    1    4    4    0    0  0.13754542838E+01  0.79123172712E+01 -0.11410976624E+02  0.13953745980E+02  0.51100000000E-03 0. -1.
        -11    1    4    4    0    0 -0.24109876365E+01  0.52687286818E+01 -0.72690323090E+01  0.92957621676E+01  0.51100000000E-03 0.  1.
        -12    1    4    4    0    0  0.17263532149E+02  0.11395074760E+02 -0.13199341801E+02  0.24537723917E+02  0.00000000000E+00 0.  1.
</event>
<event>
 8    1  0.6046524E-010  0.9118800E+02  0.7816164E-02  0.1184000E+00
        -11   -1    0    0    0    0  0.00000000000E+00  0.00000000000E+00  0.45593999997E+02  0.45594000000E+02  0.51100000000E-03 0. -1.
         11   -1    0    0    0    0 -0.00000000000E+00 -0.00000000000E+00 -0.45593999997E+02  0.45594000000E+02  0.51100000000E-03 0.  1.
         23    2    1    2    0    0  0.71054273576E-14 -0.44408920985E-15  0.35527136788E-14  0.91188000000E+02  0.91188000000E+02 0.  0.
    9900012    2    3    3    0    0  0.33875847847E+02  0.34950386952E+01  0.26904181811E+02  0.47787270032E+02  0.19999995385E+02 0.  0.
        -12    1    3    3    0    0 -0.33875847847E+02 -0.34950386952E+01 -0.26904181811E+02  0.43400729968E+02  0.00000000000E+00 0.  1.
         11    1    4    4    0    0  0.49267219802E+01  0.66110029423E+01  0.90571038128E+01  0.12247819361E+02  0.51100000000E-03 0.  1.
        -11    1    4    4    0    0  0.18403231038E+02 -0.25596200460E+00  0.16141229706E+02  0.24480272177E+02  0.51100000000E-03 0. -1.
         12    1    4    4    0    0  0.10545894828E+02 -0.28600022425E+01  0.17058482927E+01  0.11059178493E+02  0.00000000000E+00 0. -1.
</event>
<event>
 8    1  0.6046524E-010  0.9118800E+02  0.7816164E-02  0.1184000E+00
        -11   -1    0    0    0    0  0.00000000000E+00  0.00000000000E+00  0.45593999997E+02  0.45594000000E+02  0.51100000000E-03 0. -1.
         11   -1    0    0    0    0 -0.00000000000E+00 -0.00000000000E+00 -0.45593999997E+02  0.45594000000E+02  0.51100000000E-03 0.  1.
         23    2    1    2    0    0 -0.44408920985E-15  0.00000000000E+00  0.71054273576E-14  0.91188000000E+02  0.91188000000E+02 0.  0.
    9900012    2    3    3    0    0 -0.24333594596E+01 -0.11823441584E+02  0.41688222955E+02  0.47787274864E+02  0.20000017417E+02 0.  0.
        -12    1    3    3    0    0  0.24333594596E+01  0.11823441584E+02 -0.41688222955E+02  0.43400725136E+02  0.00000000000E+00 0.  1.
         11    1    4    4    0    0 -0.39195176815E+01  0.98806267304E-01  0.13842373641E+02  0.14386927741E+02  0.51100000000E-03 0.  1.
        -11    1    4    4    0    0  0.29375654319E+01 -0.14236825726E+02  0.26773663819E+02  0.30465481647E+02  0.51100000000E-03 0. -1.
         12    1    4    4    0    0 -0.14514072100E+01  0.23145778755E+01  0.10721854949E+01  0.29348654767E+01  0.00000000000E+00 0. -1.
</event>
<event>
 8    1  0.6046524E-010  0.9118800E+02  0.7816164E-02  0.1184000E+00
        -11   -1    0    0    0    0  0.00000000000E+00  0.00000000000E+00  0.45593999997E+02  0.45594000000E+02  0.51100000000E-03 0.  1.
         11   -1    0    0    0    0 -0.00000000000E+00 -0.00000000000E+00 -0.45593999997E+02  0.45594000000E+02  0.51100000000E-03 0. -1.
         23    2    1    2    0    0 -0.71054273576E-14  0.00000000000E+00 -0.44408920985E-15  0.91188000000E+02  0.91188000000E+02 0.  0.
    9900012    2    3    3    0    0 -0.40832103860E+02  0.14157376082E+02 -0.39913763543E+01  0.47787273182E+02  0.20000009744E+02 0.  0.
         12    1    3    3    0    0  0.40832103860E+02 -0.14157376082E+02  0.39913763543E+01  0.43400726818E+02  0.00000000000E+00 0. -1.
         11    1    4    4    0    0 -0.11864532461E+02  0.52975370283E+01  0.33178361073E+00  0.12997734792E+02  0.51100000000E-03 0.  1.
        -11    1    4    4    0    0 -0.27425993809E+02  0.21451464513E+01 -0.22824989487E+01  0.27604285743E+02  0.51100000000E-03 0. -1.
         12    1    4    4    0    0 -0.15415775901E+01  0.67146926023E+01 -0.20406610163E+01  0.71852526464E+01  0.00000000000E+00 0. -1.
</event>
<event>
 8    1  0.6046524E-010  0.9118800E+02  0.7816164E-02  0.1184000E+00
        -11   -1    0    0    0    0  0.00000000000E+00  0.00000000000E+00  0.45593999997E+02  0.45594000000E+02  0.51100000000E-03 0. -1.
         11   -1    0    0    0    0 -0.00000000000E+00 -0.00000000000E+00 -0.45593999997E+02  0.45594000000E+02  0.51100000000E-03 0.  1.
         23    2    1    2    0    0  0.35527136788E-14  0.00000000000E+00 -0.17763568394E-14  0.91188000000E+02  0.91188000000E+02 0.  0.
    9900012    2    3    3    0    0 -0.25926945967E+02 -0.31481615393E+02  0.14843408128E+02  0.47787246553E+02  0.19999888333E+02 0.  0.
        -12    1    3    3    0    0  0.25926945967E+02  0.31481615393E+02 -0.14843408128E+02  0.43400753447E+02  0.00000000000E+00 0.  1.
         11    1    4    4    0    0 -0.14568498118E+02 -0.23948323147E+02  0.17211902686E+02  0.32893964694E+02  0.51100000000E-03 0. -1.
        -11    1    4    4    0    0 -0.33461037493E+00 -0.65543940185E+00 -0.17347413205E+01  0.18843812307E+01  0.51100000000E-03 0.  1.
         12    1    4    4    0    0 -0.11023837473E+02 -0.68778528440E+01 -0.63375323692E+00  0.13008900628E+02  0.00000000000E+00 0. -1.
</event>
<event>
 8    1  0.6046524E-010  0.9118800E+02  0.7816164E-02  0.1184000E+00
        -11   -1    0    0    0    0  0.00000000000E+00  0.00000000000E+00  0.45593999997E+02  0.45594000000E+02  0.51100000000E-03 0. -1.
         11   -1    0    0    0    0 -0.00000000000E+00 -0.00000000000E+00 -0.45593999997E+02  0.45594000000E+02  0.51100000000E-03 0.  1.
         23    2    1    2    0    0  0.00000000000E+00  0.00000000000E+00  0.00000000000E+00  0.91188000000E+02  0.91188000000E+02 0.  0.
    9900012    2    3    3    0    0 -0.50243426966E+01 -0.40062155741E+01  0.42922363830E+02  0.47787273053E+02  0.20000009160E+02 0.  0.
        -12    1    3    3    0    0  0.50243426966E+01  0.40062155741E+01 -0.42922363830E+02  0.43400726947E+02  0.00000000000E+00 0.  1.
         11    1    4    4    0    0  0.55856875866E+00 -0.23941313384E+01  0.23432027838E+02  0.23560640755E+02  0.51100000000E-03 0. -1.
        -11    1    4    4    0    0  0.34952574245E+01  0.10948749307E+01  0.16290518847E+01  0.40086638524E+01  0.51100000000E-03 0.  1.
         12    1    4    4    0    0 -0.90781688797E+01 -0.27069591664E+01  0.17861284107E+02  0.20217968446E+02  0.00000000000E+00 0. -1.
</event>
<event>
 8    1  0.6046524E-010  0.9118800E+02  0.7816164E-02  0.1184000E+00
        -11   -1    0    0    0    0  0.00000000000E+00  0.00000000000E+00  0.45593999997E+02  0.45594000000E+02  0.51100000000E-03 0. -1.
         11   -1    0    0    0    0 -0.00000000000E+00 -0.00000000000E+00 -0.45593999997E+02  0.45594000000E+02  0.51100000000E-03 0.  1.
         23    2    1    2    0    0  0.00000000000E+00 -0.17763568394E-14  0.00000000000E+00  0.91188000000E+02  0.91188000000E+02 0.  0.
    9900012    2    3    3    0    0  0.61922517551E+01 -0.10461963983E+02  0.41663247483E+02  0.47787275778E+02  0.20000021580E+02 0.  0.
        -12    1    3    3    0    0 -0.61922517551E+01  0.10461963983E+02 -0.41663247483E+02  0.43400724222E+02  0.00000000000E+00 0.  1.
         11    1    4    4    0    0  0.32894074151E+01 -0.21798098370E+01  0.23670827627E+02  0.23997496804E+02  0.51100000000E-03 0. -1.
        -11    1    4    4    0    0 -0.44176446724E+01 -0.67358593892E+01  0.86357811426E+01  0.11809492045E+02  0.51100000000E-03 0.  1.
         12    1    4    4    0    0  0.73204890124E+01 -0.15462947566E+01  0.93566387139E+01  0.11980286928E+02  0.00000000000E+00 0. -1.
</event>
<event>
 8    1  0.6046524E-010  0.9118800E+02  0.7816164E-02  0.1184000E+00
        -11   -1    0    0    0    0  0.00000000000E+00  0.00000000000E+00  0.45593999997E+02  0.45594000000E+02  0.51100000000E-03 0. -1.
         11   -1    0    0    0    0 -0.00000000000E+00 -0.00000000000E+00 -0.45593999997E+02  0.45594000000E+02  0.51100000000E-03 0.  1.
         23    2    1    2    0    0 -0.35527136788E-14 -0.35527136788E-14 -0.35527136788E-14  0.91188000000E+02  0.91188000000E+02 0.  0.
    9900012    2    3    3    0    0  0.19418767393E+02 -0.26675998864E+02  0.28194429349E+02  0.47787270873E+02  0.19999999219E+02 0.  0.
        -12    1    3    3    0    0 -0.19418767393E+02  0.26675998864E+02 -0.28194429349E+02  0.43400729127E+02  0.00000000000E+00 0.  1.
         11    1    4    4    0    0  0.96179376460E+01 -0.18830086577E+02  0.10102379763E+02  0.23433628874E+02  0.51100000000E-03 0. -1.
        -11    1    4    4    0    0  0.10320064452E+02 -0.35603749934E+01  0.85029300310E+01  0.13837623342E+02  0.51100000000E-03 0.  1.
        -12    1    4    4    0    0 -0.51923470466E+00 -0.42855372936E+01  0.95891195543E+01  0.10516018657E+02  0.00000000000E+00 0.  1.
</event>
<event>
 8    1  0.6046524E-010  0.9118800E+02  0.7816164E-02  0.1184000E+00
        -11   -1    0    0    0    0  0.00000000000E+00  0.00000000000E+00  0.45593999997E+02  0.45594000000E+02  0.51100000000E-03 0. -1.
         11   -1    0    0    0    0 -0.00000000000E+00 -0.00000000000E+00 -0.45593999997E+02  0.45594000000E+02  0.51100000000E-03 0.  1.
         23    2    1    2    0    0  0.00000000000E+00  0.17763568394E-14 -0.35527136788E-14  0.91188000000E+02  0.91188000000E+02 0.  0.
    9900012    2    3    3    0    0 -0.37802691297E+02 -0.10470351757E+02  0.18572866919E+02  0.47787272808E+02  0.20000008042E+02 0.  0.
        -12    1    3    3    0    0  0.37802691297E+02  0.10470351757E+02 -0.18572866919E+02  0.43400727192E+02  0.00000000000E+00 0.  1.
         11    1    4    4    0    0 -0.21449539587E+02 -0.76713928207E+01  0.10036435905E+02  0.24893032404E+02  0.51100000000E-03 0. -1.
        -11    1    4    4    0    0 -0.16946870866E+01 -0.57912208219E+01  0.91176381697E+00  0.61025827687E+01  0.51100000000E-03 0.  1.
        -12    1    4    4    0    0 -0.14658464623E+02  0.29922618857E+01  0.76246671972E+01  0.16791657636E+02  0.00000000000E+00 0.  1.
</event>
<event>
 8    1  0.6046524E-010  0.9118800E+02  0.7816164E-02  0.1184000E+00
        -11   -1    0    0    0    0  0.00000000000E+00  0.00000000000E+00  0.45593999997E+02  0.45594000000E+02  0.51100000000E-03 0. -1.
         11   -1    0    0    0    0 -0.00000000000E+00 -0.00000000000E+00 -0.45593999997E+02  0.45594000000E+02  0.51100000000E-03 0.  1.
         23    2    1    2    0    0  0.00000000000E+00  0.00000000000E+00 -0.71054273576E-14  0.91188000000E+02  0.91188000000E+02 0.  0.
    9900012    2    3    3    0    0  0.71636805855E+01  0.53838678447E+01 -0.42465503543E+02  0.47787270241E+02  0.19999996337E+02 0.  0.
         12    1    3    3    0    0 -0.71636805855E+01 -0.53838678447E+01  0.42465503543E+02  0.43400729759E+02  0.00000000000E+00 0. -1.
         11    1    4    4    0    0  0.19727880333E+00  0.10142062177E+02 -0.12032296953E+02  0.15737741717E+02  0.51100000000E-03 0.  1.
        -11    1    4    4    0    0  0.34994228913E+01 -0.41766765636E+01 -0.10720215558E+02  0.12025539886E+02  0.51100000000E-03 0. -1.
        -12    1    4    4    0    0  0.34669788908E+01 -0.58151776842E+00 -0.19712991032E+02  0.20023988638E+02  0.00000000000E+00 0.  1.
</event>
<event>
 8    1  0.6046524E-010  0.9118800E+02  0.7816164E-02  0.1184000E+00
        -11   -1    0    0    0    0  0.00000000000E+00  0.00000000000E+00  0.45593999997E+02  0.45594000000E+02  0.51100000000E-03 0. -1.
         11   -1    0    0    0    0 -0.00000000000E+00 -0.00000000000E+00 -0.45593999997E+02  0.45594000000E+02  0.51100000000E-03 0.  1.
         23    2    1    2    0    0  0.00000000000E+00 -0.13322676296E-14  0.00000000000E+00  0.91188000000E+02  0.91188000000E+02 0.  0.
    9900012    2    3    3    0    0  0.33818601974E+02 -0.11550248655E+01  0.27177036933E+02  0.47787271223E+02  0.20000000815E+02 0.  0.
        -12    1    3    3    0    0 -0.33818601974E+02  0.11550248655E+01 -0.27177036933E+02  0.43400728777E+02  0.00000000000E+00 0.  1.
         11    1    4    4    0    0  0.18272975256E+02 -0.39417239087E+01  0.10976624339E+02  0.21677755747E+02  0.51100000000E-03 0. -1.
        -11    1    4    4    0    0  0.79295474476E-01 -0.32409788839E+01  0.53597513702E+00  0.32859551894E+01  0.51100000000E-03 0.  1.
         12    1    4    4    0    0  0.15466331243E+02  0.60276779271E+01  0.15664437457E+02  0.22823560287E+02  0.00000000000E+00 0. -1.
</event>
<event>
 8    1  0.6046524E-010  0.9118800E+02  0.7816164E-02  0.1184000E+00
        -11   -1    0    0    0    0  0.00000000000E+00  0.00000000000E+00  0.45593999997E+02  0.45594000000E+02  0.51100000000E-03 0. -1.
         11   -1    0    0    0    0 -0.00000000000E+00 -0.00000000000E+00 -0.45593999997E+02  0.45594000000E+02  0.51100000000E-03 0.  1.
         23    2    1    2    0    0  0.00000000000E+00  0.00000000000E+00  0.00000000000E+00  0.91188000000E+02  0.91188000000E+02 0.  0.
    9900012    2    3    3    0    0  0.35562680219E+02 -0.19877348806E+01 -0.24798575076E+02  0.47787255304E+02  0.19999928235E+02 0.  0.
         12    1    3    3    0    0 -0.35562680219E+02  0.19877348806E+01  0.24798575076E+02  0.43400744696E+02  0.00000000000E+00 0. -1.
         11    1    4    4    0    0  0.21161261515E+02  0.13764748872E+01 -0.83574332374E+01  0.22793428057E+02  0.51100000000E-03 0. -1.
        -11    1    4    4    0    0  0.16441946453E+02 -0.27924583536E+01 -0.14132662968E+02  0.21860182745E+02  0.51100000000E-03 0.  1.
        -12    1    4    4    0    0 -0.20405277485E+01 -0.57175141421E+00 -0.23084788704E+01  0.31336445023E+01  0.00000000000E+00 0.  1.
</event>
<event>
 8    1  0.6046524E-010  0.9118800E+02  0.7816164E-02  0.1184000E+00
        -11   -1    0    0    0    0  0.00000000000E+00  0.00000000000E+00  0.45593999997E+02  0.45594000000E+02  0.51100000000E-03 0. -1.
         11   -1    0    0    0    0 -0.00000000000E+00 -0.00000000000E+00 -0.45593999997E+02  0.45594000000E+02  0.51100000000E-03 0.  1.
         23    2    1    2    0    0  0.35527136788E-14  0.00000000000E+00  0.35527136788E-14  0.91188000000E+02  0.91188000000E+02 0.  0.
    9900012    2    3    3    0    0  0.31399480167E+02  0.57575277013E+01  0.29403180978E+02  0.47787268075E+02  0.19999986461E+02 0.  0.
        -12    1    3    3    0    0 -0.31399480167E+02 -0.57575277013E+01 -0.29403180978E+02  0.43400731925E+02  0.00000000000E+00 0.  1.
         11    1    4    4    0    0  0.37198845638E+01  0.26514476851E+01  0.10954994705E+02  0.11869272313E+02  0.51100000000E-03 0. -1.
        -11    1    4    4    0    0  0.59231333296E+01 -0.23839385282E+01 -0.69574469687E+00  0.64226732979E+01  0.51100000000E-03 0.  1.
         12    1    4    4    0    0  0.21756462274E+02  0.54900185444E+01  0.19143930970E+02  0.29495322464E+02  0.00000000000E+00 0. -1.
</event>
