<event>
 7    1  0.2783785E-010  0.4778727E+02  0.7816164E-02  0.1312668E+00
        -11   -1    0    0    0    0  0.00000000000E+00  0.00000000000E+00  0.45593999997E+02  0.45594000000E+02  0.51100000000E-03 0.  1.
         11   -1    0    0    0    0 -0.00000000000E+00 -0.00000000000E+00 -0.45593999997E+02  0.45594000000E+02  0.51100000000E-03 0. -1.
    9900012    2    1    2    0    0  0.65568794982E+01 -0.40218985130E+02  0.14935336913E+02  0.47787265878E+02  0.19999976443E+02 0.  0.
        -12    1    1    2    0    0 -0.65568794982E+01  0.40218985130E+02 -0.14935336913E+02  0.43400734122E+02  0.00000000000E+00 0.  1.
         11    1    3    3    0    0  0.46722905488E+01 -0.13316033386E+02  0.13478717229E+02  0.19514683254E+02  0.51100000000E-03 0. -1.
        -11    1    3    3    0    0  0.25125332434E+01 -0.44613780149E+01 -0.21150857961E+01  0.55398831465E+01  0.51100000000E-03 0.  1.
        -12    1    3    3    0    0 -0.62794429400E+00 -0.22441573729E+02  0.35717054803E+01  0.22732699477E+02  0.00000000000E+00 0.  1.
</event>
<event>
 7    1  0.2783785E-010  0.4778728E+02  0.7816164E-02  0.1312668E+00
        -11   -1    0    0    0    0  0.00000000000E+00  0.00000000000E+00  0.45593999997E+02  0.45594000000E+02  0.51100000000E-03 0. -1.
         11   -1    0    0    0    0 -0.00000000000E+00 -0.00000000000E+00 -0.45593999997E+02  0.45594000000E+02  0.51100000000E-03 0.  1.
    9900012    2    1    2    0    0 -0.19384342598E+02  0.25976916589E+02  0.28862937388E+02  0.47787284705E+02  0.20000062282E+02 0.  0.
        -12    1    1    2    0    0  0.19384342598E+02 -0.25976916589E+02 -0.28862937388E+02  0.43400715295E+02  0.00000000000E+00 0.  1.
         11    1    3    3    0    0 -0.13808206721E+02  0.11986444412E+02  0.11640385062E+02  0.21675792653E+02  0.51100000000E-03 0. -1.
        -11    1    3    3    0    0 -0.72551368729E+00  0.14679686278E+02  0.12284906222E+02  0.19155638347E+02  0.51100000000E-03 0.  1.
         12    1    3    3    0    0 -0.48506221900E+01 -0.68921410082E+00  0.49376461046E+01  0.69558537047E+01  0.00000000000E+00 0. -1.
</event>
<event>
 7    1  0.2783785E-010  0.4778725E+02  0.7816164E-02  0.1312668E+00
        -11   -1    0    0    0    0  0.00000000000E+00  0.00000000000E+00  0.45593999997E+02  0.45594000000E+02  0.51100000000E-03 0.  1.
         11   -1    0    0    0    0 -0.00000000000E+00 -0.00000000000E+00 -0.45593999997E+02  0.45594000000E+02  0.51100000000E-03 0. -1.
    9900012    2    1    2    0    0  0.14860071779E+02  0.19650393213E+02 -0.35730456551E+02  0.47787248716E+02  0.19999898194E+02 0.  0.
        -12    1    1    2    0    0 -0.14860071779E+02 -0.19650393213E+02  0.35730456551E+02  0.43400751284E+02  0.00000000000E+00 0.  1.
         11    1    3    3    0    0  0.75974989931E+01  0.25787517921E+01 -0.18259337426E+02  0.19944306336E+02  0.51100000000E-03 0. -1.
        -11    1    3    3    0    0 -0.54908357315E+00  0.66665732915E+00  0.14008399628E+01  0.16456845467E+01  0.51100000000E-03 0.  1.
        -12    1    3    3    0    0  0.78116563590E+01  0.16404984092E+02 -0.18871959088E+02  0.26197257833E+02  0.00000000000E+00 0.  1.
</event>
<event>
 7    1  0.2783785E-010  0.4778728E+02  0.7816164E-02  0.1312668E+00
        -11   -1    0    0    0    0  0.00000000000E+00  0.00000000000E+00  0.45593999997E+02  0.45594000000E+02  0.51100000000E-03 0.  1.
         11   -1    0    0    0    0 -0.00000000000E+00 -0.00000000000E+00 -0.45593999997E+02  0.45594000000E+02  0.51100000000E-03 0. -1.
    9900012    2    1    2    0    0  0.25231551868E+02 -0.94524408729E+01 -0.34024153957E+02  0.47787275344E+02  0.20000019605E+02 0.  0.
        -12    1    1    2    0    0 -0.25231551868E+02  0.94524408729E+01  0.34024153957E+02  0.43400724656E+02  0.00000000000E+00 0.  1.
         11    1    3    3    0    0  0.59941319379E+01  0.94284007322E+00 -0.73688243777E+00  0.61124104149E+01  0.51100000000E-03 0. -1.
        -11    1    3    3    0    0  0.77481349157E+01 -0.10821791399E+02 -0.20865048455E+02  0.24748636550E+02  0.51100000000E-03 0.  1.
         12    1    3    3    0    0  0.11489285015E+02  0.42651045313E+00 -0.12422223064E+02  0.16926228380E+02  0.00000000000E+00 0. -1.
</event>
<event>
 7    1  0.2783785E-010  0.4778727E+02  0.7816164E-02  0.1312668E+00
        -11   -1    0    0    0    0  0.00000000000E+00  0.00000000000E+00  0.45593999997E+02  0.45594000000E+02  0.51100000000E-03 0.  1.
         11   -1    0    0    0    0 -0.00000000000E+00 -0.00000000000E+00 -0.45593999997E+02  0.45594000000E+02  0.51100000000E-03 0. -1.
    9900012    2    1    2    0    0  0.27747138166E+02 -0.57689545344E+01 -0.32870027459E+02  0.47787271688E+02  0.20000002934E+02 0.  0.
        -12    1    1    2    0    0 -0.27747138166E+02  0.57689545344E+01  0.32870027459E+02  0.43400728312E+02  0.00000000000E+00 0.  1.
         11    1    3    3    0    0  0.12672141100E+02  0.31827754483E+01 -0.19547608038E+02  0.23512171314E+02  0.51100000000E-03 0. -1.
        -11    1    3    3    0    0  0.92021230225E+01 -0.17351115222E+01 -0.19214359132E+01  0.95593721731E+01  0.51100000000E-03 0.  1.
        -12    1    3    3    0    0  0.58728740434E+01 -0.72166184605E+01 -0.11400983508E+02  0.14715728201E+02  0.00000000000E+00 0.  1.
</event>
<event>
 7    1  0.2783785E-010  0.4778727E+02  0.7816164E-02  0.1312668E+00
        -11   -1    0    0    0    0  0.00000000000E+00  0.00000000000E+00  0.45593999997E+02  0.45594000000E+02  0.51100000000E-03 0.  1.
         11   -1    0    0    0    0 -0.00000000000E+00 -0.00000000000E+00 -0.45593999997E+02  0.45594000000E+02  0.51100000000E-03 0. -1.
    9900012    2    1    2    0    0  0.48242601525E+01 -0.12791419958E+02 -0.41191374669E+02  0.47787271231E+02  0.20000000852E+02 0.  0.
        -12    1    1    2    0    0 -0.48242601525E+01  0.12791419958E+02  0.41191374669E+02  0.43400728769E+02  0.00000000000E+00 0.  1.
         11    1    3    3    0    0  0.48979299873E+01 -0.17472125108E+01 -0.13076264717E+02  0.14072354776E+02  0.51100000000E-03 0. -1.
        -11    1    3    3    0    0  0.38609546052E+01 -0.20705232043E+01 -0.49583359972E+00  0.44090688385E+01  0.51100000000E-03 0.  1.
        -12    1    3    3    0    0 -0.39346244400E+01 -0.89736842427E+01 -0.27619276352E+02  0.29305847617E+02  0.00000000000E+00 0.  1.
</event>
<event>
 7    1  0.2783785E-010  0.4778727E+02  0.7816164E-02  0.1312668E+00
        -11   -1    0    0    0    0  0.00000000000E+00  0.00000000000E+00  0.45593999997E+02  0.45594000000E+02  0.51100000000E-03 0. -1.
         11   -1    0    0    0    0 -0.00000000000E+00 -0.00000000000E+00 -0.45593999997E+02  0.45594000000E+02  0.51100000000E-03 0.  1.
    9900012    2    1    2    0    0 -0.28024620528E+02 -0.29483642179E+02 -0.15131375842E+02  0.47787273661E+02  0.20000011930E+02 0.  0.
        -12    1    1    2    0    0  0.28024620528E+02  0.29483642179E+02  0.15131375842E+02  0.43400726339E+02  0.00000000000E+00 0.  1.
         11    1    3    3    0    0 -0.48403283868E+01 -0.17082318319E+02 -0.74559526381E+01  0.19256832762E+02  0.51100000000E-03 0. -1.
        -11    1    3    3    0    0 -0.18835471710E+02 -0.13215462400E+02 -0.70303820179E+01  0.24059295762E+02  0.51100000000E-03 0.  1.
        -12    1    3    3    0    0 -0.43488204313E+01  0.81413853943E+00 -0.64504118630E+00  0.44711451371E+01  0.00000000000E+00 0.  1.
</event>
<event>
 7    1  0.2783785E-010  0.4778730E+02  0.7816164E-02  0.1312668E+00
        -11   -1    0    0    0    0  0.00000000000E+00  0.00000000000E+00  0.45593999997E+02  0.45594000000E+02  0.51100000000E-03 0.  1.
         11   -1    0    0    0    0 -0.00000000000E+00 -0.00000000000E+00 -0.45593999997E+02  0.45594000000E+02  0.51100000000E-03 0. -1.
    9900012    2    1    2    0    0  0.19253132668E+02  0.14514690159E+02 -0.36086859577E+02  0.47787299752E+02  0.20000130888E+02 0.  0.
        -12    1    1    2    0    0 -0.19253132668E+02 -0.14514690159E+02  0.36086859577E+02  0.43400700248E+02  0.00000000000E+00 0.  1.
         11    1    3    3    0    0  0.15359218241E+02  0.76690411514E+01 -0.12377751166E+02  0.21164321424E+02  0.51100000000E-03 0. -1.
        -11    1    3    3    0    0  0.29312583220E+01 -0.69702504837E-01 -0.14045161455E+01  0.32511228297E+01  0.51100000000E-03 0.  1.
        -12    1    3    3    0    0  0.96265610504E+00  0.69153515121E+01 -0.22304592265E+02  0.23371855498E+02  0.00000000000E+00 0.  1.
</event>
<event>
 7    1  0.2783785E-010  0.4778727E+02  0.7816164E-02  0.1312668E+00
        -11   -1    0    0    0    0  0.00000000000E+00  0.00000000000E+00  0.45593999997E+02  0.45594000000E+02  0.51100000000E-03 0.  1.
         11   -1    0    0    0    0 -0.00000000000E+00 -0.00000000000E+00 -0.45593999997E+02  0.45594000000E+02  0.51100000000E-03 0. -1.
    9900012    2    1    2    0    0  0.24674363620E+02  0.35696708701E+02 -0.73754572267E+00  0.47787271828E+02  0.20000003572E+02 0.  0.
        -12    1    1    2    0    0 -0.24674363620E+02 -0.35696708701E+02  0.73754572267E+00  0.43400728172E+02  0.00000000000E+00 0.  1.
         11    1    3    3    0    0  0.29184848144E+01  0.27615760694E+01 -0.37516597475E+01  0.54971635523E+01  0.51100000000E-03 0. -1.
        -11    1    3    3    0    0  0.50642260254E+01  0.14507417495E+02  0.73799190696E+01  0.17046253352E+02  0.51100000000E-03 0.  1.
         12    1    3    3    0    0  0.16691652780E+02  0.18427715137E+02 -0.43658050448E+01  0.25243854923E+02  0.00000000000E+00 0. -1.
</event>
<event>
 7    1  0.2783785E-010  0.4778727E+02  0.7816164E-02  0.1312668E+00
        -11   -1    0    0    0    0  0.00000000000E+00  0.00000000000E+00  0.45593999997E+02  0.45594000000E+02  0.51100000000E-03 0.  1.
         11   -1    0    0    0    0 -0.00000000000E+00 -0.00000000000E+00 -0.45593999997E+02  0.45594000000E+02  0.51100000000E-03 0. -1.
    9900012    2    1    2    0    0  0.34410177070E+02 -0.24735872560E+02 -0.93648296904E+01  0.47787265992E+02  0.19999976966E+02 0.  0.
        -12    1    1    2    0    0 -0.34410177070E+02  0.24735872560E+02  0.93648296904E+01  0.43400734008E+02  0.00000000000E+00 0.  1.
         11    1    3    3    0    0  0.10952605337E+02 -0.74498127296E+01 -0.71490361557E+01  0.15052175643E+02  0.51100000000E-03 0. -1.
        -11    1    3    3    0    0  0.10484529961E+02  0.32745998099E+00  0.13317439844E+01  0.10573842293E+02  0.51100000000E-03 0.  1.
         12    1    3    3    0    0  0.12973041772E+02 -0.17613519811E+02 -0.35475375191E+01  0.22161248056E+02  0.00000000000E+00 0. -1.
</event>
<event>
 7    1  0.2783785E-010  0.4778726E+02  0.7816164E-02  0.1312668E+00
        -11   -1    0    0    0    0  0.00000000000E+00  0.00000000000E+00  0.45593999997E+02  0.45594000000E+02  0.51100000000E-03 0. -1.
         11   -1    0    0    0    0 -0.00000000000E+00 -0.00000000000E+00 -0.45593999997E+02  0.45594000000E+02  0.51100000000E-03 0.  1.
    9900012    2    1    2    0    0 -0.43134595874E+02 -0.15322368112E+01 -0.45479125365E+01  0.47787255545E+02  0.19999929331E+02 0.  0.
        -12    1    1    2    0    0  0.43134595874E+02  0.15322368112E+01  0.45479125365E+01  0.43400744455E+02  0.00000000000E+00 0.  1.
         11    1    3    3    0    0 -0.21383842241E+02 -0.45247225714E+01 -0.84540438374E+01  0.23435287086E+02  0.51100000000E-03 0. -1.
        -11    1    3    3    0    0 -0.21285833809E+02  0.10685977180E+01  0.16883354827E+01  0.21379408294E+02  0.51100000000E-03 0.  1.
        -12    1    3    3    0    0 -0.46491982308E+00  0.19238880422E+01  0.22177958182E+01  0.29725601646E+01  0.00000000000E+00 0.  1.
</event>
<event>
 7    1  0.2783785E-010  0.4778727E+02  0.7816164E-02  0.1312668E+00
        -11   -1    0    0    0    0  0.00000000000E+00  0.00000000000E+00  0.45593999997E+02  0.45594000000E+02  0.51100000000E-03 0. -1.
         11   -1    0    0    0    0 -0.00000000000E+00 -0.00000000000E+00 -0.45593999997E+02  0.45594000000E+02  0.51100000000E-03 0.  1.
    9900012    2    1    2    0    0 -0.96800445870E+01  0.37727662497E+02  0.19145324651E+02  0.47787271473E+02  0.20000001955E+02 0.  0.
        -12    1    1    2    0    0  0.96800445870E+01 -0.37727662497E+02 -0.19145324651E+02  0.43400728527E+02  0.00000000000E+00 0.  1.
         11    1    3    3    0    0 -0.85464141647E+01  0.18594731808E+02  0.37301057148E+01  0.20801897390E+02  0.51100000000E-03 0. -1.
        -11    1    3    3    0    0 -0.19918928443E+01  0.20119387437E+02  0.12447362548E+02  0.23742245526E+02  0.51100000000E-03 0.  1.
        -12    1    3    3    0    0  0.85826242201E+00 -0.98645674903E+00  0.29678563875E+01  0.32431285574E+01  0.00000000000E+00 0.  1.
</event>
<event>
 7    1  0.2783785E-010  0.4778727E+02  0.7816164E-02  0.1312668E+00
        -11   -1    0    0    0    0  0.00000000000E+00  0.00000000000E+00  0.45593999997E+02  0.45594000000E+02  0.51100000000E-03 0.  1.
         11   -1    0    0    0    0 -0.00000000000E+00 -0.00000000000E+00 -0.45593999997E+02  0.45594000000E+02  0.51100000000E-03 0. -1.
    9900012    2    1    2    0    0  0.14880567554E+02 -0.96560379253E+01 -0.39610014186E+02  0.47787267484E+02  0.19999983767E+02 0.  0.
        -12    1    1    2    0    0 -0.14880567554E+02  0.96560379253E+01  0.39610014186E+02  0.43400732516E+02  0.00000000000E+00 0.  1.
         11    1    3    3    0    0  0.92309168645E+01 -0.14633364720E+02 -0.28534595582E+02  0.33370171329E+02  0.51100000000E-03 0. -1.
        -11    1    3    3    0    0  0.22238218206E+01  0.13298409385E+01 -0.39303629819E+00  0.26207514579E+01  0.51100000000E-03 0.  1.
        -12    1    3    3    0    0  0.34258288685E+01  0.36474858564E+01 -0.10682382305E+02  0.11796344697E+02  0.00000000000E+00 0.  1.
</event>
<event>
 7    1  0.2783785E-010  0.4778727E+02  0.7816164E-02  0.1312668E+00
        -11   -1    0    0    0    0  0.00000000000E+00  0.00000000000E+00  0.45593999997E+02  0.45594000000E+02  0.51100000000E-03 0.  1.
         11   -1    0    0    0    0 -0.00000000000E+00 -0.00000000000E+00 -0.45593999997E+02  0.45594000000E+02  0.51100000000E-03 0. -1.
    9900012    2    1    2    0    0 -0.11125495446E+02 -0.34341166536E+02 -0.24094204466E+02  0.47787273545E+02  0.20000011400E+02 0.  0.
        -12    1    1    2    0    0  0.11125495446E+02  0.34341166536E+02  0.24094204466E+02  0.43400726455E+02  0.00000000000E+00 0.  1.
         11    1    3    3    0    0 -0.85958996784E+01 -0.14175196326E+02 -0.17775559330E+02  0.24306299429E+02  0.51100000000E-03 0. -1.
        -11    1    3    3    0    0 -0.51794497850E+01 -0.18209663740E+02 -0.68729370799E+01  0.20140899135E+02  0.51100000000E-03 0.  1.
        -12    1    3    3    0    0  0.26498540175E+01 -0.19563064704E+01  0.55429194419E+00  0.33400749812E+01  0.00000000000E+00 0.  1.
</event>
<event>
 7    1  0.2783785E-010  0.4778727E+02  0.7816164E-02  0.1312668E+00
        -11   -1    0    0    0    0  0.00000000000E+00  0.00000000000E+00  0.45593999997E+02  0.45594000000E+02  0.51100000000E-03 0.  1.
         11   -1    0    0    0    0 -0.00000000000E+00 -0.00000000000E+00 -0.45593999997E+02  0.45594000000E+02  0.51100000000E-03 0. -1.
    9900012    2    1    2    0    0 -0.44719988863E+01  0.24790109377E+02 -0.35342255534E+02  0.47787270476E+02  0.19999997408E+02 0.  0.
        -12    1    1    2    0    0  0.44719988863E+01 -0.24790109377E+02  0.35342255534E+02  0.43400729524E+02  0.00000000000E+00 0.  1.
         11    1    3    3    0    0 -0.28123344130E+01  0.11475945150E+01 -0.59037906098E+00  0.30943086010E+01  0.51100000000E-03 0. -1.
        -11    1    3    3    0    0  0.14681424695E+01  0.23899040398E+02 -0.25761843032E+02  0.35170898921E+02  0.51100000000E-03 0.  1.
        -12    1    3    3    0    0 -0.31278069428E+01 -0.25652553537E+00 -0.89900334417E+01  0.95220629543E+01  0.00000000000E+00 0.  1.
</event>
<event>
 7    1  0.2783785E-010  0.4778726E+02  0.7816164E-02  0.1312668E+00
        -11   -1    0    0    0    0  0.00000000000E+00  0.00000000000E+00  0.45593999997E+02  0.45594000000E+02  0.51100000000E-03 0.  1.
         11   -1    0    0    0    0 -0.00000000000E+00 -0.00000000000E+00 -0.45593999997E+02  0.45594000000E+02  0.51100000000E-03 0. -1.
    9900012    2    1    2    0    0 -0.22562215946E+02 -0.28119673488E+02 -0.24163086488E+02  0.47787258370E+02  0.19999942210E+02 0.  0.
        -12    1    1    2    0    0  0.22562215946E+02  0.28119673488E+02  0.24163086488E+02  0.43400741630E+02  0.00000000000E+00 0.  1.
         11    1    3    3    0    0 -0.98227491545E+01 -0.19617761472E+02 -0.61325539066E+01  0.22780500078E+02  0.51100000000E-03 0. -1.
        -11    1    3    3    0    0 -0.11533957856E+02 -0.79381881104E+01 -0.10875919086E+02  0.17729428376E+02  0.51100000000E-03 0.  1.
         12    1    3    3    0    0 -0.12055089353E+01 -0.56372390516E+00 -0.71546134951E+01  0.72773299155E+01  0.00000000000E+00 0. -1.
</event>
<event>
 7    1  0.2783785E-010  0.4778727E+02  0.7816164E-02  0.1312668E+00
        -11   -1    0    0    0    0  0.00000000000E+00  0.00000000000E+00  0.45593999997E+02  0.45594000000E+02  0.51100000000E-03 0. -1.
         11   -1    0    0    0    0 -0.00000000000E+00 -0.00000000000E+00 -0.45593999997E+02  0.45594000000E+02  0.51100000000E-03 0.  1.
    9900012    2    1    2    0    0 -0.20485108788E+02 -0.33398191612E+02  0.18669352720E+02  0.47787267103E+02  0.19999982029E+02 0.  0.
        -12    1    1    2    0    0  0.20485108788E+02  0.33398191612E+02 -0.18669352720E+02  0.43400732897E+02  0.00000000000E+00 0.  1.
         11    1    3    3    0    0 -0.42960290088E+01 -0.13562553176E+02  0.10310570250E+02  0.17570047611E+02  0.51100000000E-03 0. -1.
        -11    1    3    3    0    0 -0.45518988085E+01  0.12545339201E+01  0.37555774075E-02  0.47216154529E+01  0.51100000000E-03 0.  1.
         12    1    3    3    0    0 -0.11637180970E+02 -0.21090172356E+02  0.83550268929E+01  0.25495604039E+02  0.00000000000E+00 0. -1.
</event>
<event>
 7    1  0.2783785E-010  0.4778727E+02  0.7816164E-02  0.1312668E+00
        -11   -1    0    0    0    0  0.00000000000E+00  0.00000000000E+00  0.45593999997E+02  0.45594000000E+02  0.51100000000E-03 0.  1.
         11   -1    0    0    0    0 -0.00000000000E+00 -0.00000000000E+00 -0.45593999997E+02  0.45594000000E+02  0.51100000000E-03 0. -1.
    9900012    2    1    2    0    0 -0.51515289385E+00  0.15652948723E+02 -0.40476452107E+02  0.47787270036E+02  0.19999995404E+02 0.  0.
        -12    1    1    2    0    0  0.51515289385E+00 -0.15652948723E+02  0.40476452107E+02  0.43400729964E+02  0.00000000000E+00 0.  1.
         11    1    3    3    0    0 -0.46645956407E+01  0.12731850606E+02 -0.12331314960E+02  0.18328115048E+02  0.51100000000E-03 0. -1.
        -11    1    3    3    0    0 -0.18314823108E+01  0.18699016589E+01 -0.91434634189E+01  0.95107193851E+01  0.51100000000E-03 0.  1.
        -12    1    3    3    0    0  0.59809250576E+01  0.10511964585E+01 -0.19001673728E+02  0.19948435603E+02  0.00000000000E+00 0.  1.
</event>
<event>
 7    1  0.2783785E-010  0.4778726E+02  0.7816164E-02  0.1312668E+00
        -11   -1    0    0    0    0  0.00000000000E+00  0.00000000000E+00  0.45593999997E+02  0.45594000000E+02  0.51100000000E-03 0. -1.
         11   -1    0    0    0    0 -0.00000000000E+00 -0.00000000000E+00 -0.45593999997E+02  0.45594000000E+02  0.51100000000E-03 0.  1.
    9900012    2    1    2    0    0  0.11770529460E+02  0.25245641623E+01  0.41697783769E+02  0.47787263149E+02  0.19999964001E+02 0.  0.
        -12    1    1    2    0    0 -0.11770529460E+02 -0.25245641623E+01 -0.41697783769E+02  0.43400736851E+02  0.00000000000E+00 0.  1.
         11    1    3    3    0    0  0.43320056726E+01  0.67762779602E+01  0.85544990861E+01  0.11741536144E+02  0.51100000000E-03 0. -1.
        -11    1    3    3    0    0  0.97779372710E+01 -0.96198039603E+00  0.26610287537E+02  0.28366192318E+02  0.51100000000E-03 0.  1.
         12    1    3    3    0    0 -0.23394134836E+01 -0.32897334019E+01  0.65329971459E+01  0.76795346871E+01  0.00000000000E+00 0. -1.
</event>
<event>
 7    1  0.2783785E-010  0.4778727E+02  0.7816164E-02  0.1312668E+00
        -11   -1    0    0    0    0  0.00000000000E+00  0.00000000000E+00  0.45593999997E+02  0.45594000000E+02  0.51100000000E-03 0. -1.
         11   -1    0    0    0    0 -0.00000000000E+00 -0.00000000000E+00 -0.45593999997E+02  0.45594000000E+02  0.51100000000E-03 0.  1.
    9900012    2    1    2    0    0 -0.36935666549E+01  0.32692474759E+02  0.28305173887E+02  0.47787271789E+02  0.20000003393E+02 0.  0.
        -12    1    1    2    0    0  0.36935666549E+01 -0.32692474759E+02 -0.28305173887E+02  0.43400728211E+02  0.00000000000E+00 0.  1.
         11    1    3    3    0    0 -0.14225146198E+01  0.18287166130E+02  0.74922224929E+01  0.19813565834E+02  0.51100000000E-03 0. -1.
        -11    1    3    3    0    0 -0.50669990930E+01  0.15359870152E+01  0.41057078944E+01  0.67000427980E+01  0.51100000000E-03 0.  1.
         12    1    3    3    0    0  0.27959470579E+01  0.12869321614E+02  0.16707243499E+02  0.21273663157E+02  0.00000000000E+00 0. -1.
</event>
<event>
 7    1  0.2783785E-010  0.4778727E+02  0.7816164E-02  0.1312668E+00
        -11   -1    0    0    0    0  0.00000000000E+00  0.00000000000E+00  0.45593999997E+02  0.45594000000E+02  0.51100000000E-03 0. -1.
         11   -1    0    0    0    0 -0.00000000000E+00 -0.00000000000E+00 -0.45593999997E+02  0.45594000000E+02  0.51100000000E-03 0.  1.
    9900012    2    1    2    0    0  0.31800015992E+02  0.43431274250E+01  0.29215057795E+02  0.47787269881E+02  0.19999994695E+02 0.  0.
        -12    1    1    2    0    0 -0.31800015992E+02 -0.43431274250E+01 -0.29215057795E+02  0.43400730119E+02  0.00000000000E+00 0.  1.
         11    1    3    3    0    0  0.52540642744E+01 -0.65268522022E+01  0.10408783865E+02  0.13362176951E+02  0.51100000000E-03 0.  1.
        -11    1    3    3    0    0  0.13122102204E+02  0.64384615105E+01  0.10850316208E+02  0.18203645649E+02  0.51100000000E-03 0. -1.
        -12    1    3    3    0    0  0.13423849514E+02  0.44315181167E+01  0.79559577226E+01  0.16221447280E+02  0.00000000000E+00 0.  1.
</event>
<event>
 7    1  0.2783785E-010  0.4778726E+02  0.7816164E-02  0.1312668E+00
        -11   -1    0    0    0    0  0.00000000000E+00  0.00000000000E+00  0.45593999997E+02  0.45594000000E+02  0.51100000000E-03 0.  1.
         11   -1    0    0    0    0 -0.00000000000E+00 -0.00000000000E+00 -0.45593999997E+02  0.45594000000E+02  0.51100000000E-03 0. -1.
    9900012    2    1    2    0    0  0.32774146641E+02 -0.14600210262E+02 -0.24419525014E+02  0.47787262337E+02  0.19999960301E+02 0.  0.
        -12    1    1    2    0    0 -0.32774146641E+02  0.14600210262E+02  0.24419525014E+02  0.43400737663E+02  0.00000000000E+00 0.  1.
         11    1    3    3    0    0  0.19716671279E+02 -0.10710913544E+02 -0.15901080057E+02  0.27501184384E+02  0.51100000000E-03 0. -1.
        -11    1    3    3    0    0  0.73932203897E+01 -0.56906657126E+01  0.65794869899E+00  0.93528755330E+01  0.51100000000E-03 0.  1.
         12    1    3    3    0    0  0.56642549721E+01  0.18013689943E+01 -0.91763936560E+01  0.10933202421E+02  0.00000000000E+00 0. -1.
</event>
<event>
 7    1  0.2783785E-010  0.4778727E+02  0.7816164E-02  0.1312668E+00
        -11   -1    0    0    0    0  0.00000000000E+00  0.00000000000E+00  0.45593999997E+02  0.45594000000E+02  0.51100000000E-03 0.  1.
         11   -1    0    0    0    0 -0.00000000000E+00 -0.00000000000E+00 -0.45593999997E+02  0.45594000000E+02  0.51100000000E-03 0. -1.
    9900012    2    1    2    0    0 -0.10776024357E+02 -0.24767735932E+02 -0.33971457725E+02  0.47787269774E+02  0.19999994209E+02 0.  0.
        -12    1    1    2    0    0  0.10776024357E+02  0.24767735932E+02  0.33971457725E+02  0.43400730226E+02  0.00000000000E+00 0.  1.
         11    1    3    3    0    0 -0.77337326678E+01 -0.57908132621E+01 -0.15437458950E+02  0.18211514992E+02  0.51100000000E-03 0. -1.
        -11    1    3    3    0    0 -0.57874499757E+01 -0.19048382614E+02 -0.17866476561E+02  0.26749699856E+02  0.51100000000E-03 0.  1.
        -12    1    3    3    0    0  0.27451582863E+01  0.71459943647E-01 -0.66752221459E+00  0.28260549264E+01  0.00000000000E+00 0.  1.
</event>
<event>
 7    1  0.2818963E-010  0.4778727E+02  0.7816164E-02  0.1312668E+00
        -11   -1    0    0    0    0  0.00000000000E+00  0.00000000000E+00  0.45593999997E+02  0.45594000000E+02  0.51100000000E-03 0. -1.
         11   -1    0    0    0    0 -0.00000000000E+00 -0.00000000000E+00 -0.45593999997E+02  0.45594000000E+02  0.51100000000E-03 0.  1.
    9900012    2    1    2    0    0  0.21528648984E+01 -0.21284148653E+02  0.37762064997E+02  0.47787270006E+02  0.19999995266E+02 0.  0.
        -12    1    1    2    0    0 -0.21528648984E+01  0.21284148653E+02 -0.37762064997E+02  0.43400729994E+02  0.00000000000E+00 0.  1.
         11    1    3    3    0    0  0.32428770472E+01 -0.15631657270E+02  0.24336193137E+02  0.29105244497E+02  0.51100000000E-03 0. -1.
        -11    1    3    3    0    0 -0.55941072324E+01 -0.40605407411E+01  0.11725333077E+02  0.13611225619E+02  0.51100000000E-03 0.  1.
        -12    1    3    3    0    0  0.45040950837E+01 -0.15919506422E+01  0.17005387830E+01  0.50707998898E+01  0.00000000000E+00 0.  1.
</event>
<event>
 7    1  0.2783785E-010  0.4778728E+02  0.7816164E-02  0.1312668E+00
        -11   -1    0    0    0    0  0.00000000000E+00  0.00000000000E+00  0.45593999997E+02  0.45594000000E+02  0.51100000000E-03 0. -1.
         11   -1    0    0    0    0 -0.00000000000E+00 -0.00000000000E+00 -0.45593999997E+02  0.45594000000E+02  0.51100000000E-03 0.  1.
    9900012    2    1    2    0    0 -0.10583715027E+02  0.33450289024E+02  0.25547706268E+02  0.47787283933E+02  0.20000058766E+02 0.  0.
        -12    1    1    2    0    0  0.10583715027E+02 -0.33450289024E+02 -0.25547706268E+02  0.43400716067E+02  0.00000000000E+00 0.  1.
         11    1    3    3    0    0  0.20182963466E+01  0.44830041103E+00 -0.36909689585E+00  0.21001728931E+01  0.51100000000E-03 0. -1.
        -11    1    3    3    0    0  0.22892793413E+01  0.78362627655E+01  0.77827724333E+01  0.11279156043E+02  0.51100000000E-03 0.  1.
         12    1    3    3    0    0 -0.14891290715E+02  0.25165725847E+02  0.18134030730E+02  0.34407954997E+02  0.00000000000E+00 0. -1.
</event>
<event>
 7    1  0.2783785E-010  0.4778727E+02  0.7816164E-02  0.1312668E+00
        -11   -1    0    0    0    0  0.00000000000E+00  0.00000000000E+00  0.45593999997E+02  0.45594000000E+02  0.51100000000E-03 0.  1.
         11   -1    0    0    0    0 -0.00000000000E+00 -0.00000000000E+00 -0.45593999997E+02  0.45594000000E+02  0.51100000000E-03 0. -1.
    9900012    2    1    2    0    0  0.32384923845E+02  0.18773480753E+02 -0.21963520801E+02  0.47787272841E+02  0.20000008190E+02 0.  0.
        -12    1    1    2    0    0 -0.32384923845E+02 -0.18773480753E+02  0.21963520801E+02  0.43400727159E+02  0.00000000000E+00 0.  1.
         11    1    3    3    0    0  0.52970429377E+01  0.10715629151E+02 -0.63301536305E+01  0.13526056973E+02  0.51100000000E-03 0. -1.
        -11    1    3    3    0    0  0.10317537254E+02  0.98063853303E+00 -0.15140948788E+00  0.10365141196E+02  0.51100000000E-03 0.  1.
         12    1    3    3    0    0  0.16770343653E+02  0.70772130688E+01 -0.15481957682E+02  0.23896074672E+02  0.00000000000E+00 0. -1.
</event>
<event>
 7    1  0.2783785E-010  0.4778727E+02  0.7816164E-02  0.1312668E+00
        -11   -1    0    0    0    0  0.00000000000E+00  0.00000000000E+00  0.45593999997E+02  0.45594000000E+02  0.51100000000E-03 0.  1.
         11   -1    0    0    0    0 -0.00000000000E+00 -0.00000000000E+00 -0.45593999997E+02  0.45594000000E+02  0.51100000000E-03 0. -1.
    9900012    2    1    2    0    0  0.34582580556E+02 -0.73080657639E+01 -0.25184530358E+02  0.47787271061E+02  0.20000000075E+02 0.  0.
        -12    1    1    2    0    0 -0.34582580556E+02  0.73080657639E+01  0.25184530358E+02  0.43400728939E+02  0.00000000000E+00 0.  1.
         11    1    3    3    0    0  0.21066515985E+02  0.41301268957E+01 -0.14962954918E+02  0.26167653010E+02  0.51100000000E-03 0. -1.
        -11    1    3    3    0    0  0.86131278018E+00 -0.28544936732E+01 -0.42765584227E+01  0.52133430771E+01  0.51100000000E-03 0.  1.
         12    1    3    3    0    0  0.12654751791E+02 -0.85836989864E+01 -0.59450170168E+01  0.16406274973E+02  0.00000000000E+00 0. -1.
</event>
<event>
 7    1  0.2783785E-010  0.4778727E+02  0.7816164E-02  0.1312668E+00
        -11   -1    0    0    0    0  0.00000000000E+00  0.00000000000E+00  0.45593999997E+02  0.45594000000E+02  0.51100000000E-03 0.  1.
         11   -1    0    0    0    0 -0.00000000000E+00 -0.00000000000E+00 -0.45593999997E+02  0.45594000000E+02  0.51100000000E-03 0. -1.
    9900012    2    1    2    0    0  0.82712672980E+01  0.32270536880E+02 -0.27817655762E+02  0.47787269761E+02  0.19999994148E+02 0.  0.
        -12    1    1    2    0    0 -0.82712672980E+01 -0.32270536880E+02  0.27817655762E+02  0.43400730239E+02  0.00000000000E+00 0.  1.
         11    1    3    3    0    0 -0.49319067812E+00  0.15999625485E+02 -0.57880342999E+01  0.17021533246E+02  0.51100000000E-03 0. -1.
        -11    1    3    3    0    0  0.16009901814E+01  0.12942216077E+02 -0.16902801845E+02  0.21348743219E+02  0.51100000000E-03 0.  1.
        -12    1    3    3    0    0  0.71634677947E+01  0.33286953168E+01 -0.51268196170E+01  0.94169932964E+01  0.00000000000E+00 0.  1.
</event>
<event>
 7    1  0.2783785E-010  0.4778727E+02  0.7816164E-02  0.1312668E+00
        -11   -1    0    0    0    0  0.00000000000E+00  0.00000000000E+00  0.45593999997E+02  0.45594000000E+02  0.51100000000E-03 0. -1.
         11   -1    0    0    0    0 -0.00000000000E+00 -0.00000000000E+00 -0.45593999997E+02  0.45594000000E+02  0.51100000000E-03 0.  1.
    9900012    2    1    2    0    0  0.99284606213E+01 -0.39114230877E+02  0.15972660233E+02  0.47787271177E+02  0.20000000606E+02 0.  0.
        -12    1    1    2    0    0 -0.99284606213E+01  0.39114230877E+02 -0.15972660233E+02  0.43400728823E+02  0.00000000000E+00 0.  1.
         11    1    3    3    0    0  0.13613094878E+01 -0.13277633823E+02  0.33657034432E+01  0.13765052975E+02  0.51100000000E-03 0. -1.
        -11    1    3    3    0    0  0.43702843693E+01 -0.17123689200E+00 -0.12578501776E+01  0.45509224200E+01  0.51100000000E-03 0.  1.
        -12    1    3    3    0    0  0.41968667642E+01 -0.25665360162E+02  0.13864806968E+02  0.29471295783E+02  0.00000000000E+00 0.  1.
</event>
<event>
 7    1  0.2783785E-010  0.4778727E+02  0.7816164E-02  0.1312668E+00
        -11   -1    0    0    0    0  0.00000000000E+00  0.00000000000E+00  0.45593999997E+02  0.45594000000E+02  0.51100000000E-03 0.  1.
         11   -1    0    0    0    0 -0.00000000000E+00 -0.00000000000E+00 -0.45593999997E+02  0.45594000000E+02  0.51100000000E-03 0. -1.
    9900012    2    1    2    0    0 -0.31030161138E+02 -0.42042357858E+01 -0.30051236705E+02  0.47787270441E+02  0.19999997247E+02 0.  0.
        -12    1    1    2    0    0  0.31030161138E+02  0.42042357858E+01  0.30051236705E+02  0.43400729559E+02  0.00000000000E+00 0.  1.
         11    1    3    3    0    0 -0.18559900718E+00 -0.14170407952E+01 -0.65318764952E+01  0.66863938275E+01  0.51100000000E-03 0. -1.
        -11    1    3    3    0    0 -0.13353401652E+02 -0.41306215979E+01 -0.33570566470E+01  0.14375159131E+02  0.51100000000E-03 0.  1.
         12    1    3    3    0    0 -0.17491160479E+02  0.13434266074E+01 -0.20162303563E+02  0.26725717482E+02  0.00000000000E+00 0. -1.
</event>
<event>
 7    1  0.2783785E-010  0.4778727E+02  0.7816164E-02  0.1312668E+00
        -11   -1    0    0    0    0  0.00000000000E+00  0.00000000000E+00  0.45593999997E+02  0.45594000000E+02  0.51100000000E-03 0. -1.
         11   -1    0    0    0    0 -0.00000000000E+00 -0.00000000000E+00 -0.45593999997E+02  0.45594000000E+02  0.51100000000E-03 0.  1.
    9900012    2    1    2    0    0 -0.32641342725E+02  0.83010202600E+01  0.27372604697E+02  0.47787266364E+02  0.19999978660E+02 0.  0.
        -12    1    1    2    0    0  0.32641342725E+02 -0.83010202600E+01 -0.27372604697E+02  0.43400733636E+02  0.00000000000E+00 0.  1.
         11    1    3    3    0    0 -0.12622588334E+02  0.51962996956E+01  0.75361702591E+01  0.15592470273E+02  0.51100000000E-03 0. -1.
        -11    1    3    3    0    0 -0.71544549287E+01  0.86964169965E+01  0.10024690627E+02  0.15076747538E+02  0.51100000000E-03 0.  1.
         12    1    3    3    0    0 -0.12864299462E+02 -0.55916964321E+01  0.98117438110E+01  0.17118048553E+02  0.00000000000E+00 0. -1.
</event>
<event>
 7    1  0.2783785E-010  0.4778728E+02  0.7816164E-02  0.1312668E+00
        -11   -1    0    0    0    0  0.00000000000E+00  0.00000000000E+00  0.45593999997E+02  0.45594000000E+02  0.51100000000E-03 0.  1.
         11   -1    0    0    0    0 -0.00000000000E+00 -0.00000000000E+00 -0.45593999997E+02  0.45594000000E+02  0.51100000000E-03 0. -1.
    9900012    2    1    2    0    0 -0.49798728770E+01  0.27443581163E+02 -0.33251668452E+02  0.47787277244E+02  0.20000028265E+02 0.  0.
        -12    1    1    2    0    0  0.49798728770E+01 -0.27443581163E+02  0.33251668452E+02  0.43400722756E+02  0.00000000000E+00 0.  1.
         11    1    3    3    0    0 -0.65440795378E+01  0.15831939943E+02 -0.21800336359E+02  0.27725979964E+02  0.51100000000E-03 0. -1.
        -11    1    3    3    0    0  0.48846999046E+01  0.11849739376E+02 -0.10581249338E+02  0.16620452889E+02  0.51100000000E-03 0.  1.
         12    1    3    3    0    0 -0.33204932438E+01 -0.23809815666E+00 -0.87008275601E+00  0.34408443901E+01  0.00000000000E+00 0. -1.
</event>
<event>
 7    1  0.2783785E-010  0.4778728E+02  0.7816164E-02  0.1312668E+00
        -11   -1    0    0    0    0  0.00000000000E+00  0.00000000000E+00  0.45593999997E+02  0.45594000000E+02  0.51100000000E-03 0.  1.
         11   -1    0    0    0    0 -0.00000000000E+00 -0.00000000000E+00 -0.45593999997E+02  0.45594000000E+02  0.51100000000E-03 0. -1.
    9900012    2    1    2    0    0 -0.24174782546E+02 -0.14517848327E+02 -0.32991435039E+02  0.47787276307E+02  0.20000023992E+02 0.  0.
        -12    1    1    2    0    0  0.24174782546E+02  0.14517848327E+02  0.32991435039E+02  0.43400723693E+02  0.00000000000E+00 0.  1.
         11    1    3    3    0    0 -0.97253101090E+01  0.54617725640E+00 -0.77477569763E+01  0.12446192379E+02  0.51100000000E-03 0. -1.
        -11    1    3    3    0    0 -0.44446611188E+01 -0.57684166498E+01 -0.18955680505E+02  0.20306340556E+02  0.51100000000E-03 0.  1.
        -12    1    3    3    0    0 -0.10004811319E+02 -0.92956089336E+01 -0.62879975573E+01  0.15034743371E+02  0.00000000000E+00 0.  1.
</event>
<event>
 7    1  0.2783785E-010  0.4778727E+02  0.7816164E-02  0.1312668E+00
        -11   -1    0    0    0    0  0.00000000000E+00  0.00000000000E+00  0.45593999997E+02  0.45594000000E+02  0.51100000000E-03 0.  1.
         11   -1    0    0    0    0 -0.00000000000E+00 -0.00000000000E+00 -0.45593999997E+02  0.45594000000E+02  0.51100000000E-03 0. -1.
    9900012    2    1    2    0    0  0.18493740153E+01  0.19723286268E+02 -0.38615995139E+02  0.47787270904E+02  0.19999999362E+02 0.  0.
        -12    1    1    2    0    0 -0.18493740153E+01 -0.19723286268E+02  0.38615995139E+02  0.43400729096E+02  0.00000000000E+00 0.  1.
         11    1    3    3    0    0  0.65661525023E+00  0.17999717853E+02 -0.39734029587E+02  0.43625842042E+02  0.51100000000E-03 0. -1.
        -11    1    3    3    0    0  0.12998262204E+01 -0.73962349415E+00  0.73484978068E+00  0.16663119689E+01  0.51100000000E-03 0.  1.
         12    1    3    3    0    0 -0.10706745529E+00  0.24631919091E+01  0.38318466795E+00  0.24951168932E+01  0.00000000000E+00 0. -1.
</event>
<event>
 7    1  0.2783785E-010  0.4778727E+02  0.7816164E-02  0.1312668E+00
        -11   -1    0    0    0    0  0.00000000000E+00  0.00000000000E+00  0.45593999997E+02  0.45594000000E+02  0.51100000000E-03 0. -1.
         11   -1    0    0    0    0 -0.00000000000E+00 -0.00000000000E+00 -0.45593999997E+02  0.45594000000E+02  0.51100000000E-03 0.  1.
    9900012    2    1    2    0    0 -0.30521457087E+02 -0.17595292593E+02  0.25346980852E+02  0.47787273020E+02  0.20000009006E+02 0.  0.
        -12    1    1    2    0    0  0.30521457087E+02  0.17595292593E+02 -0.25346980852E+02  0.43400726980E+02  0.00000000000E+00 0.  1.
         11    1    3    3    0    0 -0.19395665488E+02 -0.45927503669E+01  0.12085917498E+02  0.23309967775E+02  0.51100000000E-03 0. -1.
        -11    1    3    3    0    0  0.15131047055E+01  0.54471936177E+00 -0.13546469800E+00  0.16138636803E+01  0.51100000000E-03 0.  1.
         12    1    3    3    0    0 -0.12638896304E+02 -0.13547261588E+02  0.13396528051E+02  0.22863441564E+02  0.00000000000E+00 0. -1.
</event>
<event>
 7    1  0.2783785E-010  0.4778726E+02  0.7816164E-02  0.1312668E+00
        -11   -1    0    0    0    0  0.00000000000E+00  0.00000000000E+00  0.45593999997E+02  0.45594000000E+02  0.51100000000E-03 0.  1.
         11   -1    0    0    0    0 -0.00000000000E+00 -0.00000000000E+00 -0.45593999997E+02  0.45594000000E+02  0.51100000000E-03 0. -1.
    9900012    2    1    2    0    0 -0.66680126031E+01 -0.25938018347E+02 -0.34152316298E+02  0.47787263873E+02  0.19999967303E+02 0.  0.
        -12    1    1    2    0    0  0.66680126031E+01  0.25938018347E+02  0.34152316298E+02  0.43400736127E+02  0.00000000000E+00 0.  1.
         11    1    3    3    0    0 -0.89943438641E+01 -0.10242389359E+02 -0.17060586530E+02  0.21837316097E+02  0.51100000000E-03 0. -1.
        -11    1    3    3    0    0  0.72625850263E+00  0.11563716083E+01  0.57563205109E+00  0.14818904239E+01  0.51100000000E-03 0.  1.
         12    1    3    3    0    0  0.16000727584E+01 -0.16852000596E+02 -0.17667361819E+02  0.24468057352E+02  0.00000000000E+00 0. -1.
</event>
<event>
 7    1  0.2783785E-010  0.4778727E+02  0.7816164E-02  0.1312668E+00
        -11   -1    0    0    0    0  0.00000000000E+00  0.00000000000E+00  0.45593999997E+02  0.45594000000E+02  0.51100000000E-03 0. -1.
         11   -1    0    0    0    0 -0.00000000000E+00 -0.00000000000E+00 -0.45593999997E+02  0.45594000000E+02  0.51100000000E-03 0.  1.
    9900012    2    1    2    0    0 -0.69567568440E+00  0.40914689867E+02  0.14461253153E+02  0.47787266662E+02  0.19999980017E+02 0.  0.
        -12    1    1    2    0    0  0.69567568440E+00 -0.40914689867E+02 -0.14461253153E+02  0.43400733338E+02  0.00000000000E+00 0.  1.
         11    1    3    3    0    0 -0.34695969873E+01  0.25805698141E+02  0.50680622054E+01  0.26526541700E+02  0.51100000000E-03 0. -1.
        -11    1    3    3    0    0  0.50329781899E+00  0.24494696304E+00 -0.22024432736E+01  0.22724577760E+01  0.51100000000E-03 0.  1.
         12    1    3    3    0    0  0.22706234839E+01  0.14864044762E+02  0.11595634221E+02  0.18988267185E+02  0.00000000000E+00 0. -1.
</event>
<event>
 7    1  0.2783785E-010  0.4778727E+02  0.7816164E-02  0.1312668E+00
        -11   -1    0    0    0    0  0.00000000000E+00  0.00000000000E+00  0.45593999997E+02  0.45594000000E+02  0.51100000000E-03 0.  1.
         11   -1    0    0    0    0 -0.00000000000E+00 -0.00000000000E+00 -0.45593999997E+02  0.45594000000E+02  0.51100000000E-03 0. -1.
    9900012    2    1    2    0    0  0.50476526640E+01 -0.18287223649E+02 -0.39034882303E+02  0.47787269792E+02  0.19999994290E+02 0.  0.
        -12    1    1    2    0    0 -0.50476526640E+01  0.18287223649E+02  0.39034882303E+02  0.43400730208E+02  0.00000000000E+00 0.  1.
         11    1    3    3    0    0 -0.35755750147E+01 -0.46126401501E+01 -0.52322011374E+01  0.78381831341E+01  0.51100000000E-03 0. -1.
        -11    1    3    3    0    0  0.97268423712E+01 -0.10820468291E+02 -0.14993305654E+02  0.20892419947E+02  0.51100000000E-03 0.  1.
         12    1    3    3    0    0 -0.11036146925E+01 -0.28541152074E+01 -0.18809375511E+02  0.19056666711E+02  0.00000000000E+00 0. -1.
</event>
<event>
 7    1  0.2783785E-010  0.4778727E+02  0.7816164E-02  0.1312668E+00
        -11   -1    0    0    0    0  0.00000000000E+00  0.00000000000E+00  0.45593999997E+02  0.45594000000E+02  0.51100000000E-03 0.  1.
         11   -1    0    0    0    0 -0.00000000000E+00 -0.00000000000E+00 -0.45593999997E+02  0.45594000000E+02  0.51100000000E-03 0. -1.
    9900012    2    1    2    0    0  0.14037257665E+02 -0.10419270499E+02 -0.39724271814E+02  0.47787267614E+02  0.19999984357E+02 0.  0.
        -12    1    1    2    0    0 -0.14037257665E+02  0.10419270499E+02  0.39724271814E+02  0.43400732386E+02  0.00000000000E+00 0.  1.
         11    1    3    3    0    0  0.81898660997E+01 -0.63592914798E+01 -0.10150171348E+02  0.14510012871E+02  0.51100000000E-03 0. -1.
        -11    1    3    3    0    0  0.88524197803E+01 -0.10439247410E+01 -0.26678788597E+02  0.28128506468E+02  0.51100000000E-03 0.  1.
        -12    1    3    3    0    0 -0.30050282146E+01 -0.30160542781E+01 -0.28953118692E+01  0.51487482750E+01  0.00000000000E+00 0.  1.
</event>
<event>
 7    1  0.2783785E-010  0.4778727E+02  0.7816164E-02  0.1312668E+00
        -11   -1    0    0    0    0  0.00000000000E+00  0.00000000000E+00  0.45593999997E+02  0.45594000000E+02  0.51100000000E-03 0.  1.
         11   -1    0    0    0    0 -0.00000000000E+00 -0.00000000000E+00 -0.45593999997E+02  0.45594000000E+02  0.51100000000E-03 0. -1.
    9900012    2    1    2    0    0  0.33478394482E+02  0.22428028224E+02 -0.16118429398E+02  0.47787272894E+02  0.20000008431E+02 0.  0.
        -12    1    1    2    0    0 -0.33478394482E+02 -0.22428028224E+02  0.16118429398E+02  0.43400727106E+02  0.00000000000E+00 0.  1.
         11    1    3    3    0    0  0.15623545645E+02  0.93979352309E+01 -0.13532394413E+02  0.22705551390E+02  0.51100000000E-03 0. -1.
        -11    1    3    3    0    0  0.16238745514E+02  0.15007032943E+02 -0.11250653169E+01  0.22139865985E+02  0.51100000000E-03 0.  1.
         12    1    3    3    0    0  0.16161033231E+01 -0.19769399501E+01 -0.14609696688E+01  0.29418555182E+01  0.00000000000E+00 0. -1.
</event>
<event>
 7    1  0.2783785E-010  0.4778727E+02  0.7816164E-02  0.1312668E+00
        -11   -1    0    0    0    0  0.00000000000E+00  0.00000000000E+00  0.45593999997E+02  0.45594000000E+02  0.51100000000E-03 0.  1.
         11   -1    0    0    0    0 -0.00000000000E+00 -0.00000000000E+00 -0.45593999997E+02  0.45594000000E+02  0.51100000000E-03 0. -1.
    9900012    2    1    2    0    0  0.27233589760E+02 -0.10460012479E+02  0.32133211160E+02  0.47787268073E+02  0.19999986453E+02 0.  0.
        -12    1    1    2    0    0 -0.27233589760E+02  0.10460012479E+02 -0.32133211160E+02  0.43400731927E+02  0.00000000000E+00 0.  1.
         11    1    3    3    0    0  0.20973048067E+02 -0.14586614366E+02  0.17417741108E+02  0.30919504677E+02  0.51100000000E-03 0. -1.
        -11    1    3    3    0    0  0.57065611205E+01  0.20301300761E+01  0.10309415428E+02  0.11957019473E+02  0.51100000000E-03 0.  1.
        -12    1    3    3    0    0  0.55398057308E+00  0.20964718113E+01  0.44060546239E+01  0.49107439233E+01  0.00000000000E+00 0.  1.
</event>
<event>
 7    1  0.2783785E-010  0.4778727E+02  0.7816164E-02  0.1312668E+00
        -11   -1    0    0    0    0  0.00000000000E+00  0.00000000000E+00  0.45593999997E+02  0.45594000000E+02  0.51100000000E-03 0.  1.
         11   -1    0    0    0    0 -0.00000000000E+00 -0.00000000000E+00 -0.45593999997E+02  0.45594000000E+02  0.51100000000E-03 0. -1.
    9900012    2    1    2    0    0 -0.33195512712E+02 -0.78759017410E+01 -0.26826318315E+02  0.47787271357E+02  0.20000001424E+02 0.  0.
        -12    1    1    2    0    0  0.33195512712E+02  0.78759017410E+01  0.26826318315E+02  0.43400728643E+02  0.00000000000E+00 0.  1.
         11    1    3    3    0    0 -0.28955107366E+02 -0.10865872607E+02 -0.25518079222E+02  0.40095358803E+02  0.51100000000E-03 0. -1.
        -11    1    3    3    0    0  0.85517192656E+00 -0.81871264667E+00  0.57469210500E-01  0.11852900038E+01  0.51100000000E-03 0.  1.
        -12    1    3    3    0    0 -0.50955772725E+01  0.38086835124E+01 -0.13657083027E+01  0.65066225498E+01  0.00000000000E+00 0.  1.
</event>
<event>
 7    1  0.2783785E-010  0.4778727E+02  0.7816164E-02  0.1312668E+00
        -11   -1    0    0    0    0  0.00000000000E+00  0.00000000000E+00  0.45593999997E+02  0.45594000000E+02  0.51100000000E-03 0.  1.
         11   -1    0    0    0    0 -0.00000000000E+00 -0.00000000000E+00 -0.45593999997E+02  0.45594000000E+02  0.51100000000E-03 0. -1.
    9900012    2    1    2    0    0 -0.25951884127E+02 -0.34686883100E+01 -0.34613453831E+02  0.47787271038E+02  0.19999999971E+02 0.  0.
        -12    1    1    2    0    0  0.25951884127E+02  0.34686883100E+01  0.34613453831E+02  0.43400728962E+02  0.00000000000E+00 0.  1.
         11    1    3    3    0    0 -0.12955437285E+02  0.18102322352E+00 -0.97700356068E+01  0.16227437280E+02  0.51100000000E-03 0. -1.
        -11    1    3    3    0    0 -0.86508442832E+00 -0.40272437064E+01 -0.24066663793E+00  0.41261342235E+01  0.51100000000E-03 0.  1.
         12    1    3    3    0    0 -0.12131362413E+02  0.37753217284E+00 -0.24602751586E+02  0.27433699535E+02  0.00000000000E+00 0. -1.
</event>
<event>
 7    1  0.2783785E-010  0.4778727E+02  0.7816164E-02  0.1312668E+00
        -11   -1    0    0    0    0  0.00000000000E+00  0.00000000000E+00  0.45593999997E+02  0.45594000000E+02  0.51100000000E-03 0.  1.
         11   -1    0    0    0    0 -0.00000000000E+00 -0.00000000000E+00 -0.45593999997E+02  0.45594000000E+02  0.51100000000E-03 0. -1.
    9900012    2    1    2    0    0 -0.18797488061E+02  0.38040447785E+02 -0.91215169492E+01  0.47787270783E+02  0.19999998807E+02 0.  0.
        -12    1    1    2    0    0  0.18797488061E+02 -0.38040447785E+02  0.91215169492E+01  0.43400729217E+02  0.00000000000E+00 0.  1.
         11    1    3    3    0    0 -0.12514640051E+02  0.72392735447E+01 -0.43225529208E+01  0.15089988770E+02  0.51100000000E-03 0.  1.
        -11    1    3    3    0    0  0.15099110157E+01  0.75602884270E+01 -0.23649593478E+01  0.80641692289E+01  0.51100000000E-03 0. -1.
        -12    1    3    3    0    0 -0.77927590259E+01  0.23240885814E+02 -0.24340046807E+01  0.24633112784E+02  0.00000000000E+00 0.  1.
</event>
<event>
 7    1  0.2783785E-010  0.4778727E+02  0.7816164E-02  0.1312668E+00
        -11   -1    0    0    0    0  0.00000000000E+00  0.00000000000E+00  0.45593999997E+02  0.45594000000E+02  0.51100000000E-03 0. -1.
         11   -1    0    0    0    0 -0.00000000000E+00 -0.00000000000E+00 -0.45593999997E+02  0.45594000000E+02  0.51100000000E-03 0.  1.
    9900012    2    1    2    0    0 -0.20241574068E+02 -0.17351705836E+02  0.34246463401E+02  0.47787271070E+02  0.20000000116E+02 0.  0.
        -12    1    1    2    0    0  0.20241574068E+02  0.17351705836E+02 -0.34246463401E+02  0.43400728930E+02  0.00000000000E+00 0.  1.
         11    1    3    3    0    0 -0.15562816245E+02 -0.13174301210E+02  0.32480947184E+02  0.38350689591E+02  0.51100000000E-03 0. -1.
        -11    1    3    3    0    0 -0.50620054727E+01 -0.20026959393E+01  0.36328735491E+01  0.65446513212E+01  0.51100000000E-03 0.  1.
        -12    1    3    3    0    0  0.38324764975E+00 -0.21747086871E+01 -0.18673573317E+01  0.28919301580E+01  0.00000000000E+00 0.  1.
</event>
<event>
 7    1  0.2783785E-010  0.4778727E+02  0.7816164E-02  0.1312668E+00
        -11   -1    0    0    0    0  0.00000000000E+00  0.00000000000E+00  0.45593999997E+02  0.45594000000E+02  0.51100000000E-03 0.  1.
         11   -1    0    0    0    0 -0.00000000000E+00 -0.00000000000E+00 -0.45593999997E+02  0.45594000000E+02  0.51100000000E-03 0. -1.
    9900012    2    1    2    0    0 -0.20664454570E+02  0.23514115169E+02 -0.30061431992E+02  0.47787274335E+02  0.20000015001E+02 0.  0.
        -12    1    1    2    0    0  0.20664454570E+02 -0.23514115169E+02  0.30061431992E+02  0.43400725665E+02  0.00000000000E+00 0.  1.
         11    1    3    3    0    0 -0.15616783393E+01  0.62398094863E+01 -0.10330349238E+02  0.12169230760E+02  0.51100000000E-03 0. -1.
        -11    1    3    3    0    0 -0.19584410216E+02  0.11757153615E+02 -0.19567199142E+02  0.30077484389E+02  0.51100000000E-03 0.  1.
        -12    1    3    3    0    0  0.48163398587E+00  0.55171520684E+01 -0.16388361171E+00  0.55405591849E+01  0.00000000000E+00 0.  1.
</event>
<event>
 7    1  0.2783785E-010  0.4778728E+02  0.7816164E-02  0.1312668E+00
        -11   -1    0    0    0    0  0.00000000000E+00  0.00000000000E+00  0.45593999997E+02  0.45594000000E+02  0.51100000000E-03 0. -1.
         11   -1    0    0    0    0 -0.00000000000E+00 -0.00000000000E+00 -0.45593999997E+02  0.45594000000E+02  0.51100000000E-03 0.  1.
    9900012    2    1    2    0    0  0.28047358065E+02  0.11908579242E+02  0.30905564813E+02  0.47787280071E+02  0.20000041155E+02 0.  0.
        -12    1    1    2    0    0 -0.28047358065E+02 -0.11908579242E+02 -0.30905564813E+02  0.43400719929E+02  0.00000000000E+00 0.  1.
         11    1    3    3    0    0  0.22026547903E+02  0.13631300895E+02  0.30789350641E+02  0.40236367751E+02  0.51100000000E-03 0. -1.
        -11    1    3    3    0    0 -0.59886645817E+00 -0.43943999544E+00 -0.28613039814E+00  0.79600214207E+00  0.51100000000E-03 0.  1.
         12    1    3    3    0    0  0.66196766195E+01 -0.12832816570E+01  0.40234456941E+00  0.67549101778E+01  0.00000000000E+00 0. -1.
</event>
<event>
 7    1  0.2783785E-010  0.4778726E+02  0.7816164E-02  0.1312668E+00
        -11   -1    0    0    0    0  0.00000000000E+00  0.00000000000E+00  0.45593999997E+02  0.45594000000E+02  0.51100000000E-03 0.  1.
         11   -1    0    0    0    0 -0.00000000000E+00 -0.00000000000E+00 -0.45593999997E+02  0.45594000000E+02  0.51100000000E-03 0. -1.
    9900012    2    1    2    0    0 -0.33237178838E+01 -0.39656388451E+02 -0.17319001367E+02  0.47787262058E+02  0.19999959029E+02 0.  0.
        -12    1    1    2    0    0  0.33237178838E+01  0.39656388451E+02  0.17319001367E+02  0.43400737942E+02  0.00000000000E+00 0.  1.
         11    1    3    3    0    0 -0.40413432577E+00 -0.89764090539E+00 -0.33415273587E+01  0.34835167717E+01  0.51100000000E-03 0. -1.
        -11    1    3    3    0    0  0.58930064201E+01 -0.23906213592E+02 -0.10041487195E+02  0.26590713385E+02  0.51100000000E-03 0.  1.
         12    1    3    3    0    0 -0.88125899781E+01 -0.14852533954E+02 -0.39359868133E+01  0.17713031902E+02  0.00000000000E+00 0. -1.
</event>
<event>
 7    1  0.2783785E-010  0.4778727E+02  0.7816164E-02  0.1312668E+00
        -11   -1    0    0    0    0  0.00000000000E+00  0.00000000000E+00  0.45593999997E+02  0.45594000000E+02  0.51100000000E-03 0. -1.
         11   -1    0    0    0    0 -0.00000000000E+00 -0.00000000000E+00 -0.45593999997E+02  0.45594000000E+02  0.51100000000E-03 0.  1.
    9900012    2    1    2    0    0  0.21038820122E+02 -0.36657312616E+02  0.98606902539E+01  0.47787265759E+02  0.19999975901E+02 0.  0.
        -12    1    1    2    0    0 -0.21038820122E+02  0.36657312616E+02 -0.98606902539E+01  0.43400734241E+02  0.00000000000E+00 0.  1.
         11    1    3    3    0    0  0.63551084484E+01 -0.60674436606E+01  0.53347139512E+01  0.10279126868E+02  0.51100000000E-03 0. -1.
        -11    1    3    3    0    0  0.15284471674E+02 -0.18386623123E+02  0.72602872499E+01  0.24987892176E+02  0.51100000000E-03 0.  1.
        -12    1    3    3    0    0 -0.60075999996E+00 -0.12203245833E+02 -0.27343109472E+01  0.12520246715E+02  0.00000000000E+00 0.  1.
</event>
<event>
 7    1  0.2783785E-010  0.4778728E+02  0.7816164E-02  0.1312668E+00
        -11   -1    0    0    0    0  0.00000000000E+00  0.00000000000E+00  0.45593999997E+02  0.45594000000E+02  0.51100000000E-03 0.  1.
         11   -1    0    0    0    0 -0.00000000000E+00 -0.00000000000E+00 -0.45593999997E+02  0.45594000000E+02  0.51100000000E-03 0. -1.
    9900012    2    1    2    0    0  0.11111118187E+02 -0.30677253744E+01 -0.41842022428E+02  0.47787277342E+02  0.20000028715E+02 0.  0.
        -12    1    1    2    0    0 -0.11111118187E+02  0.30677253744E+01  0.41842022428E+02  0.43400722658E+02  0.00000000000E+00 0.  1.
         11    1    3    3    0    0  0.41189564272E+01 -0.64753364754E+01 -0.36571132013E+02  0.37367679638E+02  0.51100000000E-03 0. -1.
        -11    1    3    3    0    0  0.13463478303E+01 -0.52406678132E+00  0.40514320159E+00  0.15004798387E+01  0.51100000000E-03 0.  1.
         12    1    3    3    0    0  0.56458139290E+01  0.39316778822E+01 -0.56760336162E+01  0.89191178657E+01  0.00000000000E+00 0. -1.
</event>
<event>
 7    1  0.4803138E-010  0.4778727E+02  0.7816164E-02  0.1312668E+00
        -11   -1    0    0    0    0  0.00000000000E+00  0.00000000000E+00  0.45593999997E+02  0.45594000000E+02  0.51100000000E-03 0. -1.
         11   -1    0    0    0    0 -0.00000000000E+00 -0.00000000000E+00 -0.45593999997E+02  0.45594000000E+02  0.51100000000E-03 0.  1.
    9900012    2    1    2    0    0 -0.21260223941E+02 -0.30727726727E+02  0.22077876947E+02  0.47787274634E+02  0.20000016365E+02 0.  0.
        -12    1    1    2    0    0  0.21260223941E+02  0.30727726727E+02 -0.22077876947E+02  0.43400725366E+02  0.00000000000E+00 0.  1.
         11    1    3    3    0    0 -0.13027310318E+02 -0.12224189404E+02  0.99764569553E+01  0.20461459243E+02  0.51100000000E-03 0. -1.
        -11    1    3    3    0    0 -0.31479740195E+01 -0.64837072598E+01 -0.26045820556E+01  0.76636837228E+01  0.51100000000E-03 0.  1.
        -12    1    3    3    0    0 -0.50849396040E+01 -0.12019830063E+02  0.14706002047E+02  0.19662131668E+02  0.00000000000E+00 0.  1.
</event>
<event>
 7    1  0.2783785E-010  0.4778727E+02  0.7816164E-02  0.1312668E+00
        -11   -1    0    0    0    0  0.00000000000E+00  0.00000000000E+00  0.45593999997E+02  0.45594000000E+02  0.51100000000E-03 0. -1.
         11   -1    0    0    0    0 -0.00000000000E+00 -0.00000000000E+00 -0.45593999997E+02  0.45594000000E+02  0.51100000000E-03 0.  1.
    9900012    2    1    2    0    0  0.35993943991E+02  0.10960597772E+02  0.21631569126E+02  0.47787268550E+02  0.19999988628E+02 0.  0.
        -12    1    1    2    0    0 -0.35993943991E+02 -0.10960597772E+02 -0.21631569126E+02  0.43400731450E+02  0.00000000000E+00 0.  1.
         11    1    3    3    0    0  0.12795857088E+02  0.62617899958E+01  0.45084242499E+01  0.14942217441E+02  0.51100000000E-03 0. -1.
        -11    1    3    3    0    0  0.11984772922E+02 -0.50110681460E+01  0.60235564005E+01  0.14318827393E+02  0.51100000000E-03 0.  1.
        -12    1    3    3    0    0  0.11213313981E+02  0.97098759222E+01  0.11099588475E+02  0.18526223716E+02  0.00000000000E+00 0.  1.
</event>
<event>
 7    1  0.2783785E-010  0.4778727E+02  0.7816164E-02  0.1312668E+00
        -11   -1    0    0    0    0  0.00000000000E+00  0.00000000000E+00  0.45593999997E+02  0.45594000000E+02  0.51100000000E-03 0.  1.
         11   -1    0    0    0    0 -0.00000000000E+00 -0.00000000000E+00 -0.45593999997E+02  0.45594000000E+02  0.51100000000E-03 0. -1.
    9900012    2    1    2    0    0  0.22459748164E+02 -0.35174376322E+02 -0.11914117453E+02  0.47787271527E+02  0.20000002201E+02 0.  0.
        -12    1    1    2    0    0 -0.22459748164E+02  0.35174376322E+02  0.11914117453E+02  0.43400728473E+02  0.00000000000E+00 0.  1.
         11    1    3    3    0    0  0.16410926939E+02 -0.12568361093E+02 -0.32114643633E+01  0.20918788855E+02  0.51100000000E-03 0. -1.
        -11    1    3    3    0    0  0.24580239529E+01 -0.14115624285E+02 -0.20288152768E+00  0.14329476330E+02  0.51100000000E-03 0.  1.
        -12    1    3    3    0    0  0.35907972729E+01 -0.84903909439E+01 -0.84997715621E+01  0.12539006342E+02  0.00000000000E+00 0.  1.
</event>
<event>
 7    1  0.2783785E-010  0.4778727E+02  0.7816164E-02  0.1312668E+00
        -11   -1    0    0    0    0  0.00000000000E+00  0.00000000000E+00  0.45593999997E+02  0.45594000000E+02  0.51100000000E-03 0.  1.
         11   -1    0    0    0    0 -0.00000000000E+00 -0.00000000000E+00 -0.45593999997E+02  0.45594000000E+02  0.51100000000E-03 0. -1.
    9900012    2    1    2    0    0  0.39527202211E+01 -0.18673942520E+01 -0.43179997156E+02  0.47787270596E+02  0.19999997954E+02 0.  0.
        -12    1    1    2    0    0 -0.39527202211E+01  0.18673942520E+01  0.43179997156E+02  0.43400729404E+02  0.00000000000E+00 0.  1.
         11    1    3    3    0    0  0.23927929868E+00 -0.26771159640E+01 -0.16760447504E+02  0.16974592933E+02  0.51100000000E-03 0. -1.
        -11    1    3    3    0    0  0.80287602376E+01  0.53059603662E+01 -0.16190388548E+02  0.18834619401E+02  0.51100000000E-03 0.  1.
        -12    1    3    3    0    0 -0.43153193152E+01 -0.44962386542E+01 -0.10229161104E+02  0.11978058262E+02  0.00000000000E+00 0.  1.
</event>
<event>
 7    1  0.2783785E-010  0.4778726E+02  0.7816164E-02  0.1312668E+00
        -11   -1    0    0    0    0  0.00000000000E+00  0.00000000000E+00  0.45593999997E+02  0.45594000000E+02  0.51100000000E-03 0.  1.
         11   -1    0    0    0    0 -0.00000000000E+00 -0.00000000000E+00 -0.45593999997E+02  0.45594000000E+02  0.51100000000E-03 0. -1.
    9900012    2    1    2    0    0  0.18751657023E+02  0.20192106517E+02 -0.33530261032E+02  0.47787260242E+02  0.19999950746E+02 0.  0.
        -12    1    1    2    0    0 -0.18751657023E+02 -0.20192106517E+02  0.33530261032E+02  0.43400739758E+02  0.00000000000E+00 0.  1.
         11    1    3    3    0    0  0.48148602779E+01  0.17615573677E+02 -0.25203982567E+02  0.31124460685E+02  0.51100000000E-03 0. -1.
        -11    1    3    3    0    0  0.11233459118E+01  0.20615736001E+00  0.97486390873E-01  0.11462594611E+01  0.51100000000E-03 0.  1.
         12    1    3    3    0    0  0.12813450834E+02  0.23703754803E+01 -0.84237648557E+01  0.15516540095E+02  0.00000000000E+00 0. -1.
</event>
<event>
 7    1  0.2783785E-010  0.4778725E+02  0.7816164E-02  0.1312668E+00
        -11   -1    0    0    0    0  0.00000000000E+00  0.00000000000E+00  0.45593999997E+02  0.45594000000E+02  0.51100000000E-03 0. -1.
         11   -1    0    0    0    0 -0.00000000000E+00 -0.00000000000E+00 -0.45593999997E+02  0.45594000000E+02  0.51100000000E-03 0.  1.
    9900012    2    1    2    0    0 -0.52085963365E+01  0.14765606030E+01  0.43061757715E+02  0.47787254793E+02  0.19999925905E+02 0.  0.
        -12    1    1    2    0    0  0.52085963365E+01 -0.14765606030E+01 -0.43061757715E+02  0.43400745207E+02  0.00000000000E+00 0.  1.
         11    1    3    3    0    0 -0.59348779086E+01 -0.44245155875E+01  0.33417568148E+02  0.34227663887E+02  0.51100000000E-03 0. -1.
        -11    1    3    3    0    0  0.14742671087E+01  0.46260100364E+01  0.10695276664E+02  0.11745738612E+02  0.51100000000E-03 0.  1.
        -12    1    3    3    0    0 -0.74798553655E+00  0.12750661541E+01 -0.10510870971E+01  0.18138522944E+01  0.00000000000E+00 0.  1.
</event>
<event>
 7    1  0.2783785E-010  0.4778727E+02  0.7816164E-02  0.1312668E+00
        -11   -1    0    0    0    0  0.00000000000E+00  0.00000000000E+00  0.45593999997E+02  0.45594000000E+02  0.51100000000E-03 0. -1.
         11   -1    0    0    0    0 -0.00000000000E+00 -0.00000000000E+00 -0.45593999997E+02  0.45594000000E+02  0.51100000000E-03 0.  1.
    9900012    2    1    2    0    0 -0.15422060248E+02  0.49593447797E+01  0.40263979180E+02  0.47787273482E+02  0.20000011112E+02 0.  0.
        -12    1    1    2    0    0  0.15422060248E+02 -0.49593447797E+01 -0.40263979180E+02  0.43400726518E+02  0.00000000000E+00 0.  1.
         11    1    3    3    0    0 -0.72284173521E+01  0.45252828195E+00  0.28639463841E+01  0.77882596525E+01  0.51100000000E-03 0. -1.
        -11    1    3    3    0    0  0.25011773301E+01  0.14851419048E+01  0.55563390583E+01  0.62717173490E+01  0.51100000000E-03 0.  1.
         12    1    3    3    0    0 -0.10694820226E+02  0.30216745929E+01  0.31843693738E+02  0.33727296480E+02  0.00000000000E+00 0. -1.
</event>
<event>
 7    1  0.2783785E-010  0.4778727E+02  0.7816164E-02  0.1312668E+00
        -11   -1    0    0    0    0  0.00000000000E+00  0.00000000000E+00  0.45593999997E+02  0.45594000000E+02  0.51100000000E-03 0.  1.
         11   -1    0    0    0    0 -0.00000000000E+00 -0.00000000000E+00 -0.45593999997E+02  0.45594000000E+02  0.51100000000E-03 0. -1.
    9900012    2    1    2    0    0  0.17890432463E+02  0.79300065177E+01 -0.38738490076E+02  0.47787272006E+02  0.20000004384E+02 0.  0.
        -12    1    1    2    0    0 -0.17890432463E+02 -0.79300065177E+01  0.38738490076E+02  0.43400727994E+02  0.00000000000E+00 0.  1.
         11    1    3    3    0    0  0.11452874624E+02  0.43677748523E+01 -0.18320259233E+02  0.22042633530E+02  0.51100000000E-03 0. -1.
        -11    1    3    3    0    0  0.78946560961E+01  0.18058998433E+01 -0.21675593801E+02  0.23139106206E+02  0.51100000000E-03 0.  1.
        -12    1    3    3    0    0 -0.14570982573E+01  0.17563318221E+01  0.12573629584E+01  0.26055322700E+01  0.00000000000E+00 0.  1.
</event>
<event>
 7    1  0.2783785E-010  0.4778726E+02  0.7816164E-02  0.1312668E+00
        -11   -1    0    0    0    0  0.00000000000E+00  0.00000000000E+00  0.45593999997E+02  0.45594000000E+02  0.51100000000E-03 0.  1.
         11   -1    0    0    0    0 -0.00000000000E+00 -0.00000000000E+00 -0.45593999997E+02  0.45594000000E+02  0.51100000000E-03 0. -1.
    9900012    2    1    2    0    0 -0.10290902714E+02  0.25475332716E+02 -0.33596561001E+02  0.47787260758E+02  0.19999953101E+02 0.  0.
        -12    1    1    2    0    0  0.10290902714E+02 -0.25475332716E+02  0.33596561001E+02  0.43400739242E+02  0.00000000000E+00 0.  1.
         11    1    3    3    0    0 -0.10584273270E+02  0.22457377152E+02 -0.19116337322E+02  0.31333607869E+02  0.51100000000E-03 0. -1.
        -11    1    3    3    0    0  0.14417469729E+01  0.51685943194E+01 -0.95792763110E+01  0.10979778526E+02  0.51100000000E-03 0.  1.
         12    1    3    3    0    0 -0.11483764168E+01 -0.21506387553E+01 -0.49009473675E+01  0.54738743637E+01  0.00000000000E+00 0. -1.
</event>
<event>
 7    1  0.2783785E-010  0.4778727E+02  0.7816164E-02  0.1312668E+00
        -11   -1    0    0    0    0  0.00000000000E+00  0.00000000000E+00  0.45593999997E+02  0.45594000000E+02  0.51100000000E-03 0. -1.
         11   -1    0    0    0    0 -0.00000000000E+00 -0.00000000000E+00 -0.45593999997E+02  0.45594000000E+02  0.51100000000E-03 0.  1.
    9900012    2    1    2    0    0  0.99804326538E+01  0.16167336664E+02  0.39020914517E+02  0.47787267512E+02  0.19999983895E+02 0.  0.
        -12    1    1    2    0    0 -0.99804326538E+01 -0.16167336664E+02 -0.39020914517E+02  0.43400732488E+02  0.00000000000E+00 0.  1.
         11    1    3    3    0    0  0.25990355703E+01  0.11226260122E+02  0.26662386333E+02  0.29045942013E+02  0.51100000000E-03 0. -1.
        -11    1    3    3    0    0  0.81512628611E+01 -0.66808587468E+00  0.89886709511E+01  0.12152597693E+02  0.51100000000E-03 0.  1.
         12    1    3    3    0    0 -0.76986577759E+00  0.56091624161E+01  0.33698572329E+01  0.65887278056E+01  0.00000000000E+00 0. -1.
</event>
<event>
 7    1  0.2783785E-010  0.4778727E+02  0.7816164E-02  0.1312668E+00
        -11   -1    0    0    0    0  0.00000000000E+00  0.00000000000E+00  0.45593999997E+02  0.45594000000E+02  0.51100000000E-03 0.  1.
         11   -1    0    0    0    0 -0.00000000000E+00 -0.00000000000E+00 -0.45593999997E+02  0.45594000000E+02  0.51100000000E-03 0. -1.
    9900012    2    1    2    0    0 -0.33680532370E+02  0.19981728207E+02 -0.18707631282E+02  0.47787271999E+02  0.20000004351E+02 0.  0.
        -12    1    1    2    0    0  0.33680532370E+02 -0.19981728207E+02  0.18707631282E+02  0.43400728001E+02  0.00000000000E+00 0.  1.
         11    1    3    3    0    0 -0.94264866457E+01  0.40251687272E+01 -0.47762961368E+01  0.11308122692E+02  0.51100000000E-03 0. -1.
        -11    1    3    3    0    0 -0.16915039079E+02  0.46933873150E+01 -0.62666288906E+00  0.17565282183E+02  0.51100000000E-03 0.  1.
         12    1    3    3    0    0 -0.73390066454E+01  0.11263172165E+02 -0.13304672256E+02  0.18913867124E+02  0.00000000000E+00 0. -1.
</event>
<event>
 7    1  0.2783785E-010  0.4778727E+02  0.7816164E-02  0.1312668E+00
        -11   -1    0    0    0    0  0.00000000000E+00  0.00000000000E+00  0.45593999997E+02  0.45594000000E+02  0.51100000000E-03 0.  1.
         11   -1    0    0    0    0 -0.00000000000E+00 -0.00000000000E+00 -0.45593999997E+02  0.45594000000E+02  0.51100000000E-03 0. -1.
    9900012    2    1    2    0    0  0.32356761550E+01 -0.42855888416E+02  0.60437102473E+01  0.47787271831E+02  0.20000003585E+02 0.  0.
        -12    1    1    2    0    0 -0.32356761550E+01  0.42855888416E+02 -0.60437102473E+01  0.43400728169E+02  0.00000000000E+00 0.  1.
         11    1    3    3    0    0  0.16234791463E+01 -0.24797161130E+02 -0.21817136961E+01  0.24945836518E+02  0.51100000000E-03 0. -1.
        -11    1    3    3    0    0 -0.11792422781E+01 -0.46832593750E+01  0.77964559269E+01  0.91710553376E+01  0.51100000000E-03 0.  1.
        -12    1    3    3    0    0  0.27914392867E+01 -0.13375467910E+02  0.42896801643E+00  0.13670379975E+02  0.00000000000E+00 0.  1.
</event>
<event>
 7    1  0.2783785E-010  0.4778727E+02  0.7816164E-02  0.1312668E+00
        -11   -1    0    0    0    0  0.00000000000E+00  0.00000000000E+00  0.45593999997E+02  0.45594000000E+02  0.51100000000E-03 0.  1.
         11   -1    0    0    0    0 -0.00000000000E+00 -0.00000000000E+00 -0.45593999997E+02  0.45594000000E+02  0.51100000000E-03 0. -1.
    9900012    2    1    2    0    0  0.24023638179E+02  0.31501453713E+02 -0.17724183596E+02  0.47787268883E+02  0.19999990145E+02 0.  0.
        -12    1    1    2    0    0 -0.24023638179E+02 -0.31501453713E+02  0.17724183596E+02  0.43400731117E+02  0.00000000000E+00 0.  1.
         11    1    3    3    0    0  0.10175575435E+02  0.26898873231E+02 -0.11865574462E+02  0.31110827281E+02  0.51100000000E-03 0. -1.
        -11    1    3    3    0    0  0.66434452106E+01  0.37978177540E+01 -0.54893295747E+01  0.94176177136E+01  0.51100000000E-03 0.  1.
         12    1    3    3    0    0  0.72046175336E+01  0.80476272801E+00 -0.36927955891E+00  0.72588238887E+01  0.00000000000E+00 0. -1.
</event>
<event>
 7    1  0.2783785E-010  0.4778727E+02  0.7816164E-02  0.1312668E+00
        -11   -1    0    0    0    0  0.00000000000E+00  0.00000000000E+00  0.45593999997E+02  0.45594000000E+02  0.51100000000E-03 0. -1.
         11   -1    0    0    0    0 -0.00000000000E+00 -0.00000000000E+00 -0.45593999997E+02  0.45594000000E+02  0.51100000000E-03 0.  1.
    9900012    2    1    2    0    0 -0.38692354171E+02  0.18039750153E+02  0.78161683340E+01  0.47787270233E+02  0.19999996302E+02 0.  0.
        -12    1    1    2    0    0  0.38692354171E+02 -0.18039750153E+02 -0.78161683340E+01  0.43400729767E+02  0.00000000000E+00 0.  1.
         11    1    3    3    0    0 -0.10260036187E+02  0.94944525385E+01  0.16180591081E+01  0.14072351868E+02  0.51100000000E-03 0. -1.
        -11    1    3    3    0    0 -0.17170834824E+02  0.12320076957E+02  0.25312550903E+01  0.21284480670E+02  0.51100000000E-03 0.  1.
        -12    1    3    3    0    0 -0.11261483160E+02 -0.37747793431E+01  0.36668541356E+01  0.12430437696E+02  0.00000000000E+00 0.  1.
</event>
<event>
 7    1  0.2783785E-010  0.4778728E+02  0.7816164E-02  0.1312668E+00
        -11   -1    0    0    0    0  0.00000000000E+00  0.00000000000E+00  0.45593999997E+02  0.45594000000E+02  0.51100000000E-03 0.  1.
         11   -1    0    0    0    0 -0.00000000000E+00 -0.00000000000E+00 -0.45593999997E+02  0.45594000000E+02  0.51100000000E-03 0. -1.
    9900012    2    1    2    0    0  0.21694099232E+01 -0.43303072158E+02 -0.19390262537E+01  0.47787283179E+02  0.20000055328E+02 0.  0.
        -12    1    1    2    0    0 -0.21694099232E+01  0.43303072158E+02  0.19390262537E+01  0.43400716821E+02  0.00000000000E+00 0.  1.
         11    1    3    3    0    0  0.44424105243E+01 -0.99088207810E+01  0.17353587422E+01  0.10996872772E+02  0.51100000000E-03 0. -1.
        -11    1    3    3    0    0 -0.84504975170E+01 -0.22674162819E+02 -0.32035150327E+01  0.24408831940E+02  0.51100000000E-03 0.  1.
        -12    1    3    3    0    0  0.61774969159E+01 -0.10720088558E+02 -0.47086996316E+00  0.12381578468E+02  0.00000000000E+00 0.  1.
</event>
<event>
 7    1  0.2783785E-010  0.4778727E+02  0.7816164E-02  0.1312668E+00
        -11   -1    0    0    0    0  0.00000000000E+00  0.00000000000E+00  0.45593999997E+02  0.45594000000E+02  0.51100000000E-03 0. -1.
         11   -1    0    0    0    0 -0.00000000000E+00 -0.00000000000E+00 -0.45593999997E+02  0.45594000000E+02  0.51100000000E-03 0.  1.
    9900012    2    1    2    0    0 -0.19568595083E+02 -0.37839722132E+02 -0.82975042440E+01  0.47787273494E+02  0.20000011170E+02 0.  0.
        -12    1    1    2    0    0  0.19568595083E+02  0.37839722132E+02  0.82975042440E+01  0.43400726506E+02  0.00000000000E+00 0.  1.
         11    1    3    3    0    0 -0.18069005544E+02 -0.26652878182E+02 -0.71370072391E+01  0.32981839690E+02  0.51100000000E-03 0. -1.
        -11    1    3    3    0    0 -0.33355130768E+01 -0.38157358646E+01  0.32508980810E+01  0.60211150352E+01  0.51100000000E-03 0.  1.
         12    1    3    3    0    0  0.18359235373E+01 -0.73711080848E+01 -0.44113950859E+01  0.87843187691E+01  0.00000000000E+00 0. -1.
</event>
<event>
 7    1  0.2783785E-010  0.4778727E+02  0.7816164E-02  0.1312668E+00
        -11   -1    0    0    0    0  0.00000000000E+00  0.00000000000E+00  0.45593999997E+02  0.45594000000E+02  0.51100000000E-03 0. -1.
         11   -1    0    0    0    0 -0.00000000000E+00 -0.00000000000E+00 -0.45593999997E+02  0.45594000000E+02  0.51100000000E-03 0.  1.
    9900012    2    1    2    0    0 -0.17840742537E+02  0.24902306626E+02  0.30744203842E+02  0.47787273745E+02  0.20000012314E+02 0.  0.
        -12    1    1    2    0    0  0.17840742537E+02 -0.24902306626E+02 -0.30744203842E+02  0.43400726255E+02  0.00000000000E+00 0.  1.
         11    1    3    3    0    0 -0.18225366065E+02  0.10812219797E+02  0.13646194525E+02  0.25204894176E+02  0.51100000000E-03 0. -1.
        -11    1    3    3    0    0  0.17644371813E+01  0.46807339937E+01  0.40486311803E+01  0.64353651009E+01  0.51100000000E-03 0.  1.
         12    1    3    3    0    0 -0.13798136534E+01  0.94093528347E+01  0.13049378137E+02  0.16147014468E+02  0.00000000000E+00 0. -1.
</event>
<event>
 7    1  0.2783785E-010  0.4778728E+02  0.7816164E-02  0.1312668E+00
        -11   -1    0    0    0    0  0.00000000000E+00  0.00000000000E+00  0.45593999997E+02  0.45594000000E+02  0.51100000000E-03 0.  1.
         11   -1    0    0    0    0 -0.00000000000E+00 -0.00000000000E+00 -0.45593999997E+02  0.45594000000E+02  0.51100000000E-03 0. -1.
    9900012    2    1    2    0    0  0.30996203340E+01  0.35856093306E+02 -0.24256031755E+02  0.47787283994E+02  0.20000059040E+02 0.  0.
        -12    1    1    2    0    0 -0.30996203340E+01 -0.35856093306E+02  0.24256031755E+02  0.43400716006E+02  0.00000000000E+00 0.  1.
         11    1    3    3    0    0 -0.17887840653E+01  0.29442112673E+02 -0.13825495621E+02  0.32575789730E+02  0.51100000000E-03 0. -1.
        -11    1    3    3    0    0 -0.80958465975E+00 -0.99325883644E+00 -0.10625975415E+00  0.12858000754E+01  0.51100000000E-03 0.  1.
        -12    1    3    3    0    0  0.56979890591E+01  0.74072394698E+01 -0.10324276379E+02  0.13925694188E+02  0.00000000000E+00 0.  1.
</event>
<event>
 7    1  0.2783785E-010  0.4778727E+02  0.7816164E-02  0.1312668E+00
        -11   -1    0    0    0    0  0.00000000000E+00  0.00000000000E+00  0.45593999997E+02  0.45594000000E+02  0.51100000000E-03 0.  1.
         11   -1    0    0    0    0 -0.00000000000E+00 -0.00000000000E+00 -0.45593999997E+02  0.45594000000E+02  0.51100000000E-03 0. -1.
    9900012    2    1    2    0    0  0.10789320930E+02 -0.34470706962E+01 -0.41896678522E+02  0.47787269434E+02  0.19999992655E+02 0.  0.
        -12    1    1    2    0    0 -0.10789320930E+02  0.34470706962E+01  0.41896678522E+02  0.43400730566E+02  0.00000000000E+00 0.  1.
         11    1    3    3    0    0 -0.33763790382E+01  0.29447672831E+01 -0.14991310246E+02  0.15646436429E+02  0.51100000000E-03 0.  1.
        -11    1    3    3    0    0  0.70949446135E+01  0.20883315675E+00 -0.68001075531E+01  0.98297158327E+01  0.51100000000E-03 0. -1.
        -12    1    3    3    0    0  0.70707553544E+01 -0.66006711360E+01 -0.20105260723E+02  0.22311117172E+02  0.00000000000E+00 0.  1.
</event>
<event>
 7    1  0.2895586E-010  0.4778727E+02  0.7816164E-02  0.1312668E+00
        -11   -1    0    0    0    0  0.00000000000E+00  0.00000000000E+00  0.45593999997E+02  0.45594000000E+02  0.51100000000E-03 0. -1.
         11   -1    0    0    0    0 -0.00000000000E+00 -0.00000000000E+00 -0.45593999997E+02  0.45594000000E+02  0.51100000000E-03 0.  1.
    9900012    2    1    2    0    0 -0.42498435846E+02  0.84508001323E+01  0.24678411447E+01  0.47787270603E+02  0.19999997989E+02 0.  0.
        -12    1    1    2    0    0  0.42498435846E+02 -0.84508001323E+01 -0.24678411447E+01  0.43400729397E+02  0.00000000000E+00 0.  1.
         11    1    3    3    0    0 -0.16628268428E+02  0.12169909357E+01  0.13159015609E+01  0.16724591925E+02  0.51100000000E-03 0. -1.
        -11    1    3    3    0    0  0.99669782227E-01 -0.30845380742E+01  0.35752032839E+00  0.31067877692E+01  0.51100000000E-03 0.  1.
        -12    1    3    3    0    0 -0.25969837200E+02  0.10318347271E+02  0.79441925541E+00  0.27955890910E+02  0.00000000000E+00 0.  1.
</event>
<event>
 7    1  0.2783785E-010  0.4778724E+02  0.7816164E-02  0.1312668E+00
        -11   -1    0    0    0    0  0.00000000000E+00  0.00000000000E+00  0.45593999997E+02  0.45594000000E+02  0.51100000000E-03 0. -1.
         11   -1    0    0    0    0 -0.00000000000E+00 -0.00000000000E+00 -0.45593999997E+02  0.45594000000E+02  0.51100000000E-03 0.  1.
    9900012    2    1    2    0    0 -0.11565745756E+01 -0.15410502014E+02  0.40556189640E+02  0.47787242458E+02  0.19999869664E+02 0.  0.
        -12    1    1    2    0    0  0.11565745756E+01  0.15410502014E+02 -0.40556189640E+02  0.43400757542E+02  0.00000000000E+00 0.  1.
         11    1    3    3    0    0 -0.44280826861E+01  0.52643662898E-01  0.23909243391E+01  0.50326143391E+01  0.51100000000E-03 0.  1.
        -11    1    3    3    0    0  0.52541704022E+01 -0.60431062513E+01  0.90249997413E+01  0.12065490474E+02  0.51100000000E-03 0. -1.
         12    1    3    3    0    0 -0.19826622917E+01 -0.94200394257E+01  0.29140265560E+02  0.30689137646E+02  0.00000000000E+00 0. -1.
</event>
<event>
 7    1  0.2783785E-010  0.4778725E+02  0.7816164E-02  0.1312668E+00
        -11   -1    0    0    0    0  0.00000000000E+00  0.00000000000E+00  0.45593999997E+02  0.45594000000E+02  0.51100000000E-03 0. -1.
         11   -1    0    0    0    0 -0.00000000000E+00 -0.00000000000E+00 -0.45593999997E+02  0.45594000000E+02  0.51100000000E-03 0.  1.
    9900012    2    1    2    0    0 -0.35236930807E+02 -0.90109018472E+01  0.23680948057E+02  0.47787251784E+02  0.19999912186E+02 0.  0.
        -12    1    1    2    0    0  0.35236930807E+02  0.90109018472E+01 -0.23680948057E+02  0.43400748216E+02  0.00000000000E+00 0.  1.
         11    1    3    3    0    0 -0.35372508311E+01 -0.27162610626E+01 -0.12283920646E+01  0.46259231433E+01  0.51100000000E-03 0. -1.
        -11    1    3    3    0    0 -0.20341881529E+01 -0.37939667364E+01 -0.60536235452E-01  0.43053187960E+01  0.51100000000E-03 0.  1.
        -12    1    3    3    0    0 -0.29665491823E+02 -0.25006740483E+01  0.24969876358E+02  0.38856009845E+02  0.00000000000E+00 0.  1.
</event>
<event>
 7    1  0.2783785E-010  0.4778727E+02  0.7816164E-02  0.1312668E+00
        -11   -1    0    0    0    0  0.00000000000E+00  0.00000000000E+00  0.45593999997E+02  0.45594000000E+02  0.51100000000E-03 0.  1.
         11   -1    0    0    0    0 -0.00000000000E+00 -0.00000000000E+00 -0.45593999997E+02  0.45594000000E+02  0.51100000000E-03 0. -1.
    9900012    2    1    2    0    0  0.17074180168E+02 -0.35287609951E+02 -0.18624724411E+02  0.47787269547E+02  0.19999993170E+02 0.  0.
        -12    1    1    2    0    0 -0.17074180168E+02  0.35287609951E+02  0.18624724411E+02  0.43400730453E+02  0.00000000000E+00 0.  1.
         11    1    3    3    0    0  0.59670463850E+01 -0.11454151365E+02 -0.79388469968E+01  0.15160096238E+02  0.51100000000E-03 0. -1.
        -11    1    3    3    0    0  0.93119389481E+01 -0.89666950294E+01  0.18995661435E+01  0.13066069743E+02  0.51100000000E-03 0.  1.
        -12    1    3    3    0    0  0.17951948352E+01 -0.14866763557E+02 -0.12585443558E+02  0.19561103566E+02  0.00000000000E+00 0.  1.
</event>
<event>
 7    1  0.2783785E-010  0.4778728E+02  0.7816164E-02  0.1312668E+00
        -11   -1    0    0    0    0  0.00000000000E+00  0.00000000000E+00  0.45593999997E+02  0.45594000000E+02  0.51100000000E-03 0.  1.
         11   -1    0    0    0    0 -0.00000000000E+00 -0.00000000000E+00 -0.45593999997E+02  0.45594000000E+02  0.51100000000E-03 0. -1.
    9900012    2    1    2    0    0 -0.24688498798E+02  0.34960609252E+02 -0.72011541163E+01  0.47787276587E+02  0.20000025271E+02 0.  0.
        -12    1    1    2    0    0  0.24688498798E+02 -0.34960609252E+02  0.72011541163E+01  0.43400723413E+02  0.00000000000E+00 0.  1.
         11    1    3    3    0    0 -0.60308593209E+01  0.11589933653E+01  0.70792015392E+00  0.61818832871E+01  0.51100000000E-03 0. -1.
        -11    1    3    3    0    0 -0.85859360921E+01  0.52822987939E+01 -0.49060534633E+01  0.11211170321E+02  0.51100000000E-03 0.  1.
         12    1    3    3    0    0 -0.10071703385E+02  0.28519317093E+02 -0.30030208070E+01  0.30394222979E+02  0.00000000000E+00 0. -1.
</event>
<event>
 7    1  0.2783785E-010  0.4778727E+02  0.7816164E-02  0.1312668E+00
        -11   -1    0    0    0    0  0.00000000000E+00  0.00000000000E+00  0.45593999997E+02  0.45594000000E+02  0.51100000000E-03 0.  1.
         11   -1    0    0    0    0 -0.00000000000E+00 -0.00000000000E+00 -0.45593999997E+02  0.45594000000E+02  0.51100000000E-03 0. -1.
    9900012    2    1    2    0    0 -0.23358102352E+02 -0.33307546393E+02 -0.15120506630E+02  0.47787270594E+02  0.19999997948E+02 0.  0.
        -12    1    1    2    0    0  0.23358102352E+02  0.33307546393E+02  0.15120506630E+02  0.43400729406E+02  0.00000000000E+00 0.  1.
         11    1    3    3    0    0 -0.47797027722E+01 -0.17430795697E+02 -0.56985639477E+01  0.18951301500E+02  0.51100000000E-03 0. -1.
        -11    1    3    3    0    0 -0.12390029470E+02 -0.82282777724E+01  0.47488900318E+00  0.14880957805E+02  0.51100000000E-03 0.  1.
         12    1    3    3    0    0 -0.61883701094E+01 -0.76484729240E+01 -0.98968316854E+01  0.13955011289E+02  0.00000000000E+00 0. -1.
</event>
<event>
 7    1  0.2783785E-010  0.4778727E+02  0.7816164E-02  0.1312668E+00
        -11   -1    0    0    0    0  0.00000000000E+00  0.00000000000E+00  0.45593999997E+02  0.45594000000E+02  0.51100000000E-03 0.  1.
         11   -1    0    0    0    0 -0.00000000000E+00 -0.00000000000E+00 -0.45593999997E+02  0.45594000000E+02  0.51100000000E-03 0. -1.
    9900012    2    1    2    0    0 -0.42384952886E+02  0.67329093356E+01  0.64658252454E+01  0.47787271949E+02  0.20000004125E+02 0.  0.
        -12    1    1    2    0    0  0.42384952886E+02 -0.67329093356E+01 -0.64658252454E+01  0.43400728051E+02  0.00000000000E+00 0.  1.
         11    1    3    3    0    0 -0.13045056233E+02  0.45143608135E+01  0.28589221500E+00  0.13807051833E+02  0.51100000000E-03 0. -1.
        -11    1    3    3    0    0 -0.63825468480E+01  0.12708871212E+01 -0.52088170240E+01  0.83356963352E+01  0.51100000000E-03 0.  1.
        -12    1    3    3    0    0 -0.22957349804E+02  0.94766140086E+00  0.11388750054E+02  0.25644523781E+02  0.00000000000E+00 0.  1.
</event>
<event>
 7    1  0.2783785E-010  0.4778727E+02  0.7816164E-02  0.1312668E+00
        -11   -1    0    0    0    0  0.00000000000E+00  0.00000000000E+00  0.45593999997E+02  0.45594000000E+02  0.51100000000E-03 0.  1.
         11   -1    0    0    0    0 -0.00000000000E+00 -0.00000000000E+00 -0.45593999997E+02  0.45594000000E+02  0.51100000000E-03 0. -1.
    9900012    2    1    2    0    0  0.38283994740E+02 -0.19447170437E+02 -0.63061000764E+01  0.47787267410E+02  0.19999983427E+02 0.  0.
        -12    1    1    2    0    0 -0.38283994740E+02  0.19447170437E+02  0.63061000764E+01  0.43400732590E+02  0.00000000000E+00 0.  1.
         11    1    3    3    0    0  0.45732658566E+01 -0.30330646213E+01 -0.58687866320E+01  0.80347307600E+01  0.51100000000E-03 0. -1.
        -11    1    3    3    0    0  0.90591584860E+01 -0.60440806681E+01  0.57313583481E+01  0.12306410215E+02  0.51100000000E-03 0.  1.
         12    1    3    3    0    0  0.24651570397E+02 -0.10370025147E+02 -0.61686717924E+01  0.27446126435E+02  0.00000000000E+00 0. -1.
</event>
<event>
 7    1  0.2783785E-010  0.4778728E+02  0.7816164E-02  0.1312668E+00
        -11   -1    0    0    0    0  0.00000000000E+00  0.00000000000E+00  0.45593999997E+02  0.45594000000E+02  0.51100000000E-03 0.  1.
         11   -1    0    0    0    0 -0.00000000000E+00 -0.00000000000E+00 -0.45593999997E+02  0.45594000000E+02  0.51100000000E-03 0. -1.
    9900012    2    1    2    0    0 -0.20368786366E+02  0.34057499749E+02 -0.17573317397E+02  0.47787283054E+02  0.20000054754E+02 0.  0.
        -12    1    1    2    0    0  0.20368786366E+02 -0.34057499749E+02  0.17573317397E+02  0.43400716946E+02  0.00000000000E+00 0.  1.
         11    1    3    3    0    0 -0.50195047728E+01  0.59817018295E+00  0.10780470556E+01  0.51686963005E+01  0.51100000000E-03 0. -1.
        -11    1    3    3    0    0 -0.18185525434E+00  0.39619158127E+01 -0.58452632877E+01  0.70637774176E+01  0.51100000000E-03 0.  1.
        -12    1    3    3    0    0 -0.15167426338E+02  0.29497413753E+02 -0.12806101165E+02  0.35554809335E+02  0.00000000000E+00 0.  1.
</event>
<event>
 7    1  0.2783785E-010  0.4778727E+02  0.7816164E-02  0.1312668E+00
        -11   -1    0    0    0    0  0.00000000000E+00  0.00000000000E+00  0.45593999997E+02  0.45594000000E+02  0.51100000000E-03 0.  1.
         11   -1    0    0    0    0 -0.00000000000E+00 -0.00000000000E+00 -0.45593999997E+02  0.45594000000E+02  0.51100000000E-03 0. -1.
    9900012    2    1    2    0    0 -0.62194899115E+00 -0.24203466058E+01 -0.43328723891E+02  0.47787271754E+02  0.20000003235E+02 0.  0.
        -12    1    1    2    0    0  0.62194899115E+00  0.24203466058E+01  0.43328723891E+02  0.43400728246E+02  0.00000000000E+00 0.  1.
         11    1    3    3    0    0  0.48149753228E+01 -0.18433554430E+01 -0.19642194819E+02  0.20307578984E+02  0.51100000000E-03 0. -1.
        -11    1    3    3    0    0 -0.65401725868E+01 -0.48303994683E+01 -0.89030521046E+01  0.12056987747E+02  0.51100000000E-03 0.  1.
         12    1    3    3    0    0  0.11032482729E+01  0.42534083055E+01 -0.14783476968E+02  0.15422705023E+02  0.00000000000E+00 0. -1.
</event>
<event>
 7    1  0.2783785E-010  0.4778727E+02  0.7816164E-02  0.1312668E+00
        -11   -1    0    0    0    0  0.00000000000E+00  0.00000000000E+00  0.45593999997E+02  0.45594000000E+02  0.51100000000E-03 0.  1.
         11   -1    0    0    0    0 -0.00000000000E+00 -0.00000000000E+00 -0.45593999997E+02  0.45594000000E+02  0.51100000000E-03 0. -1.
    9900012    2    1    2    0    0  0.35237397635E+02 -0.25309356165E+02 -0.11770532222E+01  0.47787272405E+02  0.20000006201E+02 0.  0.
        -12    1    1    2    0    0 -0.35237397635E+02  0.25309356165E+02  0.11770532222E+01  0.43400727595E+02  0.00000000000E+00 0.  1.
         11    1    3    3    0    0  0.75140116052E+01 -0.88219948462E+01 -0.20456728068E-01  0.11588286422E+02  0.51100000000E-03 0. -1.
        -11    1    3    3    0    0  0.96961116408E+01 -0.11726041158E+02  0.58204974926E+01  0.16290881300E+02  0.51100000000E-03 0.  1.
         12    1    3    3    0    0  0.18027274389E+02 -0.47613201601E+01 -0.69770939867E+01  0.19908104683E+02  0.00000000000E+00 0. -1.
</event>
<event>
 7    1  0.2783785E-010  0.4778725E+02  0.7816164E-02  0.1312668E+00
        -11   -1    0    0    0    0  0.00000000000E+00  0.00000000000E+00  0.45593999997E+02  0.45594000000E+02  0.51100000000E-03 0.  1.
         11   -1    0    0    0    0 -0.00000000000E+00 -0.00000000000E+00 -0.45593999997E+02  0.45594000000E+02  0.51100000000E-03 0. -1.
    9900012    2    1    2    0    0  0.28462327397E+02 -0.32752177007E+02 -0.90342962906E+00  0.47787246958E+02  0.19999890179E+02 0.  0.
        -12    1    1    2    0    0 -0.28462327397E+02  0.32752177007E+02  0.90342962906E+00  0.43400753042E+02  0.00000000000E+00 0.  1.
         11    1    3    3    0    0  0.54969751076E+01 -0.80390083557E+01 -0.21545191377E+01  0.99741838590E+01  0.51100000000E-03 0. -1.
        -11    1    3    3    0    0  0.99432986619E+00 -0.11611706012E+02  0.34060171649E+01  0.12141719877E+02  0.51100000000E-03 0.  1.
         12    1    3    3    0    0  0.21971022423E+02 -0.13101462640E+02 -0.21549276562E+01  0.25671343222E+02  0.00000000000E+00 0. -1.
</event>
<event>
 7    1  0.2783785E-010  0.4778727E+02  0.7816164E-02  0.1312668E+00
        -11   -1    0    0    0    0  0.00000000000E+00  0.00000000000E+00  0.45593999997E+02  0.45594000000E+02  0.51100000000E-03 0.  1.
         11   -1    0    0    0    0 -0.00000000000E+00 -0.00000000000E+00 -0.45593999997E+02  0.45594000000E+02  0.51100000000E-03 0. -1.
    9900012    2    1    2    0    0  0.28853606844E+02  0.88570171156E+01 -0.31187269511E+02  0.47787272361E+02  0.20000006002E+02 0.  0.
        -12    1    1    2    0    0 -0.28853606844E+02 -0.88570171156E+01  0.31187269511E+02  0.43400727639E+02  0.00000000000E+00 0.  1.
         11    1    3    3    0    0  0.15063501538E+02  0.32466229892E+01 -0.17807865559E+02  0.23549303927E+02  0.51100000000E-03 0. -1.
        -11    1    3    3    0    0  0.52074898434E+01  0.52691866680E+01  0.10131355548E+01  0.74772135535E+01  0.51100000000E-03 0.  1.
        -12    1    3    3    0    0  0.85826154620E+01  0.34120745840E+00 -0.14392539507E+02  0.16760754880E+02  0.00000000000E+00 0.  1.
</event>
<event>
 7    1  0.2783785E-010  0.4778727E+02  0.7816164E-02  0.1312668E+00
        -11   -1    0    0    0    0  0.00000000000E+00  0.00000000000E+00  0.45593999997E+02  0.45594000000E+02  0.51100000000E-03 0.  1.
         11   -1    0    0    0    0 -0.00000000000E+00 -0.00000000000E+00 -0.45593999997E+02  0.45594000000E+02  0.51100000000E-03 0. -1.
    9900012    2    1    2    0    0 -0.98582112902E+01 -0.36745785291E+02 -0.20885077882E+02  0.47787267925E+02  0.19999985779E+02 0.  0.
        -12    1    1    2    0    0  0.98582112902E+01  0.36745785291E+02  0.20885077882E+02  0.43400732075E+02  0.00000000000E+00 0.  1.
         11    1    3    3    0    0  0.15465209491E+01 -0.14787459323E+02 -0.72022279966E+01  0.16520677004E+02  0.51100000000E-03 0. -1.
        -11    1    3    3    0    0 -0.39652795893E+01 -0.34377514436E+01  0.22677888200E+01  0.57170310129E+01  0.51100000000E-03 0.  1.
         12    1    3    3    0    0 -0.74394526499E+01 -0.18520574524E+02 -0.15950638705E+02  0.25549559909E+02  0.00000000000E+00 0. -1.
</event>
<event>
 7    1  0.2783785E-010  0.4778728E+02  0.7816164E-02  0.1312668E+00
        -11   -1    0    0    0    0  0.00000000000E+00  0.00000000000E+00  0.45593999997E+02  0.45594000000E+02  0.51100000000E-03 0.  1.
         11   -1    0    0    0    0 -0.00000000000E+00 -0.00000000000E+00 -0.45593999997E+02  0.45594000000E+02  0.51100000000E-03 0. -1.
    9900012    2    1    2    0    0  0.27934024519E+02  0.20557653456E+02 -0.26090150117E+02  0.47787276796E+02  0.20000026225E+02 0.  0.
        -12    1    1    2    0    0 -0.27934024519E+02 -0.20557653456E+02  0.26090150117E+02  0.43400723204E+02  0.00000000000E+00 0.  1.
         11    1    3    3    0    0  0.19642010361E+00  0.61318568392E+01 -0.78271338654E+00  0.61847303628E+01  0.51100000000E-03 0. -1.
        -11    1    3    3    0    0  0.10949972232E+01  0.17561867512E+00  0.10353383186E+01  0.15171639770E+01  0.51100000000E-03 0.  1.
         12    1    3    3    0    0  0.26642607192E+02  0.14250177942E+02 -0.26342775049E+02  0.40085382457E+02  0.00000000000E+00 0. -1.
</event>
<event>
 7    1  0.2783785E-010  0.4778727E+02  0.7816164E-02  0.1312668E+00
        -11   -1    0    0    0    0  0.00000000000E+00  0.00000000000E+00  0.45593999997E+02  0.45594000000E+02  0.51100000000E-03 0. -1.
         11   -1    0    0    0    0 -0.00000000000E+00 -0.00000000000E+00 -0.45593999997E+02  0.45594000000E+02  0.51100000000E-03 0.  1.
    9900012    2    1    2    0    0  0.34521913433E+02  0.10714502902E+02  0.24022082105E+02  0.47787268345E+02  0.19999987694E+02 0.  0.
        -12    1    1    2    0    0 -0.34521913433E+02 -0.10714502902E+02 -0.24022082105E+02  0.43400731655E+02  0.00000000000E+00 0.  1.
         11    1    3    3    0    0  0.14990106216E+02  0.22309372218E+00  0.35516599974E+01  0.15406730483E+02  0.51100000000E-03 0. -1.
        -11    1    3    3    0    0  0.12102541734E+02  0.17194603418E+01  0.15790420607E+02  0.19969112236E+02  0.51100000000E-03 0.  1.
         12    1    3    3    0    0  0.74292654825E+01  0.87719488380E+01  0.46800015001E+01  0.12411425626E+02  0.00000000000E+00 0. -1.
</event>
<event>
 7    1  0.2783785E-010  0.4778727E+02  0.7816164E-02  0.1312668E+00
        -11   -1    0    0    0    0  0.00000000000E+00  0.00000000000E+00  0.45593999997E+02  0.45594000000E+02  0.51100000000E-03 0.  1.
         11   -1    0    0    0    0 -0.00000000000E+00 -0.00000000000E+00 -0.45593999997E+02  0.45594000000E+02  0.51100000000E-03 0. -1.
    9900012    2    1    2    0    0  0.36151493481E+02 -0.18235567936E+02 -0.15625519379E+02  0.47787271035E+02  0.19999999958E+02 0.  0.
        -12    1    1    2    0    0 -0.36151493481E+02  0.18235567936E+02  0.15625519379E+02  0.43400728965E+02  0.00000000000E+00 0.  1.
         11    1    3    3    0    0  0.19218146353E+02 -0.12029508346E+01 -0.22990542715E+01  0.19392521517E+02  0.51100000000E-03 0. -1.
        -11    1    3    3    0    0  0.52496567773E+01 -0.40489796611E+01 -0.74343799439E+01  0.99610811656E+01  0.51100000000E-03 0.  1.
        -12    1    3    3    0    0  0.11683690350E+02 -0.12983637440E+02 -0.58920851632E+01  0.18433668353E+02  0.00000000000E+00 0.  1.
</event>
<event>
 7    1  0.2783785E-010  0.4778727E+02  0.7816164E-02  0.1312668E+00
        -11   -1    0    0    0    0  0.00000000000E+00  0.00000000000E+00  0.45593999997E+02  0.45594000000E+02  0.51100000000E-03 0.  1.
         11   -1    0    0    0    0 -0.00000000000E+00 -0.00000000000E+00 -0.45593999997E+02  0.45594000000E+02  0.51100000000E-03 0. -1.
    9900012    2    1    2    0    0  0.27014733613E+02 -0.29140293694E+02 -0.17454809990E+02  0.47787274885E+02  0.20000017510E+02 0.  0.
        -12    1    1    2    0    0 -0.27014733613E+02  0.29140293694E+02  0.17454809990E+02  0.43400725115E+02  0.00000000000E+00 0.  1.
         11    1    3    3    0    0  0.10462860106E+02 -0.43113870905E+01 -0.69613197513E+01  0.13286063119E+02  0.51100000000E-03 0. -1.
        -11    1    3    3    0    0  0.38423139929E+01 -0.12696355989E+02 -0.10520389242E+02  0.16930428887E+02  0.51100000000E-03 0.  1.
        -12    1    3    3    0    0  0.12709559513E+02 -0.12132550614E+02  0.26899003740E-01  0.17570782879E+02  0.00000000000E+00 0.  1.
</event>
<event>
 7    1  0.2783785E-010  0.4778729E+02  0.7816164E-02  0.1312668E+00
        -11   -1    0    0    0    0  0.00000000000E+00  0.00000000000E+00  0.45593999997E+02  0.45594000000E+02  0.51100000000E-03 0.  1.
         11   -1    0    0    0    0 -0.00000000000E+00 -0.00000000000E+00 -0.45593999997E+02  0.45594000000E+02  0.51100000000E-03 0. -1.
    9900012    2    1    2    0    0 -0.10240057659E+01  0.23084630996E+02 -0.36737889373E+02  0.47787293881E+02  0.20000104123E+02 0.  0.
        -12    1    1    2    0    0  0.10240057659E+01 -0.23084630996E+02  0.36737889373E+02  0.43400706119E+02  0.00000000000E+00 0.  1.
         11    1    3    3    0    0  0.24784361951E+01  0.24212618378E+01 -0.12379685385E+01  0.36793642418E+01  0.51100000000E-03 0.  1.
        -11    1    3    3    0    0 -0.33160251273E+01  0.21702628185E+02 -0.36538426878E+02  0.42626948422E+02  0.51100000000E-03 0. -1.
         12    1    3    3    0    0 -0.18641683376E+00 -0.10392590274E+01  0.10385060441E+01  0.14809812172E+01  0.00000000000E+00 0. -1.
</event>
<event>
 7    1  0.2783785E-010  0.4778727E+02  0.7816164E-02  0.1312668E+00
        -11   -1    0    0    0    0  0.00000000000E+00  0.00000000000E+00  0.45593999997E+02  0.45594000000E+02  0.51100000000E-03 0.  1.
         11   -1    0    0    0    0 -0.00000000000E+00 -0.00000000000E+00 -0.45593999997E+02  0.45594000000E+02  0.51100000000E-03 0. -1.
    9900012    2    1    2    0    0 -0.36163418028E+02 -0.15256370965E+02 -0.18522241434E+02  0.47787273206E+02  0.20000009858E+02 0.  0.
        -12    1    1    2    0    0  0.36163418028E+02  0.15256370965E+02  0.18522241434E+02  0.43400726794E+02  0.00000000000E+00 0.  1.
         11    1    3    3    0    0 -0.13451389717E+02 -0.98239195218E+01 -0.15350720400E+02  0.22651576041E+02  0.51100000000E-03 0. -1.
        -11    1    3    3    0    0 -0.34873079748E+01 -0.31122737630E+01  0.20134029914E+01  0.50893375555E+01  0.51100000000E-03 0.  1.
        -12    1    3    3    0    0 -0.19224720336E+02 -0.23201776805E+01 -0.51849240252E+01  0.20046359610E+02  0.00000000000E+00 0.  1.
</event>
<event>
 7    1  0.3260696E-010  0.4778728E+02  0.7816164E-02  0.1312668E+00
        -11   -1    0    0    0    0  0.00000000000E+00  0.00000000000E+00  0.45593999997E+02  0.45594000000E+02  0.51100000000E-03 0. -1.
         11   -1    0    0    0    0 -0.00000000000E+00 -0.00000000000E+00 -0.45593999997E+02  0.45594000000E+02  0.51100000000E-03 0.  1.
    9900012    2    1    2    0    0  0.27953334724E+01 -0.37838907237E+02  0.21071923674E+02  0.47787276994E+02  0.20000027126E+02 0.  0.
        -12    1    1    2    0    0 -0.27953334724E+01  0.37838907237E+02 -0.21071923674E+02  0.43400723006E+02  0.00000000000E+00 0.  1.
         11    1    3    3    0    0  0.39607428562E+00 -0.82946772162E+01  0.85126848304E+01  0.11892196948E+02  0.51100000000E-03 0. -1.
        -11    1    3    3    0    0 -0.95048010382E+00 -0.47446560963E+01 -0.36658409117E+01  0.60707136113E+01  0.51100000000E-03 0.  1.
        -12    1    3    3    0    0  0.33497392906E+01 -0.24799573925E+02  0.16225079756E+02  0.29824366435E+02  0.00000000000E+00 0.  1.
</event>
<event>
 7    1  0.3514728E-010  0.4778727E+02  0.7816164E-02  0.1312668E+00
        -11   -1    0    0    0    0  0.00000000000E+00  0.00000000000E+00  0.45593999997E+02  0.45594000000E+02  0.51100000000E-03 0. -1.
         11   -1    0    0    0    0 -0.00000000000E+00 -0.00000000000E+00 -0.45593999997E+02  0.45594000000E+02  0.51100000000E-03 0.  1.
    9900012    2    1    2    0    0 -0.17204586467E+02 -0.68491412427E+01  0.39251935088E+02  0.47787274898E+02  0.20000017568E+02 0.  0.
        -12    1    1    2    0    0  0.17204586467E+02  0.68491412427E+01 -0.39251935088E+02  0.43400725102E+02  0.00000000000E+00 0.  1.
         11    1    3    3    0    0 -0.32925361858E+01  0.27532822419E+00  0.24752600433E+02  0.24972141050E+02  0.51100000000E-03 0. -1.
        -11    1    3    3    0    0 -0.95089309823E+01 -0.76707692822E+01  0.13611576929E+02  0.18290311549E+02  0.51100000000E-03 0.  1.
        -12    1    3    3    0    0 -0.44031192994E+01  0.54629981529E+00  0.88775772557E+00  0.45248222984E+01  0.00000000000E+00 0.  1.
</event>
<event>
 7    1  0.2783785E-010  0.4778727E+02  0.7816164E-02  0.1312668E+00
        -11   -1    0    0    0    0  0.00000000000E+00  0.00000000000E+00  0.45593999997E+02  0.45594000000E+02  0.51100000000E-03 0. -1.
         11   -1    0    0    0    0 -0.00000000000E+00 -0.00000000000E+00 -0.45593999997E+02  0.45594000000E+02  0.51100000000E-03 0.  1.
    9900012    2    1    2    0    0  0.35613772131E+02 -0.23163120290E+02 -0.88742370905E+01  0.47787274305E+02  0.20000014865E+02 0.  0.
        -12    1    1    2    0    0 -0.35613772131E+02  0.23163120290E+02  0.88742370905E+01  0.43400725695E+02  0.00000000000E+00 0.  1.
         11    1    3    3    0    0  0.20893604513E+02 -0.14798848515E+02  0.14801287606E+01  0.25646430713E+02  0.51100000000E-03 0. -1.
        -11    1    3    3    0    0  0.16183996575E+02 -0.80340336291E+01 -0.96317333265E+01  0.20475295569E+02  0.51100000000E-03 0.  1.
        -12    1    3    3    0    0 -0.14638289576E+01 -0.33023814537E+00 -0.72263252466E+00  0.16655480225E+01  0.00000000000E+00 0.  1.
</event>
<event>
 7    1  0.2783785E-010  0.4778727E+02  0.7816164E-02  0.1312668E+00
        -11   -1    0    0    0    0  0.00000000000E+00  0.00000000000E+00  0.45593999997E+02  0.45594000000E+02  0.51100000000E-03 0.  1.
         11   -1    0    0    0    0 -0.00000000000E+00 -0.00000000000E+00 -0.45593999997E+02  0.45594000000E+02  0.51100000000E-03 0. -1.
    9900012    2    1    2    0    0 -0.41361725752E+02 -0.43103321969E+01 -0.12419834458E+02  0.47787267186E+02  0.19999982409E+02 0.  0.
        -12    1    1    2    0    0  0.41361725752E+02  0.43103321969E+01  0.12419834458E+02  0.43400732814E+02  0.00000000000E+00 0.  1.
         11    1    3    3    0    0 -0.21600921508E+01 -0.21950175209E+01 -0.38258641901E+01  0.49113477865E+01  0.51100000000E-03 0. -1.
        -11    1    3    3    0    0 -0.30927083328E+02 -0.68778533808E+01 -0.30337009380E+01  0.31827546119E+02  0.51100000000E-03 0.  1.
        -12    1    3    3    0    0 -0.82745502725E+01  0.47625387048E+01 -0.55602693300E+01  0.11048373281E+02  0.00000000000E+00 0.  1.
</event>
<event>
 7    1  0.2783785E-010  0.4778727E+02  0.7816164E-02  0.1312668E+00
        -11   -1    0    0    0    0  0.00000000000E+00  0.00000000000E+00  0.45593999997E+02  0.45594000000E+02  0.51100000000E-03 0.  1.
         11   -1    0    0    0    0 -0.00000000000E+00 -0.00000000000E+00 -0.45593999997E+02  0.45594000000E+02  0.51100000000E-03 0. -1.
    9900012    2    1    2    0    0  0.41839881019E+02  0.10147561946E+02  0.54840257831E+01  0.47787271943E+02  0.20000004095E+02 0.  0.
        -12    1    1    2    0    0 -0.41839881019E+02 -0.10147561946E+02 -0.54840257831E+01  0.43400728057E+02  0.00000000000E+00 0.  1.
         11    1    3    3    0    0  0.34334272075E+02  0.41463923250E+01  0.55703652750E+01  0.35029470133E+02  0.51100000000E-03 0. -1.
        -11    1    3    3    0    0  0.49669236111E+01  0.56248765749E+01  0.35545683922E+01  0.83032838899E+01  0.51100000000E-03 0.  1.
        -12    1    3    3    0    0  0.25386853325E+01  0.37629304647E+00 -0.36409078841E+01  0.44545179194E+01  0.00000000000E+00 0.  1.
</event>
<event>
 7    1  0.2783785E-010  0.4778727E+02  0.7816164E-02  0.1312668E+00
        -11   -1    0    0    0    0  0.00000000000E+00  0.00000000000E+00  0.45593999997E+02  0.45594000000E+02  0.51100000000E-03 0.  1.
         11   -1    0    0    0    0 -0.00000000000E+00 -0.00000000000E+00 -0.45593999997E+02  0.45594000000E+02  0.51100000000E-03 0. -1.
    9900012    2    1    2    0    0  0.34550227142E+02 -0.26264316019E+02 -0.30165863587E+00  0.47787268561E+02  0.19999988679E+02 0.  0.
        -12    1    1    2    0    0 -0.34550227142E+02  0.26264316019E+02  0.30165863587E+00  0.43400731439E+02  0.00000000000E+00 0.  1.
         11    1    3    3    0    0  0.11465664396E+02 -0.67175727937E+01 -0.30925361106E+01  0.13643717387E+02  0.51100000000E-03 0. -1.
        -11    1    3    3    0    0  0.11972102886E+02 -0.30030839163E+01 -0.41779123932E+01  0.13030913734E+02  0.51100000000E-03 0.  1.
         12    1    3    3    0    0  0.11112459860E+02 -0.16543659309E+02  0.69687898679E+01  0.21112637440E+02  0.00000000000E+00 0. -1.
</event>
<event>
 7    1  0.2783785E-010  0.4778726E+02  0.7816164E-02  0.1312668E+00
        -11   -1    0    0    0    0  0.00000000000E+00  0.00000000000E+00  0.45593999997E+02  0.45594000000E+02  0.51100000000E-03 0.  1.
         11   -1    0    0    0    0 -0.00000000000E+00 -0.00000000000E+00 -0.45593999997E+02  0.45594000000E+02  0.51100000000E-03 0. -1.
    9900012    2    1    2    0    0 -0.14356225181E+02  0.31316875297E+02 -0.26396519490E+02  0.47787261285E+02  0.19999955503E+02 0.  0.
        -12    1    1    2    0    0  0.14356225181E+02 -0.31316875297E+02  0.26396519490E+02  0.43400738715E+02  0.00000000000E+00 0.  1.
         11    1    3    3    0    0 -0.37432463903E+01  0.15822076683E+02 -0.39693314747E+01  0.16736355539E+02  0.51100000000E-03 0. -1.
        -11    1    3    3    0    0 -0.10560219659E+02  0.11189830110E+02 -0.11212279300E+02  0.19038007892E+02  0.51100000000E-03 0.  1.
        -12    1    3    3    0    0 -0.52759131932E-01  0.43049685028E+01 -0.11214908716E+02  0.12012897854E+02  0.00000000000E+00 0.  1.
</event>
<event>
 7    1  0.2783785E-010  0.4778727E+02  0.7816164E-02  0.1312668E+00
        -11   -1    0    0    0    0  0.00000000000E+00  0.00000000000E+00  0.45593999997E+02  0.45594000000E+02  0.51100000000E-03 0.  1.
         11   -1    0    0    0    0 -0.00000000000E+00 -0.00000000000E+00 -0.45593999997E+02  0.45594000000E+02  0.51100000000E-03 0. -1.
    9900012    2    1    2    0    0  0.78405278445E+01 -0.29791253470E+02 -0.30571730826E+02  0.47787269754E+02  0.19999994118E+02 0.  0.
        -12    1    1    2    0    0 -0.78405278445E+01  0.29791253470E+02  0.30571730826E+02  0.43400730246E+02  0.00000000000E+00 0.  1.
         11    1    3    3    0    0  0.29492650875E+01  0.63872987350E+00 -0.26374076583E+01  0.40077499704E+01  0.51100000000E-03 0. -1.
        -11    1    3    3    0    0 -0.20827203865E+01  0.31280574649E+00 -0.10738056616E+01  0.23640284481E+01  0.51100000000E-03 0.  1.
        -12    1    3    3    0    0  0.69739831435E+01 -0.30742789090E+02 -0.26860517506E+02  0.41415491336E+02  0.00000000000E+00 0.  1.
</event>
<event>
 7    1  0.2783785E-010  0.4778727E+02  0.7816164E-02  0.1312668E+00
        -11   -1    0    0    0    0  0.00000000000E+00  0.00000000000E+00  0.45593999997E+02  0.45594000000E+02  0.51100000000E-03 0.  1.
         11   -1    0    0    0    0 -0.00000000000E+00 -0.00000000000E+00 -0.45593999997E+02  0.45594000000E+02  0.51100000000E-03 0. -1.
    9900012    2    1    2    0    0 -0.27510691953E+02  0.29632633808E+02  0.15769984756E+02  0.47787267549E+02  0.19999984062E+02 0.  0.
        -12    1    1    2    0    0  0.27510691953E+02 -0.29632633808E+02 -0.15769984756E+02  0.43400732451E+02  0.00000000000E+00 0.  1.
         11    1    3    3    0    0 -0.19743680503E+02  0.14748938625E+02  0.11747089239E+02  0.27300883066E+02  0.51100000000E-03 0. -1.
        -11    1    3    3    0    0 -0.70049842394E+01  0.54752708088E+01 -0.22270112516E+01  0.91655863969E+01  0.51100000000E-03 0.  1.
         12    1    3    3    0    0 -0.76202721047E+00  0.94084243740E+01  0.62499067689E+01  0.11320798085E+02  0.00000000000E+00 0. -1.
</event>
<event>
 7    1  0.6001166E-010  0.4778727E+02  0.7816164E-02  0.1312668E+00
        -11   -1    0    0    0    0  0.00000000000E+00  0.00000000000E+00  0.45593999997E+02  0.45594000000E+02  0.51100000000E-03 0. -1.
         11   -1    0    0    0    0 -0.00000000000E+00 -0.00000000000E+00 -0.45593999997E+02  0.45594000000E+02  0.51100000000E-03 0.  1.
    9900012    2    1    2    0    0  0.28885008765E+02 -0.17506367624E+02  0.27254480430E+02  0.47787270257E+02  0.19999996409E+02 0.  0.
        -12    1    1    2    0    0 -0.28885008765E+02  0.17506367624E+02 -0.27254480430E+02  0.43400729743E+02  0.00000000000E+00 0.  1.
         11    1    3    3    0    0  0.15857457367E+02 -0.13320557533E+02  0.19667111610E+02  0.28560313137E+02  0.51100000000E-03 0. -1.
        -11    1    3    3    0    0  0.14121391786E+02 -0.57360609344E+01  0.50460029869E+01  0.16055474064E+02  0.51100000000E-03 0.  1.
        -12    1    3    3    0    0 -0.10938403880E+01  0.15502508440E+01  0.25413658334E+01  0.31714830557E+01  0.00000000000E+00 0.  1.
</event>
<event>
 7    1  0.2783785E-010  0.4778727E+02  0.7816164E-02  0.1312668E+00
        -11   -1    0    0    0    0  0.00000000000E+00  0.00000000000E+00  0.45593999997E+02  0.45594000000E+02  0.51100000000E-03 0.  1.
         11   -1    0    0    0    0 -0.00000000000E+00 -0.00000000000E+00 -0.45593999997E+02  0.45594000000E+02  0.51100000000E-03 0. -1.
    9900012    2    1    2    0    0  0.43113637200E+02 -0.10437899682E+00 -0.49826282904E+01  0.47787271984E+02  0.20000004285E+02 0.  0.
        -12    1    1    2    0    0 -0.43113637200E+02  0.10437899682E+00  0.49826282904E+01  0.43400728016E+02  0.00000000000E+00 0.  1.
         11    1    3    3    0    0  0.21576771255E+02  0.60102595033E+01 -0.21159458886E+01  0.22497944447E+02  0.51100000000E-03 0. -1.
        -11    1    3    3    0    0 -0.90308763056E-01 -0.63023061692E+00 -0.29086919709E+01  0.29775552968E+01  0.51100000000E-03 0.  1.
         12    1    3    3    0    0  0.21627174709E+02 -0.54844078832E+01  0.42009569039E-01  0.22311772240E+02  0.00000000000E+00 0. -1.
</event>
<event>
 7    1  0.2783785E-010  0.4778726E+02  0.7816164E-02  0.1312668E+00
        -11   -1    0    0    0    0  0.00000000000E+00  0.00000000000E+00  0.45593999997E+02  0.45594000000E+02  0.51100000000E-03 0.  1.
         11   -1    0    0    0    0 -0.00000000000E+00 -0.00000000000E+00 -0.45593999997E+02  0.45594000000E+02  0.51100000000E-03 0. -1.
    9900012    2    1    2    0    0  0.10305173453E+02 -0.10905822795E+02 -0.40724570002E+02  0.47787260691E+02  0.19999952795E+02 0.  0.
        -12    1    1    2    0    0 -0.10305173453E+02  0.10905822795E+02  0.40724570002E+02  0.43400739309E+02  0.00000000000E+00 0.  1.
         11    1    3    3    0    0  0.10282459395E+02 -0.11813461477E+01 -0.27079540691E+02  0.28990103039E+02  0.51100000000E-03 0. -1.
        -11    1    3    3    0    0  0.34070524754E+01 -0.83213298467E+01 -0.11325402177E+02  0.14460887653E+02  0.51100000000E-03 0.  1.
        -12    1    3    3    0    0 -0.33843384171E+01 -0.14031468003E+01 -0.23196271342E+01  0.43362699992E+01  0.00000000000E+00 0.  1.
</event>
<event>
 7    1  0.2783785E-010  0.4778728E+02  0.7816164E-02  0.1312668E+00
        -11   -1    0    0    0    0  0.00000000000E+00  0.00000000000E+00  0.45593999997E+02  0.45594000000E+02  0.51100000000E-03 0.  1.
         11   -1    0    0    0    0 -0.00000000000E+00 -0.00000000000E+00 -0.45593999997E+02  0.45594000000E+02  0.51100000000E-03 0. -1.
    9900012    2    1    2    0    0  0.33762325108E+02  0.22278630104E+02  0.15728664643E+02  0.47787275957E+02  0.20000022399E+02 0.  0.
        -12    1    1    2    0    0 -0.33762325108E+02 -0.22278630104E+02 -0.15728664643E+02  0.43400724043E+02  0.00000000000E+00 0.  1.
         11    1    3    3    0    0  0.21462370002E+01  0.35431316649E+01  0.16066865681E+01  0.44431472230E+01  0.51100000000E-03 0. -1.
        -11    1    3    3    0    0  0.20839421157E+02  0.13637326309E+02  0.18087545674E+02  0.30780147039E+02  0.51100000000E-03 0.  1.
         12    1    3    3    0    0  0.10776666951E+02  0.50981721296E+01 -0.39655675993E+01  0.12563981695E+02  0.00000000000E+00 0. -1.
</event>
<event>
 7    1  0.2783785E-010  0.4778727E+02  0.7816164E-02  0.1312668E+00
        -11   -1    0    0    0    0  0.00000000000E+00  0.00000000000E+00  0.45593999997E+02  0.45594000000E+02  0.51100000000E-03 0. -1.
         11   -1    0    0    0    0 -0.00000000000E+00 -0.00000000000E+00 -0.45593999997E+02  0.45594000000E+02  0.51100000000E-03 0.  1.
    9900012    2    1    2    0    0 -0.48326145118E+01 -0.43045782281E+02 -0.27073524462E+01  0.47787270831E+02  0.19999999025E+02 0.  0.
        -12    1    1    2    0    0  0.48326145118E+01  0.43045782281E+02  0.27073524462E+01  0.43400729169E+02  0.00000000000E+00 0.  1.
         11    1    3    3    0    0  0.23865554563E+01 -0.22172134589E+02 -0.15793678264E+01  0.22356064102E+02  0.51100000000E-03 0. -1.
        -11    1    3    3    0    0  0.94127930995E+00 -0.78411640436E+01 -0.52849369580E+01  0.95026532721E+01  0.51100000000E-03 0.  1.
         12    1    3    3    0    0 -0.81604492781E+01 -0.13032483648E+02  0.41569523382E+01  0.15928553456E+02  0.00000000000E+00 0. -1.
</event>
<event>
 7    1  0.2783785E-010  0.4778727E+02  0.7816164E-02  0.1312668E+00
        -11   -1    0    0    0    0  0.00000000000E+00  0.00000000000E+00  0.45593999997E+02  0.45594000000E+02  0.51100000000E-03 0.  1.
         11   -1    0    0    0    0 -0.00000000000E+00 -0.00000000000E+00 -0.45593999997E+02  0.45594000000E+02  0.51100000000E-03 0. -1.
    9900012    2    1    2    0    0  0.22435063675E+01  0.23392992808E+02 -0.36487780343E+02  0.47787267890E+02  0.19999985619E+02 0.  0.
        -12    1    1    2    0    0 -0.22435063675E+01 -0.23392992808E+02  0.36487780343E+02  0.43400732110E+02  0.00000000000E+00 0.  1.
         11    1    3    3    0    0  0.34714972274E+01  0.10057265584E+02 -0.23915354308E+02  0.26175256560E+02  0.51100000000E-03 0. -1.
        -11    1    3    3    0    0 -0.51705043726E+01  0.95979514305E+01 -0.11898241658E+02  0.16137625040E+02  0.51100000000E-03 0.  1.
         12    1    3    3    0    0  0.39425135127E+01  0.37377757931E+01 -0.67418437624E+00  0.54743862898E+01  0.00000000000E+00 0. -1.
</event>
<event>
 7    1  0.2783785E-010  0.4778727E+02  0.7816164E-02  0.1312668E+00
        -11   -1    0    0    0    0  0.00000000000E+00  0.00000000000E+00  0.45593999997E+02  0.45594000000E+02  0.51100000000E-03 0.  1.
         11   -1    0    0    0    0 -0.00000000000E+00 -0.00000000000E+00 -0.45593999997E+02  0.45594000000E+02  0.51100000000E-03 0. -1.
    9900012    2    1    2    0    0 -0.60800444223E+00  0.43214229249E+02  0.39728748242E+01  0.47787274046E+02  0.20000013686E+02 0.  0.
        -12    1    1    2    0    0  0.60800444223E+00 -0.43214229249E+02 -0.39728748242E+01  0.43400725954E+02  0.00000000000E+00 0.  1.
         11    1    3    3    0    0 -0.16785864820E+01  0.34606661728E+01 -0.18324592989E+01  0.42604894415E+01  0.51100000000E-03 0. -1.
        -11    1    3    3    0    0  0.53666319175E+01  0.23968671257E+02  0.10187380955E+02  0.26590988528E+02  0.51100000000E-03 0.  1.
        -12    1    3    3    0    0 -0.42960498777E+01  0.15784891819E+02 -0.43820468315E+01  0.16935796076E+02  0.00000000000E+00 0.  1.
</event>
<event>
 7    1  0.2783785E-010  0.4778727E+02  0.7816164E-02  0.1312668E+00
        -11   -1    0    0    0    0  0.00000000000E+00  0.00000000000E+00  0.45593999997E+02  0.45594000000E+02  0.51100000000E-03 0.  1.
         11   -1    0    0    0    0 -0.00000000000E+00 -0.00000000000E+00 -0.45593999997E+02  0.45594000000E+02  0.51100000000E-03 0. -1.
    9900012    2    1    2    0    0 -0.12031162006E+02 -0.29435028783E+02 -0.29537326250E+02  0.47787269353E+02  0.19999992290E+02 0.  0.
        -12    1    1    2    0    0  0.12031162006E+02  0.29435028783E+02  0.29537326250E+02  0.43400730647E+02  0.00000000000E+00 0.  1.
         11    1    3    3    0    0 -0.93247997063E+01 -0.14487679797E+02 -0.80166225824E+01  0.19002920654E+02  0.51100000000E-03 0. -1.
        -11    1    3    3    0    0 -0.13895320288E+01  0.14547427412E+01 -0.53414036519E+01  0.57076850768E+01  0.51100000000E-03 0.  1.
         12    1    3    3    0    0 -0.13168302706E+01 -0.16402091727E+02 -0.16179300016E+02  0.23076663623E+02  0.00000000000E+00 0. -1.
</event>
<event>
 7    1  0.2783785E-010  0.4778727E+02  0.7816164E-02  0.1312668E+00
        -11   -1    0    0    0    0  0.00000000000E+00  0.00000000000E+00  0.45593999997E+02  0.45594000000E+02  0.51100000000E-03 0.  1.
         11   -1    0    0    0    0 -0.00000000000E+00 -0.00000000000E+00 -0.45593999997E+02  0.45594000000E+02  0.51100000000E-03 0. -1.
    9900012    2    1    2    0    0 -0.33201743822E+02 -0.22334026311E+02 -0.16806513030E+02  0.47787269542E+02  0.19999993149E+02 0.  0.
        -12    1    1    2    0    0  0.33201743822E+02  0.22334026311E+02  0.16806513030E+02  0.43400730458E+02  0.00000000000E+00 0.  1.
         11    1    3    3    0    0 -0.10064079732E+02 -0.72551752825E+01 -0.86386517263E+01  0.15117856103E+02  0.51100000000E-03 0. -1.
        -11    1    3    3    0    0 -0.10934320131E+02 -0.14300003760E+02 -0.67275686727E-01  0.18001499675E+02  0.51100000000E-03 0.  1.
        -12    1    3    3    0    0 -0.12203343959E+02 -0.77884726802E+00 -0.81005856174E+01  0.14667913764E+02  0.00000000000E+00 0.  1.
</event>
<event>
 7    1  0.2783785E-010  0.4778727E+02  0.7816164E-02  0.1312668E+00
        -11   -1    0    0    0    0  0.00000000000E+00  0.00000000000E+00  0.45593999997E+02  0.45594000000E+02  0.51100000000E-03 0.  1.
         11   -1    0    0    0    0 -0.00000000000E+00 -0.00000000000E+00 -0.45593999997E+02  0.45594000000E+02  0.51100000000E-03 0. -1.
    9900012    2    1    2    0    0 -0.11327584497E+02 -0.23794152421E+02 -0.34484016326E+02  0.47787271412E+02  0.20000001677E+02 0.  0.
        -12    1    1    2    0    0  0.11327584497E+02  0.23794152421E+02  0.34484016326E+02  0.43400728588E+02  0.00000000000E+00 0.  1.
         11    1    3    3    0    0 -0.14227654274E+00  0.36266487659E+00 -0.53877739892E+01  0.54018401723E+01  0.51100000000E-03 0. -1.
        -11    1    3    3    0    0 -0.13311624351E+02 -0.10850978354E+02 -0.18506820590E+02  0.25247682720E+02  0.51100000000E-03 0.  1.
         12    1    3    3    0    0  0.21263163968E+01 -0.13305838944E+02 -0.10589421747E+02  0.17137748520E+02  0.00000000000E+00 0. -1.
</event>
<event>
 7    1  0.2783785E-010  0.4778727E+02  0.7816164E-02  0.1312668E+00
        -11   -1    0    0    0    0  0.00000000000E+00  0.00000000000E+00  0.45593999997E+02  0.45594000000E+02  0.51100000000E-03 0.  1.
         11   -1    0    0    0    0 -0.00000000000E+00 -0.00000000000E+00 -0.45593999997E+02  0.45594000000E+02  0.51100000000E-03 0. -1.
    9900012    2    1    2    0    0 -0.29136137334E+02  0.20184364395E+02 -0.25045959898E+02  0.47787272218E+02  0.20000005351E+02 0.  0.
        -12    1    1    2    0    0  0.29136137334E+02 -0.20184364395E+02  0.25045959898E+02  0.43400727782E+02  0.00000000000E+00 0.  1.
         11    1    3    3    0    0 -0.12129309616E+02  0.59784930678E+01 -0.66314923525E+01  0.15061182630E+02  0.51100000000E-03 0. -1.
        -11    1    3    3    0    0  0.21864566778E+01 -0.15818465952E+00 -0.45048671754E+01  0.50099345025E+01  0.51100000000E-03 0.  1.
        -12    1    3    3    0    0 -0.19193284395E+02  0.14364055987E+02 -0.13909600370E+02  0.27716155086E+02  0.00000000000E+00 0.  1.
</event>
<event>
 7    1  0.2783785E-010  0.4778726E+02  0.7816164E-02  0.1312668E+00
        -11   -1    0    0    0    0  0.00000000000E+00  0.00000000000E+00  0.45593999997E+02  0.45594000000E+02  0.51100000000E-03 0.  1.
         11   -1    0    0    0    0 -0.00000000000E+00 -0.00000000000E+00 -0.45593999997E+02  0.45594000000E+02  0.51100000000E-03 0. -1.
    9900012    2    1    2    0    0  0.37819329271E+02 -0.46545321936E+01 -0.20776368939E+02  0.47787264491E+02  0.19999970118E+02 0.  0.
        -12    1    1    2    0    0 -0.37819329271E+02  0.46545321936E+01  0.20776368939E+02  0.43400735509E+02  0.00000000000E+00 0.  1.
         11    1    3    3    0    0  0.65825329264E+01  0.20071206547E+01 -0.11756369092E+02  0.13622425905E+02  0.51100000000E-03 0. -1.
        -11    1    3    3    0    0  0.10060369882E+02 -0.18531087299E+00  0.46859898533E+00  0.10072982059E+02  0.51100000000E-03 0.  1.
        -12    1    3    3    0    0  0.21176426463E+02 -0.64763419753E+01 -0.94885988324E+01  0.24091856527E+02  0.00000000000E+00 0.  1.
</event>
<event>
 7    1  0.2783785E-010  0.4778729E+02  0.7816164E-02  0.1312668E+00
        -11   -1    0    0    0    0  0.00000000000E+00  0.00000000000E+00  0.45593999997E+02  0.45594000000E+02  0.51100000000E-03 0.  1.
         11   -1    0    0    0    0 -0.00000000000E+00 -0.00000000000E+00 -0.45593999997E+02  0.45594000000E+02  0.51100000000E-03 0. -1.
    9900012    2    1    2    0    0  0.68929094511E+01  0.24206181744E+02 -0.35357749903E+02  0.47787286716E+02  0.20000071454E+02 0.  0.
        -12    1    1    2    0    0 -0.68929094511E+01 -0.24206181744E+02  0.35357749903E+02  0.43400713284E+02  0.00000000000E+00 0.  1.
         11    1    3    3    0    0  0.69074421531E+01  0.16096135955E+02 -0.26688047101E+02  0.31922565813E+02  0.51100000000E-03 0. -1.
        -11    1    3    3    0    0  0.39634326785E+01  0.33903803421E-01 -0.43316202553E+01  0.58713612018E+01  0.51100000000E-03 0.  1.
         12    1    3    3    0    0 -0.39779653804E+01  0.80761419853E+01 -0.43380825470E+01  0.99933597013E+01  0.00000000000E+00 0. -1.
</event>
<event>
 7    1  0.2783785E-010  0.4778727E+02  0.7816164E-02  0.1312668E+00
        -11   -1    0    0    0    0  0.00000000000E+00  0.00000000000E+00  0.45593999997E+02  0.45594000000E+02  0.51100000000E-03 0.  1.
         11   -1    0    0    0    0 -0.00000000000E+00 -0.00000000000E+00 -0.45593999997E+02  0.45594000000E+02  0.51100000000E-03 0. -1.
    9900012    2    1    2    0    0  0.13201158283E+02 -0.23004596240E+02 -0.34353182596E+02  0.47787272096E+02  0.20000004793E+02 0.  0.
        -12    1    1    2    0    0 -0.13201158283E+02  0.23004596240E+02  0.34353182596E+02  0.43400727904E+02  0.00000000000E+00 0.  1.
         11    1    3    3    0    0  0.48295577928E+01 -0.13117052025E+02 -0.29037284651E+02  0.32226473317E+02  0.51100000000E-03 0. -1.
        -11    1    3    3    0    0  0.32745944502E+01  0.24005530603E+00 -0.10553328344E+01  0.34488147262E+01  0.51100000000E-03 0.  1.
         12    1    3    3    0    0  0.50970060403E+01 -0.10127599521E+02 -0.42605651105E+01  0.12111984052E+02  0.00000000000E+00 0. -1.
</event>
<event>
 7    1  0.2783785E-010  0.4778727E+02  0.7816164E-02  0.1312668E+00
        -11   -1    0    0    0    0  0.00000000000E+00  0.00000000000E+00  0.45593999997E+02  0.45594000000E+02  0.51100000000E-03 0.  1.
         11   -1    0    0    0    0 -0.00000000000E+00 -0.00000000000E+00 -0.45593999997E+02  0.45594000000E+02  0.51100000000E-03 0. -1.
    9900012    2    1    2    0    0 -0.16200090320E+02 -0.12228104289E+02 -0.38362137739E+02  0.47787273361E+02  0.20000010562E+02 0.  0.
        -12    1    1    2    0    0  0.16200090320E+02  0.12228104289E+02  0.38362137739E+02  0.43400726639E+02  0.00000000000E+00 0.  1.
         11    1    3    3    0    0 -0.55292586908E+00  0.57239446902E+00 -0.16024152722E+00  0.81181281896E+00  0.51100000000E-03 0. -1.
        -11    1    3    3    0    0 -0.13614566630E+02 -0.95160473872E+01 -0.12003330603E+02  0.20493694840E+02  0.51100000000E-03 0.  1.
         12    1    3    3    0    0 -0.20325978212E+01 -0.32844513707E+01 -0.26198565609E+02  0.26481765702E+02  0.00000000000E+00 0. -1.
</event>
<event>
 7    1  0.2783785E-010  0.4778726E+02  0.7816164E-02  0.1312668E+00
        -11   -1    0    0    0    0  0.00000000000E+00  0.00000000000E+00  0.45593999997E+02  0.45594000000E+02  0.51100000000E-03 0.  1.
         11   -1    0    0    0    0 -0.00000000000E+00 -0.00000000000E+00 -0.45593999997E+02  0.45594000000E+02  0.51100000000E-03 0. -1.
    9900012    2    1    2    0    0 -0.38362620932E+02  0.16838583009E+02 -0.11331182364E+02  0.47787259727E+02  0.19999948398E+02 0.  0.
        -12    1    1    2    0    0  0.38362620932E+02 -0.16838583009E+02  0.11331182364E+02  0.43400740273E+02  0.00000000000E+00 0.  1.
         11    1    3    3    0    0 -0.27900574739E+02  0.14699765635E+02 -0.12373692006E+02  0.33876738842E+02  0.51100000000E-03 0. -1.
        -11    1    3    3    0    0 -0.10373013851E+02 -0.89676657949E+00 -0.65339898388E+00  0.10432187553E+02  0.51100000000E-03 0.  1.
        -12    1    3    3    0    0 -0.89032341817E-01  0.30355839530E+01  0.16959086259E+01  0.34783333310E+01  0.00000000000E+00 0.  1.
</event>
<event>
 7    1  0.2783785E-010  0.4778727E+02  0.7816164E-02  0.1312668E+00
        -11   -1    0    0    0    0  0.00000000000E+00  0.00000000000E+00  0.45593999997E+02  0.45594000000E+02  0.51100000000E-03 0.  1.
         11   -1    0    0    0    0 -0.00000000000E+00 -0.00000000000E+00 -0.45593999997E+02  0.45594000000E+02  0.51100000000E-03 0. -1.
    9900012    2    1    2    0    0 -0.32849099986E+02 -0.19330001903E+02  0.20758390072E+02  0.47787273026E+02  0.20000009037E+02 0.  0.
        -12    1    1    2    0    0  0.32849099986E+02  0.19330001903E+02 -0.20758390072E+02  0.43400726974E+02  0.00000000000E+00 0.  1.
         11    1    3    3    0    0 -0.31129515307E+02 -0.16419304837E+02  0.15100008374E+02  0.38296873864E+02  0.51100000000E-03 0. -1.
        -11    1    3    3    0    0  0.14189002859E+01 -0.16729157824E+01 -0.69140287131E+00  0.22999920495E+01  0.51100000000E-03 0.  1.
        -12    1    3    3    0    0 -0.31384849649E+01 -0.12377812834E+01  0.63497845691E+01  0.71904071132E+01  0.00000000000E+00 0.  1.
</event>
<event>
 7    1  0.2783785E-010  0.4778727E+02  0.7816164E-02  0.1312668E+00
        -11   -1    0    0    0    0  0.00000000000E+00  0.00000000000E+00  0.45593999997E+02  0.45594000000E+02  0.51100000000E-03 0. -1.
         11   -1    0    0    0    0 -0.00000000000E+00 -0.00000000000E+00 -0.45593999997E+02  0.45594000000E+02  0.51100000000E-03 0.  1.
    9900012    2    1    2    0    0 -0.39541810593E+02 -0.14362504920E+02  0.10667106122E+02  0.47787268606E+02  0.19999988880E+02 0.  0.
        -12    1    1    2    0    0  0.39541810593E+02  0.14362504920E+02 -0.10667106122E+02  0.43400731394E+02  0.00000000000E+00 0.  1.
         11    1    3    3    0    0 -0.18732475657E+02 -0.14466023577E+01  0.74041446913E+01  0.20194545340E+02  0.51100000000E-03 0. -1.
        -11    1    3    3    0    0 -0.58346235071E+01 -0.92059425358E+01  0.51420673083E+01  0.12051268228E+02  0.51100000000E-03 0.  1.
         12    1    3    3    0    0 -0.14974711429E+02 -0.37099600262E+01 -0.18791058778E+01  0.15541455037E+02  0.00000000000E+00 0. -1.
</event>
<event>
 7    1  0.2783785E-010  0.4778727E+02  0.7816164E-02  0.1312668E+00
        -11   -1    0    0    0    0  0.00000000000E+00  0.00000000000E+00  0.45593999997E+02  0.45594000000E+02  0.51100000000E-03 0.  1.
         11   -1    0    0    0    0 -0.00000000000E+00 -0.00000000000E+00 -0.45593999997E+02  0.45594000000E+02  0.51100000000E-03 0. -1.
    9900012    2    1    2    0    0  0.11580560323E+02 -0.85431077086E+01 -0.40945439513E+02  0.47787273236E+02  0.20000009991E+02 0.  0.
        -12    1    1    2    0    0 -0.11580560323E+02  0.85431077086E+01  0.40945439513E+02  0.43400726764E+02  0.00000000000E+00 0.  1.
         11    1    3    3    0    0  0.70956924375E+01 -0.11971745074E+01 -0.20930418604E+02  0.22132882803E+02  0.51100000000E-03 0. -1.
        -11    1    3    3    0    0  0.95471543723E+00  0.18516612772E+01  0.10987362221E+01  0.23552818512E+01  0.51100000000E-03 0.  1.
         12    1    3    3    0    0  0.35301524481E+01 -0.91975944784E+01 -0.21113757131E+02  0.23299108581E+02  0.00000000000E+00 0. -1.
</event>
<event>
 7    1  0.2783785E-010  0.4778727E+02  0.7816164E-02  0.1312668E+00
        -11   -1    0    0    0    0  0.00000000000E+00  0.00000000000E+00  0.45593999997E+02  0.45594000000E+02  0.51100000000E-03 0.  1.
         11   -1    0    0    0    0 -0.00000000000E+00 -0.00000000000E+00 -0.45593999997E+02  0.45594000000E+02  0.51100000000E-03 0. -1.
    9900012    2    1    2    0    0  0.39503153292E+02  0.39047036291E+01 -0.17546444899E+02  0.47787267759E+02  0.19999985023E+02 0.  0.
        -12    1    1    2    0    0 -0.39503153292E+02 -0.39047036291E+01  0.17546444899E+02  0.43400732241E+02  0.00000000000E+00 0.  1.
         11    1    3    3    0    0  0.94922130140E+01  0.41104367551E+01 -0.11587513007E+02  0.15532812243E+02  0.51100000000E-03 0. -1.
        -11    1    3    3    0    0  0.15653997498E+02 -0.37838227837E+01 -0.66928634896E+01  0.17440165552E+02  0.51100000000E-03 0.  1.
         12    1    3    3    0    0  0.14356942780E+02  0.35780896578E+01  0.73393159712E+00  0.14814289965E+02  0.00000000000E+00 0. -1.
</event>
<event>
 7    1  0.2783785E-010  0.4778727E+02  0.7816164E-02  0.1312668E+00
        -11   -1    0    0    0    0  0.00000000000E+00  0.00000000000E+00  0.45593999997E+02  0.45594000000E+02  0.51100000000E-03 0. -1.
         11   -1    0    0    0    0 -0.00000000000E+00 -0.00000000000E+00 -0.45593999997E+02  0.45594000000E+02  0.51100000000E-03 0.  1.
    9900012    2    1    2    0    0  0.47653071092E+01  0.68992994752E+01  0.42583035937E+02  0.47787269192E+02  0.19999991552E+02 0.  0.
        -12    1    1    2    0    0 -0.47653071092E+01 -0.68992994752E+01 -0.42583035937E+02  0.43400730808E+02  0.00000000000E+00 0.  1.
         11    1    3    3    0    0 -0.56385938044E+01 -0.69747973187E+00  0.19358427853E+02  0.20174958420E+02  0.51100000000E-03 0. -1.
        -11    1    3    3    0    0  0.19300432997E+01  0.14754138372E+01  0.33986770655E+00  0.24530437112E+01  0.51100000000E-03 0.  1.
        -12    1    3    3    0    0  0.84738576138E+01  0.61213653699E+01  0.22884740378E+02  0.25159267060E+02  0.00000000000E+00 0.  1.
</event>
<event>
 7    1  0.2783785E-010  0.4778727E+02  0.7816164E-02  0.1312668E+00
        -11   -1    0    0    0    0  0.00000000000E+00  0.00000000000E+00  0.45593999997E+02  0.45594000000E+02  0.51100000000E-03 0.  1.
         11   -1    0    0    0    0 -0.00000000000E+00 -0.00000000000E+00 -0.45593999997E+02  0.45594000000E+02  0.51100000000E-03 0. -1.
    9900012    2    1    2    0    0  0.27747515776E+02 -0.19394204398E+02 -0.27158122885E+02  0.47787269193E+02  0.19999991557E+02 0.  0.
        -12    1    1    2    0    0 -0.27747515776E+02  0.19394204398E+02  0.27158122885E+02  0.43400730807E+02  0.00000000000E+00 0.  1.
         11    1    3    3    0    0  0.29123998835E+02 -0.12473288389E+02 -0.23228968002E+02  0.39285814056E+02  0.51100000000E-03 0. -1.
        -11    1    3    3    0    0 -0.35862191846E+00 -0.26259945482E+01 -0.90572933155E-01  0.26519164325E+01  0.51100000000E-03 0.  1.
         12    1    3    3    0    0 -0.10178611409E+01 -0.42949214608E+01 -0.38385819503E+01  0.58495387037E+01  0.00000000000E+00 0. -1.
</event>
<event>
 7    1  0.2783785E-010  0.4778727E+02  0.7816164E-02  0.1312668E+00
        -11   -1    0    0    0    0  0.00000000000E+00  0.00000000000E+00  0.45593999997E+02  0.45594000000E+02  0.51100000000E-03 0. -1.
         11   -1    0    0    0    0 -0.00000000000E+00 -0.00000000000E+00 -0.45593999997E+02  0.45594000000E+02  0.51100000000E-03 0.  1.
    9900012    2    1    2    0    0  0.25281983206E+02 -0.18454144484E+02  0.30064747877E+02  0.47787272030E+02  0.20000004493E+02 0.  0.
        -12    1    1    2    0    0 -0.25281983206E+02  0.18454144484E+02 -0.30064747877E+02  0.43400727970E+02  0.00000000000E+00 0.  1.
         11    1    3    3    0    0  0.63839441230E+00 -0.10573195334E+01 -0.18168884190E+01  0.21969423773E+01  0.51100000000E-03 0. -1.
        -11    1    3    3    0    0  0.18131693226E+02 -0.73012296449E+01  0.13980521331E+02  0.24031671405E+02  0.51100000000E-03 0.  1.
         12    1    3    3    0    0  0.65118955676E+01 -0.10095595305E+02  0.17901114965E+02  0.21558658247E+02  0.00000000000E+00 0. -1.
</event>
<event>
 7    1  0.2783785E-010  0.4778727E+02  0.7816164E-02  0.1312668E+00
        -11   -1    0    0    0    0  0.00000000000E+00  0.00000000000E+00  0.45593999997E+02  0.45594000000E+02  0.51100000000E-03 0. -1.
         11   -1    0    0    0    0 -0.00000000000E+00 -0.00000000000E+00 -0.45593999997E+02  0.45594000000E+02  0.51100000000E-03 0.  1.
    9900012    2    1    2    0    0 -0.40909435481E+02  0.97910993879E+01 -0.10685314432E+02  0.47787268634E+02  0.19999989008E+02 0.  0.
        -12    1    1    2    0    0  0.40909435481E+02 -0.97910993879E+01  0.10685314432E+02  0.43400731366E+02  0.00000000000E+00 0.  1.
         11    1    3    3    0    0 -0.39159514588E+01 -0.31770006422E+01 -0.27354945585E+01  0.57368057009E+01  0.51100000000E-03 0. -1.
        -11    1    3    3    0    0 -0.13089080614E+01  0.19256482903E+01 -0.38134687540E+01  0.44680986840E+01  0.51100000000E-03 0.  1.
         12    1    3    3    0    0 -0.35684575961E+02  0.11042451740E+02 -0.41363511200E+01  0.37582364249E+02  0.00000000000E+00 0. -1.
</event>
<event>
 7    1  0.2783785E-010  0.4778727E+02  0.7816164E-02  0.1312668E+00
        -11   -1    0    0    0    0  0.00000000000E+00  0.00000000000E+00  0.45593999997E+02  0.45594000000E+02  0.51100000000E-03 0. -1.
         11   -1    0    0    0    0 -0.00000000000E+00 -0.00000000000E+00 -0.45593999997E+02  0.45594000000E+02  0.51100000000E-03 0.  1.
    9900012    2    1    2    0    0  0.42859159756E+02  0.67458041153E+01  0.10998334123E+01  0.47787273258E+02  0.20000010093E+02 0.  0.
        -12    1    1    2    0    0 -0.42859159756E+02 -0.67458041153E+01 -0.10998334123E+01  0.43400726742E+02  0.00000000000E+00 0.  1.
         11    1    3    3    0    0  0.34525289582E+01  0.25353989325E+00  0.47137390389E+01  0.58483822269E+01  0.51100000000E-03 0. -1.
        -11    1    3    3    0    0  0.12764534378E+02  0.14009215975E+01  0.45327163006E+01  0.13617688370E+02  0.51100000000E-03 0.  1.
        -12    1    3    3    0    0  0.26642096420E+02  0.50913426245E+01 -0.81466219271E+01  0.28321202662E+02  0.00000000000E+00 0.  1.
</event>
<event>
 7    1  0.2783785E-010  0.4778727E+02  0.7816164E-02  0.1312668E+00
        -11   -1    0    0    0    0  0.00000000000E+00  0.00000000000E+00  0.45593999997E+02  0.45594000000E+02  0.51100000000E-03 0. -1.
         11   -1    0    0    0    0 -0.00000000000E+00 -0.00000000000E+00 -0.45593999997E+02  0.45594000000E+02  0.51100000000E-03 0.  1.
    9900012    2    1    2    0    0  0.10716261622E+02 -0.36338901339E+02  0.21172371679E+02  0.47787270326E+02  0.19999996726E+02 0.  0.
        -12    1    1    2    0    0 -0.10716261622E+02  0.36338901339E+02 -0.21172371679E+02  0.43400729674E+02  0.00000000000E+00 0.  1.
         11    1    3    3    0    0  0.10509544686E+02 -0.17489012334E+02  0.10128874879E+02  0.22779600271E+02  0.51100000000E-03 0. -1.
        -11    1    3    3    0    0  0.48109958950E+01 -0.59361769024E+01  0.40036767951E+00  0.76514163564E+01  0.51100000000E-03 0.  1.
        -12    1    3    3    0    0 -0.46042789588E+01 -0.12913712103E+02  0.10643129120E+02  0.17356253699E+02  0.00000000000E+00 0.  1.
</event>
<event>
 7    1  0.2783785E-010  0.4778727E+02  0.7816164E-02  0.1312668E+00
        -11   -1    0    0    0    0  0.00000000000E+00  0.00000000000E+00  0.45593999997E+02  0.45594000000E+02  0.51100000000E-03 0.  1.
         11   -1    0    0    0    0 -0.00000000000E+00 -0.00000000000E+00 -0.45593999997E+02  0.45594000000E+02  0.51100000000E-03 0. -1.
    9900012    2    1    2    0    0  0.92185904535E+01  0.71031361511E+01 -0.41811316765E+02  0.47787272324E+02  0.20000005835E+02 0.  0.
        -12    1    1    2    0    0 -0.92185904535E+01 -0.71031361511E+01  0.41811316765E+02  0.43400727676E+02  0.00000000000E+00 0.  1.
         11    1    3    3    0    0  0.83904275478E+01  0.10249958677E+02 -0.26108115727E+02  0.29276178617E+02  0.51100000000E-03 0. -1.
        -11    1    3    3    0    0 -0.33224610043E+01  0.13917581104E+01 -0.67134456503E+01  0.76187984961E+01  0.51100000000E-03 0.  1.
         12    1    3    3    0    0  0.41506239100E+01 -0.45385806366E+01 -0.89897553876E+01  0.10892295211E+02  0.00000000000E+00 0. -1.
</event>
<event>
 7    1  0.2783785E-010  0.4778727E+02  0.7816164E-02  0.1312668E+00
        -11   -1    0    0    0    0  0.00000000000E+00  0.00000000000E+00  0.45593999997E+02  0.45594000000E+02  0.51100000000E-03 0.  1.
         11   -1    0    0    0    0 -0.00000000000E+00 -0.00000000000E+00 -0.45593999997E+02  0.45594000000E+02  0.51100000000E-03 0. -1.
    9900012    2    1    2    0    0 -0.48432661587E+01  0.17472514465E+02 -0.39431936567E+02  0.47787267170E+02  0.19999982333E+02 0.  0.
        -12    1    1    2    0    0  0.48432661587E+01 -0.17472514465E+02  0.39431936567E+02  0.43400732830E+02  0.00000000000E+00 0.  1.
         11    1    3    3    0    0 -0.15148029185E+01  0.17291257391E+02 -0.27204735225E+02  0.32270417242E+02  0.51100000000E-03 0. -1.
        -11    1    3    3    0    0  0.30004459457E+01 -0.53408140751E+00 -0.27925447249E+01  0.41335487326E+01  0.51100000000E-03 0.  1.
        -12    1    3    3    0    0 -0.63289091859E+01  0.71533848179E+00 -0.94346566170E+01  0.11383301195E+02  0.00000000000E+00 0.  1.
</event>
<event>
 7    1  0.2783785E-010  0.4778728E+02  0.7816164E-02  0.1312668E+00
        -11   -1    0    0    0    0  0.00000000000E+00  0.00000000000E+00  0.45593999997E+02  0.45594000000E+02  0.51100000000E-03 0.  1.
         11   -1    0    0    0    0 -0.00000000000E+00 -0.00000000000E+00 -0.45593999997E+02  0.45594000000E+02  0.51100000000E-03 0. -1.
    9900012    2    1    2    0    0  0.28083439097E+02 -0.79670242495E+01 -0.32116497827E+02  0.47787280425E+02  0.20000042772E+02 0.  0.
        -12    1    1    2    0    0 -0.28083439097E+02  0.79670242495E+01  0.32116497827E+02  0.43400719575E+02  0.00000000000E+00 0.  1.
         11    1    3    3    0    0  0.13731385827E+02 -0.67421026768E+01 -0.16052529466E+02  0.22174097676E+02  0.51100000000E-03 0. -1.
        -11    1    3    3    0    0 -0.24723541166E+01 -0.14854252244E+01 -0.38990241085E+01  0.48498878580E+01  0.51100000000E-03 0.  1.
        -12    1    3    3    0    0  0.16824407387E+02  0.26050365172E+00 -0.12164944253E+02  0.20763294892E+02  0.00000000000E+00 0.  1.
</event>
<event>
 7    1  0.2783785E-010  0.4778727E+02  0.7816164E-02  0.1312668E+00
        -11   -1    0    0    0    0  0.00000000000E+00  0.00000000000E+00  0.45593999997E+02  0.45594000000E+02  0.51100000000E-03 0.  1.
         11   -1    0    0    0    0 -0.00000000000E+00 -0.00000000000E+00 -0.45593999997E+02  0.45594000000E+02  0.51100000000E-03 0. -1.
    9900012    2    1    2    0    0 -0.14318693889E+02 -0.40854091877E+02 -0.30889742227E+01  0.47787267523E+02  0.19999983946E+02 0.  0.
        -12    1    1    2    0    0  0.14318693889E+02  0.40854091877E+02  0.30889742227E+01  0.43400732477E+02  0.00000000000E+00 0.  1.
         11    1    3    3    0    0 -0.67618640580E+01 -0.16175891395E+02  0.13226973479E+00  0.17532819610E+02  0.51100000000E-03 0. -1.
        -11    1    3    3    0    0 -0.11742512455E+02 -0.15131181862E+02 -0.47119071419E+01  0.19724130715E+02  0.51100000000E-03 0.  1.
        -12    1    3    3    0    0  0.41856826238E+01 -0.95470186201E+01  0.14906631844E+01  0.10530317198E+02  0.00000000000E+00 0.  1.
</event>
<event>
 7    1  0.2783785E-010  0.4778727E+02  0.7816164E-02  0.1312668E+00
        -11   -1    0    0    0    0  0.00000000000E+00  0.00000000000E+00  0.45593999997E+02  0.45594000000E+02  0.51100000000E-03 0. -1.
         11   -1    0    0    0    0 -0.00000000000E+00 -0.00000000000E+00 -0.45593999997E+02  0.45594000000E+02  0.51100000000E-03 0.  1.
    9900012    2    1    2    0    0 -0.13497020433E+02 -0.35338694476E+02  0.21275111803E+02  0.47787271089E+02  0.20000000202E+02 0.  0.
        -12    1    1    2    0    0  0.13497020433E+02  0.35338694476E+02 -0.21275111803E+02  0.43400728911E+02  0.00000000000E+00 0.  1.
         11    1    3    3    0    0 -0.16643644330E+01 -0.22199714817E+01  0.49642344336E+01  0.56870032634E+01  0.51100000000E-03 0. -1.
        -11    1    3    3    0    0 -0.71462037847E+00 -0.45255064190E+01  0.96852729188E+01  0.10714261636E+02  0.51100000000E-03 0.  1.
         12    1    3    3    0    0 -0.11118035621E+02 -0.28593216575E+02  0.66256044504E+01  0.31386006189E+02  0.00000000000E+00 0. -1.
</event>
<event>
 7    1  0.2870230E-010  0.4778727E+02  0.7816164E-02  0.1312668E+00
        -11   -1    0    0    0    0  0.00000000000E+00  0.00000000000E+00  0.45593999997E+02  0.45594000000E+02  0.51100000000E-03 0.  1.
         11   -1    0    0    0    0 -0.00000000000E+00 -0.00000000000E+00 -0.45593999997E+02  0.45594000000E+02  0.51100000000E-03 0. -1.
    9900012    2    1    2    0    0  0.20453726789E+02 -0.29794775015E+02  0.24032052011E+02  0.47787273260E+02  0.20000010100E+02 0.  0.
        -12    1    1    2    0    0 -0.20453726789E+02  0.29794775015E+02 -0.24032052011E+02  0.43400726740E+02  0.00000000000E+00 0.  1.
         11    1    3    3    0    0  0.87920210445E+01 -0.13896083398E+02  0.17698979032E+02  0.24158945070E+02  0.51100000000E-03 0.  1.
        -11    1    3    3    0    0 -0.51968644116E+00  0.14430867496E+01  0.94927377511E-01  0.15367448819E+01  0.51100000000E-03 0. -1.
        -12    1    3    3    0    0  0.12181392185E+02 -0.17341778367E+02  0.62381456008E+01  0.22091583307E+02  0.00000000000E+00 0.  1.
</event>
<event>
 7    1  0.2783785E-010  0.4778727E+02  0.7816164E-02  0.1312668E+00
        -11   -1    0    0    0    0  0.00000000000E+00  0.00000000000E+00  0.45593999997E+02  0.45594000000E+02  0.51100000000E-03 0.  1.
         11   -1    0    0    0    0 -0.00000000000E+00 -0.00000000000E+00 -0.45593999997E+02  0.45594000000E+02  0.51100000000E-03 0. -1.
    9900012    2    1    2    0    0  0.15808072909E+02  0.12050283066E+02 -0.38581324919E+02  0.47787272776E+02  0.20000007895E+02 0.  0.
        -12    1    1    2    0    0 -0.15808072909E+02 -0.12050283066E+02  0.38581324919E+02  0.43400727224E+02  0.00000000000E+00 0.  1.
         11    1    3    3    0    0  0.30758203053E+01  0.40391976624E+01 -0.26085345111E+01  0.57079103762E+01  0.51100000000E-03 0. -1.
        -11    1    3    3    0    0  0.46767314993E+01 -0.22575741765E+00 -0.41370691121E+00  0.47004188747E+01  0.51100000000E-03 0.  1.
        -12    1    3    3    0    0  0.80555211047E+01  0.82368428210E+01 -0.35559083497E+02  0.37378943525E+02  0.00000000000E+00 0.  1.
</event>
<event>
 7    1  0.2783785E-010  0.4778727E+02  0.7816164E-02  0.1312668E+00
        -11   -1    0    0    0    0  0.00000000000E+00  0.00000000000E+00  0.45593999997E+02  0.45594000000E+02  0.51100000000E-03 0. -1.
         11   -1    0    0    0    0 -0.00000000000E+00 -0.00000000000E+00 -0.45593999997E+02  0.45594000000E+02  0.51100000000E-03 0.  1.
    9900012    2    1    2    0    0  0.34694811387E+02  0.87502489765E+01  0.24562700121E+02  0.47787273836E+02  0.20000012729E+02 0.  0.
        -12    1    1    2    0    0 -0.34694811387E+02 -0.87502489765E+01 -0.24562700121E+02  0.43400726164E+02  0.00000000000E+00 0.  1.
         11    1    3    3    0    0  0.98171308613E+01 -0.47362769515E+01  0.39342225884E+01  0.11588204578E+02  0.51100000000E-03 0.  1.
        -11    1    3    3    0    0  0.10278094340E+02  0.37608883164E+01  0.13204060469E+02  0.17150239570E+02  0.51100000000E-03 0. -1.
        -12    1    3    3    0    0  0.14599586185E+02  0.97256376116E+01  0.74244170635E+01  0.19048829688E+02  0.00000000000E+00 0.  1.
</event>
<event>
 7    1  0.2783785E-010  0.4778728E+02  0.7816164E-02  0.1312668E+00
        -11   -1    0    0    0    0  0.00000000000E+00  0.00000000000E+00  0.45593999997E+02  0.45594000000E+02  0.51100000000E-03 0.  1.
         11   -1    0    0    0    0 -0.00000000000E+00 -0.00000000000E+00 -0.45593999997E+02  0.45594000000E+02  0.51100000000E-03 0. -1.
    9900012    2    1    2    0    0 -0.43410719853E+01  0.38176211124E+02 -0.20183029280E+02  0.47787277971E+02  0.20000031579E+02 0.  0.
        -12    1    1    2    0    0  0.43410719853E+01 -0.38176211124E+02  0.20183029280E+02  0.43400722029E+02  0.00000000000E+00 0.  1.
         11    1    3    3    0    0 -0.23054949658E+01  0.46437478682E+01 -0.59936015787E+01  0.79248319507E+01  0.51100000000E-03 0. -1.
        -11    1    3    3    0    0 -0.18562170671E+01  0.29989787228E+02 -0.55935032557E+01  0.30563379373E+02  0.51100000000E-03 0.  1.
         12    1    3    3    0    0 -0.17935995240E+00  0.35426760278E+01 -0.85959244454E+01  0.92990666468E+01  0.00000000000E+00 0. -1.
</event>
<event>
 7    1  0.2783785E-010  0.4778725E+02  0.7816164E-02  0.1312668E+00
        -11   -1    0    0    0    0  0.00000000000E+00  0.00000000000E+00  0.45593999997E+02  0.45594000000E+02  0.51100000000E-03 0.  1.
         11   -1    0    0    0    0 -0.00000000000E+00 -0.00000000000E+00 -0.45593999997E+02  0.45594000000E+02  0.51100000000E-03 0. -1.
    9900012    2    1    2    0    0  0.20072044334E+02 -0.25781052314E+01 -0.38393895474E+02  0.47787253463E+02  0.19999919837E+02 0.  0.
        -12    1    1    2    0    0 -0.20072044334E+02  0.25781052314E+01  0.38393895474E+02  0.43400746537E+02  0.00000000000E+00 0.  1.
         11    1    3    3    0    0  0.72281242066E+01 -0.57642194802E+01 -0.46638195780E+01  0.10354864513E+02  0.51100000000E-03 0. -1.
        -11    1    3    3    0    0  0.11969513542E+02 -0.15914074964E+00 -0.20320959147E+02  0.23584655204E+02  0.51100000000E-03 0.  1.
        -12    1    3    3    0    0  0.87440658564E+00  0.33452549984E+01 -0.13409116749E+02  0.13847733745E+02  0.00000000000E+00 0.  1.
</event>
<event>
 7    1  0.2783785E-010  0.4778727E+02  0.7816164E-02  0.1312668E+00
        -11   -1    0    0    0    0  0.00000000000E+00  0.00000000000E+00  0.45593999997E+02  0.45594000000E+02  0.51100000000E-03 0.  1.
         11   -1    0    0    0    0 -0.00000000000E+00 -0.00000000000E+00 -0.45593999997E+02  0.45594000000E+02  0.51100000000E-03 0. -1.
    9900012    2    1    2    0    0  0.42258444688E+02  0.61517327243E+00 -0.98726249855E+01  0.47787270631E+02  0.19999998116E+02 0.  0.
        -12    1    1    2    0    0 -0.42258444688E+02 -0.61517327243E+00  0.98726249855E+01  0.43400729369E+02  0.00000000000E+00 0.  1.
         11    1    3    3    0    0  0.11084330690E+02  0.20949298833E+01 -0.15329520158E+01  0.11384246141E+02  0.51100000000E-03 0. -1.
        -11    1    3    3    0    0  0.28668310348E+02  0.18901710537E+01 -0.20019098476E+01  0.28800215418E+02  0.51100000000E-03 0.  1.
        -12    1    3    3    0    0  0.25058036507E+01 -0.33699276646E+01 -0.63377631221E+01  0.76028090725E+01  0.00000000000E+00 0.  1.
</event>
<event>
 7    1  0.2783785E-010  0.4778727E+02  0.7816164E-02  0.1312668E+00
        -11   -1    0    0    0    0  0.00000000000E+00  0.00000000000E+00  0.45593999997E+02  0.45594000000E+02  0.51100000000E-03 0.  1.
         11   -1    0    0    0    0 -0.00000000000E+00 -0.00000000000E+00 -0.45593999997E+02  0.45594000000E+02  0.51100000000E-03 0. -1.
    9900012    2    1    2    0    0 -0.59904072302E+01  0.35223359330E+02 -0.24638455575E+02  0.47787268273E+02  0.19999987365E+02 0.  0.
        -12    1    1    2    0    0  0.59904072302E+01 -0.35223359330E+02  0.24638455575E+02  0.43400731727E+02  0.00000000000E+00 0.  1.
         11    1    3    3    0    0 -0.65821207351E+01  0.50191737076E+01 -0.45442314801E+01  0.94427992716E+01  0.51100000000E-03 0. -1.
        -11    1    3    3    0    0 -0.82446350146E+00 -0.77076543295E+00  0.37599350694E+00  0.11896179203E+01  0.51100000000E-03 0.  1.
        -12    1    3    3    0    0  0.14161770063E+01  0.30974951055E+02 -0.20470217602E+02  0.37154851081E+02  0.00000000000E+00 0.  1.
</event>
<event>
 7    1  0.2783785E-010  0.4778727E+02  0.7816164E-02  0.1312668E+00
        -11   -1    0    0    0    0  0.00000000000E+00  0.00000000000E+00  0.45593999997E+02  0.45594000000E+02  0.51100000000E-03 0.  1.
         11   -1    0    0    0    0 -0.00000000000E+00 -0.00000000000E+00 -0.45593999997E+02  0.45594000000E+02  0.51100000000E-03 0. -1.
    9900012    2    1    2    0    0 -0.31120902562E+02 -0.11741582161E+02 -0.27879172470E+02  0.47787267454E+02  0.19999983629E+02 0.  0.
        -12    1    1    2    0    0  0.31120902562E+02  0.11741582161E+02  0.27879172470E+02  0.43400732546E+02  0.00000000000E+00 0.  1.
         11    1    3    3    0    0 -0.18174569067E+02  0.44906684824E+00 -0.65772287558E+01  0.19333301844E+02  0.51100000000E-03 0. -1.
        -11    1    3    3    0    0 -0.27401240187E+01 -0.54480695779E+01 -0.41086095106E+01  0.73532587426E+01  0.51100000000E-03 0.  1.
         12    1    3    3    0    0 -0.10206209476E+02 -0.67425794309E+01 -0.17193334204E+02  0.21100706867E+02  0.00000000000E+00 0. -1.
</event>
<event>
 7    1  0.2783785E-010  0.4778728E+02  0.7816164E-02  0.1312668E+00
        -11   -1    0    0    0    0  0.00000000000E+00  0.00000000000E+00  0.45593999997E+02  0.45594000000E+02  0.51100000000E-03 0. -1.
         11   -1    0    0    0    0 -0.00000000000E+00 -0.00000000000E+00 -0.45593999997E+02  0.45594000000E+02  0.51100000000E-03 0.  1.
    9900012    2    1    2    0    0 -0.37116679238E+02 -0.43655157316E+01  0.22066196876E+02  0.47787278234E+02  0.20000032778E+02 0.  0.
        -12    1    1    2    0    0  0.37116679238E+02  0.43655157316E+01 -0.22066196876E+02  0.43400721766E+02  0.00000000000E+00 0.  1.
         11    1    3    3    0    0 -0.16774776836E+01  0.25351648504E+01  0.28311432200E+01  0.41540780434E+01  0.51100000000E-03 0. -1.
        -11    1    3    3    0    0 -0.32425148675E+01  0.29551861857E+01  0.60478649678E+01  0.74715258808E+01  0.51100000000E-03 0.  1.
         12    1    3    3    0    0 -0.32196686687E+02 -0.98558667676E+01  0.13187188689E+02  0.36161674309E+02  0.00000000000E+00 0. -1.
</event>
<event>
 7    1  0.2783785E-010  0.4778727E+02  0.7816164E-02  0.1312668E+00
        -11   -1    0    0    0    0  0.00000000000E+00  0.00000000000E+00  0.45593999997E+02  0.45594000000E+02  0.51100000000E-03 0.  1.
         11   -1    0    0    0    0 -0.00000000000E+00 -0.00000000000E+00 -0.45593999997E+02  0.45594000000E+02  0.51100000000E-03 0. -1.
    9900012    2    1    2    0    0  0.15816743521E+02  0.36964593410E-01 -0.40415990110E+02  0.47787274216E+02  0.20000014462E+02 0.  0.
        -12    1    1    2    0    0 -0.15816743521E+02 -0.36964593410E-01  0.40415990110E+02  0.43400725784E+02  0.00000000000E+00 0.  1.
         11    1    3    3    0    0 -0.49169955277E+00  0.29447340232E+01 -0.21251307476E+01  0.36646156515E+01  0.51100000000E-03 0. -1.
        -11    1    3    3    0    0  0.77251314948E+01 -0.82018208474E+01 -0.15154969781E+02  0.18884401795E+02  0.51100000000E-03 0.  1.
         12    1    3    3    0    0  0.85833115789E+01  0.52940514177E+01 -0.23135889581E+02  0.25238256770E+02  0.00000000000E+00 0. -1.
</event>
<event>
 7    1  0.2783785E-010  0.4778730E+02  0.7816164E-02  0.1312668E+00
        -11   -1    0    0    0    0  0.00000000000E+00  0.00000000000E+00  0.45593999997E+02  0.45594000000E+02  0.51100000000E-03 0.  1.
         11   -1    0    0    0    0 -0.00000000000E+00 -0.00000000000E+00 -0.45593999997E+02  0.45594000000E+02  0.51100000000E-03 0. -1.
    9900012    2    1    2    0    0  0.28470918120E+02  0.16292641141E+02  0.28417910110E+02  0.47787297828E+02  0.20000122118E+02 0.  0.
        -12    1    1    2    0    0 -0.28470918120E+02 -0.16292641141E+02 -0.28417910110E+02  0.43400702172E+02  0.00000000000E+00 0.  1.
         11    1    3    3    0    0  0.14802827128E+02  0.13073758683E+02  0.17798341953E+02  0.26586233912E+02  0.51100000000E-03 0. -1.
        -11    1    3    3    0    0 -0.11401989184E+01  0.10558067997E+01  0.49658091589E+01  0.52032722815E+01  0.51100000000E-03 0.  1.
         12    1    3    3    0    0  0.14808289911E+02  0.21630756583E+01  0.56537589978E+01  0.15997791635E+02  0.00000000000E+00 0. -1.
</event>
<event>
 7    1  0.2783785E-010  0.4778727E+02  0.7816164E-02  0.1312668E+00
        -11   -1    0    0    0    0  0.00000000000E+00  0.00000000000E+00  0.45593999997E+02  0.45594000000E+02  0.51100000000E-03 0. -1.
         11   -1    0    0    0    0 -0.00000000000E+00 -0.00000000000E+00 -0.45593999997E+02  0.45594000000E+02  0.51100000000E-03 0.  1.
    9900012    2    1    2    0    0  0.35879061608E+01 -0.13146514609E+01  0.43232185343E+02  0.47787271566E+02  0.20000002376E+02 0.  0.
        -12    1    1    2    0    0 -0.35879061608E+01  0.13146514609E+01 -0.43232185343E+02  0.43400728434E+02  0.00000000000E+00 0.  1.
         11    1    3    3    0    0  0.24039269887E+01 -0.79148998292E+01  0.26881203486E+02  0.28125141873E+02  0.51100000000E-03 0. -1.
        -11    1    3    3    0    0  0.41400907808E+01  0.28815302739E+01  0.40277285212E+01  0.64549334384E+01  0.51100000000E-03 0.  1.
        -12    1    3    3    0    0 -0.29561116087E+01  0.37187180943E+01  0.12323253336E+02  0.13207196254E+02  0.00000000000E+00 0.  1.
</event>
<event>
 7    1  0.2783785E-010  0.4778725E+02  0.7816164E-02  0.1312668E+00
        -11   -1    0    0    0    0  0.00000000000E+00  0.00000000000E+00  0.45593999997E+02  0.45594000000E+02  0.51100000000E-03 0. -1.
         11   -1    0    0    0    0 -0.00000000000E+00 -0.00000000000E+00 -0.45593999997E+02  0.45594000000E+02  0.51100000000E-03 0.  1.
    9900012    2    1    2    0    0  0.32426641276E+00  0.41726427744E+02  0.11934193991E+02  0.47787252228E+02  0.19999914207E+02 0.  0.
        -12    1    1    2    0    0 -0.32426641276E+00 -0.41726427744E+02 -0.11934193991E+02  0.43400747772E+02  0.00000000000E+00 0.  1.
         11    1    3    3    0    0  0.65225101748E+01  0.10562677005E+02  0.87816960205E-01  0.12414547780E+02  0.51100000000E-03 0. -1.
        -11    1    3    3    0    0 -0.43811858313E+01  0.15748309903E+02  0.88492823529E+00  0.16370313141E+02  0.51100000000E-03 0.  1.
         12    1    3    3    0    0 -0.18170579308E+01  0.15415440836E+02  0.10961448796E+02  0.19002391307E+02  0.00000000000E+00 0. -1.
</event>
<event>
 7    1  0.2783785E-010  0.4778727E+02  0.7816164E-02  0.1312668E+00
        -11   -1    0    0    0    0  0.00000000000E+00  0.00000000000E+00  0.45593999997E+02  0.45594000000E+02  0.51100000000E-03 0. -1.
         11   -1    0    0    0    0 -0.00000000000E+00 -0.00000000000E+00 -0.45593999997E+02  0.45594000000E+02  0.51100000000E-03 0.  1.
    9900012    2    1    2    0    0 -0.39074860720E+02  0.18691191458E+02  0.27236023782E+01  0.47787269725E+02  0.19999993986E+02 0.  0.
        -12    1    1    2    0    0  0.39074860720E+02 -0.18691191458E+02 -0.27236023782E+01  0.43400730275E+02  0.00000000000E+00 0.  1.
         11    1    3    3    0    0 -0.32803733134E+00  0.49855258302E+01  0.34673293986E+01  0.60815663865E+01  0.51100000000E-03 0. -1.
        -11    1    3    3    0    0 -0.17179766504E+02  0.50913180916E+01 -0.36944054083E+01  0.18295205072E+02  0.51100000000E-03 0.  1.
        -12    1    3    3    0    0 -0.21567056885E+02  0.86143475366E+01  0.29506783879E+01  0.23410498267E+02  0.00000000000E+00 0.  1.
</event>
<event>
 7    1  0.2783785E-010  0.4778727E+02  0.7816164E-02  0.1312668E+00
        -11   -1    0    0    0    0  0.00000000000E+00  0.00000000000E+00  0.45593999997E+02  0.45594000000E+02  0.51100000000E-03 0. -1.
         11   -1    0    0    0    0 -0.00000000000E+00 -0.00000000000E+00 -0.45593999997E+02  0.45594000000E+02  0.51100000000E-03 0.  1.
    9900012    2    1    2    0    0 -0.12067354903E+02  0.28622118836E+02  0.30311328766E+02  0.47787269678E+02  0.19999993768E+02 0.  0.
        -12    1    1    2    0    0  0.12067354903E+02 -0.28622118836E+02 -0.30311328766E+02  0.43400730322E+02  0.00000000000E+00 0.  1.
         11    1    3    3    0    0 -0.61815149017E+01  0.17630814740E+02  0.22479257514E+02  0.29229672826E+02  0.51100000000E-03 0. -1.
        -11    1    3    3    0    0  0.41356809496E+00 -0.21762943739E+01  0.80092342884E+00  0.23555836583E+01  0.51100000000E-03 0.  1.
         12    1    3    3    0    0 -0.62994080957E+01  0.13167598470E+02  0.70311478230E+01  0.16202013193E+02  0.00000000000E+00 0. -1.
</event>
<event>
 7    1  0.2783785E-010  0.4778727E+02  0.7816164E-02  0.1312668E+00
        -11   -1    0    0    0    0  0.00000000000E+00  0.00000000000E+00  0.45593999997E+02  0.45594000000E+02  0.51100000000E-03 0.  1.
         11   -1    0    0    0    0 -0.00000000000E+00 -0.00000000000E+00 -0.45593999997E+02  0.45594000000E+02  0.51100000000E-03 0. -1.
    9900012    2    1    2    0    0 -0.14639666560E+02 -0.15386287079E+02 -0.37849247304E+02  0.47787272027E+02  0.20000004480E+02 0.  0.
        -12    1    1    2    0    0  0.14639666560E+02  0.15386287079E+02  0.37849247304E+02  0.43400727973E+02  0.00000000000E+00 0.  1.
         11    1    3    3    0    0 -0.34337145278E+01  0.14940877532E+01 -0.51718947235E+01  0.63852320995E+01  0.51100000000E-03 0. -1.
        -11    1    3    3    0    0 -0.12531861243E+02 -0.16148538782E+02 -0.19874668038E+02  0.28510090861E+02  0.51100000000E-03 0.  1.
         12    1    3    3    0    0  0.13259092100E+01 -0.73183605009E+00 -0.12802684543E+02  0.12891949067E+02  0.00000000000E+00 0. -1.
</event>
<event>
 7    1  0.2783785E-010  0.4778728E+02  0.7816164E-02  0.1312668E+00
        -11   -1    0    0    0    0  0.00000000000E+00  0.00000000000E+00  0.45593999997E+02  0.45594000000E+02  0.51100000000E-03 0.  1.
         11   -1    0    0    0    0 -0.00000000000E+00 -0.00000000000E+00 -0.45593999997E+02  0.45594000000E+02  0.51100000000E-03 0. -1.
    9900012    2    1    2    0    0 -0.18092389357E+02  0.20953394681E+01 -0.39394132043E+02  0.47787278352E+02  0.20000033320E+02 0.  0.
        -12    1    1    2    0    0  0.18092389357E+02 -0.20953394681E+01  0.39394132043E+02  0.43400721648E+02  0.00000000000E+00 0.  1.
         11    1    3    3    0    0 -0.55412600365E+01  0.42038828499E+01 -0.95524125808E+01  0.11816377625E+02  0.51100000000E-03 0. -1.
        -11    1    3    3    0    0 -0.11589850218E+02  0.50093631550E+01 -0.16051117985E+02  0.20421967000E+02  0.51100000000E-03 0.  1.
         12    1    3    3    0    0 -0.96127910263E+00 -0.71179065367E+01 -0.13790601477E+02  0.15548933728E+02  0.00000000000E+00 0. -1.
</event>
<event>
 7    1  0.2783785E-010  0.4778727E+02  0.7816164E-02  0.1312668E+00
        -11   -1    0    0    0    0  0.00000000000E+00  0.00000000000E+00  0.45593999997E+02  0.45594000000E+02  0.51100000000E-03 0.  1.
         11   -1    0    0    0    0 -0.00000000000E+00 -0.00000000000E+00 -0.45593999997E+02  0.45594000000E+02  0.51100000000E-03 0. -1.
    9900012    2    1    2    0    0  0.40244638735E+02 -0.16214975651E+02  0.10329922917E+01  0.47787268953E+02  0.19999990466E+02 0.  0.
        -12    1    1    2    0    0 -0.40244638735E+02  0.16214975651E+02 -0.10329922917E+01  0.43400731047E+02  0.00000000000E+00 0.  1.
         11    1    3    3    0    0  0.83786646993E+01 -0.66066083134E+01  0.17870188150E+01  0.10818628936E+02  0.51100000000E-03 0. -1.
        -11    1    3    3    0    0  0.29820380657E+02 -0.12771824226E+02  0.16795179089E+01  0.32483770983E+02  0.51100000000E-03 0.  1.
        -12    1    3    3    0    0  0.20455933791E+01  0.31634568880E+01 -0.24335444322E+01  0.44848690347E+01  0.00000000000E+00 0.  1.
</event>
<event>
 7    1  0.2783785E-010  0.4778727E+02  0.7816164E-02  0.1312668E+00
        -11   -1    0    0    0    0  0.00000000000E+00  0.00000000000E+00  0.45593999997E+02  0.45594000000E+02  0.51100000000E-03 0.  1.
         11   -1    0    0    0    0 -0.00000000000E+00 -0.00000000000E+00 -0.45593999997E+02  0.45594000000E+02  0.51100000000E-03 0. -1.
    9900012    2    1    2    0    0  0.14625931035E+02  0.18403774010E+02 -0.36482964124E+02  0.47787269272E+02  0.19999991920E+02 0.  0.
        -12    1    1    2    0    0 -0.14625931035E+02 -0.18403774010E+02  0.36482964124E+02  0.43400730728E+02  0.00000000000E+00 0.  1.
         11    1    3    3    0    0 -0.13152962480E+01  0.49751837230E+01 -0.11658695773E+02  0.12743925796E+02  0.51100000000E-03 0. -1.
        -11    1    3    3    0    0  0.43937060878E+01  0.21105174951E+01 -0.15781842003E+02  0.16517429418E+02  0.51100000000E-03 0.  1.
        -12    1    3    3    0    0  0.11547521195E+02  0.11318072792E+02 -0.90424263474E+01  0.18525914059E+02  0.00000000000E+00 0.  1.
</event>
<event>
 7    1  0.2783785E-010  0.4778727E+02  0.7816164E-02  0.1312668E+00
        -11   -1    0    0    0    0  0.00000000000E+00  0.00000000000E+00  0.45593999997E+02  0.45594000000E+02  0.51100000000E-03 0.  1.
         11   -1    0    0    0    0 -0.00000000000E+00 -0.00000000000E+00 -0.45593999997E+02  0.45594000000E+02  0.51100000000E-03 0. -1.
    9900012    2    1    2    0    0 -0.18383259895E+02 -0.23850478184E+02 -0.31254342751E+02  0.47787268500E+02  0.19999988398E+02 0.  0.
        -12    1    1    2    0    0  0.18383259895E+02  0.23850478184E+02  0.31254342751E+02  0.43400731500E+02  0.00000000000E+00 0.  1.
         11    1    3    3    0    0 -0.65320824445E+01 -0.86878354101E+01 -0.17320780863E+02  0.20448863908E+02  0.51100000000E-03 0. -1.
        -11    1    3    3    0    0 -0.14829396828E+02 -0.11316060740E+02 -0.11214386940E+02  0.21765263969E+02  0.51100000000E-03 0.  1.
        -12    1    3    3    0    0  0.29782193772E+01 -0.38465820338E+01 -0.27191749484E+01  0.55731406228E+01  0.00000000000E+00 0.  1.
</event>
<event>
 7    1  0.2783785E-010  0.4778729E+02  0.7816164E-02  0.1312668E+00
        -11   -1    0    0    0    0  0.00000000000E+00  0.00000000000E+00  0.45593999997E+02  0.45594000000E+02  0.51100000000E-03 0.  1.
         11   -1    0    0    0    0 -0.00000000000E+00 -0.00000000000E+00 -0.45593999997E+02  0.45594000000E+02  0.51100000000E-03 0. -1.
    9900012    2    1    2    0    0  0.42226996115E+02 -0.76825138430E+01  0.64406312468E+01  0.47787286288E+02  0.20000069501E+02 0.  0.
        -12    1    1    2    0    0 -0.42226996115E+02  0.76825138430E+01 -0.64406312468E+01  0.43400713712E+02  0.00000000000E+00 0.  1.
         11    1    3    3    0    0  0.25153620862E+01  0.26951789917E+01  0.25196233919E+00  0.36952024983E+01  0.51100000000E-03 0.  1.
        -11    1    3    3    0    0  0.45775831368E+01 -0.62405732111E+01 -0.15147473044E+01  0.78862843618E+01  0.51100000000E-03 0. -1.
         12    1    3    3    0    0  0.35134050892E+02 -0.41371196237E+01  0.77034162120E+01  0.36205799428E+02  0.00000000000E+00 0. -1.
</event>
<event>
 7    1  0.2783785E-010  0.4778727E+02  0.7816164E-02  0.1312668E+00
        -11   -1    0    0    0    0  0.00000000000E+00  0.00000000000E+00  0.45593999997E+02  0.45594000000E+02  0.51100000000E-03 0.  1.
         11   -1    0    0    0    0 -0.00000000000E+00 -0.00000000000E+00 -0.45593999997E+02  0.45594000000E+02  0.51100000000E-03 0. -1.
    9900012    2    1    2    0    0 -0.32069647239E+02 -0.15250332494E+02 -0.24951717569E+02  0.47787272761E+02  0.20000007827E+02 0.  0.
        -12    1    1    2    0    0  0.32069647239E+02  0.15250332494E+02  0.24951717569E+02  0.43400727239E+02  0.00000000000E+00 0.  1.
         11    1    3    3    0    0 -0.27554283741E+02 -0.18733592035E+02 -0.19693678396E+02  0.38704353658E+02  0.51100000000E-03 0.  1.
        -11    1    3    3    0    0  0.32377077425E+00  0.10817995377E+01 -0.30402030934E+01  0.32431393532E+01  0.51100000000E-03 0. -1.
        -12    1    3    3    0    0 -0.48391342721E+01  0.24014600037E+01 -0.22178360800E+01  0.58397797501E+01  0.00000000000E+00 0.  1.
</event>
<event>
 7    1  0.2783785E-010  0.4778727E+02  0.7816164E-02  0.1312668E+00
        -11   -1    0    0    0    0  0.00000000000E+00  0.00000000000E+00  0.45593999997E+02  0.45594000000E+02  0.51100000000E-03 0.  1.
         11   -1    0    0    0    0 -0.00000000000E+00 -0.00000000000E+00 -0.45593999997E+02  0.45594000000E+02  0.51100000000E-03 0. -1.
    9900012    2    1    2    0    0  0.14847404841E+02  0.27863298122E+02  0.29779432605E+02  0.47787269372E+02  0.19999992376E+02 0.  0.
        -12    1    1    2    0    0 -0.14847404841E+02 -0.27863298122E+02 -0.29779432605E+02  0.43400730628E+02  0.00000000000E+00 0.  1.
         11    1    3    3    0    0  0.12982671898E+02  0.10633409782E+02  0.14653350837E+02  0.22278686322E+02  0.51100000000E-03 0. -1.
        -11    1    3    3    0    0 -0.80716011530E+00  0.13529476932E+01  0.75542205982E+01  0.77167495761E+01  0.51100000000E-03 0.  1.
        -12    1    3    3    0    0  0.26718930580E+01  0.15876940647E+02  0.75718611701E+01  0.17791833475E+02  0.00000000000E+00 0.  1.
</event>
<event>
 7    1  0.2783785E-010  0.4778727E+02  0.7816164E-02  0.1312668E+00
        -11   -1    0    0    0    0  0.00000000000E+00  0.00000000000E+00  0.45593999997E+02  0.45594000000E+02  0.51100000000E-03 0. -1.
         11   -1    0    0    0    0 -0.00000000000E+00 -0.00000000000E+00 -0.45593999997E+02  0.45594000000E+02  0.51100000000E-03 0.  1.
    9900012    2    1    2    0    0  0.30311184122E+02  0.30689780561E+02 -0.47950714393E+01  0.47787271620E+02  0.20000002626E+02 0.  0.
        -12    1    1    2    0    0 -0.30311184122E+02 -0.30689780561E+02  0.47950714393E+01  0.43400728380E+02  0.00000000000E+00 0.  1.
         11    1    3    3    0    0  0.66312366238E+01  0.10306565968E+02 -0.57760843425E+01  0.13548496293E+02  0.51100000000E-03 0. -1.
        -11    1    3    3    0    0  0.16978100816E+01  0.69842935069E+01 -0.36822199468E+01  0.80759927478E+01  0.51100000000E-03 0.  1.
        -12    1    3    3    0    0  0.21982137417E+02  0.13398921085E+02  0.46632328500E+01  0.26162782579E+02  0.00000000000E+00 0.  1.
</event>
<event>
 7    1  0.2783785E-010  0.4778727E+02  0.7816164E-02  0.1312668E+00
        -11   -1    0    0    0    0  0.00000000000E+00  0.00000000000E+00  0.45593999997E+02  0.45594000000E+02  0.51100000000E-03 0. -1.
         11   -1    0    0    0    0 -0.00000000000E+00 -0.00000000000E+00 -0.45593999997E+02  0.45594000000E+02  0.51100000000E-03 0.  1.
    9900012    2    1    2    0    0  0.22005216000E+02 -0.60840167126E+01  0.36910418401E+02  0.47787265247E+02  0.19999973566E+02 0.  0.
        -12    1    1    2    0    0 -0.22005216000E+02  0.60840167126E+01 -0.36910418401E+02  0.43400734753E+02  0.00000000000E+00 0.  1.
         11    1    3    3    0    0  0.19339910307E+01  0.27344966720E+01  0.16090699971E+01  0.37157636997E+01  0.51100000000E-03 0.  1.
        -11    1    3    3    0    0  0.14180811096E+02 -0.57648853411E+00  0.11719818468E+02  0.18406028565E+02  0.51100000000E-03 0. -1.
         12    1    3    3    0    0  0.58904138739E+01 -0.82420248505E+01  0.23581529937E+02  0.25665472982E+02  0.00000000000E+00 0. -1.
</event>
<event>
 7    1  0.2783785E-010  0.4778728E+02  0.7816164E-02  0.1312668E+00
        -11   -1    0    0    0    0  0.00000000000E+00  0.00000000000E+00  0.45593999997E+02  0.45594000000E+02  0.51100000000E-03 0.  1.
         11   -1    0    0    0    0 -0.00000000000E+00 -0.00000000000E+00 -0.45593999997E+02  0.45594000000E+02  0.51100000000E-03 0. -1.
    9900012    2    1    2    0    0 -0.15715048422E+02  0.39497391728E+02  0.87530661020E+01  0.47787275739E+02  0.20000021403E+02 0.  0.
        -12    1    1    2    0    0  0.15715048422E+02 -0.39497391728E+02 -0.87530661020E+01  0.43400724261E+02  0.00000000000E+00 0.  1.
         11    1    3    3    0    0 -0.38549167064E+01  0.34944587960E+01  0.14055041350E+01  0.53895331176E+01  0.51100000000E-03 0. -1.
        -11    1    3    3    0    0  0.42886703479E+01  0.38681751979E+01  0.60632071893E+00  0.58071591841E+01  0.51100000000E-03 0.  1.
         12    1    3    3    0    0 -0.16148802063E+02  0.32134757734E+02  0.67412412481E+01  0.36590583437E+02  0.00000000000E+00 0. -1.
</event>
<event>
 7    1  0.2783785E-010  0.4778727E+02  0.7816164E-02  0.1312668E+00
        -11   -1    0    0    0    0  0.00000000000E+00  0.00000000000E+00  0.45593999997E+02  0.45594000000E+02  0.51100000000E-03 0.  1.
         11   -1    0    0    0    0 -0.00000000000E+00 -0.00000000000E+00 -0.45593999997E+02  0.45594000000E+02  0.51100000000E-03 0. -1.
    9900012    2    1    2    0    0 -0.16379398847E+02  0.85426214541E+01 -0.39272920333E+02  0.47787270060E+02  0.19999995510E+02 0.  0.
        -12    1    1    2    0    0  0.16379398847E+02 -0.85426214541E+01  0.39272920333E+02  0.43400729940E+02  0.00000000000E+00 0.  1.
         11    1    3    3    0    0 -0.59523348406E+01  0.11142589190E+01 -0.16578993077E+01  0.62785741509E+01  0.51100000000E-03 0.  1.
        -11    1    3    3    0    0 -0.69120120336E+01  0.92834942346E+00 -0.65181613018E+01  0.95458980731E+01  0.51100000000E-03 0. -1.
         12    1    3    3    0    0 -0.35150519726E+01  0.65000131116E+01 -0.31096859723E+02  0.31962797836E+02  0.00000000000E+00 0. -1.
</event>
<event>
 7    1  0.2783785E-010  0.4778726E+02  0.7816164E-02  0.1312668E+00
        -11   -1    0    0    0    0  0.00000000000E+00  0.00000000000E+00  0.45593999997E+02  0.45594000000E+02  0.51100000000E-03 0. -1.
         11   -1    0    0    0    0 -0.00000000000E+00 -0.00000000000E+00 -0.45593999997E+02  0.45594000000E+02  0.51100000000E-03 0.  1.
    9900012    2    1    2    0    0 -0.62576516427E+01  0.42808027792E+02  0.34551988197E+01  0.47787264449E+02  0.19999969929E+02 0.  0.
        -12    1    1    2    0    0  0.62576516427E+01 -0.42808027792E+02 -0.34551988197E+01  0.43400735551E+02  0.00000000000E+00 0.  1.
         11    1    3    3    0    0 -0.44343979211E+01  0.13057452069E+02  0.62693894143E+01  0.15148141250E+02  0.51100000000E-03 0. -1.
        -11    1    3    3    0    0  0.12476177563E+01 -0.23659112554E+00 -0.21390349209E+01  0.24875683067E+01  0.51100000000E-03 0.  1.
        -12    1    3    3    0    0 -0.30708714778E+01  0.29987166848E+02 -0.67515567373E+00  0.30151554892E+02  0.00000000000E+00 0.  1.
</event>
<event>
 7    1  0.2783785E-010  0.4778728E+02  0.7816164E-02  0.1312668E+00
        -11   -1    0    0    0    0  0.00000000000E+00  0.00000000000E+00  0.45593999997E+02  0.45594000000E+02  0.51100000000E-03 0.  1.
         11   -1    0    0    0    0 -0.00000000000E+00 -0.00000000000E+00 -0.45593999997E+02  0.45594000000E+02  0.51100000000E-03 0. -1.
    9900012    2    1    2    0    0  0.13365320028E+01  0.25536573002E+02 -0.35067358691E+02  0.47787279683E+02  0.20000039385E+02 0.  0.
        -12    1    1    2    0    0 -0.13365320028E+01 -0.25536573002E+02  0.35067358691E+02  0.43400720317E+02  0.00000000000E+00 0.  1.
         11    1    3    3    0    0 -0.13422631848E+01 -0.26394133397E+00 -0.66858220438E+01  0.68243352898E+01  0.51100000000E-03 0.  1.
        -11    1    3    3    0    0 -0.47833706858E+01  0.17892720547E+02 -0.15900139847E+02  0.24409926897E+02  0.51100000000E-03 0. -1.
         12    1    3    3    0    0  0.74621658734E+01  0.79077937895E+01 -0.12481396800E+02  0.16553017496E+02  0.00000000000E+00 0. -1.
</event>
<event>
 7    1  0.2783785E-010  0.4778727E+02  0.7816164E-02  0.1312668E+00
        -11   -1    0    0    0    0  0.00000000000E+00  0.00000000000E+00  0.45593999997E+02  0.45594000000E+02  0.51100000000E-03 0.  1.
         11   -1    0    0    0    0 -0.00000000000E+00 -0.00000000000E+00 -0.45593999997E+02  0.45594000000E+02  0.51100000000E-03 0. -1.
    9900012    2    1    2    0    0  0.28812242703E+02 -0.11371016592E+02 -0.30400295600E+02  0.47787270508E+02  0.19999997552E+02 0.  0.
        -12    1    1    2    0    0 -0.28812242703E+02  0.11371016592E+02  0.30400295600E+02  0.43400729492E+02  0.00000000000E+00 0.  1.
         11    1    3    3    0    0  0.22699735746E+02 -0.15458774444E+02 -0.17034151853E+02  0.32317395314E+02  0.51100000000E-03 0. -1.
        -11    1    3    3    0    0  0.12893425896E+01  0.21050516689E+01 -0.55449173983E+01  0.60695762667E+01  0.51100000000E-03 0.  1.
         12    1    3    3    0    0  0.48231643667E+01  0.19827061829E+01 -0.78212263487E+01  0.94002989268E+01  0.00000000000E+00 0. -1.
</event>
<event>
 7    1  0.2783785E-010  0.4778727E+02  0.7816164E-02  0.1312668E+00
        -11   -1    0    0    0    0  0.00000000000E+00  0.00000000000E+00  0.45593999997E+02  0.45594000000E+02  0.51100000000E-03 0. -1.
         11   -1    0    0    0    0 -0.00000000000E+00 -0.00000000000E+00 -0.45593999997E+02  0.45594000000E+02  0.51100000000E-03 0.  1.
    9900012    2    1    2    0    0  0.10962886670E+02  0.27444785684E+02  0.31783996243E+02  0.47787267719E+02  0.19999984838E+02 0.  0.
        -12    1    1    2    0    0 -0.10962886670E+02 -0.27444785684E+02 -0.31783996243E+02  0.43400732281E+02  0.00000000000E+00 0.  1.
         11    1    3    3    0    0  0.45414287439E+01  0.75126691761E+00  0.12984235622E+02  0.13776042681E+02  0.51100000000E-03 0.  1.
        -11    1    3    3    0    0  0.15267649245E+01  0.16015152235E+02  0.13983108035E+02  0.21315333046E+02  0.51100000000E-03 0. -1.
        -12    1    3    3    0    0  0.48946930019E+01  0.10678366530E+02  0.48166525861E+01  0.12695891992E+02  0.00000000000E+00 0.  1.
</event>
<event>
 7    1  0.2783785E-010  0.4778727E+02  0.7816164E-02  0.1312668E+00
        -11   -1    0    0    0    0  0.00000000000E+00  0.00000000000E+00  0.45593999997E+02  0.45594000000E+02  0.51100000000E-03 0.  1.
         11   -1    0    0    0    0 -0.00000000000E+00 -0.00000000000E+00 -0.45593999997E+02  0.45594000000E+02  0.51100000000E-03 0. -1.
    9900012    2    1    2    0    0  0.11262169211E+02 -0.16988318437E+02 -0.38316884447E+02  0.47787273596E+02  0.20000011633E+02 0.  0.
        -12    1    1    2    0    0 -0.11262169211E+02  0.16988318437E+02  0.38316884447E+02  0.43400726404E+02  0.00000000000E+00 0.  1.
         11    1    3    3    0    0  0.46433229912E+01  0.12500415031E+01 -0.11891558261E+02  0.12827010965E+02  0.51100000000E-03 0. -1.
        -11    1    3    3    0    0 -0.27357668986E+01 -0.67946650210E+01 -0.13344540573E+02  0.15222636323E+02  0.51100000000E-03 0.  1.
        -12    1    3    3    0    0  0.93546131184E+01 -0.11443694919E+02 -0.13080785614E+02  0.19737626308E+02  0.00000000000E+00 0.  1.
</event>
<event>
 7    1  0.2783785E-010  0.4778729E+02  0.7816164E-02  0.1312668E+00
        -11   -1    0    0    0    0  0.00000000000E+00  0.00000000000E+00  0.45593999997E+02  0.45594000000E+02  0.51100000000E-03 0. -1.
         11   -1    0    0    0    0 -0.00000000000E+00 -0.00000000000E+00 -0.45593999997E+02  0.45594000000E+02  0.51100000000E-03 0.  1.
    9900012    2    1    2    0    0  0.32207259578E+02  0.25504124783E+01  0.28979473563E+02  0.47787285014E+02  0.20000063692E+02 0.  0.
        -12    1    1    2    0    0 -0.32207259578E+02 -0.25504124783E+01 -0.28979473563E+02  0.43400714986E+02  0.00000000000E+00 0.  1.
         11    1    3    3    0    0  0.73392952122E+01  0.22029123018E+01  0.14488341429E+02  0.16389939428E+02  0.51100000000E-03 0. -1.
        -11    1    3    3    0    0  0.65360171771E+01  0.34050735796E+01  0.97408856893E+01  0.12214700197E+02  0.51100000000E-03 0.  1.
        -12    1    3    3    0    0  0.18331947189E+02 -0.30575734031E+01  0.47502464444E+01  0.19182645389E+02  0.00000000000E+00 0.  1.
</event>
<event>
 7    1  0.2783785E-010  0.4778727E+02  0.7816164E-02  0.1312668E+00
        -11   -1    0    0    0    0  0.00000000000E+00  0.00000000000E+00  0.45593999997E+02  0.45594000000E+02  0.51100000000E-03 0.  1.
         11   -1    0    0    0    0 -0.00000000000E+00 -0.00000000000E+00 -0.45593999997E+02  0.45594000000E+02  0.51100000000E-03 0. -1.
    9900012    2    1    2    0    0 -0.20719814491E+02 -0.78065105684E+00 -0.38127458226E+02  0.47787271903E+02  0.20000003912E+02 0.  0.
        -12    1    1    2    0    0  0.20719814491E+02  0.78065105684E+00  0.38127458226E+02  0.43400728097E+02  0.00000000000E+00 0.  1.
         11    1    3    3    0    0 -0.54353816073E+01  0.32111781593E+01 -0.10174381552E+02  0.11973849783E+02  0.51100000000E-03 0. -1.
        -11    1    3    3    0    0 -0.15065929131E+01 -0.66963255622E+01 -0.37211299377E+01  0.78075224313E+01  0.51100000000E-03 0.  1.
        -12    1    3    3    0    0 -0.13777839971E+02  0.27044963461E+01 -0.24231946736E+02  0.28005899688E+02  0.00000000000E+00 0.  1.
</event>
<event>
 7    1  0.2783785E-010  0.4778728E+02  0.7816164E-02  0.1312668E+00
        -11   -1    0    0    0    0  0.00000000000E+00  0.00000000000E+00  0.45593999997E+02  0.45594000000E+02  0.51100000000E-03 0.  1.
         11   -1    0    0    0    0 -0.00000000000E+00 -0.00000000000E+00 -0.45593999997E+02  0.45594000000E+02  0.51100000000E-03 0. -1.
    9900012    2    1    2    0    0 -0.17730588534E+02 -0.39016495510E+02 -0.68528436930E+01  0.47787283896E+02  0.20000058595E+02 0.  0.
        -12    1    1    2    0    0  0.17730588534E+02  0.39016495510E+02  0.68528436930E+01  0.43400716104E+02  0.00000000000E+00 0.  1.
         11    1    3    3    0    0 -0.92933679389E+01 -0.74859630265E+01 -0.47981315657E+01  0.12861897094E+02  0.51100000000E-03 0. -1.
        -11    1    3    3    0    0 -0.36720894699E+01 -0.89870529945E+01  0.48760023753E+01  0.10864012243E+02  0.51100000000E-03 0.  1.
        -12    1    3    3    0    0 -0.47651311256E+01 -0.22543479489E+02 -0.69307145025E+01  0.24061374558E+02  0.00000000000E+00 0.  1.
</event>
<event>
 7    1  0.2783785E-010  0.4778722E+02  0.7816164E-02  0.1312668E+00
        -11   -1    0    0    0    0  0.00000000000E+00  0.00000000000E+00  0.45593999997E+02  0.45594000000E+02  0.51100000000E-03 0.  1.
         11   -1    0    0    0    0 -0.00000000000E+00 -0.00000000000E+00 -0.45593999997E+02  0.45594000000E+02  0.51100000000E-03 0. -1.
    9900012    2    1    2    0    0  0.28944918840E+02 -0.32236824692E+02  0.25702600142E+01  0.47787223171E+02  0.19999781725E+02 0.  0.
        -12    1    1    2    0    0 -0.28944918840E+02  0.32236824692E+02 -0.25702600142E+01  0.43400776829E+02  0.00000000000E+00 0.  1.
         11    1    3    3    0    0  0.31697262946E+01 -0.72033250351E+01  0.29357214440E+01  0.83996140984E+01  0.51100000000E-03 0. -1.
        -11    1    3    3    0    0  0.16471000869E+02 -0.19079386464E+02  0.69408451953E+01  0.26143683553E+02  0.51100000000E-03 0.  1.
         12    1    3    3    0    0  0.93041916762E+01 -0.59541131926E+01 -0.73063066251E+01  0.13243925519E+02  0.00000000000E+00 0. -1.
</event>
<event>
 7    1  0.2783785E-010  0.4778728E+02  0.7816164E-02  0.1312668E+00
        -11   -1    0    0    0    0  0.00000000000E+00  0.00000000000E+00  0.45593999997E+02  0.45594000000E+02  0.51100000000E-03 0.  1.
         11   -1    0    0    0    0 -0.00000000000E+00 -0.00000000000E+00 -0.45593999997E+02  0.45594000000E+02  0.51100000000E-03 0. -1.
    9900012    2    1    2    0    0 -0.83568096600E+01  0.10526211499E+02 -0.41267242083E+02  0.47787278055E+02  0.20000031962E+02 0.  0.
        -12    1    1    2    0    0  0.83568096600E+01 -0.10526211499E+02  0.41267242083E+02  0.43400721945E+02  0.00000000000E+00 0.  1.
         11    1    3    3    0    0 -0.62256025243E+01  0.33879232742E+01 -0.10130746634E+02  0.12363987161E+02  0.51100000000E-03 0. -1.
        -11    1    3    3    0    0 -0.29206765551E+01  0.11733676854E+02 -0.20336036935E+02  0.23659330560E+02  0.51100000000E-03 0.  1.
         12    1    3    3    0    0  0.78946941938E+00 -0.45953886286E+01 -0.10800458514E+02  0.11763960333E+02  0.00000000000E+00 0. -1.
</event>
<event>
 7    1  0.2783785E-010  0.4778727E+02  0.7816164E-02  0.1312668E+00
        -11   -1    0    0    0    0  0.00000000000E+00  0.00000000000E+00  0.45593999997E+02  0.45594000000E+02  0.51100000000E-03 0.  1.
         11   -1    0    0    0    0 -0.00000000000E+00 -0.00000000000E+00 -0.45593999997E+02  0.45594000000E+02  0.51100000000E-03 0. -1.
    9900012    2    1    2    0    0  0.40238761517E+02 -0.12225719143E+01 -0.16216365266E+02  0.47787272899E+02  0.20000008454E+02 0.  0.
        -12    1    1    2    0    0 -0.40238761517E+02  0.12225719143E+01  0.16216365266E+02  0.43400727101E+02  0.00000000000E+00 0.  1.
         11    1    3    3    0    0  0.17808635168E+02  0.33864773610E+01 -0.36170323430E+01  0.18485092337E+02  0.51100000000E-03 0. -1.
        -11    1    3    3    0    0 -0.85979427047E+00 -0.15430647956E+01  0.11266407217E+01  0.20951407418E+01  0.51100000000E-03 0.  1.
         12    1    3    3    0    0  0.23289920619E+02 -0.30659844798E+01 -0.13725973645E+02  0.27207039820E+02  0.00000000000E+00 0. -1.
</event>
<event>
 7    1  0.2783785E-010  0.4778727E+02  0.7816164E-02  0.1312668E+00
        -11   -1    0    0    0    0  0.00000000000E+00  0.00000000000E+00  0.45593999997E+02  0.45594000000E+02  0.51100000000E-03 0. -1.
         11   -1    0    0    0    0 -0.00000000000E+00 -0.00000000000E+00 -0.45593999997E+02  0.45594000000E+02  0.51100000000E-03 0.  1.
    9900012    2    1    2    0    0 -0.23110424536E+02 -0.35988398622E+02  0.73733876715E+01  0.47787269552E+02  0.19999993197E+02 0.  0.
        -12    1    1    2    0    0  0.23110424536E+02  0.35988398622E+02 -0.73733876715E+01  0.43400730448E+02  0.00000000000E+00 0.  1.
         11    1    3    3    0    0  0.13351341801E+00 -0.12933254404E+02  0.49202579379E+00  0.12943298844E+02  0.51100000000E-03 0. -1.
        -11    1    3    3    0    0 -0.12491758342E+02 -0.17148118635E+02  0.76481862581E+01  0.22552089759E+02  0.51100000000E-03 0.  1.
         12    1    3    3    0    0 -0.10752179612E+02 -0.59070255829E+01 -0.76682438033E+00  0.12291880949E+02  0.00000000000E+00 0. -1.
</event>
<event>
 7    1  0.2783785E-010  0.4778727E+02  0.7816164E-02  0.1312668E+00
        -11   -1    0    0    0    0  0.00000000000E+00  0.00000000000E+00  0.45593999997E+02  0.45594000000E+02  0.51100000000E-03 0.  1.
         11   -1    0    0    0    0 -0.00000000000E+00 -0.00000000000E+00 -0.45593999997E+02  0.45594000000E+02  0.51100000000E-03 0. -1.
    9900012    2    1    2    0    0 -0.32734133290E+02  0.27597633283E+02 -0.71042589060E+01  0.47787270286E+02  0.19999996544E+02 0.  0.
        -12    1    1    2    0    0  0.32734133290E+02 -0.27597633283E+02  0.71042589060E+01  0.43400729714E+02  0.00000000000E+00 0.  1.
         11    1    3    3    0    0 -0.18433557484E+02  0.15462419390E+02 -0.38770661008E+01  0.24370352823E+02  0.51100000000E-03 0. -1.
        -11    1    3    3    0    0 -0.32387335027E+00  0.78280376537E+01  0.16369965884E+01  0.80039256335E+01  0.51100000000E-03 0.  1.
        -12    1    3    3    0    0 -0.13976702455E+02  0.43071762396E+01 -0.48641893936E+01  0.15412991830E+02  0.00000000000E+00 0.  1.
</event>
<event>
 7    1  0.2783785E-010  0.4778729E+02  0.7816164E-02  0.1312668E+00
        -11   -1    0    0    0    0  0.00000000000E+00  0.00000000000E+00  0.45593999997E+02  0.45594000000E+02  0.51100000000E-03 0. -1.
         11   -1    0    0    0    0 -0.00000000000E+00 -0.00000000000E+00 -0.45593999997E+02  0.45594000000E+02  0.51100000000E-03 0.  1.
    9900012    2    1    2    0    0  0.37985477907E+02 -0.16823127821E+02  0.12558149291E+02  0.47787294071E+02  0.20000104987E+02 0.  0.
        -12    1    1    2    0    0 -0.37985477907E+02  0.16823127821E+02 -0.12558149291E+02  0.43400705929E+02  0.00000000000E+00 0.  1.
         11    1    3    3    0    0  0.10836672656E+02 -0.98369768210E+01  0.86964229410E+01  0.17024316710E+02  0.51100000000E-03 0. -1.
        -11    1    3    3    0    0  0.75330042832E+01 -0.38678649584E+01 -0.40455916236E+01  0.93847399917E+01  0.51100000000E-03 0.  1.
         12    1    3    3    0    0  0.19615800968E+02 -0.31182860417E+01  0.79073179740E+01  0.21378237369E+02  0.00000000000E+00 0. -1.
</event>
<event>
 7    1  0.2783785E-010  0.4778727E+02  0.7816164E-02  0.1312668E+00
        -11   -1    0    0    0    0  0.00000000000E+00  0.00000000000E+00  0.45593999997E+02  0.45594000000E+02  0.51100000000E-03 0.  1.
         11   -1    0    0    0    0 -0.00000000000E+00 -0.00000000000E+00 -0.45593999997E+02  0.45594000000E+02  0.51100000000E-03 0. -1.
    9900012    2    1    2    0    0  0.89388630803E+00  0.16596986703E+02 -0.40091950730E+02  0.47787268282E+02  0.19999987404E+02 0.  0.
        -12    1    1    2    0    0 -0.89388630803E+00 -0.16596986703E+02  0.40091950730E+02  0.43400731718E+02  0.00000000000E+00 0.  1.
         11    1    3    3    0    0  0.55748491173E+01  0.12079425468E+02 -0.14448111330E+02  0.19640249071E+02  0.51100000000E-03 0. -1.
        -11    1    3    3    0    0 -0.23403948241E+01  0.68485272019E+01 -0.22306958689E+02  0.23451656210E+02  0.51100000000E-03 0.  1.
        -12    1    3    3    0    0 -0.23405679852E+01 -0.23309659667E+01 -0.33368807105E+01  0.46953630005E+01  0.00000000000E+00 0.  1.
</event>
<event>
 7    1  0.2783785E-010  0.4778727E+02  0.7816164E-02  0.1312668E+00
        -11   -1    0    0    0    0  0.00000000000E+00  0.00000000000E+00  0.45593999997E+02  0.45594000000E+02  0.51100000000E-03 0. -1.
         11   -1    0    0    0    0 -0.00000000000E+00 -0.00000000000E+00 -0.45593999997E+02  0.45594000000E+02  0.51100000000E-03 0.  1.
    9900012    2    1    2    0    0 -0.42786061503E+02  0.67801249501E+01 -0.26469481153E+01  0.47787268582E+02  0.19999988774E+02 0.  0.
        -12    1    1    2    0    0  0.42786061503E+02 -0.67801249501E+01  0.26469481153E+01  0.43400731418E+02  0.00000000000E+00 0.  1.
         11    1    3    3    0    0 -0.13738790173E+02  0.36214407443E+01  0.20757682687E+01  0.14358899772E+02  0.51100000000E-03 0. -1.
        -11    1    3    3    0    0 -0.10882377202E+02 -0.19729982295E+00 -0.93907570000E+01  0.14375374015E+02  0.51100000000E-03 0.  1.
        -12    1    3    3    0    0 -0.18164894127E+02  0.33559840288E+01  0.46680406160E+01  0.19052994795E+02  0.00000000000E+00 0.  1.
</event>
<event>
 7    1  0.2783785E-010  0.4778727E+02  0.7816164E-02  0.1312668E+00
        -11   -1    0    0    0    0  0.00000000000E+00  0.00000000000E+00  0.45593999997E+02  0.45594000000E+02  0.51100000000E-03 0. -1.
         11   -1    0    0    0    0 -0.00000000000E+00 -0.00000000000E+00 -0.45593999997E+02  0.45594000000E+02  0.51100000000E-03 0.  1.
    9900012    2    1    2    0    0  0.14781531863E+02 -0.17240751237E+02  0.36984940739E+02  0.47787273867E+02  0.20000012870E+02 0.  0.
        -12    1    1    2    0    0 -0.14781531863E+02  0.17240751237E+02 -0.36984940739E+02  0.43400726133E+02  0.00000000000E+00 0.  1.
         11    1    3    3    0    0  0.79852331614E+01 -0.27907473538E+01  0.66053840550E+01  0.10732349147E+02  0.51100000000E-03 0. -1.
        -11    1    3    3    0    0 -0.42521595572E+00 -0.32528791664E+01  0.19722041356E+02  0.19993022457E+02  0.51100000000E-03 0.  1.
         12    1    3    3    0    0  0.72215146568E+01 -0.11197124717E+02  0.10657515328E+02  0.17061902263E+02  0.00000000000E+00 0. -1.
</event>
<event>
 7    1  0.2783785E-010  0.4778727E+02  0.7816164E-02  0.1312668E+00
        -11   -1    0    0    0    0  0.00000000000E+00  0.00000000000E+00  0.45593999997E+02  0.45594000000E+02  0.51100000000E-03 0.  1.
         11   -1    0    0    0    0 -0.00000000000E+00 -0.00000000000E+00 -0.45593999997E+02  0.45594000000E+02  0.51100000000E-03 0. -1.
    9900012    2    1    2    0    0 -0.35020287548E+02 -0.19061158606E+02 -0.17142789127E+02  0.47787268135E+02  0.19999986734E+02 0.  0.
        -12    1    1    2    0    0  0.35020287548E+02  0.19061158606E+02  0.17142789127E+02  0.43400731865E+02  0.00000000000E+00 0.  1.
         11    1    3    3    0    0 -0.32087177615E+02 -0.15044822942E+02 -0.18750305964E+02  0.40093735654E+02  0.51100000000E-03 0. -1.
        -11    1    3    3    0    0 -0.31684189389E+01  0.28175939991E+00  0.10674576923E+01  0.33552545533E+01  0.51100000000E-03 0.  1.
         12    1    3    3    0    0  0.23530900566E+00 -0.42980950631E+01  0.54005914401E+00  0.43382779278E+01  0.00000000000E+00 0. -1.
</event>
<event>
 7    1  0.2783785E-010  0.4778727E+02  0.7816164E-02  0.1312668E+00
        -11   -1    0    0    0    0  0.00000000000E+00  0.00000000000E+00  0.45593999997E+02  0.45594000000E+02  0.51100000000E-03 0.  1.
         11   -1    0    0    0    0 -0.00000000000E+00 -0.00000000000E+00 -0.45593999997E+02  0.45594000000E+02  0.51100000000E-03 0. -1.
    9900012    2    1    2    0    0  0.10412495775E+02 -0.30466312196E+02 -0.29103386339E+02  0.47787270243E+02  0.19999996344E+02 0.  0.
        -12    1    1    2    0    0 -0.10412495775E+02  0.30466312196E+02  0.29103386339E+02  0.43400729757E+02  0.00000000000E+00 0.  1.
         11    1    3    3    0    0  0.75176042275E+01 -0.11306808129E+02 -0.17269321739E+02  0.21967880120E+02  0.51100000000E-03 0. -1.
        -11    1    3    3    0    0  0.68307231739E+01 -0.16441698779E+02 -0.73449541700E+01  0.19259714168E+02  0.51100000000E-03 0.  1.
         12    1    3    3    0    0 -0.39358316263E+01 -0.27178052880E+01 -0.44891104303E+01  0.65596759546E+01  0.00000000000E+00 0. -1.
</event>
<event>
 7    1  0.2783785E-010  0.4778727E+02  0.7816164E-02  0.1312668E+00
        -11   -1    0    0    0    0  0.00000000000E+00  0.00000000000E+00  0.45593999997E+02  0.45594000000E+02  0.51100000000E-03 0.  1.
         11   -1    0    0    0    0 -0.00000000000E+00 -0.00000000000E+00 -0.45593999997E+02  0.45594000000E+02  0.51100000000E-03 0. -1.
    9900012    2    1    2    0    0 -0.43040384836E+02 -0.35832727279E+01  0.42788844492E+01  0.47787269334E+02  0.19999992199E+02 0.  0.
        -12    1    1    2    0    0  0.43040384836E+02  0.35832727279E+01 -0.42788844492E+01  0.43400730666E+02  0.00000000000E+00 0.  1.
         11    1    3    3    0    0 -0.31316484174E+02 -0.13199151002E+01  0.75715641580E+01  0.32245820519E+02  0.51100000000E-03 0. -1.
        -11    1    3    3    0    0 -0.22297149782E+01 -0.31784412497E+01  0.22722289082E+01  0.44985711214E+01  0.51100000000E-03 0.  1.
        -12    1    3    3    0    0 -0.94941856835E+01  0.91508362196E+00 -0.55649086169E+01  0.11042877693E+02  0.00000000000E+00 0.  1.
</event>
<event>
 7    1  0.2783785E-010  0.4778727E+02  0.7816164E-02  0.1312668E+00
        -11   -1    0    0    0    0  0.00000000000E+00  0.00000000000E+00  0.45593999997E+02  0.45594000000E+02  0.51100000000E-03 0. -1.
         11   -1    0    0    0    0 -0.00000000000E+00 -0.00000000000E+00 -0.45593999997E+02  0.45594000000E+02  0.51100000000E-03 0.  1.
    9900012    2    1    2    0    0  0.66319085896E+01  0.25143122546E+02  0.34748584706E+02  0.47787274638E+02  0.20000016384E+02 0.  0.
        -12    1    1    2    0    0 -0.66319085896E+01 -0.25143122546E+02 -0.34748584706E+02  0.43400725362E+02  0.00000000000E+00 0.  1.
         11    1    3    3    0    0  0.27218622697E+01  0.21052598178E+02  0.17910951297E+02  0.27774495511E+02  0.51100000000E-03 0. -1.
        -11    1    3    3    0    0 -0.13268129658E+01 -0.23690237556E+00 -0.46382225742E+00  0.14253724879E+01  0.51100000000E-03 0.  1.
        -12    1    3    3    0    0  0.52368592856E+01  0.43274267434E+01  0.17301455667E+02  0.18587406639E+02  0.00000000000E+00 0.  1.
</event>
<event>
 7    1  0.2783785E-010  0.4778727E+02  0.7816164E-02  0.1312668E+00
        -11   -1    0    0    0    0  0.00000000000E+00  0.00000000000E+00  0.45593999997E+02  0.45594000000E+02  0.51100000000E-03 0.  1.
         11   -1    0    0    0    0 -0.00000000000E+00 -0.00000000000E+00 -0.45593999997E+02  0.45594000000E+02  0.51100000000E-03 0. -1.
    9900012    2    1    2    0    0  0.37662738221E+02 -0.20007308802E+02 -0.80528864510E+01  0.47787271481E+02  0.20000001990E+02 0.  0.
        -12    1    1    2    0    0 -0.37662738221E+02  0.20007308802E+02  0.80528864510E+01  0.43400728519E+02  0.00000000000E+00 0.  1.
         11    1    3    3    0    0  0.46100898385E+01 -0.35913952022E+01 -0.60915033600E+01  0.84414134636E+01  0.51100000000E-03 0.  1.
        -11    1    3    3    0    0  0.91419606720E+01  0.13589436598E+01 -0.23998522352E+01  0.95488985653E+01  0.51100000000E-03 0. -1.
        -12    1    3    3    0    0  0.23910687711E+02 -0.17774857259E+02  0.43846914427E+00  0.29796959452E+02  0.00000000000E+00 0.  1.
</event>
<event>
 7    1  0.2783785E-010  0.4778727E+02  0.7816164E-02  0.1312668E+00
        -11   -1    0    0    0    0  0.00000000000E+00  0.00000000000E+00  0.45593999997E+02  0.45594000000E+02  0.51100000000E-03 0.  1.
         11   -1    0    0    0    0 -0.00000000000E+00 -0.00000000000E+00 -0.45593999997E+02  0.45594000000E+02  0.51100000000E-03 0. -1.
    9900012    2    1    2    0    0  0.22832887433E+02 -0.60332268539E+01 -0.36412670517E+02  0.47787272483E+02  0.20000006559E+02 0.  0.
        -12    1    1    2    0    0 -0.22832887433E+02  0.60332268539E+01  0.36412670517E+02  0.43400727517E+02  0.00000000000E+00 0.  1.
         11    1    3    3    0    0  0.12113353220E+02  0.26160571687E+01 -0.15004732461E+02  0.19460705995E+02  0.51100000000E-03 0. -1.
        -11    1    3    3    0    0  0.11694849430E+02 -0.90110277922E+01 -0.22440039096E+02  0.26861189102E+02  0.51100000000E-03 0.  1.
         12    1    3    3    0    0 -0.97531521669E+00  0.36174376952E+00  0.10321010401E+01  0.14653773861E+01  0.00000000000E+00 0. -1.
</event>
<event>
 7    1  0.2783785E-010  0.4778727E+02  0.7816164E-02  0.1312668E+00
        -11   -1    0    0    0    0  0.00000000000E+00  0.00000000000E+00  0.45593999997E+02  0.45594000000E+02  0.51100000000E-03 0.  1.
         11   -1    0    0    0    0 -0.00000000000E+00 -0.00000000000E+00 -0.45593999997E+02  0.45594000000E+02  0.51100000000E-03 0. -1.
    9900012    2    1    2    0    0  0.54287950087E+01  0.17799481600E+02 -0.39208798794E+02  0.47787271166E+02  0.20000000555E+02 0.  0.
        -12    1    1    2    0    0 -0.54287950087E+01 -0.17799481600E+02  0.39208798794E+02  0.43400728834E+02  0.00000000000E+00 0.  1.
         11    1    3    3    0    0  0.37712588519E+01  0.10277113650E+02 -0.22849957846E+02  0.25336969672E+02  0.51100000000E-03 0. -1.
        -11    1    3    3    0    0  0.21486609413E+01  0.20922802711E+01 -0.16719294673E+02  0.16986147156E+02  0.51100000000E-03 0.  1.
        -12    1    3    3    0    0 -0.49112478444E+00  0.54300876784E+01  0.36045372547E+00  0.54641543387E+01  0.00000000000E+00 0.  1.
</event>
<event>
 7    1  0.2783785E-010  0.4778725E+02  0.7816164E-02  0.1312668E+00
        -11   -1    0    0    0    0  0.00000000000E+00  0.00000000000E+00  0.45593999997E+02  0.45594000000E+02  0.51100000000E-03 0. -1.
         11   -1    0    0    0    0 -0.00000000000E+00 -0.00000000000E+00 -0.45593999997E+02  0.45594000000E+02  0.51100000000E-03 0.  1.
    9900012    2    1    2    0    0 -0.99883109805E+01 -0.15474377750E+02  0.39298880885E+02  0.47787253902E+02  0.19999921841E+02 0.  0.
        -12    1    1    2    0    0  0.99883109805E+01  0.15474377750E+02 -0.39298880885E+02  0.43400746098E+02  0.00000000000E+00 0.  1.
         11    1    3    3    0    0  0.19167689709E+01 -0.13804694796E+02  0.21897950541E+02  0.25956961298E+02  0.51100000000E-03 0.  1.
        -11    1    3    3    0    0 -0.28258324562E+01  0.14417661925E+01  0.69569777371E+01  0.76461466321E+01  0.51100000000E-03 0. -1.
        -12    1    3    3    0    0 -0.90792474953E+01 -0.31114491470E+01  0.10443952608E+02  0.14184145972E+02  0.00000000000E+00 0.  1.
</event>
<event>
 7    1  0.2783785E-010  0.4778727E+02  0.7816164E-02  0.1312668E+00
        -11   -1    0    0    0    0  0.00000000000E+00  0.00000000000E+00  0.45593999997E+02  0.45594000000E+02  0.51100000000E-03 0.  1.
         11   -1    0    0    0    0 -0.00000000000E+00 -0.00000000000E+00 -0.45593999997E+02  0.45594000000E+02  0.51100000000E-03 0. -1.
    9900012    2    1    2    0    0  0.28596056321E+02  0.27590619304E+02 -0.17454126863E+02  0.47787271259E+02  0.20000000977E+02 0.  0.
        -12    1    1    2    0    0 -0.28596056321E+02 -0.27590619304E+02  0.17454126863E+02  0.43400728741E+02  0.00000000000E+00 0.  1.
         11    1    3    3    0    0  0.10189683837E+02  0.18365886730E+02 -0.83469505439E+01  0.22601040589E+02  0.51100000000E-03 0. -1.
        -11    1    3    3    0    0 -0.99878103554E+00 -0.10566326478E+01 -0.12359317253E+00  0.14592161056E+01  0.51100000000E-03 0.  1.
        -12    1    3    3    0    0  0.19405153520E+02  0.10281365222E+02 -0.89835831468E+01  0.23727014564E+02  0.00000000000E+00 0.  1.
</event>
<event>
 7    1  0.2783785E-010  0.4778727E+02  0.7816164E-02  0.1312668E+00
        -11   -1    0    0    0    0  0.00000000000E+00  0.00000000000E+00  0.45593999997E+02  0.45594000000E+02  0.51100000000E-03 0.  1.
         11   -1    0    0    0    0 -0.00000000000E+00 -0.00000000000E+00 -0.45593999997E+02  0.45594000000E+02  0.51100000000E-03 0. -1.
    9900012    2    1    2    0    0  0.11305250619E+02 -0.18251178693E+02 -0.37718817809E+02  0.47787269221E+02  0.19999991685E+02 0.  0.
        -12    1    1    2    0    0 -0.11305250619E+02  0.18251178693E+02  0.37718817809E+02  0.43400730779E+02  0.00000000000E+00 0.  1.
         11    1    3    3    0    0 -0.15832978539E+01 -0.16705458739E+01 -0.10451010269E+02  0.10701456514E+02  0.51100000000E-03 0. -1.
        -11    1    3    3    0    0  0.31462756275E+01 -0.86172290835E+01 -0.28323681866E+01  0.96009373087E+01  0.51100000000E-03 0.  1.
         12    1    3    3    0    0  0.97422728451E+01 -0.79634037357E+01 -0.24435439353E+02  0.27484875398E+02  0.00000000000E+00 0. -1.
</event>
<event>
 7    1  0.2783785E-010  0.4778726E+02  0.7816164E-02  0.1312668E+00
        -11   -1    0    0    0    0  0.00000000000E+00  0.00000000000E+00  0.45593999997E+02  0.45594000000E+02  0.51100000000E-03 0. -1.
         11   -1    0    0    0    0 -0.00000000000E+00 -0.00000000000E+00 -0.45593999997E+02  0.45594000000E+02  0.51100000000E-03 0.  1.
    9900012    2    1    2    0    0  0.25388172615E+01 -0.19921589564E+01  0.43280590952E+02  0.47787264482E+02  0.19999970079E+02 0.  0.
        -12    1    1    2    0    0 -0.25388172615E+01  0.19921589564E+01 -0.43280590952E+02  0.43400735518E+02  0.00000000000E+00 0.  1.
         11    1    3    3    0    0  0.31101004609E+01 -0.25433690298E+00  0.19261492573E+02  0.19512624338E+02  0.51100000000E-03 0. -1.
        -11    1    3    3    0    0 -0.19323606872E+01 -0.38034049421E+01  0.14070268623E+00  0.42684545782E+01  0.51100000000E-03 0.  1.
        -12    1    3    3    0    0  0.13610774878E+01  0.20655828887E+01  0.23878395692E+02  0.24006185566E+02  0.00000000000E+00 0.  1.
</event>
<event>
 7    1  0.2783785E-010  0.4778727E+02  0.7816164E-02  0.1312668E+00
        -11   -1    0    0    0    0  0.00000000000E+00  0.00000000000E+00  0.45593999997E+02  0.45594000000E+02  0.51100000000E-03 0.  1.
         11   -1    0    0    0    0 -0.00000000000E+00 -0.00000000000E+00 -0.45593999997E+02  0.45594000000E+02  0.51100000000E-03 0. -1.
    9900012    2    1    2    0    0  0.15262463587E+02 -0.10067333834E+02 -0.39361519145E+02  0.47787271957E+02  0.20000004162E+02 0.  0.
        -12    1    1    2    0    0 -0.15262463587E+02  0.10067333834E+02  0.39361519145E+02  0.43400728043E+02  0.00000000000E+00 0.  1.
         11    1    3    3    0    0  0.29322819484E+01 -0.36320294636E+01 -0.29524497773E+02  0.29891234241E+02  0.51100000000E-03 0. -1.
        -11    1    3    3    0    0  0.72427899677E+01 -0.30183388559E+01 -0.86043935336E+01  0.11644911520E+02  0.51100000000E-03 0.  1.
         12    1    3    3    0    0  0.50873916708E+01 -0.34169655141E+01 -0.12326278385E+01  0.62511261966E+01  0.00000000000E+00 0. -1.
</event>
<event>
 7    1  0.2783785E-010  0.4778726E+02  0.7816164E-02  0.1312668E+00
        -11   -1    0    0    0    0  0.00000000000E+00  0.00000000000E+00  0.45593999997E+02  0.45594000000E+02  0.51100000000E-03 0.  1.
         11   -1    0    0    0    0 -0.00000000000E+00 -0.00000000000E+00 -0.45593999997E+02  0.45594000000E+02  0.51100000000E-03 0. -1.
    9900012    2    1    2    0    0  0.60134108668E+01 -0.35497717560E+02 -0.24235818850E+02  0.47787262937E+02  0.19999963037E+02 0.  0.
        -12    1    1    2    0    0 -0.60134108668E+01  0.35497717560E+02  0.24235818850E+02  0.43400737063E+02  0.00000000000E+00 0.  1.
         11    1    3    3    0    0 -0.70313933581E+00 -0.70695635632E+01 -0.87570579055E+01  0.11276488696E+02  0.51100000000E-03 0. -1.
        -11    1    3    3    0    0  0.11562019190E+02 -0.21930070553E+02 -0.10027470400E+02  0.26742446505E+02  0.51100000000E-03 0.  1.
        -12    1    3    3    0    0 -0.48454689870E+01 -0.64980834436E+01 -0.54512905448E+01  0.97683277355E+01  0.00000000000E+00 0.  1.
</event>
<event>
 7    1  0.2783785E-010  0.4778727E+02  0.7816164E-02  0.1312668E+00
        -11   -1    0    0    0    0  0.00000000000E+00  0.00000000000E+00  0.45593999997E+02  0.45594000000E+02  0.51100000000E-03 0.  1.
         11   -1    0    0    0    0 -0.00000000000E+00 -0.00000000000E+00 -0.45593999997E+02  0.45594000000E+02  0.51100000000E-03 0. -1.
    9900012    2    1    2    0    0 -0.21451279705E+02 -0.25656329340E+01 -0.37641515046E+02  0.47787268114E+02  0.19999986637E+02 0.  0.
        -12    1    1    2    0    0  0.21451279705E+02  0.25656329340E+01  0.37641515046E+02  0.43400731886E+02  0.00000000000E+00 0.  1.
         11    1    3    3    0    0 -0.93238331805E+01 -0.29627686046E+01 -0.24235857739E+02  0.26135964944E+02  0.51100000000E-03 0. -1.
        -11    1    3    3    0    0 -0.14317962765E+02 -0.47287268235E+00 -0.12815768553E+02  0.19221643795E+02  0.51100000000E-03 0.  1.
        -12    1    3    3    0    0  0.21905162404E+01  0.87000835296E+00 -0.58988875377E+00  0.24296593744E+01  0.00000000000E+00 0.  1.
</event>
<event>
 7    1  0.2783785E-010  0.4778727E+02  0.7816164E-02  0.1312668E+00
        -11   -1    0    0    0    0  0.00000000000E+00  0.00000000000E+00  0.45593999997E+02  0.45594000000E+02  0.51100000000E-03 0.  1.
         11   -1    0    0    0    0 -0.00000000000E+00 -0.00000000000E+00 -0.45593999997E+02  0.45594000000E+02  0.51100000000E-03 0. -1.
    9900012    2    1    2    0    0  0.29860679828E+02 -0.25293263539E+02 -0.18767356396E+02  0.47787273666E+02  0.20000011952E+02 0.  0.
        -12    1    1    2    0    0 -0.29860679828E+02  0.25293263539E+02  0.18767356396E+02  0.43400726334E+02  0.00000000000E+00 0.  1.
         11    1    3    3    0    0  0.82632081501E+01 -0.12393128085E+02 -0.11027879039E+02  0.18533330759E+02  0.51100000000E-03 0. -1.
        -11    1    3    3    0    0 -0.11647807060E+00 -0.45626683399E+00  0.22561490910E+01  0.23047680028E+01  0.51100000000E-03 0.  1.
        -12    1    3    3    0    0  0.21713949748E+02 -0.12443868620E+02 -0.99956264482E+01  0.26949174904E+02  0.00000000000E+00 0.  1.
</event>
<event>
 7    1  0.2783785E-010  0.4778727E+02  0.7816164E-02  0.1312668E+00
        -11   -1    0    0    0    0  0.00000000000E+00  0.00000000000E+00  0.45593999997E+02  0.45594000000E+02  0.51100000000E-03 0.  1.
         11   -1    0    0    0    0 -0.00000000000E+00 -0.00000000000E+00 -0.45593999997E+02  0.45594000000E+02  0.51100000000E-03 0. -1.
    9900012    2    1    2    0    0  0.17051256328E+02 -0.16628697333E+02 -0.36281740624E+02  0.47787267057E+02  0.19999981817E+02 0.  0.
        -12    1    1    2    0    0 -0.17051256328E+02  0.16628697333E+02  0.36281740624E+02  0.43400732943E+02  0.00000000000E+00 0.  1.
         11    1    3    3    0    0  0.14554515399E+02 -0.82832236091E+01 -0.26578426662E+02  0.31414303685E+02  0.51100000000E-03 0. -1.
        -11    1    3    3    0    0 -0.82643524454E-01 -0.74030616887E+01 -0.11060572182E+02  0.13309711101E+02  0.51100000000E-03 0.  1.
         12    1    3    3    0    0  0.25793844526E+01 -0.94241203506E+00  0.13572582212E+01  0.30632522712E+01  0.00000000000E+00 0. -1.
</event>
<event>
 7    1  0.2783785E-010  0.4778728E+02  0.7816164E-02  0.1312668E+00
        -11   -1    0    0    0    0  0.00000000000E+00  0.00000000000E+00  0.45593999997E+02  0.45594000000E+02  0.51100000000E-03 0. -1.
         11   -1    0    0    0    0 -0.00000000000E+00 -0.00000000000E+00 -0.45593999997E+02  0.45594000000E+02  0.51100000000E-03 0.  1.
    9900012    2    1    2    0    0 -0.73645197990E+01 -0.40132777245E+02 -0.14790094483E+02  0.47787275857E+02  0.20000021942E+02 0.  0.
        -12    1    1    2    0    0  0.73645197990E+01  0.40132777245E+02  0.14790094483E+02  0.43400724143E+02  0.00000000000E+00 0.  1.
         11    1    3    3    0    0  0.30797476245E+01 -0.38924151800E+01  0.10713245402E+01  0.50777433862E+01  0.51100000000E-03 0. -1.
        -11    1    3    3    0    0  0.15506540594E+01 -0.64831123625E+01 -0.64455650091E+01  0.92725715130E+01  0.51100000000E-03 0.  1.
         12    1    3    3    0    0 -0.11994921483E+02 -0.29757249703E+02 -0.94158540145E+01  0.33436960958E+02  0.00000000000E+00 0. -1.
</event>
<event>
 7    1  0.2783785E-010  0.4778728E+02  0.7816164E-02  0.1312668E+00
        -11   -1    0    0    0    0  0.00000000000E+00  0.00000000000E+00  0.45593999997E+02  0.45594000000E+02  0.51100000000E-03 0.  1.
         11   -1    0    0    0    0 -0.00000000000E+00 -0.00000000000E+00 -0.45593999997E+02  0.45594000000E+02  0.51100000000E-03 0. -1.
    9900012    2    1    2    0    0 -0.33121876372E+02 -0.13456933190E+02 -0.24606402699E+02  0.47787276514E+02  0.20000024939E+02 0.  0.
        -12    1    1    2    0    0  0.33121876372E+02  0.13456933190E+02  0.24606402699E+02  0.43400723486E+02  0.00000000000E+00 0.  1.
         11    1    3    3    0    0  0.15063332777E+01 -0.47844831122E+00 -0.25562821918E+01  0.30054170485E+01  0.51100000000E-03 0. -1.
        -11    1    3    3    0    0 -0.16394490633E+02 -0.92932882199E+01 -0.48806191374E+01  0.19467022692E+02  0.51100000000E-03 0.  1.
         12    1    3    3    0    0 -0.18233719017E+02 -0.36851966591E+01 -0.17169501370E+02  0.25314836774E+02  0.00000000000E+00 0. -1.
</event>
<event>
 7    1  0.2783785E-010  0.4778728E+02  0.7816164E-02  0.1312668E+00
        -11   -1    0    0    0    0  0.00000000000E+00  0.00000000000E+00  0.45593999997E+02  0.45594000000E+02  0.51100000000E-03 0.  1.
         11   -1    0    0    0    0 -0.00000000000E+00 -0.00000000000E+00 -0.45593999997E+02  0.45594000000E+02  0.51100000000E-03 0. -1.
    9900012    2    1    2    0    0  0.38578599769E+02 -0.15673838707E+02 -0.12232945574E+02  0.47787279529E+02  0.20000038686E+02 0.  0.
        -12    1    1    2    0    0 -0.38578599769E+02  0.15673838707E+02  0.12232945574E+02  0.43400720471E+02  0.00000000000E+00 0.  1.
         11    1    3    3    0    0  0.21237873859E+02 -0.12731248610E+02 -0.89649123699E+01  0.26334419137E+02  0.51100000000E-03 0. -1.
        -11    1    3    3    0    0  0.18445616938E+02 -0.47641504558E+01 -0.32249585733E+01  0.19321963457E+02  0.51100000000E-03 0.  1.
        -12    1    3    3    0    0 -0.11048910273E+01  0.18215603592E+01 -0.43074630273E-01  0.21308969351E+01  0.00000000000E+00 0.  1.
</event>
<event>
 7    1  0.2783785E-010  0.4778723E+02  0.7816164E-02  0.1312668E+00
        -11   -1    0    0    0    0  0.00000000000E+00  0.00000000000E+00  0.45593999997E+02  0.45594000000E+02  0.51100000000E-03 0.  1.
         11   -1    0    0    0    0 -0.00000000000E+00 -0.00000000000E+00 -0.45593999997E+02  0.45594000000E+02  0.51100000000E-03 0. -1.
    9900012    2    1    2    0    0  0.30538986237E+02  0.26493963744E+02 -0.15781858770E+02  0.47787229713E+02  0.19999811554E+02 0.  0.
        -12    1    1    2    0    0 -0.30538986237E+02 -0.26493963744E+02  0.15781858770E+02  0.43400770287E+02  0.00000000000E+00 0.  1.
         11    1    3    3    0    0  0.15623803548E+02  0.92836432651E+01 -0.67686162203E+01  0.19393386382E+02  0.51100000000E-03 0. -1.
        -11    1    3    3    0    0  0.16260952281E+02  0.10929930468E+02 -0.34454026358E+01  0.19893535349E+02  0.51100000000E-03 0.  1.
        -12    1    3    3    0    0 -0.13457695913E+01  0.62803900109E+01 -0.55678399137E+01  0.85003079818E+01  0.00000000000E+00 0.  1.
</event>
<event>
 7    1  0.2783785E-010  0.4778727E+02  0.7816164E-02  0.1312668E+00
        -11   -1    0    0    0    0  0.00000000000E+00  0.00000000000E+00  0.45593999997E+02  0.45594000000E+02  0.51100000000E-03 0.  1.
         11   -1    0    0    0    0 -0.00000000000E+00 -0.00000000000E+00 -0.45593999997E+02  0.45594000000E+02  0.51100000000E-03 0. -1.
    9900012    2    1    2    0    0  0.18512620320E+02 -0.15344849477E+02 -0.36130899745E+02  0.47787269212E+02  0.19999991643E+02 0.  0.
        -12    1    1    2    0    0 -0.18512620320E+02  0.15344849477E+02  0.36130899745E+02  0.43400730788E+02  0.00000000000E+00 0.  1.
         11    1    3    3    0    0  0.89031454339E+01 -0.94603088407E+01 -0.16041386895E+02  0.20641936337E+02  0.51100000000E-03 0. -1.
        -11    1    3    3    0    0  0.19735438292E+01  0.26554984632E+01 -0.13562929304E+02  0.13960644645E+02  0.51100000000E-03 0.  1.
         12    1    3    3    0    0  0.76359310567E+01 -0.85400390992E+01 -0.65265835462E+01  0.13184688229E+02  0.00000000000E+00 0. -1.
</event>
<event>
 7    1  0.2783785E-010  0.4778727E+02  0.7816164E-02  0.1312668E+00
        -11   -1    0    0    0    0  0.00000000000E+00  0.00000000000E+00  0.45593999997E+02  0.45594000000E+02  0.51100000000E-03 0. -1.
         11   -1    0    0    0    0 -0.00000000000E+00 -0.00000000000E+00 -0.45593999997E+02  0.45594000000E+02  0.51100000000E-03 0.  1.
    9900012    2    1    2    0    0  0.16609247099E+02 -0.12132566135E+02  0.38217238440E+02  0.47787267700E+02  0.19999984750E+02 0.  0.
        -12    1    1    2    0    0 -0.16609247099E+02  0.12132566135E+02 -0.38217238440E+02  0.43400732300E+02  0.00000000000E+00 0.  1.
         11    1    3    3    0    0  0.79152517333E+01 -0.46318387737E+01  0.11772849181E+02  0.14923307895E+02  0.51100000000E-03 0. -1.
        -11    1    3    3    0    0 -0.27345708494E+01 -0.57131281608E+01  0.36700629988E+01  0.73203192409E+01  0.51100000000E-03 0.  1.
        -12    1    3    3    0    0  0.11428566215E+02 -0.17875992002E+01  0.22774326260E+02  0.25543640564E+02  0.00000000000E+00 0.  1.
</event>
<event>
 7    1  0.2783785E-010  0.4778727E+02  0.7816164E-02  0.1312668E+00
        -11   -1    0    0    0    0  0.00000000000E+00  0.00000000000E+00  0.45593999997E+02  0.45594000000E+02  0.51100000000E-03 0.  1.
         11   -1    0    0    0    0 -0.00000000000E+00 -0.00000000000E+00 -0.45593999997E+02  0.45594000000E+02  0.51100000000E-03 0. -1.
    9900012    2    1    2    0    0  0.23560802476E+02 -0.36414044707E+02  0.15903424453E+01  0.47787271270E+02  0.20000001027E+02 0.  0.
        -12    1    1    2    0    0 -0.23560802476E+02  0.36414044707E+02 -0.15903424453E+01  0.43400728730E+02  0.00000000000E+00 0.  1.
         11    1    3    3    0    0  0.16669337914E+01  0.14327973143E+01  0.10841509139E+01  0.24509100094E+01  0.51100000000E-03 0. -1.
        -11    1    3    3    0    0 -0.91641156617E+00 -0.50835273986E+00  0.11778020509E+01  0.15765311918E+01  0.51100000000E-03 0.  1.
         12    1    3    3    0    0  0.22810280251E+02 -0.37338489281E+02 -0.67161051945E+00  0.43759830069E+02  0.00000000000E+00 0. -1.
</event>
<event>
 7    1  0.2783785E-010  0.4778727E+02  0.7816164E-02  0.1312668E+00
        -11   -1    0    0    0    0  0.00000000000E+00  0.00000000000E+00  0.45593999997E+02  0.45594000000E+02  0.51100000000E-03 0.  1.
         11   -1    0    0    0    0 -0.00000000000E+00 -0.00000000000E+00 -0.45593999997E+02  0.45594000000E+02  0.51100000000E-03 0. -1.
    9900012    2    1    2    0    0 -0.16251611637E+02 -0.61735435887E+01 -0.39766766199E+02  0.47787271720E+02  0.20000003082E+02 0.  0.
        -12    1    1    2    0    0  0.16251611637E+02  0.61735435887E+01  0.39766766199E+02  0.43400728280E+02  0.00000000000E+00 0.  1.
         11    1    3    3    0    0  0.91893059529E+00 -0.12035677442E+01 -0.55463098324E+00  0.16126452005E+01  0.51100000000E-03 0.  1.
        -11    1    3    3    0    0  0.13663612582E+00 -0.32971829771E+01 -0.21706395640E-01  0.33000843086E+01  0.51100000000E-03 0. -1.
         12    1    3    3    0    0 -0.17307178358E+02 -0.16727928674E+01 -0.39190428821E+02  0.42874542211E+02  0.00000000000E+00 0. -1.
</event>
<event>
 7    1  0.2783785E-010  0.4778727E+02  0.7816164E-02  0.1312668E+00
        -11   -1    0    0    0    0  0.00000000000E+00  0.00000000000E+00  0.45593999997E+02  0.45594000000E+02  0.51100000000E-03 0.  1.
         11   -1    0    0    0    0 -0.00000000000E+00 -0.00000000000E+00 -0.45593999997E+02  0.45594000000E+02  0.51100000000E-03 0. -1.
    9900012    2    1    2    0    0  0.37871098224E+02 -0.17991914896E+02 -0.11211358438E+02  0.47787266823E+02  0.19999980753E+02 0.  0.
        -12    1    1    2    0    0 -0.37871098224E+02  0.17991914896E+02  0.11211358438E+02  0.43400733177E+02  0.00000000000E+00 0.  1.
         11    1    3    3    0    0  0.64798959963E+01 -0.15281664678E+01 -0.82823304308E+01  0.10626445431E+02  0.51100000000E-03 0.  1.
        -11    1    3    3    0    0  0.97383663520E+01 -0.10792978599E+02 -0.26465773098E+01  0.14775944571E+02  0.51100000000E-03 0. -1.
         12    1    3    3    0    0  0.21652835875E+02 -0.56707698293E+01 -0.28245069699E+00  0.22384876821E+02  0.00000000000E+00 0. -1.
</event>
<event>
 7    1  0.2783785E-010  0.4778727E+02  0.7816164E-02  0.1312668E+00
        -11   -1    0    0    0    0  0.00000000000E+00  0.00000000000E+00  0.45593999997E+02  0.45594000000E+02  0.51100000000E-03 0.  1.
         11   -1    0    0    0    0 -0.00000000000E+00 -0.00000000000E+00 -0.45593999997E+02  0.45594000000E+02  0.51100000000E-03 0. -1.
    9900012    2    1    2    0    0  0.31604174816E+02  0.25661485325E+02  0.15042852607E+02  0.47787272939E+02  0.20000008638E+02 0.  0.
        -12    1    1    2    0    0 -0.31604174816E+02 -0.25661485325E+02 -0.15042852607E+02  0.43400727061E+02  0.00000000000E+00 0.  1.
         11    1    3    3    0    0  0.15470574413E+02  0.68421750543E+01 -0.67636856361E+00  0.16929604450E+02  0.51100000000E-03 0. -1.
        -11    1    3    3    0    0  0.11366295840E+02  0.65361428862E+01  0.10020369815E+02  0.16502171265E+02  0.51100000000E-03 0.  1.
         12    1    3    3    0    0  0.47673045626E+01  0.12283167384E+02  0.56988513549E+01  0.14355497224E+02  0.00000000000E+00 0. -1.
</event>
<event>
 7    1  0.2783785E-010  0.4778727E+02  0.7816164E-02  0.1312668E+00
        -11   -1    0    0    0    0  0.00000000000E+00  0.00000000000E+00  0.45593999997E+02  0.45594000000E+02  0.51100000000E-03 0.  1.
         11   -1    0    0    0    0 -0.00000000000E+00 -0.00000000000E+00 -0.45593999997E+02  0.45594000000E+02  0.51100000000E-03 0. -1.
    9900012    2    1    2    0    0 -0.38482355391E+02 -0.37086633131E+01 -0.19722511226E+02  0.47787270640E+02  0.19999998154E+02 0.  0.
        -12    1    1    2    0    0  0.38482355391E+02  0.37086633131E+01  0.19722511226E+02  0.43400729360E+02  0.00000000000E+00 0.  1.
         11    1    3    3    0    0 -0.10002098306E+02 -0.57714335817E+01 -0.99483683476E+01  0.15242094645E+02  0.51100000000E-03 0. -1.
        -11    1    3    3    0    0 -0.27637000560E+02  0.14292045348E+01 -0.11937146928E+02  0.30138711030E+02  0.51100000000E-03 0.  1.
         12    1    3    3    0    0 -0.84325652479E+00  0.63356573370E+00  0.21630040501E+01  0.24064649646E+01  0.00000000000E+00 0. -1.
</event>
<event>
 7    1  0.2783785E-010  0.4778727E+02  0.7816164E-02  0.1312668E+00
        -11   -1    0    0    0    0  0.00000000000E+00  0.00000000000E+00  0.45593999997E+02  0.45594000000E+02  0.51100000000E-03 0.  1.
         11   -1    0    0    0    0 -0.00000000000E+00 -0.00000000000E+00 -0.45593999997E+02  0.45594000000E+02  0.51100000000E-03 0. -1.
    9900012    2    1    2    0    0 -0.13438456759E+01 -0.10050153877E+02 -0.42199664923E+02  0.47787271507E+02  0.20000002107E+02 0.  0.
        -12    1    1    2    0    0  0.13438456759E+01  0.10050153877E+02  0.42199664923E+02  0.43400728493E+02  0.00000000000E+00 0.  1.
         11    1    3    3    0    0 -0.34215972069E+01  0.18474771765E+01 -0.17087033120E+02  0.17523903688E+02  0.51100000000E-03 0. -1.
        -11    1    3    3    0    0 -0.18627376674E+01  0.14967972514E+01 -0.14689351147E+01  0.28049891732E+01  0.51100000000E-03 0.  1.
         12    1    3    3    0    0  0.39404891984E+01 -0.13394428305E+02 -0.23643696688E+02  0.27458378645E+02  0.00000000000E+00 0. -1.
</event>
<event>
 7    1  0.2783785E-010  0.4778727E+02  0.7816164E-02  0.1312668E+00
        -11   -1    0    0    0    0  0.00000000000E+00  0.00000000000E+00  0.45593999997E+02  0.45594000000E+02  0.51100000000E-03 0. -1.
         11   -1    0    0    0    0 -0.00000000000E+00 -0.00000000000E+00 -0.45593999997E+02  0.45594000000E+02  0.51100000000E-03 0.  1.
    9900012    2    1    2    0    0  0.19801149549E+02 -0.30139971126E+02  0.24147870551E+02  0.47787273796E+02  0.20000012544E+02 0.  0.
        -12    1    1    2    0    0 -0.19801149549E+02  0.30139971126E+02 -0.24147870551E+02  0.43400726204E+02  0.00000000000E+00 0.  1.
         11    1    3    3    0    0 -0.23774676578E+01 -0.37012988341E+00  0.52471239847E+00  0.24626554685E+01  0.51100000000E-03 0. -1.
        -11    1    3    3    0    0  0.84532698431E+01 -0.14297928168E+02  0.16598149934E+02  0.23481633300E+02  0.51100000000E-03 0.  1.
        -12    1    3    3    0    0  0.13725347364E+02 -0.15471913074E+02  0.70250082182E+01  0.21842985027E+02  0.00000000000E+00 0.  1.
</event>
<event>
 7    1  0.2783785E-010  0.4778727E+02  0.7816164E-02  0.1312668E+00
        -11   -1    0    0    0    0  0.00000000000E+00  0.00000000000E+00  0.45593999997E+02  0.45594000000E+02  0.51100000000E-03 0.  1.
         11   -1    0    0    0    0 -0.00000000000E+00 -0.00000000000E+00 -0.45593999997E+02  0.45594000000E+02  0.51100000000E-03 0. -1.
    9900012    2    1    2    0    0 -0.23181725798E+02  0.73864471305E+01 -0.35939826030E+02  0.47787272964E+02  0.20000008753E+02 0.  0.
        -12    1    1    2    0    0  0.23181725798E+02 -0.73864471305E+01  0.35939826030E+02  0.43400727036E+02  0.00000000000E+00 0.  1.
         11    1    3    3    0    0 -0.57522914891E+01  0.27024053401E+01 -0.12737978876E+01  0.64818526146E+01  0.51100000000E-03 0. -1.
        -11    1    3    3    0    0 -0.56593264991E+01 -0.20951495818E+01 -0.27746767231E+01  0.66420222351E+01  0.51100000000E-03 0.  1.
         12    1    3    3    0    0 -0.11770107810E+02  0.67791913722E+01 -0.31891351419E+02  0.34663398115E+02  0.00000000000E+00 0. -1.
</event>
<event>
 7    1  0.2783785E-010  0.4778729E+02  0.7816164E-02  0.1312668E+00
        -11   -1    0    0    0    0  0.00000000000E+00  0.00000000000E+00  0.45593999997E+02  0.45594000000E+02  0.51100000000E-03 0. -1.
         11   -1    0    0    0    0 -0.00000000000E+00 -0.00000000000E+00 -0.45593999997E+02  0.45594000000E+02  0.51100000000E-03 0.  1.
    9900012    2    1    2    0    0  0.32112244784E+02  0.22208703075E+02  0.18952549178E+02  0.47787287129E+02  0.20000073335E+02 0.  0.
        -12    1    1    2    0    0 -0.32112244784E+02 -0.22208703075E+02 -0.18952549178E+02  0.43400712871E+02  0.00000000000E+00 0.  1.
         11    1    3    3    0    0  0.95511585520E+01  0.15230941809E+02  0.14964219800E+02  0.23390897643E+02  0.51100000000E-03 0. -1.
        -11    1    3    3    0    0  0.40664162879E+01 -0.45522239218E+00  0.12952632871E+00  0.40938668986E+01  0.51100000000E-03 0.  1.
         12    1    3    3    0    0  0.18494669944E+02  0.74329836584E+01  0.38588030493E+01  0.20302522587E+02  0.00000000000E+00 0. -1.
</event>
<event>
 7    1  0.2783785E-010  0.4778727E+02  0.7816164E-02  0.1312668E+00
        -11   -1    0    0    0    0  0.00000000000E+00  0.00000000000E+00  0.45593999997E+02  0.45594000000E+02  0.51100000000E-03 0.  1.
         11   -1    0    0    0    0 -0.00000000000E+00 -0.00000000000E+00 -0.45593999997E+02  0.45594000000E+02  0.51100000000E-03 0. -1.
    9900012    2    1    2    0    0  0.17746512017E+02  0.11224323453E+02 -0.37982883386E+02  0.47787267794E+02  0.19999985179E+02 0.  0.
        -12    1    1    2    0    0 -0.17746512017E+02 -0.11224323453E+02  0.37982883386E+02  0.43400732206E+02  0.00000000000E+00 0.  1.
         11    1    3    3    0    0  0.76634058827E+01 -0.79708766485E+00 -0.22409307665E+02  0.23696839636E+02  0.51100000000E-03 0. -1.
        -11    1    3    3    0    0  0.25067548927E+01  0.24061445458E+01  0.87822105896E+00  0.35839397536E+01  0.51100000000E-03 0.  1.
        -12    1    3    3    0    0  0.75763512417E+01  0.96152665718E+01 -0.16451796780E+02  0.20506488404E+02  0.00000000000E+00 0.  1.
</event>
<event>
 7    1  0.2783785E-010  0.4778727E+02  0.7816164E-02  0.1312668E+00
        -11   -1    0    0    0    0  0.00000000000E+00  0.00000000000E+00  0.45593999997E+02  0.45594000000E+02  0.51100000000E-03 0.  1.
         11   -1    0    0    0    0 -0.00000000000E+00 -0.00000000000E+00 -0.45593999997E+02  0.45594000000E+02  0.51100000000E-03 0. -1.
    9900012    2    1    2    0    0 -0.26335795460E+01 -0.36349659597E+02 -0.23566706776E+02  0.47787272330E+02  0.20000005860E+02 0.  0.
        -12    1    1    2    0    0  0.26335795460E+01  0.36349659597E+02  0.23566706776E+02  0.43400727670E+02  0.00000000000E+00 0.  1.
         11    1    3    3    0    0 -0.76128416919E+01 -0.14236297282E+02 -0.12592964408E+02  0.20474625070E+02  0.51100000000E-03 0. -1.
        -11    1    3    3    0    0  0.35334904274E+01 -0.44519011544E+01 -0.72374864459E+01  0.92025099188E+01  0.51100000000E-03 0.  1.
         12    1    3    3    0    0  0.14457717185E+01 -0.17661461161E+02 -0.37362559226E+01  0.18110137341E+02  0.00000000000E+00 0. -1.
</event>
<event>
 7    1  0.2783785E-010  0.4778728E+02  0.7816164E-02  0.1312668E+00
        -11   -1    0    0    0    0  0.00000000000E+00  0.00000000000E+00  0.45593999997E+02  0.45594000000E+02  0.51100000000E-03 0.  1.
         11   -1    0    0    0    0 -0.00000000000E+00 -0.00000000000E+00 -0.45593999997E+02  0.45594000000E+02  0.51100000000E-03 0. -1.
    9900012    2    1    2    0    0 -0.38318545892E+01 -0.25837750521E+02 -0.34660501863E+02  0.47787275917E+02  0.20000022215E+02 0.  0.
        -12    1    1    2    0    0  0.38318545892E+01  0.25837750521E+02  0.34660501863E+02  0.43400724083E+02  0.00000000000E+00 0.  1.
         11    1    3    3    0    0  0.63935572070E+01 -0.75835313260E+01 -0.85496429551E+01  0.13095186751E+02  0.51100000000E-03 0. -1.
        -11    1    3    3    0    0 -0.37328214660E+01 -0.14449076373E+02 -0.14179015658E+02  0.20585292065E+02  0.51100000000E-03 0.  1.
        -12    1    3    3    0    0 -0.64925903302E+01 -0.38051428222E+01 -0.11931843250E+02  0.14106797100E+02  0.00000000000E+00 0.  1.
</event>
<event>
 7    1  0.2783785E-010  0.4778724E+02  0.7816164E-02  0.1312668E+00
        -11   -1    0    0    0    0  0.00000000000E+00  0.00000000000E+00  0.45593999997E+02  0.45594000000E+02  0.51100000000E-03 0. -1.
         11   -1    0    0    0    0 -0.00000000000E+00 -0.00000000000E+00 -0.45593999997E+02  0.45594000000E+02  0.51100000000E-03 0.  1.
    9900012    2    1    2    0    0 -0.28174566491E+02  0.32121929214E+02 -0.76158419256E+01  0.47787244458E+02  0.19999878781E+02 0.  0.
        -12    1    1    2    0    0  0.28174566491E+02 -0.32121929214E+02  0.76158419256E+01  0.43400755542E+02  0.00000000000E+00 0.  1.
         11    1    3    3    0    0 -0.15742351737E+02  0.13667893934E+02  0.99709671493E+00  0.20871683328E+02  0.51100000000E-03 0. -1.
        -11    1    3    3    0    0 -0.86835037188E+00 -0.18954924790E+01 -0.50387972262E+00  0.21449520139E+01  0.51100000000E-03 0.  1.
        -12    1    3    3    0    0 -0.11563864382E+02  0.20349527759E+02 -0.81090589180E+01  0.24770609116E+02  0.00000000000E+00 0.  1.
</event>
<event>
 7    1  0.2783785E-010  0.4778727E+02  0.7816164E-02  0.1312668E+00
        -11   -1    0    0    0    0  0.00000000000E+00  0.00000000000E+00  0.45593999997E+02  0.45594000000E+02  0.51100000000E-03 0. -1.
         11   -1    0    0    0    0 -0.00000000000E+00 -0.00000000000E+00 -0.45593999997E+02  0.45594000000E+02  0.51100000000E-03 0.  1.
    9900012    2    1    2    0    0  0.20000496985E+02  0.21231978725E+02  0.32137302093E+02  0.47787274360E+02  0.20000015118E+02 0.  0.
        -12    1    1    2    0    0 -0.20000496985E+02 -0.21231978725E+02 -0.32137302093E+02  0.43400725640E+02  0.00000000000E+00 0.  1.
         11    1    3    3    0    0  0.83965962956E+01  0.95748273039E+01  0.15234208152E+02  0.19856012830E+02  0.51100000000E-03 0. -1.
        -11    1    3    3    0    0  0.29299314443E+01  0.10171238493E+02  0.22234434905E+01  0.10815835241E+02  0.51100000000E-03 0.  1.
        -12    1    3    3    0    0  0.86739692451E+01  0.14859129289E+01  0.14679650451E+02  0.17115426289E+02  0.00000000000E+00 0.  1.
</event>
<event>
 7    1  0.2783785E-010  0.4778727E+02  0.7816164E-02  0.1312668E+00
        -11   -1    0    0    0    0  0.00000000000E+00  0.00000000000E+00  0.45593999997E+02  0.45594000000E+02  0.51100000000E-03 0.  1.
         11   -1    0    0    0    0 -0.00000000000E+00 -0.00000000000E+00 -0.45593999997E+02  0.45594000000E+02  0.51100000000E-03 0. -1.
    9900012    2    1    2    0    0  0.15172345699E+02  0.22256962974E+02 -0.34030146815E+02  0.47787269970E+02  0.19999995103E+02 0.  0.
        -12    1    1    2    0    0 -0.15172345699E+02 -0.22256962974E+02  0.34030146815E+02  0.43400730030E+02  0.00000000000E+00 0.  1.
         11    1    3    3    0    0  0.39279337166E+01  0.80390544337E+01 -0.64047842069E+01  0.11003468565E+02  0.51100000000E-03 0. -1.
        -11    1    3    3    0    0  0.15081103445E+02  0.11979181485E+02 -0.18855546021E+02  0.26953146128E+02  0.51100000000E-03 0.  1.
        -12    1    3    3    0    0 -0.38366914628E+01  0.22387270558E+01 -0.87698165870E+01  0.98306552773E+01  0.00000000000E+00 0.  1.
</event>
<event>
 7    1  0.2783785E-010  0.4778730E+02  0.7816164E-02  0.1312668E+00
        -11   -1    0    0    0    0  0.00000000000E+00  0.00000000000E+00  0.45593999997E+02  0.45594000000E+02  0.51100000000E-03 0. -1.
         11   -1    0    0    0    0 -0.00000000000E+00 -0.00000000000E+00 -0.45593999997E+02  0.45594000000E+02  0.51100000000E-03 0.  1.
    9900012    2    1    2    0    0  0.41389481408E+02 -0.12522044145E+02 -0.37054358135E+01  0.47787297064E+02  0.20000118633E+02 0.  0.
        -12    1    1    2    0    0 -0.41389481408E+02  0.12522044145E+02  0.37054358135E+01  0.43400702936E+02  0.00000000000E+00 0.  1.
         11    1    3    3    0    0  0.14575805357E+02 -0.17977596469E+01 -0.53637612838E+00  0.14696045085E+02  0.51100000000E-03 0. -1.
        -11    1    3    3    0    0  0.10287121278E+02 -0.11633637579E+02 -0.52867836580E+01  0.16404769709E+02  0.51100000000E-03 0.  1.
        -12    1    3    3    0    0  0.16526554773E+02  0.90935308077E+00  0.21177239729E+01  0.16686482269E+02  0.00000000000E+00 0.  1.
</event>
<event>
 7    1  0.2783785E-010  0.4778727E+02  0.7816164E-02  0.1312668E+00
        -11   -1    0    0    0    0  0.00000000000E+00  0.00000000000E+00  0.45593999997E+02  0.45594000000E+02  0.51100000000E-03 0.  1.
         11   -1    0    0    0    0 -0.00000000000E+00 -0.00000000000E+00 -0.45593999997E+02  0.45594000000E+02  0.51100000000E-03 0. -1.
    9900012    2    1    2    0    0 -0.30942364483E+02  0.22263823312E+02 -0.20748869467E+02  0.47787270370E+02  0.19999996923E+02 0.  0.
        -12    1    1    2    0    0  0.30942364483E+02 -0.22263823312E+02  0.20748869467E+02  0.43400729630E+02  0.00000000000E+00 0.  1.
         11    1    3    3    0    0 -0.14736027688E+02  0.83928646612E+01 -0.16363108236E+02  0.23565695420E+02  0.51100000000E-03 0.  1.
        -11    1    3    3    0    0 -0.13235712705E+02  0.13661267116E+02 -0.69903817721E+01  0.20265234951E+02  0.51100000000E-03 0. -1.
        -12    1    3    3    0    0 -0.29706240900E+01  0.20969153443E+00  0.26046205404E+01  0.39563399984E+01  0.00000000000E+00 0.  1.
</event>
<event>
 7    1  0.2783785E-010  0.4778728E+02  0.7816164E-02  0.1312668E+00
        -11   -1    0    0    0    0  0.00000000000E+00  0.00000000000E+00  0.45593999997E+02  0.45594000000E+02  0.51100000000E-03 0.  1.
         11   -1    0    0    0    0 -0.00000000000E+00 -0.00000000000E+00 -0.45593999997E+02  0.45594000000E+02  0.51100000000E-03 0. -1.
    9900012    2    1    2    0    0  0.88559555270E+01 -0.26866304887E+02 -0.32914978445E+02  0.47787284654E+02  0.20000062050E+02 0.  0.
        -12    1    1    2    0    0 -0.88559555270E+01  0.26866304887E+02  0.32914978445E+02  0.43400715346E+02  0.00000000000E+00 0.  1.
         11    1    3    3    0    0  0.65333209840E+01 -0.19754481796E+02 -0.25971679857E+02  0.33278401238E+02  0.51100000000E-03 0. -1.
        -11    1    3    3    0    0 -0.14964097345E+01 -0.84679035854E+01 -0.39074895022E+01  0.94452690643E+01  0.51100000000E-03 0.  1.
        -12    1    3    3    0    0  0.38190442775E+01  0.13560804940E+01 -0.30358090856E+01  0.50636143518E+01  0.00000000000E+00 0.  1.
</event>
<event>
 7    1  0.2783785E-010  0.4778727E+02  0.7816164E-02  0.1312668E+00
        -11   -1    0    0    0    0  0.00000000000E+00  0.00000000000E+00  0.45593999997E+02  0.45594000000E+02  0.51100000000E-03 0. -1.
         11   -1    0    0    0    0 -0.00000000000E+00 -0.00000000000E+00 -0.45593999997E+02  0.45594000000E+02  0.51100000000E-03 0.  1.
    9900012    2    1    2    0    0  0.16926776729E+02  0.10579751546E+02  0.38537988415E+02  0.47787268851E+02  0.19999989999E+02 0.  0.
        -12    1    1    2    0    0 -0.16926776729E+02 -0.10579751546E+02 -0.38537988415E+02  0.43400731149E+02  0.00000000000E+00 0.  1.
         11    1    3    3    0    0  0.75313814928E+01  0.27175972578E+00  0.11060252197E+02  0.13383749081E+02  0.51100000000E-03 0. -1.
        -11    1    3    3    0    0  0.65569817938E+01 -0.17019930853E+01  0.39660009942E+01  0.78498378871E+01  0.51100000000E-03 0.  1.
         12    1    3    3    0    0  0.28384134422E+01  0.12009984906E+02  0.23511735224E+02  0.26553681883E+02  0.00000000000E+00 0. -1.
</event>
<event>
 7    1  0.2783785E-010  0.4778727E+02  0.7816164E-02  0.1312668E+00
        -11   -1    0    0    0    0  0.00000000000E+00  0.00000000000E+00  0.45593999997E+02  0.45594000000E+02  0.51100000000E-03 0.  1.
         11   -1    0    0    0    0 -0.00000000000E+00 -0.00000000000E+00 -0.45593999997E+02  0.45594000000E+02  0.51100000000E-03 0. -1.
    9900012    2    1    2    0    0 -0.11881268638E+02 -0.30694757694E+02 -0.28289411573E+02  0.47787268422E+02  0.19999988042E+02 0.  0.
        -12    1    1    2    0    0  0.11881268638E+02  0.30694757694E+02  0.28289411573E+02  0.43400731578E+02  0.00000000000E+00 0.  1.
         11    1    3    3    0    0 -0.66900167639E+00  0.10557164646E+01 -0.58104172412E+00  0.13782997653E+01  0.51100000000E-03 0. -1.
        -11    1    3    3    0    0 -0.55113738537E+01 -0.52454219785E+01  0.48507605377E-01  0.76086823259E+01  0.51100000000E-03 0.  1.
         12    1    3    3    0    0 -0.57008931078E+01 -0.26505052180E+02 -0.27756877455E+02  0.38800286331E+02  0.00000000000E+00 0. -1.
</event>
<event>
 7    1  0.2783785E-010  0.4778727E+02  0.7816164E-02  0.1312668E+00
        -11   -1    0    0    0    0  0.00000000000E+00  0.00000000000E+00  0.45593999997E+02  0.45594000000E+02  0.51100000000E-03 0.  1.
         11   -1    0    0    0    0 -0.00000000000E+00 -0.00000000000E+00 -0.45593999997E+02  0.45594000000E+02  0.51100000000E-03 0. -1.
    9900012    2    1    2    0    0  0.24400742386E+01  0.59913715149E+01 -0.42915882371E+02  0.47787268962E+02  0.19999990506E+02 0.  0.
        -12    1    1    2    0    0 -0.24400742386E+01 -0.59913715149E+01  0.42915882371E+02  0.43400731038E+02  0.00000000000E+00 0.  1.
         11    1    3    3    0    0  0.67710418172E+01  0.10058212493E+01 -0.25720527493E+02  0.26615864037E+02  0.51100000000E-03 0. -1.
        -11    1    3    3    0    0  0.92624746462E+00  0.12467665187E+01  0.10127997233E+01  0.18542180720E+01  0.51100000000E-03 0.  1.
        -12    1    3    3    0    0 -0.52572150432E+01  0.37387837468E+01 -0.18208154602E+02  0.19317186853E+02  0.00000000000E+00 0.  1.
</event>
<event>
 7    1  0.2783785E-010  0.4778727E+02  0.7816164E-02  0.1312668E+00
        -11   -1    0    0    0    0  0.00000000000E+00  0.00000000000E+00  0.45593999997E+02  0.45594000000E+02  0.51100000000E-03 0. -1.
         11   -1    0    0    0    0 -0.00000000000E+00 -0.00000000000E+00 -0.45593999997E+02  0.45594000000E+02  0.51100000000E-03 0.  1.
    9900012    2    1    2    0    0  0.40532612652E+02 -0.87580121849E+01  0.12807336959E+02  0.47787270216E+02  0.19999996221E+02 0.  0.
        -12    1    1    2    0    0 -0.40532612652E+02  0.87580121849E+01 -0.12807336959E+02  0.43400729784E+02  0.00000000000E+00 0.  1.
         11    1    3    3    0    0  0.22494884301E+02 -0.55820072074E+01  0.22891792398E+01  0.23289889781E+02  0.51100000000E-03 0.  1.
        -11    1    3    3    0    0 -0.27536250856E+00 -0.28701101320E+01 -0.76779385384E+00  0.29837668046E+01  0.51100000000E-03 0. -1.
         12    1    3    3    0    0  0.18313090860E+02 -0.30589484552E+00  0.11285951573E+02  0.21513613630E+02  0.00000000000E+00 0. -1.
</event>
<event>
 7    1  0.2783785E-010  0.4778727E+02  0.7816164E-02  0.1312668E+00
        -11   -1    0    0    0    0  0.00000000000E+00  0.00000000000E+00  0.45593999997E+02  0.45594000000E+02  0.51100000000E-03 0.  1.
         11   -1    0    0    0    0 -0.00000000000E+00 -0.00000000000E+00 -0.45593999997E+02  0.45594000000E+02  0.51100000000E-03 0. -1.
    9900012    2    1    2    0    0 -0.36025417556E+02  0.19116001899E+02 -0.14844893693E+02  0.47787272962E+02  0.20000008741E+02 0.  0.
        -12    1    1    2    0    0  0.36025417556E+02 -0.19116001899E+02  0.14844893693E+02  0.43400727038E+02  0.00000000000E+00 0.  1.
         11    1    3    3    0    0 -0.46102640434E+01  0.46480369574E+01 -0.53706947625E+01  0.84677709345E+01  0.51100000000E-03 0. -1.
        -11    1    3    3    0    0  0.12075326319E+01  0.33201006214E+01  0.11878237668E+00  0.35348709605E+01  0.51100000000E-03 0.  1.
        -12    1    3    3    0    0 -0.32622686145E+02  0.11147864320E+02 -0.95929813069E+01  0.35784631067E+02  0.00000000000E+00 0.  1.
</event>
<event>
 7    1  0.2783785E-010  0.4778728E+02  0.7816164E-02  0.1312668E+00
        -11   -1    0    0    0    0  0.00000000000E+00  0.00000000000E+00  0.45593999997E+02  0.45594000000E+02  0.51100000000E-03 0.  1.
         11   -1    0    0    0    0 -0.00000000000E+00 -0.00000000000E+00 -0.45593999997E+02  0.45594000000E+02  0.51100000000E-03 0. -1.
    9900012    2    1    2    0    0 -0.32154453682E+02  0.24133403023E+02 -0.16349079254E+02  0.47787280818E+02  0.20000044563E+02 0.  0.
        -12    1    1    2    0    0  0.32154453682E+02 -0.24133403023E+02  0.16349079254E+02  0.43400719182E+02  0.00000000000E+00 0.  1.
         11    1    3    3    0    0 -0.64758759926E+01  0.80891842435E+01 -0.42344400171E+01  0.11193853408E+02  0.51100000000E-03 0. -1.
        -11    1    3    3    0    0 -0.57905382931E+01 -0.34008849980E+01 -0.23748441588E+01  0.71229374231E+01  0.51100000000E-03 0.  1.
        -12    1    3    3    0    0 -0.19888039397E+02  0.19445103777E+02 -0.97397950777E+01  0.29470489987E+02  0.00000000000E+00 0.  1.
</event>
<event>
 7    1  0.2783785E-010  0.4778727E+02  0.7816164E-02  0.1312668E+00
        -11   -1    0    0    0    0  0.00000000000E+00  0.00000000000E+00  0.45593999997E+02  0.45594000000E+02  0.51100000000E-03 0.  1.
         11   -1    0    0    0    0 -0.00000000000E+00 -0.00000000000E+00 -0.45593999997E+02  0.45594000000E+02  0.51100000000E-03 0. -1.
    9900012    2    1    2    0    0 -0.22988587822E+02  0.25240065194E+02 -0.26797147111E+02  0.47787272422E+02  0.20000006282E+02 0.  0.
        -12    1    1    2    0    0  0.22988587822E+02 -0.25240065194E+02  0.26797147111E+02  0.43400727578E+02  0.00000000000E+00 0.  1.
         11    1    3    3    0    0 -0.19483608633E+02  0.15841078693E+02 -0.15435266646E+02  0.29475383564E+02  0.51100000000E-03 0. -1.
        -11    1    3    3    0    0 -0.27042930796E+01  0.11497629721E+02 -0.79888723510E+01  0.14259409944E+02  0.51100000000E-03 0.  1.
        -12    1    3    3    0    0 -0.80068610888E+00 -0.20986432209E+01 -0.33730081139E+01  0.40524789142E+01  0.00000000000E+00 0.  1.
</event>
<event>
 7    1  0.2783785E-010  0.4778727E+02  0.7816164E-02  0.1312668E+00
        -11   -1    0    0    0    0  0.00000000000E+00  0.00000000000E+00  0.45593999997E+02  0.45594000000E+02  0.51100000000E-03 0. -1.
         11   -1    0    0    0    0 -0.00000000000E+00 -0.00000000000E+00 -0.45593999997E+02  0.45594000000E+02  0.51100000000E-03 0.  1.
    9900012    2    1    2    0    0  0.39786230279E+02 -0.36094868312E+01  0.16960261745E+02  0.47787274275E+02  0.20000014730E+02 0.  0.
        -12    1    1    2    0    0 -0.39786230279E+02  0.36094868312E+01 -0.16960261745E+02  0.43400725725E+02  0.00000000000E+00 0.  1.
         11    1    3    3    0    0  0.18206124297E+02  0.38957461503E+01  0.70097326046E+01  0.19894123541E+02  0.51100000000E-03 0. -1.
        -11    1    3    3    0    0  0.17662462589E+02 -0.16352484105E+01  0.30037947085E+01  0.17990536540E+02  0.51100000000E-03 0.  1.
         12    1    3    3    0    0  0.39176433920E+01 -0.58699845710E+01  0.69467344322E+01  0.99026141944E+01  0.00000000000E+00 0. -1.
</event>
<event>
 7    1  0.2783785E-010  0.4778727E+02  0.7816164E-02  0.1312668E+00
        -11   -1    0    0    0    0  0.00000000000E+00  0.00000000000E+00  0.45593999997E+02  0.45594000000E+02  0.51100000000E-03 0. -1.
         11   -1    0    0    0    0 -0.00000000000E+00 -0.00000000000E+00 -0.45593999997E+02  0.45594000000E+02  0.51100000000E-03 0.  1.
    9900012    2    1    2    0    0  0.26611553966E+02 -0.25456762902E+02  0.22965229302E+02  0.47787270296E+02  0.19999996589E+02 0.  0.
        -12    1    1    2    0    0 -0.26611553966E+02  0.25456762902E+02 -0.22965229302E+02  0.43400729704E+02  0.00000000000E+00 0.  1.
         11    1    3    3    0    0  0.24944391051E+01 -0.86402990506E+01  0.14387456481E+02  0.16966905975E+02  0.51100000000E-03 0. -1.
        -11    1    3    3    0    0  0.64844212613E+01 -0.28002292445E+01  0.16368023664E+01  0.72503879319E+01  0.51100000000E-03 0.  1.
         12    1    3    3    0    0  0.17632693599E+02 -0.14016234607E+02  0.69409704552E+01  0.23569976389E+02  0.00000000000E+00 0. -1.
</event>
<event>
 7    1  0.2783785E-010  0.4778726E+02  0.7816164E-02  0.1312668E+00
        -11   -1    0    0    0    0  0.00000000000E+00  0.00000000000E+00  0.45593999997E+02  0.45594000000E+02  0.51100000000E-03 0.  1.
         11   -1    0    0    0    0 -0.00000000000E+00 -0.00000000000E+00 -0.45593999997E+02  0.45594000000E+02  0.51100000000E-03 0. -1.
    9900012    2    1    2    0    0  0.42759300556E+01 -0.31675535253E+01 -0.43073278976E+02  0.47787258821E+02  0.19999944267E+02 0.  0.
        -12    1    1    2    0    0 -0.42759300556E+01  0.31675535253E+01  0.43073278976E+02  0.43400741179E+02  0.00000000000E+00 0.  1.
         11    1    3    3    0    0  0.30313646067E+01 -0.51903881430E+01 -0.66366442799E+01  0.89540129559E+01  0.51100000000E-03 0. -1.
        -11    1    3    3    0    0 -0.38257681672E+01  0.45207738189E+01 -0.86862502631E+01  0.10513079562E+02  0.51100000000E-03 0.  1.
         12    1    3    3    0    0  0.50703336160E+01 -0.24979392011E+01 -0.27750384433E+02  0.28320166303E+02  0.00000000000E+00 0. -1.
</event>
<event>
 7    1  0.2783785E-010  0.4778728E+02  0.7816164E-02  0.1312668E+00
        -11   -1    0    0    0    0  0.00000000000E+00  0.00000000000E+00  0.45593999997E+02  0.45594000000E+02  0.51100000000E-03 0.  1.
         11   -1    0    0    0    0 -0.00000000000E+00 -0.00000000000E+00 -0.45593999997E+02  0.45594000000E+02  0.51100000000E-03 0. -1.
    9900012    2    1    2    0    0  0.16416914383E+02 -0.39403072321E+02 -0.78425538329E+01  0.47787276079E+02  0.20000022956E+02 0.  0.
        -12    1    1    2    0    0 -0.16416914383E+02  0.39403072321E+02  0.78425538329E+01  0.43400723921E+02  0.00000000000E+00 0.  1.
         11    1    3    3    0    0  0.38405742023E+01 -0.71483385873E+01 -0.60862734872E+01  0.10143543759E+02  0.51100000000E-03 0. -1.
        -11    1    3    3    0    0 -0.22154320756E+01 -0.79587992348E+01  0.30297022346E+01  0.87994159144E+01  0.51100000000E-03 0.  1.
        -12    1    3    3    0    0  0.14791772257E+02 -0.24295934499E+02 -0.47859825803E+01  0.28844316406E+02  0.00000000000E+00 0.  1.
</event>
<event>
 7    1  0.2783785E-010  0.4778727E+02  0.7816164E-02  0.1312668E+00
        -11   -1    0    0    0    0  0.00000000000E+00  0.00000000000E+00  0.45593999997E+02  0.45594000000E+02  0.51100000000E-03 0.  1.
         11   -1    0    0    0    0 -0.00000000000E+00 -0.00000000000E+00 -0.45593999997E+02  0.45594000000E+02  0.51100000000E-03 0. -1.
    9900012    2    1    2    0    0 -0.18231746599E+02  0.24467241167E+02 -0.30863907892E+02  0.47787270920E+02  0.19999999431E+02 0.  0.
        -12    1    1    2    0    0  0.18231746599E+02 -0.24467241167E+02  0.30863907892E+02  0.43400729080E+02  0.00000000000E+00 0.  1.
         11    1    3    3    0    0 -0.62879455887E+01  0.18026829023E+02 -0.10359860554E+02  0.21721683529E+02  0.51100000000E-03 0. -1.
        -11    1    3    3    0    0 -0.37751588217E+00 -0.14900942951E+01 -0.46577341495E+01  0.49048330164E+01  0.51100000000E-03 0.  1.
        -12    1    3    3    0    0 -0.11566285128E+02  0.79305064389E+01 -0.15846313188E+02  0.21160754374E+02  0.00000000000E+00 0.  1.
</event>
<event>
 7    1  0.2783785E-010  0.4778727E+02  0.7816164E-02  0.1312668E+00
        -11   -1    0    0    0    0  0.00000000000E+00  0.00000000000E+00  0.45593999997E+02  0.45594000000E+02  0.51100000000E-03 0.  1.
         11   -1    0    0    0    0 -0.00000000000E+00 -0.00000000000E+00 -0.45593999997E+02  0.45594000000E+02  0.51100000000E-03 0. -1.
    9900012    2    1    2    0    0  0.30690185366E+02 -0.24108389964E+02 -0.18987401959E+02  0.47787269849E+02  0.19999994551E+02 0.  0.
        -12    1    1    2    0    0 -0.30690185366E+02  0.24108389964E+02  0.18987401959E+02  0.43400730151E+02  0.00000000000E+00 0.  1.
         11    1    3    3    0    0  0.23079611447E+02 -0.14744952495E+02 -0.13860333128E+02  0.30695128657E+02  0.51100000000E-03 0. -1.
        -11    1    3    3    0    0  0.28396749235E+01  0.15653102612E+01 -0.39485780355E+01  0.51093266335E+01  0.51100000000E-03 0.  1.
        -12    1    3    3    0    0  0.47708989950E+01 -0.10928747731E+02 -0.11784907958E+01  0.11982814558E+02  0.00000000000E+00 0.  1.
</event>
<event>
 7    1  0.2783785E-010  0.4778730E+02  0.7816164E-02  0.1312668E+00
        -11   -1    0    0    0    0  0.00000000000E+00  0.00000000000E+00  0.45593999997E+02  0.45594000000E+02  0.51100000000E-03 0. -1.
         11   -1    0    0    0    0 -0.00000000000E+00 -0.00000000000E+00 -0.45593999997E+02  0.45594000000E+02  0.51100000000E-03 0.  1.
    9900012    2    1    2    0    0 -0.12742810963E+02 -0.38517710119E+02  0.15415159611E+02  0.47787304500E+02  0.20000152537E+02 0.  0.
        -12    1    1    2    0    0  0.12742810963E+02  0.38517710119E+02 -0.15415159611E+02  0.43400695500E+02  0.00000000000E+00 0.  1.
         11    1    3    3    0    0  0.24941035993E+01 -0.18476692685E+02  0.95515629416E+01  0.20948534083E+02  0.51100000000E-03 0. -1.
        -11    1    3    3    0    0 -0.61219364153E+01 -0.36729524622E+01  0.35137558662E+01  0.79570827450E+01  0.51100000000E-03 0.  1.
         12    1    3    3    0    0 -0.91149781473E+01 -0.16368064971E+02  0.23498408031E+01  0.18881687672E+02  0.00000000000E+00 0. -1.
</event>
<event>
 7    1  0.2783785E-010  0.4778728E+02  0.7816164E-02  0.1312668E+00
        -11   -1    0    0    0    0  0.00000000000E+00  0.00000000000E+00  0.45593999997E+02  0.45594000000E+02  0.51100000000E-03 0.  1.
         11   -1    0    0    0    0 -0.00000000000E+00 -0.00000000000E+00 -0.45593999997E+02  0.45594000000E+02  0.51100000000E-03 0. -1.
    9900012    2    1    2    0    0 -0.32128496408E+02  0.98537137256E+01 -0.27464283792E+02  0.47787276045E+02  0.20000022797E+02 0.  0.
        -12    1    1    2    0    0  0.32128496408E+02 -0.98537137256E+01  0.27464283792E+02  0.43400723955E+02  0.00000000000E+00 0.  1.
         11    1    3    3    0    0 -0.14213718470E+02  0.68845588196E+01 -0.22685789846E+02  0.27641852399E+02  0.51100000000E-03 0. -1.
        -11    1    3    3    0    0 -0.77483258224E+01 -0.23227111137E+01 -0.24292051408E+01  0.84458615810E+01  0.51100000000E-03 0.  1.
         12    1    3    3    0    0 -0.10166452116E+02  0.52918660197E+01 -0.23492888054E+01  0.11699562064E+02  0.00000000000E+00 0. -1.
</event>
<event>
 7    1  0.2783785E-010  0.4778727E+02  0.7816164E-02  0.1312668E+00
        -11   -1    0    0    0    0  0.00000000000E+00  0.00000000000E+00  0.45593999997E+02  0.45594000000E+02  0.51100000000E-03 0.  1.
         11   -1    0    0    0    0 -0.00000000000E+00 -0.00000000000E+00 -0.45593999997E+02  0.45594000000E+02  0.51100000000E-03 0. -1.
    9900012    2    1    2    0    0  0.15731183796E+02 -0.72252500043E-01 -0.40449323968E+02  0.47787272201E+02  0.20000005271E+02 0.  0.
        -12    1    1    2    0    0 -0.15731183796E+02  0.72252500043E-01  0.40449323968E+02  0.43400727799E+02  0.00000000000E+00 0.  1.
         11    1    3    3    0    0  0.97567359167E+01  0.44495109917E+00 -0.23473180104E+02  0.25424044951E+02  0.51100000000E-03 0. -1.
        -11    1    3    3    0    0  0.50640791372E+01 -0.14154830154E+01  0.80404091341E-01  0.52587978430E+01  0.51100000000E-03 0.  1.
         12    1    3    3    0    0  0.91036874168E+00  0.89827941616E+00 -0.17056547956E+02  0.17104429406E+02  0.00000000000E+00 0. -1.
</event>
<event>
 7    1  0.2783785E-010  0.4778727E+02  0.7816164E-02  0.1312668E+00
        -11   -1    0    0    0    0  0.00000000000E+00  0.00000000000E+00  0.45593999997E+02  0.45594000000E+02  0.51100000000E-03 0. -1.
         11   -1    0    0    0    0 -0.00000000000E+00 -0.00000000000E+00 -0.45593999997E+02  0.45594000000E+02  0.51100000000E-03 0.  1.
    9900012    2    1    2    0    0  0.20673644093E+00 -0.35707782237E+02  0.24668497796E+02  0.47787271484E+02  0.20000002004E+02 0.  0.
        -12    1    1    2    0    0 -0.20673644093E+00  0.35707782237E+02 -0.24668497796E+02  0.43400728516E+02  0.00000000000E+00 0.  1.
         11    1    3    3    0    0  0.43437675733E+01 -0.16740257942E+02  0.16643329853E+02  0.24002187016E+02  0.51100000000E-03 0. -1.
        -11    1    3    3    0    0 -0.22373913352E+01  0.81091096578E+00  0.17302164807E+01  0.29423028248E+01  0.51100000000E-03 0.  1.
        -12    1    3    3    0    0 -0.18996397972E+01 -0.19778435261E+02  0.62949514623E+01  0.20842781643E+02  0.00000000000E+00 0.  1.
</event>
<event>
 7    1  0.2783785E-010  0.4778721E+02  0.7816164E-02  0.1312668E+00
        -11   -1    0    0    0    0  0.00000000000E+00  0.00000000000E+00  0.45593999997E+02  0.45594000000E+02  0.51100000000E-03 0.  1.
         11   -1    0    0    0    0 -0.00000000000E+00 -0.00000000000E+00 -0.45593999997E+02  0.45594000000E+02  0.51100000000E-03 0. -1.
    9900012    2    1    2    0    0 -0.24027074234E+02 -0.84956462841E+01 -0.35130497320E+02  0.47787214939E+02  0.19999744190E+02 0.  0.
        -12    1    1    2    0    0  0.24027074234E+02  0.84956462841E+01  0.35130497320E+02  0.43400785061E+02  0.00000000000E+00 0.  1.
         11    1    3    3    0    0 -0.81100689173E+01  0.41766662325E+00 -0.74384465868E+01  0.11012635976E+02  0.51100000000E-03 0. -1.
        -11    1    3    3    0    0 -0.77498367728E+01 -0.12914387377E+02 -0.18299955077E+02  0.23700838116E+02  0.51100000000E-03 0.  1.
        -12    1    3    3    0    0 -0.81671685436E+01  0.40010744692E+01 -0.93920956553E+01  0.13073740847E+02  0.00000000000E+00 0.  1.
</event>
<event>
 7    1  0.3734358E-010  0.4778727E+02  0.7816164E-02  0.1312668E+00
        -11   -1    0    0    0    0  0.00000000000E+00  0.00000000000E+00  0.45593999997E+02  0.45594000000E+02  0.51100000000E-03 0. -1.
         11   -1    0    0    0    0 -0.00000000000E+00 -0.00000000000E+00 -0.45593999997E+02  0.45594000000E+02  0.51100000000E-03 0.  1.
    9900012    2    1    2    0    0  0.23234461039E+02  0.39906425009E+01  0.36439790911E+02  0.47787265340E+02  0.19999973993E+02 0.  0.
        -12    1    1    2    0    0 -0.23234461039E+02 -0.39906425009E+01 -0.36439790911E+02  0.43400734660E+02  0.00000000000E+00 0.  1.
         11    1    3    3    0    0  0.20191133175E+02  0.31136981184E+01  0.20347369628E+02  0.28833876359E+02  0.51100000000E-03 0. -1.
        -11    1    3    3    0    0  0.25495032487E+01 -0.40453076489E+01  0.10160181065E+02  0.11229147800E+02  0.51100000000E-03 0.  1.
        -12    1    3    3    0    0  0.49382461585E+00  0.49222520314E+01  0.59322402185E+01  0.77242411810E+01  0.00000000000E+00 0.  1.
</event>
<event>
 7    1  0.2783785E-010  0.4778727E+02  0.7816164E-02  0.1312668E+00
        -11   -1    0    0    0    0  0.00000000000E+00  0.00000000000E+00  0.45593999997E+02  0.45594000000E+02  0.51100000000E-03 0. -1.
         11   -1    0    0    0    0 -0.00000000000E+00 -0.00000000000E+00 -0.45593999997E+02  0.45594000000E+02  0.51100000000E-03 0.  1.
    9900012    2    1    2    0    0  0.23650195924E+02  0.13374669442E+01  0.36366230163E+02  0.47787270959E+02  0.19999999611E+02 0.  0.
        -12    1    1    2    0    0 -0.23650195924E+02 -0.13374669442E+01 -0.36366230163E+02  0.43400729041E+02  0.00000000000E+00 0.  1.
         11    1    3    3    0    0  0.16744815321E+02  0.33467709132E+01  0.22995480434E+02  0.28642308502E+02  0.51100000000E-03 0. -1.
        -11    1    3    3    0    0  0.66826284094E+01 -0.33502016651E+01  0.20616499314E+01  0.77544680254E+01  0.51100000000E-03 0.  1.
         12    1    3    3    0    0  0.22275219308E+00  0.13408976961E+01  0.11309099797E+02  0.11390494432E+02  0.00000000000E+00 0. -1.
</event>
<event>
 7    1  0.2783785E-010  0.4778727E+02  0.7816164E-02  0.1312668E+00
        -11   -1    0    0    0    0  0.00000000000E+00  0.00000000000E+00  0.45593999997E+02  0.45594000000E+02  0.51100000000E-03 0.  1.
         11   -1    0    0    0    0 -0.00000000000E+00 -0.00000000000E+00 -0.45593999997E+02  0.45594000000E+02  0.51100000000E-03 0. -1.
    9900012    2    1    2    0    0  0.19276052192E+01 -0.43101693070E+02 -0.47065641356E+01  0.47787270129E+02  0.19999995828E+02 0.  0.
        -12    1    1    2    0    0 -0.19276052192E+01  0.43101693070E+02  0.47065641356E+01  0.43400729871E+02  0.00000000000E+00 0.  1.
         11    1    3    3    0    0  0.92882227279E+01 -0.21037412357E+02 -0.49363035862E+01  0.23520435657E+02  0.51100000000E-03 0. -1.
        -11    1    3    3    0    0 -0.29851325049E+01 -0.12144875732E+02  0.34201506863E+01  0.12965587283E+02  0.51100000000E-03 0.  1.
        -12    1    3    3    0    0 -0.43754850038E+01 -0.99194049802E+01 -0.31904112358E+01  0.11301247189E+02  0.00000000000E+00 0.  1.
</event>
<event>
 7    1  0.2783785E-010  0.4778727E+02  0.7816164E-02  0.1312668E+00
        -11   -1    0    0    0    0  0.00000000000E+00  0.00000000000E+00  0.45593999997E+02  0.45594000000E+02  0.51100000000E-03 0.  1.
         11   -1    0    0    0    0 -0.00000000000E+00 -0.00000000000E+00 -0.45593999997E+02  0.45594000000E+02  0.51100000000E-03 0. -1.
    9900012    2    1    2    0    0 -0.41550849463E+02 -0.12396732335E+02  0.18631084054E+01  0.47787271474E+02  0.20000001958E+02 0.  0.
        -12    1    1    2    0    0  0.41550849463E+02  0.12396732335E+02 -0.18631084054E+01  0.43400728526E+02  0.00000000000E+00 0.  1.
         11    1    3    3    0    0 -0.87849280927E+01  0.76541168482E+00 -0.10396805738E+01  0.88792878429E+01  0.51100000000E-03 0. -1.
        -11    1    3    3    0    0 -0.21515819610E+01  0.30786230341E+01  0.19671191978E+01  0.42399036452E+01  0.51100000000E-03 0.  1.
         12    1    3    3    0    0 -0.30614339409E+02 -0.16240767054E+02  0.93566978135E+00  0.34668079986E+02  0.00000000000E+00 0. -1.
</event>
<event>
 7    1  0.2783785E-010  0.4778727E+02  0.7816164E-02  0.1312668E+00
        -11   -1    0    0    0    0  0.00000000000E+00  0.00000000000E+00  0.45593999997E+02  0.45594000000E+02  0.51100000000E-03 0.  1.
         11   -1    0    0    0    0 -0.00000000000E+00 -0.00000000000E+00 -0.45593999997E+02  0.45594000000E+02  0.51100000000E-03 0. -1.
    9900012    2    1    2    0    0  0.13570008055E+02  0.22454933435E+02 -0.34572451471E+02  0.47787267807E+02  0.19999985240E+02 0.  0.
        -12    1    1    2    0    0 -0.13570008055E+02 -0.22454933435E+02  0.34572451471E+02  0.43400732193E+02  0.00000000000E+00 0.  1.
         11    1    3    3    0    0  0.48176374470E+01  0.10507397154E+02 -0.86830415096E+01  0.14457186298E+02  0.51100000000E-03 0. -1.
        -11    1    3    3    0    0 -0.28888582617E+01  0.22720879207E+01 -0.12804080085E+02  0.13321124302E+02  0.51100000000E-03 0.  1.
         12    1    3    3    0    0  0.11641228870E+02  0.96754483595E+01 -0.13085329876E+02  0.20008957208E+02  0.00000000000E+00 0. -1.
</event>
<event>
 7    1  0.2783785E-010  0.4778727E+02  0.7816164E-02  0.1312668E+00
        -11   -1    0    0    0    0  0.00000000000E+00  0.00000000000E+00  0.45593999997E+02  0.45594000000E+02  0.51100000000E-03 0.  1.
         11   -1    0    0    0    0 -0.00000000000E+00 -0.00000000000E+00 -0.45593999997E+02  0.45594000000E+02  0.51100000000E-03 0. -1.
    9900012    2    1    2    0    0  0.36975624632E+01 -0.37513452487E+02  0.21510288813E+02  0.47787267167E+02  0.19999982319E+02 0.  0.
        -12    1    1    2    0    0 -0.36975624632E+01  0.37513452487E+02 -0.21510288813E+02  0.43400732833E+02  0.00000000000E+00 0.  1.
         11    1    3    3    0    0 -0.56997076789E+01 -0.11090291792E+02  0.38338742281E+01  0.13045299211E+02  0.51100000000E-03 0. -1.
        -11    1    3    3    0    0  0.33366980181E+01 -0.22300393115E+02  0.14005396478E+02  0.26544155996E+02  0.51100000000E-03 0.  1.
        -12    1    3    3    0    0  0.60605721240E+01 -0.41227675807E+01  0.36710181062E+01  0.81978119599E+01  0.00000000000E+00 0.  1.
</event>
<event>
 7    1  0.2783785E-010  0.4778728E+02  0.7816164E-02  0.1312668E+00
        -11   -1    0    0    0    0  0.00000000000E+00  0.00000000000E+00  0.45593999997E+02  0.45594000000E+02  0.51100000000E-03 0. -1.
         11   -1    0    0    0    0 -0.00000000000E+00 -0.00000000000E+00 -0.45593999997E+02  0.45594000000E+02  0.51100000000E-03 0.  1.
    9900012    2    1    2    0    0  0.12270284288E+02  0.13827045946E+02  0.39266724067E+02  0.47787277713E+02  0.20000030404E+02 0.  0.
        -12    1    1    2    0    0 -0.12270284288E+02 -0.13827045946E+02 -0.39266724067E+02  0.43400722287E+02  0.00000000000E+00 0.  1.
         11    1    3    3    0    0  0.14946455177E+02  0.83961792951E+01  0.29914390069E+02  0.34478443737E+02  0.51100000000E-03 0. -1.
        -11    1    3    3    0    0 -0.32201624439E+00 -0.17872233822E+01  0.12464657216E+01  0.22026209242E+01  0.51100000000E-03 0.  1.
         12    1    3    3    0    0 -0.23541546449E+01  0.72180900333E+01  0.81058682766E+01  0.11106213051E+02  0.00000000000E+00 0. -1.
</event>
<event>
 7    1  0.2783785E-010  0.4778727E+02  0.7816164E-02  0.1312668E+00
        -11   -1    0    0    0    0  0.00000000000E+00  0.00000000000E+00  0.45593999997E+02  0.45594000000E+02  0.51100000000E-03 0.  1.
         11   -1    0    0    0    0 -0.00000000000E+00 -0.00000000000E+00 -0.45593999997E+02  0.45594000000E+02  0.51100000000E-03 0. -1.
    9900012    2    1    2    0    0 -0.15827177718E+01  0.43245970790E+02 -0.33021878507E+01  0.47787269249E+02  0.19999991812E+02 0.  0.
        -12    1    1    2    0    0  0.15827177718E+01 -0.43245970790E+02  0.33021878507E+01  0.43400730751E+02  0.00000000000E+00 0.  1.
         11    1    3    3    0    0 -0.23524869061E+00  0.32124127281E+01 -0.41232526142E+01  0.52322222682E+01  0.51100000000E-03 0. -1.
        -11    1    3    3    0    0 -0.40710987558E+01  0.22505398806E+02  0.67599492153E+01  0.23848767980E+02  0.51100000000E-03 0.  1.
        -12    1    3    3    0    0  0.27236296746E+01  0.17528159256E+02 -0.59388844518E+01  0.18706279001E+02  0.00000000000E+00 0.  1.
</event>
<event>
 7    1  0.2783785E-010  0.4778727E+02  0.7816164E-02  0.1312668E+00
        -11   -1    0    0    0    0  0.00000000000E+00  0.00000000000E+00  0.45593999997E+02  0.45594000000E+02  0.51100000000E-03 0. -1.
         11   -1    0    0    0    0 -0.00000000000E+00 -0.00000000000E+00 -0.45593999997E+02  0.45594000000E+02  0.51100000000E-03 0.  1.
    9900012    2    1    2    0    0  0.14280847875E+02 -0.10090968158E+02  0.39722195542E+02  0.47787273358E+02  0.20000010547E+02 0.  0.
        -12    1    1    2    0    0 -0.14280847875E+02  0.10090968158E+02 -0.39722195542E+02  0.43400726642E+02  0.00000000000E+00 0.  1.
         11    1    3    3    0    0  0.65186587193E+00  0.17511978522E+01 -0.10927979401E+01  0.21646779511E+01  0.51100000000E-03 0.  1.
        -11    1    3    3    0    0  0.45203587042E+01 -0.87296812763E+01  0.13796157319E+02  0.16940334561E+02  0.51100000000E-03 0. -1.
        -12    1    3    3    0    0  0.91086232990E+01 -0.31124847339E+01  0.27018836163E+02  0.28682260846E+02  0.00000000000E+00 0.  1.
</event>
<event>
 7    1  0.2783785E-010  0.4778727E+02  0.7816164E-02  0.1312668E+00
        -11   -1    0    0    0    0  0.00000000000E+00  0.00000000000E+00  0.45593999997E+02  0.45594000000E+02  0.51100000000E-03 0.  1.
         11   -1    0    0    0    0 -0.00000000000E+00 -0.00000000000E+00 -0.45593999997E+02  0.45594000000E+02  0.51100000000E-03 0. -1.
    9900012    2    1    2    0    0 -0.20651154214E+02 -0.21838516744E+02 -0.31308659644E+02  0.47787272441E+02  0.20000006367E+02 0.  0.
        -12    1    1    2    0    0  0.20651154214E+02  0.21838516744E+02  0.31308659644E+02  0.43400727559E+02  0.00000000000E+00 0.  1.
         11    1    3    3    0    0 -0.10117153035E+02 -0.72538428056E+01 -0.21770693593E+02  0.25078638734E+02  0.51100000000E-03 0. -1.
        -11    1    3    3    0    0  0.18079830579E+01 -0.34602973092E+01 -0.10114989345E+01  0.40330621817E+01  0.51100000000E-03 0.  1.
        -12    1    3    3    0    0 -0.12341984237E+02 -0.11124376629E+02 -0.85264671166E+01  0.18675571525E+02  0.00000000000E+00 0.  1.
</event>
<event>
 7    1  0.2860112E-010  0.4778727E+02  0.7816164E-02  0.1312668E+00
        -11   -1    0    0    0    0  0.00000000000E+00  0.00000000000E+00  0.45593999997E+02  0.45594000000E+02  0.51100000000E-03 0.  1.
         11   -1    0    0    0    0 -0.00000000000E+00 -0.00000000000E+00 -0.45593999997E+02  0.45594000000E+02  0.51100000000E-03 0. -1.
    9900012    2    1    2    0    0 -0.32263909090E+02 -0.28704866468E+02 -0.43236732368E+01  0.47787270294E+02  0.19999996580E+02 0.  0.
        -12    1    1    2    0    0  0.32263909090E+02  0.28704866468E+02  0.43236732368E+01  0.43400729706E+02  0.00000000000E+00 0.  1.
         11    1    3    3    0    0 -0.13914703520E+02 -0.86267177717E+01  0.41822260542E+01  0.16897640326E+02  0.51100000000E-03 0. -1.
        -11    1    3    3    0    0 -0.48082110052E+01 -0.13678968985E+02 -0.23125846070E+01  0.14682681410E+02  0.51100000000E-03 0.  1.
        -12    1    3    3    0    0 -0.13540994565E+02 -0.63991797109E+01 -0.61933146839E+01  0.16206948558E+02  0.00000000000E+00 0.  1.
</event>
<event>
 7    1  0.2783785E-010  0.4778727E+02  0.7816164E-02  0.1312668E+00
        -11   -1    0    0    0    0  0.00000000000E+00  0.00000000000E+00  0.45593999997E+02  0.45594000000E+02  0.51100000000E-03 0.  1.
         11   -1    0    0    0    0 -0.00000000000E+00 -0.00000000000E+00 -0.45593999997E+02  0.45594000000E+02  0.51100000000E-03 0. -1.
    9900012    2    1    2    0    0 -0.12906632719E+02 -0.98060320725E+01 -0.40260199338E+02  0.47787273234E+02  0.20000009981E+02 0.  0.
        -12    1    1    2    0    0  0.12906632719E+02  0.98060320725E+01  0.40260199338E+02  0.43400726766E+02  0.00000000000E+00 0.  1.
         11    1    3    3    0    0  0.22954730648E+01 -0.65049201204E+00 -0.98615034845E+01  0.10146013389E+02  0.51100000000E-03 0. -1.
        -11    1    3    3    0    0 -0.14808514537E+02 -0.63393692137E+01 -0.15095400927E+02  0.22076023968E+02  0.51100000000E-03 0.  1.
        -12    1    3    3    0    0 -0.39359124656E+00 -0.28161708467E+01 -0.15303294926E+02  0.15565235877E+02  0.00000000000E+00 0.  1.
</event>
<event>
 7    1  0.2783785E-010  0.4778727E+02  0.7816164E-02  0.1312668E+00
        -11   -1    0    0    0    0  0.00000000000E+00  0.00000000000E+00  0.45593999997E+02  0.45594000000E+02  0.51100000000E-03 0. -1.
         11   -1    0    0    0    0 -0.00000000000E+00 -0.00000000000E+00 -0.45593999997E+02  0.45594000000E+02  0.51100000000E-03 0.  1.
    9900012    2    1    2    0    0  0.27883388166E+02 -0.28223612073E+02  0.17594537310E+02  0.47787270084E+02  0.19999995621E+02 0.  0.
        -12    1    1    2    0    0 -0.27883388166E+02  0.28223612073E+02 -0.17594537310E+02  0.43400729916E+02  0.00000000000E+00 0.  1.
         11    1    3    3    0    0  0.24351800056E+01 -0.24555943968E+01 -0.19531523944E+01  0.39717565432E+01  0.51100000000E-03 0. -1.
        -11    1    3    3    0    0  0.45068030064E+00 -0.73803075034E+01  0.51528690745E+00  0.74119884266E+01  0.51100000000E-03 0.  1.
         12    1    3    3    0    0  0.24997527860E+02 -0.18387710173E+02  0.19032402797E+02  0.36403525114E+02  0.00000000000E+00 0. -1.
</event>
<event>
 7    1  0.2783785E-010  0.4778727E+02  0.7816164E-02  0.1312668E+00
        -11   -1    0    0    0    0  0.00000000000E+00  0.00000000000E+00  0.45593999997E+02  0.45594000000E+02  0.51100000000E-03 0.  1.
         11   -1    0    0    0    0 -0.00000000000E+00 -0.00000000000E+00 -0.45593999997E+02  0.45594000000E+02  0.51100000000E-03 0. -1.
    9900012    2    1    2    0    0  0.38253991454E+02 -0.11927569201E+02 -0.16672984606E+02  0.47787272070E+02  0.20000004674E+02 0.  0.
        -12    1    1    2    0    0 -0.38253991454E+02  0.11927569201E+02  0.16672984606E+02  0.43400727930E+02  0.00000000000E+00 0.  1.
         11    1    3    3    0    0  0.76650618476E+01 -0.85952004018E+01 -0.84329644152E+01  0.14273945921E+02  0.51100000000E-03 0. -1.
        -11    1    3    3    0    0  0.20565599961E+02 -0.20663883570E+01 -0.10466236798E+02  0.23167994639E+02  0.51100000000E-03 0.  1.
        -12    1    3    3    0    0  0.10023329645E+02 -0.12659804424E+01  0.22262166072E+01  0.10345331510E+02  0.00000000000E+00 0.  1.
</event>
<event>
 7    1  0.2783785E-010  0.4778727E+02  0.7816164E-02  0.1312668E+00
        -11   -1    0    0    0    0  0.00000000000E+00  0.00000000000E+00  0.45593999997E+02  0.45594000000E+02  0.51100000000E-03 0.  1.
         11   -1    0    0    0    0 -0.00000000000E+00 -0.00000000000E+00 -0.45593999997E+02  0.45594000000E+02  0.51100000000E-03 0. -1.
    9900012    2    1    2    0    0 -0.32806564175E+02  0.27356720599E+02 -0.76787109619E+01  0.47787269396E+02  0.19999992484E+02 0.  0.
        -12    1    1    2    0    0  0.32806564175E+02 -0.27356720599E+02  0.76787109619E+01  0.43400730604E+02  0.00000000000E+00 0.  1.
         11    1    3    3    0    0 -0.60315200935E+01  0.53713368623E+01  0.46465966905E+01  0.93177977759E+01  0.51100000000E-03 0. -1.
        -11    1    3    3    0    0 -0.10163332211E+02  0.15278041048E+02 -0.43418678159E+01  0.18856396164E+02  0.51100000000E-03 0.  1.
        -12    1    3    3    0    0 -0.16611711871E+02  0.67073426890E+01 -0.79834398365E+01  0.19613075456E+02  0.00000000000E+00 0.  1.
</event>
<event>
 7    1  0.2783785E-010  0.4778727E+02  0.7816164E-02  0.1312668E+00
        -11   -1    0    0    0    0  0.00000000000E+00  0.00000000000E+00  0.45593999997E+02  0.45594000000E+02  0.51100000000E-03 0. -1.
         11   -1    0    0    0    0 -0.00000000000E+00 -0.00000000000E+00 -0.45593999997E+02  0.45594000000E+02  0.51100000000E-03 0.  1.
    9900012    2    1    2    0    0 -0.17500331341E+01 -0.35511891263E+02  0.24889077385E+02  0.47787271779E+02  0.20000003350E+02 0.  0.
        -12    1    1    2    0    0  0.17500331341E+01  0.35511891263E+02 -0.24889077385E+02  0.43400728221E+02  0.00000000000E+00 0.  1.
         11    1    3    3    0    0 -0.76844922399E+01 -0.19840374714E+02  0.17808972820E+02  0.27746196189E+02  0.51100000000E-03 0. -1.
        -11    1    3    3    0    0  0.43266467235E+01 -0.27435820029E+01  0.43718945352E+01  0.67350260701E+01  0.51100000000E-03 0.  1.
        -12    1    3    3    0    0  0.16078123824E+01 -0.12927934546E+02  0.27082100303E+01  0.13306049520E+02  0.00000000000E+00 0.  1.
</event>
<event>
 7    1  0.2783785E-010  0.4778727E+02  0.7816164E-02  0.1312668E+00
        -11   -1    0    0    0    0  0.00000000000E+00  0.00000000000E+00  0.45593999997E+02  0.45594000000E+02  0.51100000000E-03 0.  1.
         11   -1    0    0    0    0 -0.00000000000E+00 -0.00000000000E+00 -0.45593999997E+02  0.45594000000E+02  0.51100000000E-03 0. -1.
    9900012    2    1    2    0    0 -0.40948962349E+02 -0.38025404047E+00 -0.14375711894E+02  0.47787271861E+02  0.20000003721E+02 0.  0.
        -12    1    1    2    0    0  0.40948962349E+02  0.38025404047E+00  0.14375711894E+02  0.43400728139E+02  0.00000000000E+00 0.  1.
         11    1    3    3    0    0 -0.96156041692E+01 -0.13736119101E+01  0.20366128478E+01  0.99244367785E+01  0.51100000000E-03 0. -1.
        -11    1    3    3    0    0 -0.12947566950E+01 -0.47954552088E+00 -0.58134629825E+01  0.59751745511E+01  0.51100000000E-03 0.  1.
         12    1    3    3    0    0 -0.30038601484E+02  0.14729033905E+01 -0.10598861759E+02  0.31887660531E+02  0.00000000000E+00 0. -1.
</event>
<event>
 7    1  0.2783785E-010  0.4778727E+02  0.7816164E-02  0.1312668E+00
        -11   -1    0    0    0    0  0.00000000000E+00  0.00000000000E+00  0.45593999997E+02  0.45594000000E+02  0.51100000000E-03 0. -1.
         11   -1    0    0    0    0 -0.00000000000E+00 -0.00000000000E+00 -0.45593999997E+02  0.45594000000E+02  0.51100000000E-03 0.  1.
    9900012    2    1    2    0    0  0.29815476412E+01 -0.41178147126E+02  0.13382601357E+02  0.47787269059E+02  0.19999990949E+02 0.  0.
        -12    1    1    2    0    0 -0.29815476412E+01  0.41178147126E+02 -0.13382601357E+02  0.43400730941E+02  0.00000000000E+00 0.  1.
         11    1    3    3    0    0 -0.38177890615E+01 -0.24657861481E+02  0.14968704351E+02  0.29097212175E+02  0.51100000000E-03 0. -1.
        -11    1    3    3    0    0  0.52596729714E+00 -0.13312687106E+01 -0.17434248207E+01  0.22557589286E+01  0.51100000000E-03 0.  1.
        -12    1    3    3    0    0  0.62733694055E+01 -0.15189016935E+02  0.15732182694E+00  0.16434297956E+02  0.00000000000E+00 0.  1.
</event>
<event>
 7    1  0.2783785E-010  0.4778727E+02  0.7816164E-02  0.1312668E+00
        -11   -1    0    0    0    0  0.00000000000E+00  0.00000000000E+00  0.45593999997E+02  0.45594000000E+02  0.51100000000E-03 0.  1.
         11   -1    0    0    0    0 -0.00000000000E+00 -0.00000000000E+00 -0.45593999997E+02  0.45594000000E+02  0.51100000000E-03 0. -1.
    9900012    2    1    2    0    0  0.34352782812E+01 -0.35509548373E+02 -0.24716273964E+02  0.47787270038E+02  0.19999995412E+02 0.  0.
        -12    1    1    2    0    0 -0.34352782812E+01  0.35509548373E+02  0.24716273964E+02  0.43400729962E+02  0.00000000000E+00 0.  1.
         11    1    3    3    0    0 -0.62780278573E+00 -0.12903827434E+02 -0.19054840602E+02  0.23021508409E+02  0.51100000000E-03 0. -1.
        -11    1    3    3    0    0 -0.82997208758E+00 -0.13822993221E+02 -0.48763916397E+01  0.14681389271E+02  0.51100000000E-03 0.  1.
         12    1    3    3    0    0  0.48930531546E+01 -0.87827277186E+01 -0.78504172221E+00  0.10084372358E+02  0.00000000000E+00 0. -1.
</event>
<event>
 7    1  0.2783785E-010  0.4778727E+02  0.7816164E-02  0.1312668E+00
        -11   -1    0    0    0    0  0.00000000000E+00  0.00000000000E+00  0.45593999997E+02  0.45594000000E+02  0.51100000000E-03 0.  1.
         11   -1    0    0    0    0 -0.00000000000E+00 -0.00000000000E+00 -0.45593999997E+02  0.45594000000E+02  0.51100000000E-03 0. -1.
    9900012    2    1    2    0    0  0.80045050884E+01 -0.32005217355E+02  0.28199597701E+02  0.47787270166E+02  0.19999995993E+02 0.  0.
        -12    1    1    2    0    0 -0.80045050884E+01  0.32005217355E+02 -0.28199597701E+02  0.43400729834E+02  0.00000000000E+00 0.  1.
         11    1    3    3    0    0  0.59693191460E+01 -0.10484724661E+02  0.58010466564E+01  0.13387096954E+02  0.51100000000E-03 0. -1.
        -11    1    3    3    0    0  0.71996199965E+01 -0.51167955642E+01  0.88870721986E+01  0.12529811549E+02  0.51100000000E-03 0.  1.
        -12    1    3    3    0    0 -0.51644340541E+01 -0.16403697130E+02  0.13511478846E+02  0.21870361662E+02  0.00000000000E+00 0.  1.
</event>
<event>
 7    1  0.2783785E-010  0.4778728E+02  0.7816164E-02  0.1312668E+00
        -11   -1    0    0    0    0  0.00000000000E+00  0.00000000000E+00  0.45593999997E+02  0.45594000000E+02  0.51100000000E-03 0.  1.
         11   -1    0    0    0    0 -0.00000000000E+00 -0.00000000000E+00 -0.45593999997E+02  0.45594000000E+02  0.51100000000E-03 0. -1.
    9900012    2    1    2    0    0  0.27625380886E+02  0.30165908628E+02 -0.14507882329E+02  0.47787281548E+02  0.20000047889E+02 0.  0.
        -12    1    1    2    0    0 -0.27625380886E+02 -0.30165908628E+02  0.14507882329E+02  0.43400718452E+02  0.00000000000E+00 0.  1.
         11    1    3    3    0    0  0.18149010023E+02  0.25707351912E+02 -0.15316256184E+02  0.34997745797E+02  0.51100000000E-03 0. -1.
        -11    1    3    3    0    0  0.94617233964E+01  0.34562195545E+01 -0.15827326770E+01  0.10196798823E+02  0.51100000000E-03 0.  1.
         12    1    3    3    0    0  0.14647467120E-01  0.10023371620E+01  0.23911065316E+01  0.25927369284E+01  0.00000000000E+00 0. -1.
</event>
<event>
 7    1  0.2783785E-010  0.4778727E+02  0.7816164E-02  0.1312668E+00
        -11   -1    0    0    0    0  0.00000000000E+00  0.00000000000E+00  0.45593999997E+02  0.45594000000E+02  0.51100000000E-03 0.  1.
         11   -1    0    0    0    0 -0.00000000000E+00 -0.00000000000E+00 -0.45593999997E+02  0.45594000000E+02  0.51100000000E-03 0. -1.
    9900012    2    1    2    0    0  0.15240935574E+02  0.26130980923E+02 -0.31120876989E+02  0.47787271138E+02  0.20000000427E+02 0.  0.
        -12    1    1    2    0    0 -0.15240935574E+02 -0.26130980923E+02  0.31120876989E+02  0.43400728862E+02  0.00000000000E+00 0.  1.
         11    1    3    3    0    0  0.12865154086E+00  0.96986775276E+01 -0.10912130304E+02  0.14599845377E+02  0.51100000000E-03 0.  1.
        -11    1    3    3    0    0  0.16125220687E+02  0.16421131333E+02 -0.21534861483E+02  0.31518669956E+02  0.51100000000E-03 0. -1.
         12    1    3    3    0    0 -0.10129366535E+01  0.11172061938E-01  0.13261147978E+01  0.16687558047E+01  0.00000000000E+00 0. -1.
</event>
<event>
 7    1  0.2783785E-010  0.4778727E+02  0.7816164E-02  0.1312668E+00
        -11   -1    0    0    0    0  0.00000000000E+00  0.00000000000E+00  0.45593999997E+02  0.45594000000E+02  0.51100000000E-03 0. -1.
         11   -1    0    0    0    0 -0.00000000000E+00 -0.00000000000E+00 -0.45593999997E+02  0.45594000000E+02  0.51100000000E-03 0.  1.
    9900012    2    1    2    0    0 -0.61307136357E+01 -0.41810362835E+02  0.98960059044E+01  0.47787273935E+02  0.20000013181E+02 0.  0.
        -12    1    1    2    0    0  0.61307136357E+01  0.41810362835E+02 -0.98960059044E+01  0.43400726065E+02  0.00000000000E+00 0.  1.
         11    1    3    3    0    0 -0.30805839139E+01 -0.14698921300E+02  0.58823574030E+00  0.15029780643E+02  0.51100000000E-03 0. -1.
        -11    1    3    3    0    0  0.40844932864E+01 -0.10155396358E+01  0.23625413355E+01  0.48265938281E+01  0.51100000000E-03 0.  1.
        -12    1    3    3    0    0 -0.71346230082E+01 -0.26095901899E+02  0.69452288286E+01  0.27930899464E+02  0.00000000000E+00 0.  1.
</event>
<event>
 7    1  0.2783785E-010  0.4778727E+02  0.7816164E-02  0.1312668E+00
        -11   -1    0    0    0    0  0.00000000000E+00  0.00000000000E+00  0.45593999997E+02  0.45594000000E+02  0.51100000000E-03 0.  1.
         11   -1    0    0    0    0 -0.00000000000E+00 -0.00000000000E+00 -0.45593999997E+02  0.45594000000E+02  0.51100000000E-03 0. -1.
    9900012    2    1    2    0    0  0.11611984955E+02 -0.31117352771E+02 -0.27937343940E+02  0.47787273918E+02  0.20000013101E+02 0.  0.
        -12    1    1    2    0    0 -0.11611984955E+02  0.31117352771E+02  0.27937343940E+02  0.43400726082E+02  0.00000000000E+00 0.  1.
         11    1    3    3    0    0  0.63555668781E+01 -0.13477968034E+02 -0.13047262982E+02  0.19806057766E+02  0.51100000000E-03 0. -1.
        -11    1    3    3    0    0 -0.25750686965E+01  0.32360350235E+00  0.97057647331E+00  0.27708693527E+01  0.51100000000E-03 0.  1.
        -12    1    3    3    0    0  0.78314867733E+01 -0.17962988240E+02 -0.15860657431E+02  0.25210346799E+02  0.00000000000E+00 0.  1.
</event>
<event>
 7    1  0.2783785E-010  0.4778727E+02  0.7816164E-02  0.1312668E+00
        -11   -1    0    0    0    0  0.00000000000E+00  0.00000000000E+00  0.45593999997E+02  0.45594000000E+02  0.51100000000E-03 0.  1.
         11   -1    0    0    0    0 -0.00000000000E+00 -0.00000000000E+00 -0.45593999997E+02  0.45594000000E+02  0.51100000000E-03 0. -1.
    9900012    2    1    2    0    0  0.84666009968E+01  0.40203673250E-02 -0.42566892199E+02  0.47787266595E+02  0.19999979714E+02 0.  0.
        -12    1    1    2    0    0 -0.84666009968E+01 -0.40203673250E-02  0.42566892199E+02  0.43400733405E+02  0.00000000000E+00 0.  1.
         11    1    3    3    0    0  0.63116583488E+01  0.81398682173E+00 -0.47720147655E+01  0.79543529493E+01  0.51100000000E-03 0.  1.
        -11    1    3    3    0    0  0.65990178597E+01 -0.25026938400E-01 -0.30869073120E+02  0.31566554113E+02  0.51100000000E-03 0. -1.
         12    1    3    3    0    0 -0.44440752117E+01 -0.78493951601E+00 -0.69258043139E+01  0.82663595328E+01  0.00000000000E+00 0. -1.
</event>
<event>
 7    1  0.2783785E-010  0.4778727E+02  0.7816164E-02  0.1312668E+00
        -11   -1    0    0    0    0  0.00000000000E+00  0.00000000000E+00  0.45593999997E+02  0.45594000000E+02  0.51100000000E-03 0. -1.
         11   -1    0    0    0    0 -0.00000000000E+00 -0.00000000000E+00 -0.45593999997E+02  0.45594000000E+02  0.51100000000E-03 0.  1.
    9900012    2    1    2    0    0  0.28611916654E+01  0.18711533964E+02  0.39055289354E+02  0.47787267891E+02  0.19999985623E+02 0.  0.
        -12    1    1    2    0    0 -0.28611916654E+01 -0.18711533964E+02 -0.39055289354E+02  0.43400732109E+02  0.00000000000E+00 0.  1.
         11    1    3    3    0    0 -0.51660907021E+00  0.11443764059E+02  0.11384067981E+02  0.16150034824E+02  0.51100000000E-03 0. -1.
        -11    1    3    3    0    0  0.79066892193E+01  0.51964546519E+01  0.12549158241E+02  0.15716241541E+02  0.51100000000E-03 0.  1.
         12    1    3    3    0    0 -0.45288884836E+01  0.20713152529E+01  0.15122063133E+02  0.15920991526E+02  0.00000000000E+00 0. -1.
</event>
<event>
 7    1  0.2783785E-010  0.4778727E+02  0.7816164E-02  0.1312668E+00
        -11   -1    0    0    0    0  0.00000000000E+00  0.00000000000E+00  0.45593999997E+02  0.45594000000E+02  0.51100000000E-03 0.  1.
         11   -1    0    0    0    0 -0.00000000000E+00 -0.00000000000E+00 -0.45593999997E+02  0.45594000000E+02  0.51100000000E-03 0. -1.
    9900012    2    1    2    0    0 -0.40591900629E+02  0.15108918550E+01  0.15285229209E+02  0.47787269328E+02  0.19999992174E+02 0.  0.
        -12    1    1    2    0    0  0.40591900629E+02 -0.15108918550E+01 -0.15285229209E+02  0.43400730672E+02  0.00000000000E+00 0.  1.
         11    1    3    3    0    0 -0.38329255022E+02  0.16628915386E+01  0.12260013405E+02  0.40276605216E+02  0.51100000000E-03 0. -1.
        -11    1    3    3    0    0 -0.34409972806E+01 -0.10046427275E+01 -0.57247780239E+00  0.36300826975E+01  0.51100000000E-03 0.  1.
        -12    1    3    3    0    0  0.11783516731E+01  0.85264304393E+00  0.35976936070E+01  0.38805814147E+01  0.00000000000E+00 0.  1.
</event>
<event>
 7    1  0.2783785E-010  0.4778727E+02  0.7816164E-02  0.1312668E+00
        -11   -1    0    0    0    0  0.00000000000E+00  0.00000000000E+00  0.45593999997E+02  0.45594000000E+02  0.51100000000E-03 0.  1.
         11   -1    0    0    0    0 -0.00000000000E+00 -0.00000000000E+00 -0.45593999997E+02  0.45594000000E+02  0.51100000000E-03 0. -1.
    9900012    2    1    2    0    0  0.31508542229E+02  0.11873950782E+02 -0.27383294522E+02  0.47787265451E+02  0.19999974495E+02 0.  0.
        -12    1    1    2    0    0 -0.31508542229E+02 -0.11873950782E+02  0.27383294522E+02  0.43400734549E+02  0.00000000000E+00 0.  1.
         11    1    3    3    0    0  0.11699957512E+02  0.41696338632E+01 -0.17237482527E+02  0.21246309243E+02  0.51100000000E-03 0. -1.
        -11    1    3    3    0    0  0.19135400789E+02  0.25686482330E+01 -0.85985013086E+01  0.21135177835E+02  0.51100000000E-03 0.  1.
         12    1    3    3    0    0  0.67318392807E+00  0.51356686862E+01 -0.15473106868E+01  0.54057783729E+01  0.00000000000E+00 0. -1.
</event>
<event>
 7    1  0.2783785E-010  0.4778728E+02  0.7816164E-02  0.1312668E+00
        -11   -1    0    0    0    0  0.00000000000E+00  0.00000000000E+00  0.45593999997E+02  0.45594000000E+02  0.51100000000E-03 0. -1.
         11   -1    0    0    0    0 -0.00000000000E+00 -0.00000000000E+00 -0.45593999997E+02  0.45594000000E+02  0.51100000000E-03 0.  1.
    9900012    2    1    2    0    0 -0.29532594047E+02  0.75250841616E+01  0.30900190693E+02  0.47787276646E+02  0.20000025540E+02 0.  0.
        -12    1    1    2    0    0  0.29532594047E+02 -0.75250841616E+01 -0.30900190693E+02  0.43400723354E+02  0.00000000000E+00 0.  1.
         11    1    3    3    0    0 -0.14880681788E+02  0.28209122014E+01  0.23419328079E+02  0.27890090786E+02  0.51100000000E-03 0. -1.
        -11    1    3    3    0    0 -0.77793953185E+00  0.44948644279E+01  0.18258139138E+01  0.49135112547E+01  0.51100000000E-03 0.  1.
        -12    1    3    3    0    0 -0.13873972727E+02  0.20930753232E+00  0.56550487002E+01  0.14983674605E+02  0.00000000000E+00 0.  1.
</event>
<event>
 7    1  0.2783785E-010  0.4778727E+02  0.7816164E-02  0.1312668E+00
        -11   -1    0    0    0    0  0.00000000000E+00  0.00000000000E+00  0.45593999997E+02  0.45594000000E+02  0.51100000000E-03 0. -1.
         11   -1    0    0    0    0 -0.00000000000E+00 -0.00000000000E+00 -0.45593999997E+02  0.45594000000E+02  0.51100000000E-03 0.  1.
    9900012    2    1    2    0    0  0.42941516164E+02 -0.57913226901E+01  0.24718136498E+01  0.47787273144E+02  0.20000009571E+02 0.  0.
        -12    1    1    2    0    0 -0.42941516164E+02  0.57913226901E+01 -0.24718136498E+01  0.43400726856E+02  0.00000000000E+00 0.  1.
         11    1    3    3    0    0  0.10278945452E+02  0.30844281500E+01 -0.54608688514E+00  0.10745632962E+02  0.51100000000E-03 0.  1.
        -11    1    3    3    0    0  0.55537916771E+01 -0.63317760256E+01  0.49083182518E+01  0.97482089613E+01  0.51100000000E-03 0. -1.
         12    1    3    3    0    0  0.27108779035E+02 -0.25439748145E+01 -0.18904177168E+01  0.27293431220E+02  0.00000000000E+00 0. -1.
</event>
<event>
 7    1  0.2783785E-010  0.4778727E+02  0.7816164E-02  0.1312668E+00
        -11   -1    0    0    0    0  0.00000000000E+00  0.00000000000E+00  0.45593999997E+02  0.45594000000E+02  0.51100000000E-03 0.  1.
         11   -1    0    0    0    0 -0.00000000000E+00 -0.00000000000E+00 -0.45593999997E+02  0.45594000000E+02  0.51100000000E-03 0. -1.
    9900012    2    1    2    0    0 -0.27611206845E+02 -0.27642576939E+02  0.18897951387E+02  0.47787269938E+02  0.19999994956E+02 0.  0.
        -12    1    1    2    0    0  0.27611206845E+02  0.27642576939E+02 -0.18897951387E+02  0.43400730062E+02  0.00000000000E+00 0.  1.
         11    1    3    3    0    0 -0.11046921178E+01 -0.50380974714E+00 -0.17743083550E+01  0.21499626360E+01  0.51100000000E-03 0. -1.
        -11    1    3    3    0    0 -0.21637972739E+02 -0.13482829384E+02  0.17123028078E+02  0.30711343886E+02  0.51100000000E-03 0.  1.
        -12    1    3    3    0    0 -0.48685419889E+01 -0.13655937808E+02  0.35492316639E+01  0.14925963416E+02  0.00000000000E+00 0.  1.
</event>
<event>
 7    1  0.5304395E-010  0.4778727E+02  0.7816164E-02  0.1312668E+00
        -11   -1    0    0    0    0  0.00000000000E+00  0.00000000000E+00  0.45593999997E+02  0.45594000000E+02  0.51100000000E-03 0. -1.
         11   -1    0    0    0    0 -0.00000000000E+00 -0.00000000000E+00 -0.45593999997E+02  0.45594000000E+02  0.51100000000E-03 0.  1.
    9900012    2    1    2    0    0  0.16366751079E+02 -0.39069111919E+02  0.94528947261E+01  0.47787271139E+02  0.20000000429E+02 0.  0.
        -12    1    1    2    0    0 -0.16366751079E+02  0.39069111919E+02 -0.94528947261E+01  0.43400728861E+02  0.00000000000E+00 0.  1.
         11    1    3    3    0    0  0.12681155121E+02 -0.21513093483E+02  0.59925630582E+01  0.25681427115E+02  0.51100000000E-03 0. -1.
        -11    1    3    3    0    0 -0.51939332349E+00 -0.13734726608E+02  0.69869048843E+01  0.15418473483E+02  0.51100000000E-03 0.  1.
        -12    1    3    3    0    0  0.42049892822E+01 -0.38212918275E+01 -0.35265732164E+01  0.66873705404E+01  0.00000000000E+00 0.  1.
</event>
<event>
 7    1  0.2783785E-010  0.4778727E+02  0.7816164E-02  0.1312668E+00
        -11   -1    0    0    0    0  0.00000000000E+00  0.00000000000E+00  0.45593999997E+02  0.45594000000E+02  0.51100000000E-03 0. -1.
         11   -1    0    0    0    0 -0.00000000000E+00 -0.00000000000E+00 -0.45593999997E+02  0.45594000000E+02  0.51100000000E-03 0.  1.
    9900012    2    1    2    0    0 -0.13938448185E+02  0.13727411229E+02  0.38741464617E+02  0.47787271463E+02  0.20000001909E+02 0.  0.
        -12    1    1    2    0    0  0.13938448185E+02 -0.13727411229E+02 -0.38741464617E+02  0.43400728537E+02  0.00000000000E+00 0.  1.
         11    1    3    3    0    0 -0.85729162906E+01  0.12614693968E+02  0.24125974358E+02  0.28542740524E+02  0.51100000000E-03 0. -1.
        -11    1    3    3    0    0 -0.67096616629E+01  0.52511176495E+00  0.27201841802E+01  0.72591118074E+01  0.51100000000E-03 0.  1.
         12    1    3    3    0    0  0.13441297690E+01  0.58760549595E+00  0.11895306079E+02  0.11985419132E+02  0.00000000000E+00 0. -1.
</event>
<event>
 7    1  0.2783785E-010  0.4778727E+02  0.7816164E-02  0.1312668E+00
        -11   -1    0    0    0    0  0.00000000000E+00  0.00000000000E+00  0.45593999997E+02  0.45594000000E+02  0.51100000000E-03 0. -1.
         11   -1    0    0    0    0 -0.00000000000E+00 -0.00000000000E+00 -0.45593999997E+02  0.45594000000E+02  0.51100000000E-03 0.  1.
    9900012    2    1    2    0    0  0.77698298598E+01 -0.54515050348E+01  0.42350136998E+02  0.47787271124E+02  0.20000000364E+02 0.  0.
        -12    1    1    2    0    0 -0.77698298598E+01  0.54515050348E+01 -0.42350136998E+02  0.43400728876E+02  0.00000000000E+00 0.  1.
         11    1    3    3    0    0  0.56911182274E+01 -0.25792292585E+01  0.96033551958E+01  0.11457123615E+02  0.51100000000E-03 0. -1.
        -11    1    3    3    0    0 -0.23047734715E+01 -0.59428070813E+01  0.29251580827E+02  0.29938001234E+02  0.51100000000E-03 0.  1.
        -12    1    3    3    0    0  0.43834851040E+01  0.30705313050E+01  0.34952009757E+01  0.63921462759E+01  0.00000000000E+00 0.  1.
</event>
<event>
 7    1  0.2783785E-010  0.4778728E+02  0.7816164E-02  0.1312668E+00
        -11   -1    0    0    0    0  0.00000000000E+00  0.00000000000E+00  0.45593999997E+02  0.45594000000E+02  0.51100000000E-03 0.  1.
         11   -1    0    0    0    0 -0.00000000000E+00 -0.00000000000E+00 -0.45593999997E+02  0.45594000000E+02  0.51100000000E-03 0. -1.
    9900012    2    1    2    0    0 -0.13957422091E+02  0.25829733552E+02 -0.31963073173E+02  0.47787276349E+02  0.20000024184E+02 0.  0.
        -12    1    1    2    0    0  0.13957422091E+02 -0.25829733552E+02  0.31963073173E+02  0.43400723651E+02  0.00000000000E+00 0.  1.
         11    1    3    3    0    0 -0.16303906035E+02  0.18936581494E+02 -0.15785578038E+02  0.29556656525E+02  0.51100000000E-03 0. -1.
        -11    1    3    3    0    0 -0.36991572705E+00  0.11112713912E+01 -0.44901942399E+00  0.12543446314E+01  0.51100000000E-03 0.  1.
        -12    1    3    3    0    0  0.27163996709E+01  0.57818806668E+01 -0.15728475711E+02  0.16976275193E+02  0.00000000000E+00 0.  1.
</event>
<event>
 7    1  0.2783785E-010  0.4778727E+02  0.7816164E-02  0.1312668E+00
        -11   -1    0    0    0    0  0.00000000000E+00  0.00000000000E+00  0.45593999997E+02  0.45594000000E+02  0.51100000000E-03 0.  1.
         11   -1    0    0    0    0 -0.00000000000E+00 -0.00000000000E+00 -0.45593999997E+02  0.45594000000E+02  0.51100000000E-03 0. -1.
    9900012    2    1    2    0    0  0.17267116104E+02  0.14274557763E+01 -0.39792370251E+02  0.47787266610E+02  0.19999979784E+02 0.  0.
        -12    1    1    2    0    0 -0.17267116104E+02 -0.14274557763E+01  0.39792370251E+02  0.43400733390E+02  0.00000000000E+00 0.  1.
         11    1    3    3    0    0  0.97855756330E+01  0.13912503256E+01 -0.10869295967E+02  0.14691312501E+02  0.51100000000E-03 0. -1.
        -11    1    3    3    0    0  0.19928134170E+01 -0.68886359046E+01 -0.11334310057E+02  0.13412352317E+02  0.51100000000E-03 0.  1.
         12    1    3    3    0    0  0.54887270537E+01  0.69248413553E+01 -0.17588764228E+02  0.19683601793E+02  0.00000000000E+00 0. -1.
</event>
<event>
 7    1  0.2783785E-010  0.4778727E+02  0.7816164E-02  0.1312668E+00
        -11   -1    0    0    0    0  0.00000000000E+00  0.00000000000E+00  0.45593999997E+02  0.45594000000E+02  0.51100000000E-03 0.  1.
         11   -1    0    0    0    0 -0.00000000000E+00 -0.00000000000E+00 -0.45593999997E+02  0.45594000000E+02  0.51100000000E-03 0. -1.
    9900012    2    1    2    0    0  0.16476033081E+02 -0.25527223251E+02 -0.30992324000E+02  0.47787274892E+02  0.20000017542E+02 0.  0.
        -12    1    1    2    0    0 -0.16476033081E+02  0.25527223251E+02  0.30992324000E+02  0.43400725108E+02  0.00000000000E+00 0.  1.
         11    1    3    3    0    0  0.23649764456E+01 -0.45675398470E+01 -0.52473796269E+01  0.73478246476E+01  0.51100000000E-03 0. -1.
        -11    1    3    3    0    0 -0.74224991006E+00 -0.14187995457E+02 -0.79068300907E+01  0.16259400738E+02  0.51100000000E-03 0.  1.
        -12    1    3    3    0    0  0.14853306546E+02 -0.67716879475E+01 -0.17838114282E+02  0.24180049507E+02  0.00000000000E+00 0.  1.
</event>
<event>
 7    1  0.2783785E-010  0.4778727E+02  0.7816164E-02  0.1312668E+00
        -11   -1    0    0    0    0  0.00000000000E+00  0.00000000000E+00  0.45593999997E+02  0.45594000000E+02  0.51100000000E-03 0.  1.
         11   -1    0    0    0    0 -0.00000000000E+00 -0.00000000000E+00 -0.45593999997E+02  0.45594000000E+02  0.51100000000E-03 0. -1.
    9900012    2    1    2    0    0 -0.26366745614E+02  0.71229871700E+01 -0.33729531332E+02  0.47787268389E+02  0.19999987893E+02 0.  0.
        -12    1    1    2    0    0  0.26366745614E+02 -0.71229871700E+01  0.33729531332E+02  0.43400731611E+02  0.00000000000E+00 0.  1.
         11    1    3    3    0    0 -0.14199504482E+02  0.68887276412E+01 -0.18541353621E+02  0.24348763632E+02  0.51100000000E-03 0. -1.
        -11    1    3    3    0    0 -0.17955689070E+01  0.41805564703E+01  0.95749774220E-01  0.45508557856E+01  0.51100000000E-03 0.  1.
        -12    1    3    3    0    0 -0.10371672225E+02 -0.39462969415E+01 -0.15283927485E+02  0.18887648971E+02  0.00000000000E+00 0.  1.
</event>
<event>
 7    1  0.2783785E-010  0.4778727E+02  0.7816164E-02  0.1312668E+00
        -11   -1    0    0    0    0  0.00000000000E+00  0.00000000000E+00  0.45593999997E+02  0.45594000000E+02  0.51100000000E-03 0. -1.
         11   -1    0    0    0    0 -0.00000000000E+00 -0.00000000000E+00 -0.45593999997E+02  0.45594000000E+02  0.51100000000E-03 0.  1.
    9900012    2    1    2    0    0  0.29950909795E+01 -0.67381163095E+01  0.42769738142E+02  0.47787270950E+02  0.19999999568E+02 0.  0.
        -12    1    1    2    0    0 -0.29950909795E+01  0.67381163095E+01 -0.42769738142E+02  0.43400729050E+02  0.00000000000E+00 0.  1.
         11    1    3    3    0    0  0.41190370156E+01 -0.23311990242E+01  0.11131614629E+02  0.12096024113E+02  0.51100000000E-03 0. -1.
        -11    1    3    3    0    0  0.67824219707E+01 -0.44273953454E+01  0.11583555458E+02  0.14134420209E+02  0.51100000000E-03 0.  1.
         12    1    3    3    0    0 -0.79063680068E+01  0.20478060097E-01  0.20054568055E+02  0.21556826628E+02  0.00000000000E+00 0. -1.
</event>
<event>
 7    1  0.2783785E-010  0.4778727E+02  0.7816164E-02  0.1312668E+00
        -11   -1    0    0    0    0  0.00000000000E+00  0.00000000000E+00  0.45593999997E+02  0.45594000000E+02  0.51100000000E-03 0. -1.
         11   -1    0    0    0    0 -0.00000000000E+00 -0.00000000000E+00 -0.45593999997E+02  0.45594000000E+02  0.51100000000E-03 0.  1.
    9900012    2    1    2    0    0 -0.39922251982E+02 -0.17354387245E+01  0.16935909614E+02  0.47787274368E+02  0.20000015155E+02 0.  0.
        -12    1    1    2    0    0  0.39922251982E+02  0.17354387245E+01 -0.16935909614E+02  0.43400725632E+02  0.00000000000E+00 0.  1.
         11    1    3    3    0    0 -0.19560953121E+02  0.45428479582E+01  0.43194851019E+01  0.20540844832E+02  0.51100000000E-03 0.  1.
        -11    1    3    3    0    0 -0.55398046823E+01 -0.11942803283E+00  0.93479645737E+01  0.10866836748E+02  0.51100000000E-03 0. -1.
         12    1    3    3    0    0 -0.14821494179E+02 -0.61588586499E+01  0.32684599386E+01  0.16379592789E+02  0.00000000000E+00 0. -1.
</event>
<event>
 7    1  0.2783785E-010  0.4778727E+02  0.7816164E-02  0.1312668E+00
        -11   -1    0    0    0    0  0.00000000000E+00  0.00000000000E+00  0.45593999997E+02  0.45594000000E+02  0.51100000000E-03 0.  1.
         11   -1    0    0    0    0 -0.00000000000E+00 -0.00000000000E+00 -0.45593999997E+02  0.45594000000E+02  0.51100000000E-03 0. -1.
    9900012    2    1    2    0    0 -0.25618721977E+02 -0.47290831868E+01 -0.34712249302E+02  0.47787269648E+02  0.19999993632E+02 0.  0.
        -12    1    1    2    0    0  0.25618721977E+02  0.47290831868E+01  0.34712249302E+02  0.43400730352E+02  0.00000000000E+00 0.  1.
         11    1    3    3    0    0 -0.22491534699E+01 -0.44140768743E+01 -0.48648296577E+01  0.69432941637E+01  0.51100000000E-03 0. -1.
        -11    1    3    3    0    0 -0.17299403260E+02  0.99340020704E+00 -0.29986294822E+02  0.34632846758E+02  0.51100000000E-03 0.  1.
        -12    1    3    3    0    0 -0.60701652465E+01 -0.13084065196E+01  0.13887517795E+00  0.62111287264E+01  0.00000000000E+00 0.  1.
</event>
<event>
 7    1  0.2783785E-010  0.4778726E+02  0.7816164E-02  0.1312668E+00
        -11   -1    0    0    0    0  0.00000000000E+00  0.00000000000E+00  0.45593999997E+02  0.45594000000E+02  0.51100000000E-03 0.  1.
         11   -1    0    0    0    0 -0.00000000000E+00 -0.00000000000E+00 -0.45593999997E+02  0.45594000000E+02  0.51100000000E-03 0. -1.
    9900012    2    1    2    0    0  0.31617218901E+02 -0.24632831643E+02 -0.16649301584E+02  0.47787260732E+02  0.19999952980E+02 0.  0.
        -12    1    1    2    0    0 -0.31617218901E+02  0.24632831643E+02  0.16649301584E+02  0.43400739268E+02  0.00000000000E+00 0.  1.
         11    1    3    3    0    0  0.11716141084E+02 -0.50512681140E+01 -0.15277337506E+01  0.12849795412E+02  0.51100000000E-03 0. -1.
        -11    1    3    3    0    0  0.42082075737E+00  0.15989942577E+01  0.10200696392E+01  0.19427853911E+01  0.51100000000E-03 0.  1.
        -12    1    3    3    0    0  0.19480257060E+02 -0.21180557787E+02 -0.16141637473E+02  0.32994679928E+02  0.00000000000E+00 0.  1.
</event>
<event>
 7    1  0.2783785E-010  0.4778726E+02  0.7816164E-02  0.1312668E+00
        -11   -1    0    0    0    0  0.00000000000E+00  0.00000000000E+00  0.45593999997E+02  0.45594000000E+02  0.51100000000E-03 0.  1.
         11   -1    0    0    0    0 -0.00000000000E+00 -0.00000000000E+00 -0.45593999997E+02  0.45594000000E+02  0.51100000000E-03 0. -1.
    9900012    2    1    2    0    0  0.16896775531E+02  0.39521961084E+02 -0.60114578612E+01  0.47787262024E+02  0.19999958871E+02 0.  0.
        -12    1    1    2    0    0 -0.16896775531E+02 -0.39521961084E+02  0.60114578612E+01  0.43400737976E+02  0.00000000000E+00 0.  1.
         11    1    3    3    0    0 -0.13072104803E+01  0.69022721103E+01  0.24501037730E+01  0.74399709868E+01  0.51100000000E-03 0.  1.
        -11    1    3    3    0    0  0.23124846999E+00  0.67499735106E+01 -0.54964830905E+01  0.87078668383E+01  0.51100000000E-03 0. -1.
        -12    1    3    3    0    0  0.17972737541E+02  0.25869715463E+02 -0.29650785437E+01  0.31639424199E+02  0.00000000000E+00 0.  1.
</event>
<event>
 7    1  0.2783785E-010  0.4778727E+02  0.7816164E-02  0.1312668E+00
        -11   -1    0    0    0    0  0.00000000000E+00  0.00000000000E+00  0.45593999997E+02  0.45594000000E+02  0.51100000000E-03 0. -1.
         11   -1    0    0    0    0 -0.00000000000E+00 -0.00000000000E+00 -0.45593999997E+02  0.45594000000E+02  0.51100000000E-03 0.  1.
    9900012    2    1    2    0    0 -0.30035604976E+02 -0.82342378343E+01  0.30227191845E+02  0.47787269985E+02  0.19999995169E+02 0.  0.
        -12    1    1    2    0    0  0.30035604976E+02  0.82342378343E+01 -0.30227191845E+02  0.43400730015E+02  0.00000000000E+00 0.  1.
         11    1    3    3    0    0 -0.56817293605E+01  0.81317529420E+00 -0.11263981196E+01  0.58491089552E+01  0.51100000000E-03 0.  1.
        -11    1    3    3    0    0 -0.20109988051E+02 -0.31306919718E+01  0.20658863612E+02  0.29000025821E+02  0.51100000000E-03 0. -1.
        -12    1    3    3    0    0 -0.42438875643E+01 -0.59167211568E+01  0.10694726353E+02  0.12938135208E+02  0.00000000000E+00 0.  1.
</event>
<event>
 7    1  0.2783785E-010  0.4778727E+02  0.7816164E-02  0.1312668E+00
        -11   -1    0    0    0    0  0.00000000000E+00  0.00000000000E+00  0.45593999997E+02  0.45594000000E+02  0.51100000000E-03 0.  1.
         11   -1    0    0    0    0 -0.00000000000E+00 -0.00000000000E+00 -0.45593999997E+02  0.45594000000E+02  0.51100000000E-03 0. -1.
    9900012    2    1    2    0    0  0.36628490189E+02 -0.77989613375E+01 -0.21935203182E+02  0.47787271549E+02  0.20000002301E+02 0.  0.
        -12    1    1    2    0    0 -0.36628490189E+02  0.77989613375E+01  0.21935203182E+02  0.43400728451E+02  0.00000000000E+00 0.  1.
         11    1    3    3    0    0  0.29455785843E+01 -0.20025142717E+01  0.13276622116E+01  0.38012082045E+01  0.51100000000E-03 0. -1.
        -11    1    3    3    0    0  0.59339801084E+01 -0.33758599406E+01  0.11794114686E+01  0.69281716159E+01  0.51100000000E-03 0.  1.
         12    1    3    3    0    0  0.27748931496E+02 -0.24205871252E+01 -0.24442276862E+02  0.37057891729E+02  0.00000000000E+00 0. -1.
</event>
<event>
 7    1  0.2783785E-010  0.4778728E+02  0.7816164E-02  0.1312668E+00
        -11   -1    0    0    0    0  0.00000000000E+00  0.00000000000E+00  0.45593999997E+02  0.45594000000E+02  0.51100000000E-03 0. -1.
         11   -1    0    0    0    0 -0.00000000000E+00 -0.00000000000E+00 -0.45593999997E+02  0.45594000000E+02  0.51100000000E-03 0.  1.
    9900012    2    1    2    0    0 -0.29109434190E+02 -0.96198905213E+01  0.30720048126E+02  0.47787276396E+02  0.20000024400E+02 0.  0.
        -12    1    1    2    0    0  0.29109434190E+02  0.96198905213E+01 -0.30720048126E+02  0.43400723604E+02  0.00000000000E+00 0.  1.
         11    1    3    3    0    0 -0.10647035066E+02 -0.19861345046E+01  0.10978538824E+02  0.15421815747E+02  0.51100000000E-03 0. -1.
        -11    1    3    3    0    0 -0.32589536290E+01  0.46862568419E+00 -0.25700792977E+01  0.41768045975E+01  0.51100000000E-03 0.  1.
        -12    1    3    3    0    0 -0.15203445494E+02 -0.81023817009E+01  0.22311588600E+02  0.28188656051E+02  0.00000000000E+00 0.  1.
</event>
<event>
 7    1  0.2783785E-010  0.4778728E+02  0.7816164E-02  0.1312668E+00
        -11   -1    0    0    0    0  0.00000000000E+00  0.00000000000E+00  0.45593999997E+02  0.45594000000E+02  0.51100000000E-03 0. -1.
         11   -1    0    0    0    0 -0.00000000000E+00 -0.00000000000E+00 -0.45593999997E+02  0.45594000000E+02  0.51100000000E-03 0.  1.
    9900012    2    1    2    0    0 -0.26148233831E+02  0.34542731090E+02 -0.25868391895E+01  0.47787284100E+02  0.20000059526E+02 0.  0.
        -12    1    1    2    0    0  0.26148233831E+02 -0.34542731090E+02  0.25868391895E+01  0.43400715900E+02  0.00000000000E+00 0.  1.
         11    1    3    3    0    0 -0.10514193391E+02  0.21550778760E+02 -0.40211251578E+01  0.24313654098E+02  0.51100000000E-03 0. -1.
        -11    1    3    3    0    0 -0.92647908921E+01  0.12234486540E+02  0.49929619733E+01  0.16138422497E+02  0.51100000000E-03 0.  1.
        -12    1    3    3    0    0 -0.63692495483E+01  0.75746579025E+00 -0.35586760051E+01  0.73352075050E+01  0.00000000000E+00 0.  1.
</event>
<event>
 7    1  0.2783785E-010  0.4778727E+02  0.7816164E-02  0.1312668E+00
        -11   -1    0    0    0    0  0.00000000000E+00  0.00000000000E+00  0.45593999997E+02  0.45594000000E+02  0.51100000000E-03 0.  1.
         11   -1    0    0    0    0 -0.00000000000E+00 -0.00000000000E+00 -0.45593999997E+02  0.45594000000E+02  0.51100000000E-03 0. -1.
    9900012    2    1    2    0    0 -0.40330389726E+02  0.13693398980E+02 -0.83410939883E+01  0.47787270052E+02  0.19999995474E+02 0.  0.
        -12    1    1    2    0    0  0.40330389726E+02 -0.13693398980E+02  0.83410939883E+01  0.43400729948E+02  0.00000000000E+00 0.  1.
         11    1    3    3    0    0 -0.13030852815E+02  0.42550091513E+00 -0.10515176032E+02  0.16749719501E+02  0.51100000000E-03 0. -1.
        -11    1    3    3    0    0 -0.44240937959E+01  0.45934169924E+01  0.15573078836E+01  0.65648529067E+01  0.51100000000E-03 0.  1.
         12    1    3    3    0    0 -0.22875443116E+02  0.86744810728E+01  0.61677415998E+00  0.24472697644E+02  0.00000000000E+00 0. -1.
</event>
<event>
 7    1  0.2783785E-010  0.4778727E+02  0.7816164E-02  0.1312668E+00
        -11   -1    0    0    0    0  0.00000000000E+00  0.00000000000E+00  0.45593999997E+02  0.45594000000E+02  0.51100000000E-03 0. -1.
         11   -1    0    0    0    0 -0.00000000000E+00 -0.00000000000E+00 -0.45593999997E+02  0.45594000000E+02  0.51100000000E-03 0.  1.
    9900012    2    1    2    0    0 -0.12115482718E+02  0.14526565497E+02  0.39061709184E+02  0.47787272460E+02  0.20000006455E+02 0.  0.
        -12    1    1    2    0    0  0.12115482718E+02 -0.14526565497E+02 -0.39061709184E+02  0.43400727540E+02  0.00000000000E+00 0.  1.
         11    1    3    3    0    0 -0.94403979236E+01  0.71802932476E+01  0.15186045852E+02  0.19268983184E+02  0.51100000000E-03 0. -1.
        -11    1    3    3    0    0 -0.70629606236E+01  0.30349153907E+01  0.19524685596E+02  0.20983552418E+02  0.51100000000E-03 0.  1.
         12    1    3    3    0    0  0.43878758297E+01  0.43113568584E+01  0.43509777363E+01  0.75347368580E+01  0.00000000000E+00 0. -1.
</event>
<event>
 7    1  0.2783785E-010  0.4778726E+02  0.7816164E-02  0.1312668E+00
        -11   -1    0    0    0    0  0.00000000000E+00  0.00000000000E+00  0.45593999997E+02  0.45594000000E+02  0.51100000000E-03 0. -1.
         11   -1    0    0    0    0 -0.00000000000E+00 -0.00000000000E+00 -0.45593999997E+02  0.45594000000E+02  0.51100000000E-03 0.  1.
    9900012    2    1    2    0    0 -0.39985860906E+02  0.16798333318E+02  0.16033974851E+01  0.47787263161E+02  0.19999964056E+02 0.  0.
        -12    1    1    2    0    0  0.39985860906E+02 -0.16798333318E+02 -0.16033974851E+01  0.43400736839E+02  0.00000000000E+00 0.  1.
         11    1    3    3    0    0 -0.73488811144E+01  0.66136825190E+01  0.56983718759E+01  0.11411322990E+02  0.51100000000E-03 0. -1.
        -11    1    3    3    0    0 -0.22691282929E+02  0.12537391081E+02 -0.29267460200E+01  0.26089199654E+02  0.51100000000E-03 0.  1.
         12    1    3    3    0    0 -0.99456968631E+01 -0.23527402815E+01 -0.11682283708E+01  0.10286740516E+02  0.00000000000E+00 0. -1.
</event>
<event>
 7    1  0.2783785E-010  0.4778727E+02  0.7816164E-02  0.1312668E+00
        -11   -1    0    0    0    0  0.00000000000E+00  0.00000000000E+00  0.45593999997E+02  0.45594000000E+02  0.51100000000E-03 0. -1.
         11   -1    0    0    0    0 -0.00000000000E+00 -0.00000000000E+00 -0.45593999997E+02  0.45594000000E+02  0.51100000000E-03 0.  1.
    9900012    2    1    2    0    0 -0.71457633620E+01  0.21948823373E+02  0.36753372379E+02  0.47787272325E+02  0.20000005839E+02 0.  0.
        -12    1    1    2    0    0  0.71457633620E+01 -0.21948823373E+02 -0.36753372379E+02  0.43400727675E+02  0.00000000000E+00 0.  1.
         11    1    3    3    0    0 -0.12585486568E+02  0.18211038499E+02  0.21877096027E+02  0.31123041724E+02  0.51100000000E-03 0. -1.
        -11    1    3    3    0    0  0.30428721071E+01  0.40762128637E+01  0.98898234537E+01  0.11121294447E+02  0.51100000000E-03 0.  1.
         12    1    3    3    0    0  0.23968510991E+01 -0.33842798910E+00  0.49864528984E+01  0.55429361536E+01  0.00000000000E+00 0. -1.
</event>
<event>
 7    1  0.2783785E-010  0.4778727E+02  0.7816164E-02  0.1312668E+00
        -11   -1    0    0    0    0  0.00000000000E+00  0.00000000000E+00  0.45593999997E+02  0.45594000000E+02  0.51100000000E-03 0.  1.
         11   -1    0    0    0    0 -0.00000000000E+00 -0.00000000000E+00 -0.45593999997E+02  0.45594000000E+02  0.51100000000E-03 0. -1.
    9900012    2    1    2    0    0  0.93649827236E+01 -0.24003209569E+02 -0.34925153276E+02  0.47787270716E+02  0.19999998502E+02 0.  0.
        -12    1    1    2    0    0 -0.93649827236E+01  0.24003209569E+02  0.34925153276E+02  0.43400729284E+02  0.00000000000E+00 0.  1.
         11    1    3    3    0    0  0.75144251106E+01 -0.26317561388E+02 -0.27013275469E+02  0.38455138460E+02  0.51100000000E-03 0. -1.
        -11    1    3    3    0    0 -0.28849486028E+00  0.81962127606E+00  0.12897316128E+00  0.87843193136E+00  0.51100000000E-03 0.  1.
         12    1    3    3    0    0  0.21390524733E+01  0.14947305427E+01 -0.80408509688E+01  0.84537003248E+01  0.00000000000E+00 0. -1.
</event>
<event>
 7    1  0.2783785E-010  0.4778726E+02  0.7816164E-02  0.1312668E+00
        -11   -1    0    0    0    0  0.00000000000E+00  0.00000000000E+00  0.45593999997E+02  0.45594000000E+02  0.51100000000E-03 0. -1.
         11   -1    0    0    0    0 -0.00000000000E+00 -0.00000000000E+00 -0.45593999997E+02  0.45594000000E+02  0.51100000000E-03 0.  1.
    9900012    2    1    2    0    0 -0.21458779570E+02  0.36850350139E+02 -0.80744593145E+01  0.47787257850E+02  0.19999939839E+02 0.  0.
        -12    1    1    2    0    0  0.21458779570E+02 -0.36850350139E+02  0.80744593145E+01  0.43400742150E+02  0.00000000000E+00 0.  1.
         11    1    3    3    0    0  0.78985724945E+00  0.11100534706E+01 -0.31639671844E+01  0.34448195580E+01  0.51100000000E-03 0. -1.
        -11    1    3    3    0    0  0.17491385434E+01  0.26399670695E+01 -0.68765483212E+00  0.32406451829E+01  0.51100000000E-03 0.  1.
         12    1    3    3    0    0 -0.23997775363E+02  0.33100329599E+02 -0.42228372980E+01  0.41101793109E+02  0.00000000000E+00 0. -1.
</event>
<event>
 7    1  0.2783785E-010  0.4778727E+02  0.7816164E-02  0.1312668E+00
        -11   -1    0    0    0    0  0.00000000000E+00  0.00000000000E+00  0.45593999997E+02  0.45594000000E+02  0.51100000000E-03 0.  1.
         11   -1    0    0    0    0 -0.00000000000E+00 -0.00000000000E+00 -0.45593999997E+02  0.45594000000E+02  0.51100000000E-03 0. -1.
    9900012    2    1    2    0    0 -0.12031330480E+02 -0.36783218641E+02 -0.19643451104E+02  0.47787271228E+02  0.20000000836E+02 0.  0.
        -12    1    1    2    0    0  0.12031330480E+02  0.36783218641E+02  0.19643451104E+02  0.43400728772E+02  0.00000000000E+00 0.  1.
         11    1    3    3    0    0 -0.49438257379E+01 -0.27028563038E+02 -0.99514308354E+01  0.29223545452E+02  0.51100000000E-03 0. -1.
        -11    1    3    3    0    0 -0.48686541227E+01 -0.11037865736E+02 -0.46905520487E+01  0.12943707033E+02  0.51100000000E-03 0.  1.
        -12    1    3    3    0    0 -0.22188506194E+01  0.12832101337E+01 -0.50014682196E+01  0.56200187429E+01  0.00000000000E+00 0.  1.
</event>
<event>
 7    1  0.2783785E-010  0.4778727E+02  0.7816164E-02  0.1312668E+00
        -11   -1    0    0    0    0  0.00000000000E+00  0.00000000000E+00  0.45593999997E+02  0.45594000000E+02  0.51100000000E-03 0.  1.
         11   -1    0    0    0    0 -0.00000000000E+00 -0.00000000000E+00 -0.45593999997E+02  0.45594000000E+02  0.51100000000E-03 0. -1.
    9900012    2    1    2    0    0 -0.30273406705E+02 -0.24274050700E+02 -0.19440028811E+02  0.47787269464E+02  0.19999992792E+02 0.  0.
        -12    1    1    2    0    0  0.30273406705E+02  0.24274050700E+02  0.19440028811E+02  0.43400730536E+02  0.00000000000E+00 0.  1.
         11    1    3    3    0    0 -0.11013465063E+02 -0.31960874922E+01 -0.86684753729E+01  0.14375460114E+02  0.51100000000E-03 0. -1.
        -11    1    3    3    0    0  0.19726186173E+01 -0.36533658097E+01 -0.11483597817E+01  0.43077878775E+01  0.51100000000E-03 0.  1.
         12    1    3    3    0    0 -0.21232560260E+02 -0.17424597398E+02 -0.96231936561E+01  0.29104021472E+02  0.00000000000E+00 0. -1.
</event>
<event>
 7    1  0.2783785E-010  0.4778727E+02  0.7816164E-02  0.1312668E+00
        -11   -1    0    0    0    0  0.00000000000E+00  0.00000000000E+00  0.45593999997E+02  0.45594000000E+02  0.51100000000E-03 0. -1.
         11   -1    0    0    0    0 -0.00000000000E+00 -0.00000000000E+00 -0.45593999997E+02  0.45594000000E+02  0.51100000000E-03 0.  1.
    9900012    2    1    2    0    0  0.18775487396E+02 -0.32098088830E+02  0.22378946403E+02  0.47787268720E+02  0.19999989404E+02 0.  0.
        -12    1    1    2    0    0 -0.18775487396E+02  0.32098088830E+02 -0.22378946403E+02  0.43400731280E+02  0.00000000000E+00 0.  1.
         11    1    3    3    0    0 -0.20792427213E+01 -0.44895400488E+01  0.68038372971E+01  0.84125752520E+01  0.51100000000E-03 0. -1.
        -11    1    3    3    0    0  0.10263313520E+02 -0.21716441686E+02  0.11021120263E+02  0.26427344475E+02  0.51100000000E-03 0.  1.
        -12    1    3    3    0    0  0.10591416598E+02 -0.58921070953E+01  0.45539888424E+01  0.12947348993E+02  0.00000000000E+00 0.  1.
</event>
<event>
 7    1  0.2783785E-010  0.4778727E+02  0.7816164E-02  0.1312668E+00
        -11   -1    0    0    0    0  0.00000000000E+00  0.00000000000E+00  0.45593999997E+02  0.45594000000E+02  0.51100000000E-03 0. -1.
         11   -1    0    0    0    0 -0.00000000000E+00 -0.00000000000E+00 -0.45593999997E+02  0.45594000000E+02  0.51100000000E-03 0.  1.
    9900012    2    1    2    0    0  0.42864626665E+02 -0.10495724795E+01 -0.67190350423E+01  0.47787271280E+02  0.20000001072E+02 0.  0.
        -12    1    1    2    0    0 -0.42864626665E+02  0.10495724795E+01  0.67190350423E+01  0.43400728720E+02  0.00000000000E+00 0.  1.
         11    1    3    3    0    0  0.13110493051E+02 -0.31680574695E+00  0.61822635145E+01  0.14498474966E+02  0.51100000000E-03 0.  1.
        -11    1    3    3    0    0  0.87441504427E+01 -0.35498048407E+01 -0.48764802680E+01  0.10622680520E+02  0.51100000000E-03 0. -1.
        -12    1    3    3    0    0  0.21009983172E+02  0.28170381082E+01 -0.80248182888E+01  0.22666115793E+02  0.00000000000E+00 0.  1.
</event>
<event>
 7    1  0.2783785E-010  0.4778725E+02  0.7816164E-02  0.1312668E+00
        -11   -1    0    0    0    0  0.00000000000E+00  0.00000000000E+00  0.45593999997E+02  0.45594000000E+02  0.51100000000E-03 0.  1.
         11   -1    0    0    0    0 -0.00000000000E+00 -0.00000000000E+00 -0.45593999997E+02  0.45594000000E+02  0.51100000000E-03 0. -1.
    9900012    2    1    2    0    0  0.15823058318E+02 -0.14515367211E+02  0.37716845762E+02  0.47787245237E+02  0.19999882332E+02 0.  0.
        -12    1    1    2    0    0 -0.15823058318E+02  0.14515367211E+02 -0.37716845762E+02  0.43400754763E+02  0.00000000000E+00 0.  1.
         11    1    3    3    0    0  0.48152072058E+01 -0.85588405875E+00  0.16530676823E+02  0.17238968486E+02  0.51100000000E-03 0. -1.
        -11    1    3    3    0    0  0.26245290001E+01 -0.83473073800E+01  0.20432694338E+01  0.89855797369E+01  0.51100000000E-03 0.  1.
        -12    1    3    3    0    0  0.83833221116E+01 -0.53121757727E+01  0.19142899505E+02  0.21562697014E+02  0.00000000000E+00 0.  1.
</event>
<event>
 7    1  0.2783785E-010  0.4778726E+02  0.7816164E-02  0.1312668E+00
        -11   -1    0    0    0    0  0.00000000000E+00  0.00000000000E+00  0.45593999997E+02  0.45594000000E+02  0.51100000000E-03 0. -1.
         11   -1    0    0    0    0 -0.00000000000E+00 -0.00000000000E+00 -0.45593999997E+02  0.45594000000E+02  0.51100000000E-03 0.  1.
    9900012    2    1    2    0    0  0.41175412307E+02  0.10618294055E+02  0.86868388049E+01  0.47787263650E+02  0.19999966284E+02 0.  0.
        -12    1    1    2    0    0 -0.41175412307E+02 -0.10618294055E+02 -0.86868388049E+01  0.43400736350E+02  0.00000000000E+00 0.  1.
         11    1    3    3    0    0  0.43427239638E+00 -0.14783938303E+01 -0.23410079850E+01  0.28025987009E+01  0.51100000000E-03 0. -1.
        -11    1    3    3    0    0  0.21937101585E+02  0.47454639147E+01  0.10632965257E+01  0.22469678535E+02  0.51100000000E-03 0.  1.
         12    1    3    3    0    0  0.18804038326E+02  0.73512239711E+01  0.99645502642E+01  0.22514986414E+02  0.00000000000E+00 0. -1.
</event>
<event>
 7    1  0.2783785E-010  0.4778727E+02  0.7816164E-02  0.1312668E+00
        -11   -1    0    0    0    0  0.00000000000E+00  0.00000000000E+00  0.45593999997E+02  0.45594000000E+02  0.51100000000E-03 0. -1.
         11   -1    0    0    0    0 -0.00000000000E+00 -0.00000000000E+00 -0.45593999997E+02  0.45594000000E+02  0.51100000000E-03 0.  1.
    9900012    2    1    2    0    0 -0.12187300877E+02  0.17369647332E+02  0.37860116721E+02  0.47787269716E+02  0.19999993943E+02 0.  0.
        -12    1    1    2    0    0  0.12187300877E+02 -0.17369647332E+02 -0.37860116721E+02  0.43400730284E+02  0.00000000000E+00 0.  1.
         11    1    3    3    0    0 -0.77765033919E+01  0.70023987875E+01  0.22730158683E+02  0.25023343258E+02  0.51100000000E-03 0. -1.
        -11    1    3    3    0    0 -0.82494456116E+01  0.33675108664E+01  0.66566145872E+01  0.11122230008E+02  0.51100000000E-03 0.  1.
        -12    1    3    3    0    0  0.38386481267E+01  0.69997376779E+01  0.84733434505E+01  0.11641696450E+02  0.00000000000E+00 0.  1.
</event>
<event>
 7    1  0.2783785E-010  0.4778727E+02  0.7816164E-02  0.1312668E+00
        -11   -1    0    0    0    0  0.00000000000E+00  0.00000000000E+00  0.45593999997E+02  0.45594000000E+02  0.51100000000E-03 0.  1.
         11   -1    0    0    0    0 -0.00000000000E+00 -0.00000000000E+00 -0.45593999997E+02  0.45594000000E+02  0.51100000000E-03 0. -1.
    9900012    2    1    2    0    0  0.29229965356E+02  0.32015866548E+02  0.20534365703E+01  0.47787272042E+02  0.20000004547E+02 0.  0.
        -12    1    1    2    0    0 -0.29229965356E+02 -0.32015866548E+02 -0.20534365703E+01  0.43400727958E+02  0.00000000000E+00 0.  1.
         11    1    3    3    0    0  0.10832757358E+02  0.13166847841E+02 -0.33574463819E+01  0.17377772023E+02  0.51100000000E-03 0. -1.
        -11    1    3    3    0    0  0.13827235386E+02  0.51886842964E+01  0.61223829322E+01  0.15987446831E+02  0.51100000000E-03 0.  1.
        -12    1    3    3    0    0  0.45699726120E+01  0.13660334411E+02 -0.71149998002E+00  0.14422053187E+02  0.00000000000E+00 0.  1.
</event>
<event>
 7    1  0.2783785E-010  0.4778727E+02  0.7816164E-02  0.1312668E+00
        -11   -1    0    0    0    0  0.00000000000E+00  0.00000000000E+00  0.45593999997E+02  0.45594000000E+02  0.51100000000E-03 0. -1.
         11   -1    0    0    0    0 -0.00000000000E+00 -0.00000000000E+00 -0.45593999997E+02  0.45594000000E+02  0.51100000000E-03 0.  1.
    9900012    2    1    2    0    0  0.37967869897E+02  0.20080458946E+02 -0.62321417440E+01  0.47787267670E+02  0.19999984616E+02 0.  0.
        -12    1    1    2    0    0 -0.37967869897E+02 -0.20080458946E+02  0.62321417440E+01  0.43400732330E+02  0.00000000000E+00 0.  1.
         11    1    3    3    0    0  0.13575745470E+02 -0.18770727582E+01 -0.31776583093E+01  0.14068467571E+02  0.51100000000E-03 0. -1.
        -11    1    3    3    0    0  0.21601963609E+01  0.55088522353E+01 -0.81173552088E+00  0.59726724408E+01  0.51100000000E-03 0.  1.
         12    1    3    3    0    0  0.22231928066E+02  0.16448679469E+02 -0.22427479138E+01  0.27746127658E+02  0.00000000000E+00 0. -1.
</event>
<event>
 7    1  0.2783785E-010  0.4778727E+02  0.7816164E-02  0.1312668E+00
        -11   -1    0    0    0    0  0.00000000000E+00  0.00000000000E+00  0.45593999997E+02  0.45594000000E+02  0.51100000000E-03 0. -1.
         11   -1    0    0    0    0 -0.00000000000E+00 -0.00000000000E+00 -0.45593999997E+02  0.45594000000E+02  0.51100000000E-03 0.  1.
    9900012    2    1    2    0    0 -0.37988136006E+02 -0.20131848721E+02  0.59357517661E+01  0.47787274670E+02  0.20000016529E+02 0.  0.
        -12    1    1    2    0    0  0.37988136006E+02  0.20131848721E+02 -0.59357517661E+01  0.43400725330E+02  0.00000000000E+00 0.  1.
         11    1    3    3    0    0 -0.10467751480E+01  0.17027363510E+01  0.29630250875E+01  0.35741526579E+01  0.51100000000E-03 0. -1.
        -11    1    3    3    0    0 -0.21026717843E+02 -0.11732898960E+02  0.67102582531E+01  0.24996226662E+02  0.51100000000E-03 0.  1.
        -12    1    3    3    0    0 -0.15914643016E+02 -0.10101686112E+02 -0.37375315745E+01  0.19216895350E+02  0.00000000000E+00 0.  1.
</event>
<event>
 7    1  0.2783785E-010  0.4778727E+02  0.7816164E-02  0.1312668E+00
        -11   -1    0    0    0    0  0.00000000000E+00  0.00000000000E+00  0.45593999997E+02  0.45594000000E+02  0.51100000000E-03 0. -1.
         11   -1    0    0    0    0 -0.00000000000E+00 -0.00000000000E+00 -0.45593999997E+02  0.45594000000E+02  0.51100000000E-03 0.  1.
    9900012    2    1    2    0    0 -0.11235279549E+02  0.30724025974E+02  0.28520626037E+02  0.47787269728E+02  0.19999993999E+02 0.  0.
        -12    1    1    2    0    0  0.11235279549E+02 -0.30724025974E+02 -0.28520626037E+02  0.43400730272E+02  0.00000000000E+00 0.  1.
         11    1    3    3    0    0 -0.12600949752E+02  0.12141303980E+02  0.11663697002E+02  0.21029432351E+02  0.51100000000E-03 0. -1.
        -11    1    3    3    0    0 -0.34314308501E+01  0.96948779816E+01  0.59012512745E+01  0.11857071461E+02  0.51100000000E-03 0.  1.
        -12    1    3    3    0    0  0.47971010535E+01  0.88878440126E+01  0.10955677760E+02  0.14900765916E+02  0.00000000000E+00 0.  1.
</event>
<event>
 7    1  0.2783785E-010  0.4778727E+02  0.7816164E-02  0.1312668E+00
        -11   -1    0    0    0    0  0.00000000000E+00  0.00000000000E+00  0.45593999997E+02  0.45594000000E+02  0.51100000000E-03 0.  1.
         11   -1    0    0    0    0 -0.00000000000E+00 -0.00000000000E+00 -0.45593999997E+02  0.45594000000E+02  0.51100000000E-03 0. -1.
    9900012    2    1    2    0    0  0.20550532959E+01 -0.14754736626E+02 -0.40763927651E+02  0.47787270807E+02  0.19999998919E+02 0.  0.
        -12    1    1    2    0    0 -0.20550532959E+01  0.14754736626E+02  0.40763927651E+02  0.43400729193E+02  0.00000000000E+00 0.  1.
         11    1    3    3    0    0 -0.40703860831E+01  0.28243300005E+01 -0.13505074135E+02  0.14385128101E+02  0.51100000000E-03 0.  1.
        -11    1    3    3    0    0  0.37292678006E+01 -0.52618512765E+01 -0.65779610106E+01  0.92121706727E+01  0.51100000000E-03 0. -1.
         12    1    3    3    0    0  0.23961715784E+01 -0.12317215350E+02 -0.20680892505E+02  0.24189972034E+02  0.00000000000E+00 0. -1.
</event>
<event>
 7    1  0.2783785E-010  0.4778727E+02  0.7816164E-02  0.1312668E+00
        -11   -1    0    0    0    0  0.00000000000E+00  0.00000000000E+00  0.45593999997E+02  0.45594000000E+02  0.51100000000E-03 0.  1.
         11   -1    0    0    0    0 -0.00000000000E+00 -0.00000000000E+00 -0.45593999997E+02  0.45594000000E+02  0.51100000000E-03 0. -1.
    9900012    2    1    2    0    0 -0.34635039271E+02  0.96448837714E+01 -0.24310766783E+02  0.47787272934E+02  0.20000008617E+02 0.  0.
        -12    1    1    2    0    0  0.34635039271E+02 -0.96448837714E+01  0.24310766783E+02  0.43400727066E+02  0.00000000000E+00 0.  1.
         11    1    3    3    0    0 -0.30817390657E+02  0.50389475950E+01 -0.15221278500E+02  0.34738881375E+02  0.51100000000E-03 0. -1.
        -11    1    3    3    0    0  0.43428712742E+00 -0.70786304461E+00  0.72689377068E+00  0.11036531221E+01  0.51100000000E-03 0.  1.
         12    1    3    3    0    0 -0.42519357413E+01  0.53137992210E+01 -0.98163820540E+01  0.11944738437E+02  0.00000000000E+00 0. -1.
</event>
<event>
 7    1  0.2783785E-010  0.4778727E+02  0.7816164E-02  0.1312668E+00
        -11   -1    0    0    0    0  0.00000000000E+00  0.00000000000E+00  0.45593999997E+02  0.45594000000E+02  0.51100000000E-03 0.  1.
         11   -1    0    0    0    0 -0.00000000000E+00 -0.00000000000E+00 -0.45593999997E+02  0.45594000000E+02  0.51100000000E-03 0. -1.
    9900012    2    1    2    0    0  0.38849014680E+02 -0.15318545436E+02  0.11820312586E+02  0.47787267685E+02  0.19999984683E+02 0.  0.
        -12    1    1    2    0    0 -0.38849014680E+02  0.15318545436E+02 -0.11820312586E+02  0.43400732315E+02  0.00000000000E+00 0.  1.
         11    1    3    3    0    0  0.28586533141E+02 -0.18043398531E+02  0.10450560287E+02  0.35383164332E+02  0.51100000000E-03 0. -1.
        -11    1    3    3    0    0 -0.81270104645E+00  0.28362762195E+00 -0.35791992788E+00  0.93222022866E+00  0.51100000000E-03 0.  1.
        -12    1    3    3    0    0  0.11075182585E+02  0.24412254727E+01  0.17276722262E+01  0.11471883125E+02  0.00000000000E+00 0.  1.
</event>
<event>
 7    1  0.2783785E-010  0.4778726E+02  0.7816164E-02  0.1312668E+00
        -11   -1    0    0    0    0  0.00000000000E+00  0.00000000000E+00  0.45593999997E+02  0.45594000000E+02  0.51100000000E-03 0.  1.
         11   -1    0    0    0    0 -0.00000000000E+00 -0.00000000000E+00 -0.45593999997E+02  0.45594000000E+02  0.51100000000E-03 0. -1.
    9900012    2    1    2    0    0  0.28622758303E+02 -0.18693454646E+02 -0.26737924410E+02  0.47787261052E+02  0.19999954443E+02 0.  0.
        -12    1    1    2    0    0 -0.28622758303E+02  0.18693454646E+02  0.26737924410E+02  0.43400738948E+02  0.00000000000E+00 0.  1.
         11    1    3    3    0    0  0.33293873027E+01 -0.68274545724E+01 -0.58568582632E+01  0.95917539963E+01  0.51100000000E-03 0. -1.
        -11    1    3    3    0    0  0.83411845996E+01  0.49869921383E+00  0.32622474427E+00  0.83624448743E+01  0.51100000000E-03 0.  1.
        -12    1    3    3    0    0  0.16952186400E+02 -0.12364699287E+02 -0.21207290891E+02  0.29833062182E+02  0.00000000000E+00 0.  1.
</event>
<event>
 7    1  0.2783785E-010  0.4778727E+02  0.7816164E-02  0.1312668E+00
        -11   -1    0    0    0    0  0.00000000000E+00  0.00000000000E+00  0.45593999997E+02  0.45594000000E+02  0.51100000000E-03 0.  1.
         11   -1    0    0    0    0 -0.00000000000E+00 -0.00000000000E+00 -0.45593999997E+02  0.45594000000E+02  0.51100000000E-03 0. -1.
    9900012    2    1    2    0    0  0.18876338711E+02 -0.39080572291E+02 -0.12663843751E+00  0.47787270386E+02  0.19999996996E+02 0.  0.
        -12    1    1    2    0    0 -0.18876338711E+02  0.39080572291E+02  0.12663843751E+00  0.43400729614E+02  0.00000000000E+00 0.  1.
         11    1    3    3    0    0  0.69525066726E+01 -0.10349076274E+02 -0.85211439705E+00  0.12496672676E+02  0.51100000000E-03 0. -1.
        -11    1    3    3    0    0 -0.36370106035E+01 -0.74329818797E+01 -0.26709095993E+01  0.86954484705E+01  0.51100000000E-03 0.  1.
         12    1    3    3    0    0  0.15560842642E+02 -0.21298514138E+02  0.33963855588E+01  0.26595149239E+02  0.00000000000E+00 0. -1.
</event>
<event>
 7    1  0.2783785E-010  0.4778727E+02  0.7816164E-02  0.1312668E+00
        -11   -1    0    0    0    0  0.00000000000E+00  0.00000000000E+00  0.45593999997E+02  0.45594000000E+02  0.51100000000E-03 0.  1.
         11   -1    0    0    0    0 -0.00000000000E+00 -0.00000000000E+00 -0.45593999997E+02  0.45594000000E+02  0.51100000000E-03 0. -1.
    9900012    2    1    2    0    0 -0.77891559335E+01  0.25880626827E+02 -0.33957992268E+02  0.47787273808E+02  0.20000012598E+02 0.  0.
        -12    1    1    2    0    0  0.77891559335E+01 -0.25880626827E+02  0.33957992268E+02  0.43400726192E+02  0.00000000000E+00 0.  1.
         11    1    3    3    0    0 -0.77237167221E+01  0.14779893043E+02 -0.14572512601E+02  0.22146312608E+02  0.51100000000E-03 0. -1.
        -11    1    3    3    0    0 -0.17222045682E+01  0.38585294571E+01  0.64750593557E+00  0.42747517289E+01  0.51100000000E-03 0.  1.
         12    1    3    3    0    0  0.16567653568E+01  0.72422043270E+01 -0.20032985603E+02  0.21366209471E+02  0.00000000000E+00 0. -1.
</event>
<event>
 7    1  0.2783785E-010  0.4778726E+02  0.7816164E-02  0.1312668E+00
        -11   -1    0    0    0    0  0.00000000000E+00  0.00000000000E+00  0.45593999997E+02  0.45594000000E+02  0.51100000000E-03 0.  1.
         11   -1    0    0    0    0 -0.00000000000E+00 -0.00000000000E+00 -0.45593999997E+02  0.45594000000E+02  0.51100000000E-03 0. -1.
    9900012    2    1    2    0    0 -0.18295772326E+01  0.42384042431E+02 -0.91580619692E+01  0.47787256865E+02  0.19999935352E+02 0.  0.
        -12    1    1    2    0    0  0.18295772326E+01 -0.42384042431E+02  0.91580619692E+01  0.43400743135E+02  0.00000000000E+00 0.  1.
         11    1    3    3    0    0 -0.30315649999E+01  0.24970886047E+02  0.77104199009E+00  0.25166049398E+02  0.51100000000E-03 0. -1.
        -11    1    3    3    0    0  0.15475772090E+01 -0.84946422208E+00  0.12730613883E+00  0.17699694338E+01  0.51100000000E-03 0.  1.
        -12    1    3    3    0    0 -0.34558944165E+00  0.18262620606E+02 -0.10056410098E+02  0.20851238033E+02  0.00000000000E+00 0.  1.
</event>
<event>
 7    1  0.2783785E-010  0.4778727E+02  0.7816164E-02  0.1312668E+00
        -11   -1    0    0    0    0  0.00000000000E+00  0.00000000000E+00  0.45593999997E+02  0.45594000000E+02  0.51100000000E-03 0.  1.
         11   -1    0    0    0    0 -0.00000000000E+00 -0.00000000000E+00 -0.45593999997E+02  0.45594000000E+02  0.51100000000E-03 0. -1.
    9900012    2    1    2    0    0  0.15201808315E+02  0.31195545025E+02 -0.26064658932E+02  0.47787269007E+02  0.19999990712E+02 0.  0.
        -12    1    1    2    0    0 -0.15201808315E+02 -0.31195545025E+02  0.26064658932E+02  0.43400730993E+02  0.00000000000E+00 0.  1.
         11    1    3    3    0    0  0.91416252605E+01  0.13511919046E+02 -0.13842838208E+02  0.21395453690E+02  0.51100000000E-03 0. -1.
        -11    1    3    3    0    0  0.10682223619E+02  0.12306502090E+02 -0.82713984610E+01  0.18275008287E+02  0.51100000000E-03 0.  1.
         12    1    3    3    0    0 -0.46220405645E+01  0.53771238894E+01 -0.39504222634E+01  0.81168070299E+01  0.00000000000E+00 0. -1.
</event>
<event>
 7    1  0.2783785E-010  0.4778727E+02  0.7816164E-02  0.1312668E+00
        -11   -1    0    0    0    0  0.00000000000E+00  0.00000000000E+00  0.45593999997E+02  0.45594000000E+02  0.51100000000E-03 0.  1.
         11   -1    0    0    0    0 -0.00000000000E+00 -0.00000000000E+00 -0.45593999997E+02  0.45594000000E+02  0.51100000000E-03 0. -1.
    9900012    2    1    2    0    0 -0.19646137056E+02 -0.19057440718E+02 -0.33681842676E+02  0.47787271043E+02  0.19999999995E+02 0.  0.
        -12    1    1    2    0    0  0.19646137056E+02  0.19057440718E+02  0.33681842676E+02  0.43400728957E+02  0.00000000000E+00 0.  1.
         11    1    3    3    0    0 -0.39358436240E+00  0.24071723466E+01 -0.29075753898E+01  0.37951788186E+01  0.51100000000E-03 0. -1.
        -11    1    3    3    0    0 -0.60788281649E+01 -0.16042056299E+02 -0.15773810632E+02  0.23304781146E+02  0.51100000000E-03 0.  1.
         12    1    3    3    0    0 -0.13173724528E+02 -0.54225567656E+01 -0.15000456654E+02  0.20687311078E+02  0.00000000000E+00 0. -1.
</event>
<event>
 7    1  0.2783785E-010  0.4778726E+02  0.7816164E-02  0.1312668E+00
        -11   -1    0    0    0    0  0.00000000000E+00  0.00000000000E+00  0.45593999997E+02  0.45594000000E+02  0.51100000000E-03 0.  1.
         11   -1    0    0    0    0 -0.00000000000E+00 -0.00000000000E+00 -0.45593999997E+02  0.45594000000E+02  0.51100000000E-03 0. -1.
    9900012    2    1    2    0    0  0.31184735224E+02  0.14919809266E+02 -0.26239958882E+02  0.47787264273E+02  0.19999969126E+02 0.  0.
        -12    1    1    2    0    0 -0.31184735224E+02 -0.14919809266E+02  0.26239958882E+02  0.43400735727E+02  0.00000000000E+00 0.  1.
         11    1    3    3    0    0  0.63293674279E+01  0.43639569711E+01 -0.13340351516E+02  0.15397077363E+02  0.51100000000E-03 0.  1.
        -11    1    3    3    0    0  0.17822563692E+00 -0.13049271428E+01 -0.29991849431E+01  0.32756235757E+01  0.51100000000E-03 0. -1.
        -12    1    3    3    0    0  0.24677142159E+02  0.11860779437E+02 -0.99004224227E+01  0.29114563334E+02  0.00000000000E+00 0.  1.
</event>
<event>
 7    1  0.2783785E-010  0.4778727E+02  0.7816164E-02  0.1312668E+00
        -11   -1    0    0    0    0  0.00000000000E+00  0.00000000000E+00  0.45593999997E+02  0.45594000000E+02  0.51100000000E-03 0. -1.
         11   -1    0    0    0    0 -0.00000000000E+00 -0.00000000000E+00 -0.45593999997E+02  0.45594000000E+02  0.51100000000E-03 0.  1.
    9900012    2    1    2    0    0  0.39826320742E+02 -0.62585846629E+01  0.16072256985E+02  0.47787272466E+02  0.20000006482E+02 0.  0.
        -12    1    1    2    0    0 -0.39826320742E+02  0.62585846629E+01 -0.16072256985E+02  0.43400727534E+02  0.00000000000E+00 0.  1.
         11    1    3    3    0    0  0.19776939613E+02  0.31437477025E+01  0.16354048184E+01  0.20091914773E+02  0.51100000000E-03 0. -1.
        -11    1    3    3    0    0  0.17604149705E+02 -0.46218318603E+01  0.10267253820E+02  0.20896983463E+02  0.51100000000E-03 0.  1.
        -12    1    3    3    0    0  0.24452314242E+01 -0.47805005051E+01  0.41695983467E+01  0.67983742299E+01  0.00000000000E+00 0.  1.
</event>
<event>
 7    1  0.2783785E-010  0.4778727E+02  0.7816164E-02  0.1312668E+00
        -11   -1    0    0    0    0  0.00000000000E+00  0.00000000000E+00  0.45593999997E+02  0.45594000000E+02  0.51100000000E-03 0.  1.
         11   -1    0    0    0    0 -0.00000000000E+00 -0.00000000000E+00 -0.45593999997E+02  0.45594000000E+02  0.51100000000E-03 0. -1.
    9900012    2    1    2    0    0 -0.29411717522E+02 -0.27412734973E+02 -0.16343679874E+02  0.47787273761E+02  0.20000012384E+02 0.  0.
        -12    1    1    2    0    0  0.29411717522E+02  0.27412734973E+02  0.16343679874E+02  0.43400726239E+02  0.00000000000E+00 0.  1.
         11    1    3    3    0    0 -0.84562123491E+01 -0.16515532403E-01 -0.51097763610E+01  0.98801626898E+01  0.51100000000E-03 0. -1.
        -11    1    3    3    0    0 -0.18446425664E+02 -0.17739447678E+02 -0.11184937945E+02  0.27929580390E+02  0.51100000000E-03 0.  1.
         12    1    3    3    0    0 -0.25090795096E+01 -0.96567717623E+01 -0.48965567472E-01  0.99775306805E+01  0.00000000000E+00 0. -1.
</event>
<event>
 7    1  0.2783785E-010  0.4778730E+02  0.7816164E-02  0.1312668E+00
        -11   -1    0    0    0    0  0.00000000000E+00  0.00000000000E+00  0.45593999997E+02  0.45594000000E+02  0.51100000000E-03 0. -1.
         11   -1    0    0    0    0 -0.00000000000E+00 -0.00000000000E+00 -0.45593999997E+02  0.45594000000E+02  0.51100000000E-03 0.  1.
    9900012    2    1    2    0    0 -0.30662761772E+02 -0.12166583524E+02  0.28202663899E+02  0.47787297642E+02  0.20000121271E+02 0.  0.
        -12    1    1    2    0    0  0.30662761772E+02  0.12166583524E+02 -0.28202663899E+02  0.43400702358E+02  0.00000000000E+00 0.  1.
         11    1    3    3    0    0 -0.48027080790E+01 -0.10439143638E+01  0.14560193092E+02  0.15367335007E+02  0.51100000000E-03 0. -1.
        -11    1    3    3    0    0 -0.12271859712E+02 -0.18064895497E+01  0.28584044803E+01  0.12729195643E+02  0.51100000000E-03 0.  1.
        -12    1    3    3    0    0 -0.13588193981E+02 -0.93161796106E+01  0.10784066327E+02  0.19690766992E+02  0.00000000000E+00 0.  1.
</event>
<event>
 7    1  0.3001256E-010  0.4778727E+02  0.7816164E-02  0.1312668E+00
        -11   -1    0    0    0    0  0.00000000000E+00  0.00000000000E+00  0.45593999997E+02  0.45594000000E+02  0.51100000000E-03 0. -1.
         11   -1    0    0    0    0 -0.00000000000E+00 -0.00000000000E+00 -0.45593999997E+02  0.45594000000E+02  0.51100000000E-03 0.  1.
    9900012    2    1    2    0    0 -0.38480490170E+02  0.14620728067E+02  0.13751699146E+02  0.47787273712E+02  0.20000012163E+02 0.  0.
        -12    1    1    2    0    0  0.38480490170E+02 -0.14620728067E+02 -0.13751699146E+02  0.43400726288E+02  0.00000000000E+00 0.  1.
         11    1    3    3    0    0 -0.14037914909E+02  0.34285971070E+01  0.32236624339E+01  0.14805753370E+02  0.51100000000E-03 0. -1.
        -11    1    3    3    0    0 -0.50053804811E+01  0.10230919766E+01  0.97778775939E+01  0.11032109565E+02  0.51100000000E-03 0.  1.
        -12    1    3    3    0    0 -0.19437194780E+02  0.10169038983E+02  0.75015911813E+00  0.21949410777E+02  0.00000000000E+00 0.  1.
</event>
<event>
 7    1  0.2783785E-010  0.4778727E+02  0.7816164E-02  0.1312668E+00
        -11   -1    0    0    0    0  0.00000000000E+00  0.00000000000E+00  0.45593999997E+02  0.45594000000E+02  0.51100000000E-03 0.  1.
         11   -1    0    0    0    0 -0.00000000000E+00 -0.00000000000E+00 -0.45593999997E+02  0.45594000000E+02  0.51100000000E-03 0. -1.
    9900012    2    1    2    0    0  0.68132443065E+01 -0.11991071726E+02 -0.41151151464E+02  0.47787269984E+02  0.19999995166E+02 0.  0.
        -12    1    1    2    0    0 -0.68132443065E+01  0.11991071726E+02  0.41151151464E+02  0.43400730016E+02  0.00000000000E+00 0.  1.
         11    1    3    3    0    0  0.15350164786E+01 -0.98957554911E+01 -0.29017302858E+02  0.30696679262E+02  0.51100000000E-03 0. -1.
        -11    1    3    3    0    0 -0.76642697085E+00  0.28597600890E+01 -0.73570483189E+01  0.79304349374E+01  0.51100000000E-03 0.  1.
         12    1    3    3    0    0  0.60446547988E+01 -0.49550763240E+01 -0.47768002871E+01  0.91601557845E+01  0.00000000000E+00 0. -1.
</event>
<event>
 7    1  0.2783785E-010  0.4778727E+02  0.7816164E-02  0.1312668E+00
        -11   -1    0    0    0    0  0.00000000000E+00  0.00000000000E+00  0.45593999997E+02  0.45594000000E+02  0.51100000000E-03 0.  1.
         11   -1    0    0    0    0 -0.00000000000E+00 -0.00000000000E+00 -0.45593999997E+02  0.45594000000E+02  0.51100000000E-03 0. -1.
    9900012    2    1    2    0    0 -0.70848147349E+01 -0.24171870349E+02 -0.35343311105E+02  0.47787267796E+02  0.19999985190E+02 0.  0.
        -12    1    1    2    0    0  0.70848147349E+01  0.24171870349E+02  0.35343311105E+02  0.43400732204E+02  0.00000000000E+00 0.  1.
         11    1    3    3    0    0  0.32688825252E+01 -0.11019506878E+02 -0.17429429053E+02  0.20878221240E+02  0.51100000000E-03 0. -1.
        -11    1    3    3    0    0 -0.65181777781E+01 -0.67394726532E+01 -0.16955930255E+02  0.19375518167E+02  0.51100000000E-03 0.  1.
        -12    1    3    3    0    0 -0.38355194819E+01 -0.64128908176E+01 -0.95795179733E+00  0.75335283886E+01  0.00000000000E+00 0.  1.
</event>
<event>
 7    1  0.2783785E-010  0.4778727E+02  0.7816164E-02  0.1312668E+00
        -11   -1    0    0    0    0  0.00000000000E+00  0.00000000000E+00  0.45593999997E+02  0.45594000000E+02  0.51100000000E-03 0.  1.
         11   -1    0    0    0    0 -0.00000000000E+00 -0.00000000000E+00 -0.45593999997E+02  0.45594000000E+02  0.51100000000E-03 0. -1.
    9900012    2    1    2    0    0  0.48404312632E+01  0.29848818005E+02 -0.31132644516E+02  0.47787271139E+02  0.20000000431E+02 0.  0.
        -12    1    1    2    0    0 -0.48404312632E+01 -0.29848818005E+02  0.31132644516E+02  0.43400728861E+02  0.00000000000E+00 0.  1.
         11    1    3    3    0    0  0.18294546739E+01  0.27494359474E+02 -0.15578761461E+02  0.31654139006E+02  0.51100000000E-03 0.  1.
        -11    1    3    3    0    0  0.72690909351E+00  0.16180174405E-01 -0.11314946780E+01  0.13449680649E+01  0.51100000000E-03 0. -1.
        -12    1    3    3    0    0  0.22840674958E+01  0.23382783566E+01 -0.14422388377E+02  0.14788164068E+02  0.00000000000E+00 0.  1.
</event>
<event>
 7    1  0.2783785E-010  0.4778727E+02  0.7816164E-02  0.1312668E+00
        -11   -1    0    0    0    0  0.00000000000E+00  0.00000000000E+00  0.45593999997E+02  0.45594000000E+02  0.51100000000E-03 0.  1.
         11   -1    0    0    0    0 -0.00000000000E+00 -0.00000000000E+00 -0.45593999997E+02  0.45594000000E+02  0.51100000000E-03 0. -1.
    9900012    2    1    2    0    0  0.20227310065E+02 -0.18405111392E+02 -0.33700607339E+02  0.47787272669E+02  0.20000007409E+02 0.  0.
        -12    1    1    2    0    0 -0.20227310065E+02  0.18405111392E+02  0.33700607339E+02  0.43400727331E+02  0.00000000000E+00 0.  1.
         11    1    3    3    0    0  0.76843831128E+00 -0.52961876765E+01 -0.10416720161E+02  0.11711027304E+02  0.51100000000E-03 0. -1.
        -11    1    3    3    0    0  0.10582062694E+02 -0.29757213739E+01 -0.24433394049E+01  0.11260767126E+02  0.51100000000E-03 0.  1.
         12    1    3    3    0    0  0.88768090601E+01 -0.10133202341E+02 -0.20840547773E+02  0.24815478240E+02  0.00000000000E+00 0. -1.
</event>
<event>
 7    1  0.2783785E-010  0.4778726E+02  0.7816164E-02  0.1312668E+00
        -11   -1    0    0    0    0  0.00000000000E+00  0.00000000000E+00  0.45593999997E+02  0.45594000000E+02  0.51100000000E-03 0.  1.
         11   -1    0    0    0    0 -0.00000000000E+00 -0.00000000000E+00 -0.45593999997E+02  0.45594000000E+02  0.51100000000E-03 0. -1.
    9900012    2    1    2    0    0 -0.13184640812E+02  0.24041766972E+02 -0.33641975962E+02  0.47787264302E+02  0.19999969261E+02 0.  0.
        -12    1    1    2    0    0  0.13184640812E+02 -0.24041766972E+02  0.33641975962E+02  0.43400735698E+02  0.00000000000E+00 0.  1.
         11    1    3    3    0    0 -0.17218232366E+02  0.15556902259E+02 -0.24879296295E+02  0.34021524336E+02  0.51100000000E-03 0. -1.
        -11    1    3    3    0    0  0.66905841960E+00  0.66510134968E+01 -0.46392134851E+01  0.81367021406E+01  0.51100000000E-03 0.  1.
         12    1    3    3    0    0  0.33645331348E+01  0.18338512161E+01 -0.41234661816E+01  0.56290378262E+01  0.00000000000E+00 0. -1.
</event>
<event>
 7    1  0.2783785E-010  0.4778726E+02  0.7816164E-02  0.1312668E+00
        -11   -1    0    0    0    0  0.00000000000E+00  0.00000000000E+00  0.45593999997E+02  0.45594000000E+02  0.51100000000E-03 0.  1.
         11   -1    0    0    0    0 -0.00000000000E+00 -0.00000000000E+00 -0.45593999997E+02  0.45594000000E+02  0.51100000000E-03 0. -1.
    9900012    2    1    2    0    0  0.99419735830E+01  0.23814181833E+02 -0.34895067927E+02  0.47787264284E+02  0.19999969176E+02 0.  0.
        -12    1    1    2    0    0 -0.99419735830E+01 -0.23814181833E+02  0.34895067927E+02  0.43400735716E+02  0.00000000000E+00 0.  1.
         11    1    3    3    0    0  0.80173245507E+01  0.63352770126E+01 -0.95997972966E+01  0.14020318690E+02  0.51100000000E-03 0. -1.
        -11    1    3    3    0    0  0.26973901200E+01  0.13929438351E+01  0.76626835357E+00  0.31310339247E+01  0.51100000000E-03 0.  1.
        -12    1    3    3    0    0 -0.77274108775E+00  0.16085960985E+02 -0.26061538984E+02  0.30635911669E+02  0.00000000000E+00 0.  1.
</event>
<event>
 7    1  0.2783785E-010  0.4778727E+02  0.7816164E-02  0.1312668E+00
        -11   -1    0    0    0    0  0.00000000000E+00  0.00000000000E+00  0.45593999997E+02  0.45594000000E+02  0.51100000000E-03 0.  1.
         11   -1    0    0    0    0 -0.00000000000E+00 -0.00000000000E+00 -0.45593999997E+02  0.45594000000E+02  0.51100000000E-03 0. -1.
    9900012    2    1    2    0    0  0.39914256553E+02  0.12668191747E+02 -0.11401436501E+02  0.47787265990E+02  0.19999976953E+02 0.  0.
        -12    1    1    2    0    0 -0.39914256553E+02 -0.12668191747E+02  0.11401436501E+02  0.43400734010E+02  0.00000000000E+00 0.  1.
         11    1    3    3    0    0  0.10953461023E+02 -0.14846127176E+01 -0.25079304253E+01  0.11334553303E+02  0.51100000000E-03 0.  1.
        -11    1    3    3    0    0  0.66976570077E+01 -0.24506087559E+01 -0.42278194429E+01  0.82908714964E+01  0.51100000000E-03 0. -1.
        -12    1    3    3    0    0  0.22263138523E+02  0.16603413220E+02 -0.46656866332E+01  0.28161841190E+02  0.00000000000E+00 0.  1.
</event>
<event>
 7    1  0.2783785E-010  0.4778727E+02  0.7816164E-02  0.1312668E+00
        -11   -1    0    0    0    0  0.00000000000E+00  0.00000000000E+00  0.45593999997E+02  0.45594000000E+02  0.51100000000E-03 0.  1.
         11   -1    0    0    0    0 -0.00000000000E+00 -0.00000000000E+00 -0.45593999997E+02  0.45594000000E+02  0.51100000000E-03 0. -1.
    9900012    2    1    2    0    0 -0.38810010547E+02  0.52064106153E+01 -0.18716291382E+02  0.47787271973E+02  0.20000004234E+02 0.  0.
        -12    1    1    2    0    0  0.38810010547E+02 -0.52064106153E+01  0.18716291382E+02  0.43400728027E+02  0.00000000000E+00 0.  1.
         11    1    3    3    0    0 -0.84833083877E+01  0.43080875862E+01 -0.11014317974E+02  0.14554770371E+02  0.51100000000E-03 0. -1.
        -11    1    3    3    0    0 -0.10210616718E+02 -0.49416656676E+01 -0.19449218903E+01  0.11509103994E+02  0.51100000000E-03 0.  1.
        -12    1    3    3    0    0 -0.20116085442E+02  0.58399886967E+01 -0.57570515180E+01  0.21723397609E+02  0.00000000000E+00 0.  1.
</event>
<event>
 7    1  0.2783785E-010  0.4778727E+02  0.7816164E-02  0.1312668E+00
        -11   -1    0    0    0    0  0.00000000000E+00  0.00000000000E+00  0.45593999997E+02  0.45594000000E+02  0.51100000000E-03 0.  1.
         11   -1    0    0    0    0 -0.00000000000E+00 -0.00000000000E+00 -0.45593999997E+02  0.45594000000E+02  0.51100000000E-03 0. -1.
    9900012    2    1    2    0    0 -0.16270362119E+01 -0.24391165064E+02 -0.35861497578E+02  0.47787272028E+02  0.20000004484E+02 0.  0.
        -12    1    1    2    0    0  0.16270362119E+01  0.24391165064E+02  0.35861497578E+02  0.43400727972E+02  0.00000000000E+00 0.  1.
         11    1    3    3    0    0 -0.28968630559E+01 -0.33964034096E+01 -0.30483639367E+01  0.54055429549E+01  0.51100000000E-03 0. -1.
        -11    1    3    3    0    0  0.34543333067E+01 -0.92243763933E+01 -0.30660334739E+01  0.10316108761E+02  0.51100000000E-03 0.  1.
         12    1    3    3    0    0 -0.21845064627E+01 -0.11770385261E+02 -0.29747100167E+02  0.32065620312E+02  0.00000000000E+00 0. -1.
</event>
<event>
 7    1  0.2783785E-010  0.4778727E+02  0.7816164E-02  0.1312668E+00
        -11   -1    0    0    0    0  0.00000000000E+00  0.00000000000E+00  0.45593999997E+02  0.45594000000E+02  0.51100000000E-03 0. -1.
         11   -1    0    0    0    0 -0.00000000000E+00 -0.00000000000E+00 -0.45593999997E+02  0.45594000000E+02  0.51100000000E-03 0.  1.
    9900012    2    1    2    0    0 -0.11784433850E+02 -0.23260253634E+02  0.34694541113E+02  0.47787268862E+02  0.19999990048E+02 0.  0.
        -12    1    1    2    0    0  0.11784433850E+02  0.23260253634E+02 -0.34694541113E+02  0.43400731138E+02  0.00000000000E+00 0.  1.
         11    1    3    3    0    0 -0.10293085659E+01 -0.10032386672E+02  0.65282971038E+01  0.12013614019E+02  0.51100000000E-03 0. -1.
        -11    1    3    3    0    0 -0.78870693345E+00 -0.23231390075E+01 -0.13256318421E+01  0.27886078098E+01  0.51100000000E-03 0.  1.
         12    1    3    3    0    0 -0.99664183505E+01 -0.10904727954E+02  0.29491875852E+02  0.32985047033E+02  0.00000000000E+00 0. -1.
</event>
<event>
 7    1  0.2783785E-010  0.4778727E+02  0.7816164E-02  0.1312668E+00
        -11   -1    0    0    0    0  0.00000000000E+00  0.00000000000E+00  0.45593999997E+02  0.45594000000E+02  0.51100000000E-03 0.  1.
         11   -1    0    0    0    0 -0.00000000000E+00 -0.00000000000E+00 -0.45593999997E+02  0.45594000000E+02  0.51100000000E-03 0. -1.
    9900012    2    1    2    0    0  0.40365692230E+02 -0.10310825490E+02  0.12162286814E+02  0.47787268992E+02  0.19999990644E+02 0.  0.
        -12    1    1    2    0    0 -0.40365692230E+02  0.10310825490E+02 -0.12162286814E+02  0.43400731008E+02  0.00000000000E+00 0.  1.
         11    1    3    3    0    0  0.10341969269E+02 -0.62930375647E+01  0.61239615097E+01  0.13566928723E+02  0.51100000000E-03 0. -1.
        -11    1    3    3    0    0  0.39300687991E+01 -0.20012137555E+01 -0.42259002915E+01  0.61080709554E+01  0.51100000000E-03 0.  1.
         12    1    3    3    0    0  0.26093654162E+02 -0.20165741700E+01  0.10264225596E+02  0.28112269314E+02  0.00000000000E+00 0. -1.
</event>
<event>
 7    1  0.2783785E-010  0.4778728E+02  0.7816164E-02  0.1312668E+00
        -11   -1    0    0    0    0  0.00000000000E+00  0.00000000000E+00  0.45593999997E+02  0.45594000000E+02  0.51100000000E-03 0. -1.
         11   -1    0    0    0    0 -0.00000000000E+00 -0.00000000000E+00 -0.45593999997E+02  0.45594000000E+02  0.51100000000E-03 0.  1.
    9900012    2    1    2    0    0 -0.43262524260E+02  0.32940458462E+01  0.10611544781E+01  0.47787276594E+02  0.20000025300E+02 0.  0.
        -12    1    1    2    0    0  0.43262524260E+02 -0.32940458462E+01 -0.10611544781E+01  0.43400723406E+02  0.00000000000E+00 0.  1.
         11    1    3    3    0    0 -0.13440576571E+02  0.20972628431E+01  0.71348685429E+01  0.15360792928E+02  0.51100000000E-03 0. -1.
        -11    1    3    3    0    0 -0.36907045390E+01 -0.36497835564E+01 -0.18810290024E+01  0.55209139073E+01  0.51100000000E-03 0.  1.
         12    1    3    3    0    0 -0.26131243150E+02  0.48465665595E+01 -0.41926850624E+01  0.26905569758E+02  0.00000000000E+00 0. -1.
</event>
<event>
 7    1  0.2783785E-010  0.4778727E+02  0.7816164E-02  0.1312668E+00
        -11   -1    0    0    0    0  0.00000000000E+00  0.00000000000E+00  0.45593999997E+02  0.45594000000E+02  0.51100000000E-03 0.  1.
         11   -1    0    0    0    0 -0.00000000000E+00 -0.00000000000E+00 -0.45593999997E+02  0.45594000000E+02  0.51100000000E-03 0. -1.
    9900012    2    1    2    0    0 -0.33721803765E+02 -0.35663262377E+01 -0.27087720845E+02  0.47787270138E+02  0.19999995867E+02 0.  0.
        -12    1    1    2    0    0  0.33721803765E+02  0.35663262377E+01  0.27087720845E+02  0.43400729862E+02  0.00000000000E+00 0.  1.
         11    1    3    3    0    0 -0.27593147399E+01 -0.41278831520E+01 -0.20374190541E+01  0.53669650468E+01  0.51100000000E-03 0. -1.
        -11    1    3    3    0    0 -0.15646705104E+02 -0.31910607276E+00 -0.36170428519E+01  0.16062509410E+02  0.51100000000E-03 0.  1.
        -12    1    3    3    0    0 -0.15315783921E+02  0.88066298713E+00 -0.21433258939E+02  0.26357795681E+02  0.00000000000E+00 0.  1.
</event>
<event>
 7    1  0.2783785E-010  0.4778727E+02  0.7816164E-02  0.1312668E+00
        -11   -1    0    0    0    0  0.00000000000E+00  0.00000000000E+00  0.45593999997E+02  0.45594000000E+02  0.51100000000E-03 0.  1.
         11   -1    0    0    0    0 -0.00000000000E+00 -0.00000000000E+00 -0.45593999997E+02  0.45594000000E+02  0.51100000000E-03 0. -1.
    9900012    2    1    2    0    0  0.30377460801E+02 -0.30543125192E+02 -0.52868153832E+01  0.47787273761E+02  0.20000012385E+02 0.  0.
        -12    1    1    2    0    0 -0.30377460801E+02  0.30543125192E+02  0.52868153832E+01  0.43400726239E+02  0.00000000000E+00 0.  1.
         11    1    3    3    0    0  0.17061663051E+02 -0.15785118354E+02  0.32072696028E+01  0.23463948647E+02  0.51100000000E-03 0. -1.
        -11    1    3    3    0    0 -0.83331450979E+00 -0.56544071467E+01 -0.62588824267E+00  0.57496495203E+01  0.51100000000E-03 0.  1.
         12    1    3    3    0    0  0.14149112260E+02 -0.91035996911E+01 -0.78681967433E+01  0.18573675594E+02  0.00000000000E+00 0. -1.
</event>
<event>
 7    1  0.2783785E-010  0.4778729E+02  0.7816164E-02  0.1312668E+00
        -11   -1    0    0    0    0  0.00000000000E+00  0.00000000000E+00  0.45593999997E+02  0.45594000000E+02  0.51100000000E-03 0. -1.
         11   -1    0    0    0    0 -0.00000000000E+00 -0.00000000000E+00 -0.45593999997E+02  0.45594000000E+02  0.51100000000E-03 0.  1.
    9900012    2    1    2    0    0  0.14872079281E+02 -0.37938957646E+02  0.14935815750E+02  0.47787287546E+02  0.20000075236E+02 0.  0.
        -12    1    1    2    0    0 -0.14872079281E+02  0.37938957646E+02 -0.14935815750E+02  0.43400712454E+02  0.00000000000E+00 0.  1.
         11    1    3    3    0    0  0.31256308636E+01  0.51632288112E+00  0.33579015011E+01  0.46164553897E+01  0.51100000000E-03 0.  1.
        -11    1    3    3    0    0  0.18709283396E+01 -0.12682648591E+02 -0.96160540216E+00  0.12855918222E+02  0.51100000000E-03 0. -1.
         12    1    3    3    0    0  0.98755200777E+01 -0.25772631937E+02  0.12539519651E+02  0.30314913934E+02  0.00000000000E+00 0. -1.
</event>
<event>
 7    1  0.2783785E-010  0.4778727E+02  0.7816164E-02  0.1312668E+00
        -11   -1    0    0    0    0  0.00000000000E+00  0.00000000000E+00  0.45593999997E+02  0.45594000000E+02  0.51100000000E-03 0.  1.
         11   -1    0    0    0    0 -0.00000000000E+00 -0.00000000000E+00 -0.45593999997E+02  0.45594000000E+02  0.51100000000E-03 0. -1.
    9900012    2    1    2    0    0  0.96313875292E+01 -0.15004565435E+02 -0.39569219037E+02  0.47787266080E+02  0.19999977363E+02 0.  0.
        -12    1    1    2    0    0 -0.96313875292E+01  0.15004565435E+02  0.39569219037E+02  0.43400733920E+02  0.00000000000E+00 0.  1.
         11    1    3    3    0    0  0.21859396239E+01 -0.48760380070E+01 -0.45186323707E+01  0.69980081057E+01  0.51100000000E-03 0. -1.
        -11    1    3    3    0    0  0.23337553507E+01 -0.11524130876E+01 -0.28366634108E+02  0.28485792965E+02  0.51100000000E-03 0.  1.
        -12    1    3    3    0    0  0.51116925546E+01 -0.89761143406E+01 -0.66839525582E+01  0.12303465009E+02  0.00000000000E+00 0.  1.
</event>
<event>
 7    1  0.2783785E-010  0.4778727E+02  0.7816164E-02  0.1312668E+00
        -11   -1    0    0    0    0  0.00000000000E+00  0.00000000000E+00  0.45593999997E+02  0.45594000000E+02  0.51100000000E-03 0. -1.
         11   -1    0    0    0    0 -0.00000000000E+00 -0.00000000000E+00 -0.45593999997E+02  0.45594000000E+02  0.51100000000E-03 0.  1.
    9900012    2    1    2    0    0 -0.17760867304E+02  0.18817499965E+02  0.34843599358E+02  0.47787272719E+02  0.20000007634E+02 0.  0.
        -12    1    1    2    0    0  0.17760867304E+02 -0.18817499965E+02 -0.34843599358E+02  0.43400727281E+02  0.00000000000E+00 0.  1.
         11    1    3    3    0    0 -0.41242259294E+01 -0.19633403271E+01  0.88144330154E+01  0.99276469720E+01  0.51100000000E-03 0. -1.
        -11    1    3    3    0    0 -0.56564023686E+01  0.24745010522E+01  0.11868750777E+02  0.13378538354E+02  0.51100000000E-03 0.  1.
         12    1    3    3    0    0 -0.79802390056E+01  0.18306339240E+02  0.14160415566E+02  0.24481087393E+02  0.00000000000E+00 0. -1.
</event>
<event>
 7    1  0.2783785E-010  0.4778727E+02  0.7816164E-02  0.1312668E+00
        -11   -1    0    0    0    0  0.00000000000E+00  0.00000000000E+00  0.45593999997E+02  0.45594000000E+02  0.51100000000E-03 0.  1.
         11   -1    0    0    0    0 -0.00000000000E+00 -0.00000000000E+00 -0.45593999997E+02  0.45594000000E+02  0.51100000000E-03 0. -1.
    9900012    2    1    2    0    0  0.37792201545E+02 -0.18961235086E+02 -0.97900365299E+01  0.47787265572E+02  0.19999975049E+02 0.  0.
        -12    1    1    2    0    0 -0.37792201545E+02  0.18961235086E+02  0.97900365299E+01  0.43400734428E+02  0.00000000000E+00 0.  1.
         11    1    3    3    0    0  0.96361255797E+01 -0.50212388512E+01 -0.44518663237E+01  0.11742523997E+02  0.51100000000E-03 0. -1.
        -11    1    3    3    0    0  0.73782450161E+01 -0.12117826546E+02 -0.54189450797E+01  0.15187007137E+02  0.51100000000E-03 0.  1.
         12    1    3    3    0    0  0.20777830949E+02 -0.18221696888E+01  0.80774873572E-01  0.20857734439E+02  0.00000000000E+00 0. -1.
</event>
<event>
 7    1  0.2783785E-010  0.4778727E+02  0.7816164E-02  0.1312668E+00
        -11   -1    0    0    0    0  0.00000000000E+00  0.00000000000E+00  0.45593999997E+02  0.45594000000E+02  0.51100000000E-03 0. -1.
         11   -1    0    0    0    0 -0.00000000000E+00 -0.00000000000E+00 -0.45593999997E+02  0.45594000000E+02  0.51100000000E-03 0.  1.
    9900012    2    1    2    0    0  0.40475887399E+02  0.14187670535E+02 -0.66359564318E+01  0.47787269895E+02  0.19999994757E+02 0.  0.
        -12    1    1    2    0    0 -0.40475887399E+02 -0.14187670535E+02  0.66359564318E+01  0.43400730105E+02  0.00000000000E+00 0.  1.
         11    1    3    3    0    0  0.38326648730E+02  0.10723902385E+02 -0.47889368340E+01  0.40085758088E+02  0.51100000000E-03 0. -1.
        -11    1    3    3    0    0  0.35260383983E+01 -0.13505392161E+00 -0.27281485498E+00  0.35391544971E+01  0.51100000000E-03 0.  1.
         12    1    3    3    0    0 -0.13767997297E+01  0.35988220713E+01 -0.15742047428E+01  0.41623573091E+01  0.00000000000E+00 0. -1.
</event>
<event>
 7    1  0.2783785E-010  0.4778727E+02  0.7816164E-02  0.1312668E+00
        -11   -1    0    0    0    0  0.00000000000E+00  0.00000000000E+00  0.45593999997E+02  0.45594000000E+02  0.51100000000E-03 0.  1.
         11   -1    0    0    0    0 -0.00000000000E+00 -0.00000000000E+00 -0.45593999997E+02  0.45594000000E+02  0.51100000000E-03 0. -1.
    9900012    2    1    2    0    0  0.19524973782E+02  0.16098162041E+02 -0.35259721553E+02  0.47787269750E+02  0.19999994097E+02 0.  0.
        -12    1    1    2    0    0 -0.19524973782E+02 -0.16098162041E+02  0.35259721553E+02  0.43400730250E+02  0.00000000000E+00 0.  1.
         11    1    3    3    0    0  0.14955156002E+02  0.58677841720E+01 -0.14731379605E+02  0.21796814618E+02  0.51100000000E-03 0. -1.
        -11    1    3    3    0    0  0.24719065611E-03  0.65976017621E+01 -0.25249130634E+01  0.70642434352E+01  0.51100000000E-03 0.  1.
         12    1    3    3    0    0  0.45695705891E+01  0.36327761073E+01 -0.18003428884E+02  0.18926211697E+02  0.00000000000E+00 0. -1.
</event>
<event>
 7    1  0.2783785E-010  0.4778728E+02  0.7816164E-02  0.1312668E+00
        -11   -1    0    0    0    0  0.00000000000E+00  0.00000000000E+00  0.45593999997E+02  0.45594000000E+02  0.51100000000E-03 0.  1.
         11   -1    0    0    0    0 -0.00000000000E+00 -0.00000000000E+00 -0.45593999997E+02  0.45594000000E+02  0.51100000000E-03 0. -1.
    9900012    2    1    2    0    0 -0.52184994499E+01  0.13907455720E+02 -0.40779561499E+02  0.47787277688E+02  0.20000030291E+02 0.  0.
        -12    1    1    2    0    0  0.52184994499E+01 -0.13907455720E+02  0.40779561499E+02  0.43400722312E+02  0.00000000000E+00 0.  1.
         11    1    3    3    0    0 -0.35800071979E+01  0.52944596768E+01 -0.25628360891E+02  0.26413266308E+02  0.51100000000E-03 0. -1.
        -11    1    3    3    0    0  0.22343681154E+01 -0.16946579192E+01 -0.73851179841E+01  0.78996350700E+01  0.51100000000E-03 0.  1.
        -12    1    3    3    0    0 -0.38728603673E+01  0.10307653963E+02 -0.77660826240E+01  0.13474376311E+02  0.00000000000E+00 0.  1.
</event>
<event>
 7    1  0.2783785E-010  0.4778726E+02  0.7816164E-02  0.1312668E+00
        -11   -1    0    0    0    0  0.00000000000E+00  0.00000000000E+00  0.45593999997E+02  0.45594000000E+02  0.51100000000E-03 0.  1.
         11   -1    0    0    0    0 -0.00000000000E+00 -0.00000000000E+00 -0.45593999997E+02  0.45594000000E+02  0.51100000000E-03 0. -1.
    9900012    2    1    2    0    0  0.84275195041E+01  0.41398716917E+02 -0.99371511575E+01  0.47787264747E+02  0.19999971287E+02 0.  0.
        -12    1    1    2    0    0 -0.84275195041E+01 -0.41398716917E+02  0.99371511575E+01  0.43400735253E+02  0.00000000000E+00 0.  1.
         11    1    3    3    0    0  0.55736039313E+01  0.14565705002E+02 -0.25270367586E+01  0.15799073961E+02  0.51100000000E-03 0. -1.
        -11    1    3    3    0    0 -0.15601279813E+01  0.20731014565E+01 -0.63000736994E+01  0.68134189542E+01  0.51100000000E-03 0.  1.
        -12    1    3    3    0    0  0.44140435541E+01  0.24759910459E+02 -0.11100406995E+01  0.25174771831E+02  0.00000000000E+00 0.  1.
</event>
<event>
 7    1  0.2783785E-010  0.4778727E+02  0.7816164E-02  0.1312668E+00
        -11   -1    0    0    0    0  0.00000000000E+00  0.00000000000E+00  0.45593999997E+02  0.45594000000E+02  0.51100000000E-03 0.  1.
         11   -1    0    0    0    0 -0.00000000000E+00 -0.00000000000E+00 -0.45593999997E+02  0.45594000000E+02  0.51100000000E-03 0. -1.
    9900012    2    1    2    0    0  0.11448982521E+02 -0.28841923639E+02 -0.30342827803E+02  0.47787274672E+02  0.20000016538E+02 0.  0.
        -12    1    1    2    0    0 -0.11448982521E+02  0.28841923639E+02  0.30342827803E+02  0.43400725328E+02  0.00000000000E+00 0.  1.
         11    1    3    3    0    0  0.58179258513E+01 -0.11168068971E+02 -0.69001952297E+01  0.14359203328E+02  0.51100000000E-03 0. -1.
        -11    1    3    3    0    0  0.73253334589E+00  0.25534174628E+01 -0.10473693724E+01  0.28554384437E+01  0.51100000000E-03 0.  1.
         12    1    3    3    0    0  0.48985233236E+01 -0.20227272130E+02 -0.22395263201E+02  0.30572632900E+02  0.00000000000E+00 0. -1.
</event>
<event>
 7    1  0.2783785E-010  0.4778723E+02  0.7816164E-02  0.1312668E+00
        -11   -1    0    0    0    0  0.00000000000E+00  0.00000000000E+00  0.45593999997E+02  0.45594000000E+02  0.51100000000E-03 0. -1.
         11   -1    0    0    0    0 -0.00000000000E+00 -0.00000000000E+00 -0.45593999997E+02  0.45594000000E+02  0.51100000000E-03 0.  1.
    9900012    2    1    2    0    0 -0.24125899147E+02 -0.19639307761E+02  0.30263263526E+02  0.47787233438E+02  0.19999828535E+02 0.  0.
        -12    1    1    2    0    0  0.24125899147E+02  0.19639307761E+02 -0.30263263526E+02  0.43400766562E+02  0.00000000000E+00 0.  1.
         11    1    3    3    0    0 -0.95469356883E+01 -0.13896559313E+02  0.21421840243E+02  0.27260843373E+02  0.51100000000E-03 0. -1.
        -11    1    3    3    0    0 -0.31889838285E+01  0.24564720229E+01  0.40150817394E+01  0.56854862847E+01  0.51100000000E-03 0.  1.
        -12    1    3    3    0    0 -0.11389979630E+02 -0.81992204717E+01  0.48263415435E+01  0.14840903780E+02  0.00000000000E+00 0.  1.
</event>
<event>
 7    1  0.2783785E-010  0.4778727E+02  0.7816164E-02  0.1312668E+00
        -11   -1    0    0    0    0  0.00000000000E+00  0.00000000000E+00  0.45593999997E+02  0.45594000000E+02  0.51100000000E-03 0. -1.
         11   -1    0    0    0    0 -0.00000000000E+00 -0.00000000000E+00 -0.45593999997E+02  0.45594000000E+02  0.51100000000E-03 0.  1.
    9900012    2    1    2    0    0  0.37285442304E+02  0.20994543616E+02 -0.72559080972E+01  0.47787271069E+02  0.20000000112E+02 0.  0.
        -12    1    1    2    0    0 -0.37285442304E+02 -0.20994543616E+02  0.72559080972E+01  0.43400728931E+02  0.00000000000E+00 0.  1.
         11    1    3    3    0    0  0.97587120168E+01 -0.16309724928E-01 -0.55529265039E+01  0.11227988210E+02  0.51100000000E-03 0. -1.
        -11    1    3    3    0    0  0.11409765717E+02  0.22918690354E+01 -0.22438099918E+01  0.11852008308E+02  0.51100000000E-03 0.  1.
         12    1    3    3    0    0  0.16116964570E+02  0.18718984305E+02  0.54082839847E+00  0.24707274551E+02  0.00000000000E+00 0. -1.
</event>
<event>
 7    1  0.2783785E-010  0.4778727E+02  0.7816164E-02  0.1312668E+00
        -11   -1    0    0    0    0  0.00000000000E+00  0.00000000000E+00  0.45593999997E+02  0.45594000000E+02  0.51100000000E-03 0.  1.
         11   -1    0    0    0    0 -0.00000000000E+00 -0.00000000000E+00 -0.45593999997E+02  0.45594000000E+02  0.51100000000E-03 0. -1.
    9900012    2    1    2    0    0  0.30236991486E+02 -0.28841167292E+02  0.11727528946E+02  0.47787268208E+02  0.19999987070E+02 0.  0.
        -12    1    1    2    0    0 -0.30236991486E+02  0.28841167292E+02 -0.11727528946E+02  0.43400731792E+02  0.00000000000E+00 0.  1.
         11    1    3    3    0    0  0.14085075685E+02 -0.14229445435E+02 -0.41746724736E-01  0.20021693672E+02  0.51100000000E-03 0. -1.
        -11    1    3    3    0    0  0.24864468476E+00  0.50887135264E-01 -0.20704385750E+01  0.20859362008E+01  0.51100000000E-03 0.  1.
         12    1    3    3    0    0  0.15903271115E+02 -0.14662608992E+02  0.13839714246E+02  0.25679638335E+02  0.00000000000E+00 0. -1.
</event>
<event>
 7    1  0.2783785E-010  0.4778727E+02  0.7816164E-02  0.1312668E+00
        -11   -1    0    0    0    0  0.00000000000E+00  0.00000000000E+00  0.45593999997E+02  0.45594000000E+02  0.51100000000E-03 0.  1.
         11   -1    0    0    0    0 -0.00000000000E+00 -0.00000000000E+00 -0.45593999997E+02  0.45594000000E+02  0.51100000000E-03 0. -1.
    9900012    2    1    2    0    0  0.13357662330E+02 -0.28558744885E+02 -0.29826066628E+02  0.47787270711E+02  0.19999998481E+02 0.  0.
        -12    1    1    2    0    0 -0.13357662330E+02  0.28558744885E+02  0.29826066628E+02  0.43400729289E+02  0.00000000000E+00 0.  1.
         11    1    3    3    0    0  0.10836541483E+02 -0.14371133209E+02 -0.14359522546E+02  0.23025116482E+02  0.51100000000E-03 0. -1.
        -11    1    3    3    0    0  0.74920641082E+01 -0.11237469821E+02 -0.99879168711E+01  0.16797923570E+02  0.51100000000E-03 0.  1.
        -12    1    3    3    0    0 -0.49709432612E+01 -0.29501418547E+01 -0.54786272110E+01  0.79642306587E+01  0.00000000000E+00 0.  1.
</event>
<event>
 7    1  0.2783785E-010  0.4778727E+02  0.7816164E-02  0.1312668E+00
        -11   -1    0    0    0    0  0.00000000000E+00  0.00000000000E+00  0.45593999997E+02  0.45594000000E+02  0.51100000000E-03 0.  1.
         11   -1    0    0    0    0 -0.00000000000E+00 -0.00000000000E+00 -0.45593999997E+02  0.45594000000E+02  0.51100000000E-03 0. -1.
    9900012    2    1    2    0    0  0.37385483784E+02  0.15166073972E+02 -0.15998089025E+02  0.47787273624E+02  0.20000011763E+02 0.  0.
        -12    1    1    2    0    0 -0.37385483784E+02 -0.15166073972E+02  0.15998089025E+02  0.43400726376E+02  0.00000000000E+00 0.  1.
         11    1    3    3    0    0  0.68208971917E+01  0.83343503358E+01 -0.89178467498E+01  0.13982632976E+02  0.51100000000E-03 0. -1.
        -11    1    3    3    0    0  0.13169134788E+02  0.75796311947E+01 -0.53664242236E+00  0.15204108177E+02  0.51100000000E-03 0.  1.
        -12    1    3    3    0    0  0.17395451805E+02 -0.74790755862E+00 -0.65435998528E+01  0.18600532472E+02  0.00000000000E+00 0.  1.
</event>
<event>
 7    1  0.2783785E-010  0.4778726E+02  0.7816164E-02  0.1312668E+00
        -11   -1    0    0    0    0  0.00000000000E+00  0.00000000000E+00  0.45593999997E+02  0.45594000000E+02  0.51100000000E-03 0. -1.
         11   -1    0    0    0    0 -0.00000000000E+00 -0.00000000000E+00 -0.45593999997E+02  0.45594000000E+02  0.51100000000E-03 0.  1.
    9900012    2    1    2    0    0  0.25052355215E+02  0.22742367097E+02  0.27180660415E+02  0.47787261946E+02  0.19999958518E+02 0.  0.
        -12    1    1    2    0    0 -0.25052355215E+02 -0.22742367097E+02 -0.27180660415E+02  0.43400738054E+02  0.00000000000E+00 0.  1.
         11    1    3    3    0    0  0.93801513214E+01  0.61581510397E+01  0.14872749242E+02  0.18630854336E+02  0.51100000000E-03 0. -1.
        -11    1    3    3    0    0  0.17459251968E+02  0.17132203606E+02  0.12055158963E+02  0.27270217043E+02  0.51100000000E-03 0.  1.
        -12    1    3    3    0    0 -0.17870480745E+01 -0.54798754861E+00  0.25275221006E+00  0.18861905666E+01  0.00000000000E+00 0.  1.
</event>
<event>
 7    1  0.2783785E-010  0.4778728E+02  0.7816164E-02  0.1312668E+00
        -11   -1    0    0    0    0  0.00000000000E+00  0.00000000000E+00  0.45593999997E+02  0.45594000000E+02  0.51100000000E-03 0.  1.
         11   -1    0    0    0    0 -0.00000000000E+00 -0.00000000000E+00 -0.45593999997E+02  0.45594000000E+02  0.51100000000E-03 0. -1.
    9900012    2    1    2    0    0 -0.13553133969E+02 -0.83184130142E+01 -0.40382405207E+02  0.47787284732E+02  0.20000062406E+02 0.  0.
        -12    1    1    2    0    0  0.13553133969E+02  0.83184130142E+01  0.40382405207E+02  0.43400715268E+02  0.00000000000E+00 0.  1.
         11    1    3    3    0    0 -0.15189977434E+02 -0.96500769595E+01 -0.39437052338E+02  0.43349054166E+02  0.51100000000E-03 0. -1.
        -11    1    3    3    0    0  0.19691098954E+01 -0.61306837264E+00 -0.12940926637E+01  0.24347325712E+01  0.51100000000E-03 0.  1.
         12    1    3    3    0    0 -0.33226643043E+00  0.19447323179E+01  0.34873979413E+00  0.20034979943E+01  0.00000000000E+00 0. -1.
</event>
<event>
 7    1  0.2783785E-010  0.4778727E+02  0.7816164E-02  0.1312668E+00
        -11   -1    0    0    0    0  0.00000000000E+00  0.00000000000E+00  0.45593999997E+02  0.45594000000E+02  0.51100000000E-03 0. -1.
         11   -1    0    0    0    0 -0.00000000000E+00 -0.00000000000E+00 -0.45593999997E+02  0.45594000000E+02  0.51100000000E-03 0.  1.
    9900012    2    1    2    0    0  0.10097986138E+02  0.36710915889E+02  0.20831764910E+02  0.47787273062E+02  0.20000009199E+02 0.  0.
        -12    1    1    2    0    0 -0.10097986138E+02 -0.36710915889E+02 -0.20831764910E+02  0.43400726938E+02  0.00000000000E+00 0.  1.
         11    1    3    3    0    0  0.44188981626E+01  0.16648392765E+02  0.17365873230E+02  0.24459542022E+02  0.51100000000E-03 0. -1.
        -11    1    3    3    0    0  0.29423901008E+01  0.75764957393E+01  0.62410518338E+01  0.10247520454E+02  0.51100000000E-03 0.  1.
        -12    1    3    3    0    0  0.27366978746E+01  0.12486027385E+02 -0.27751601534E+01  0.13080210586E+02  0.00000000000E+00 0.  1.
</event>
<event>
 7    1  0.2783785E-010  0.4778727E+02  0.7816164E-02  0.1312668E+00
        -11   -1    0    0    0    0  0.00000000000E+00  0.00000000000E+00  0.45593999997E+02  0.45594000000E+02  0.51100000000E-03 0.  1.
         11   -1    0    0    0    0 -0.00000000000E+00 -0.00000000000E+00 -0.45593999997E+02  0.45594000000E+02  0.51100000000E-03 0. -1.
    9900012    2    1    2    0    0 -0.17743269766E+02  0.10073525596E+02 -0.38305667308E+02  0.47787266275E+02  0.19999978254E+02 0.  0.
        -12    1    1    2    0    0  0.17743269766E+02 -0.10073525596E+02  0.38305667308E+02  0.43400733725E+02  0.00000000000E+00 0.  1.
         11    1    3    3    0    0 -0.20775568816E+02  0.63895018183E+01 -0.28593088075E+02  0.35916774340E+02  0.51100000000E-03 0. -1.
        -11    1    3    3    0    0  0.20536785005E+01  0.59224503067E+00 -0.78391141041E+01  0.81252729036E+01  0.51100000000E-03 0.  1.
        -12    1    3    3    0    0  0.97862054876E+00  0.30917787472E+01 -0.18734651291E+01  0.37452190309E+01  0.00000000000E+00 0.  1.
</event>
<event>
 7    1  0.2783785E-010  0.4778727E+02  0.7816164E-02  0.1312668E+00
        -11   -1    0    0    0    0  0.00000000000E+00  0.00000000000E+00  0.45593999997E+02  0.45594000000E+02  0.51100000000E-03 0. -1.
         11   -1    0    0    0    0 -0.00000000000E+00 -0.00000000000E+00 -0.45593999997E+02  0.45594000000E+02  0.51100000000E-03 0.  1.
    9900012    2    1    2    0    0  0.35343513933E+02 -0.20154997691E+02  0.15107458690E+02  0.47787271698E+02  0.20000002981E+02 0.  0.
        -12    1    1    2    0    0 -0.35343513933E+02  0.20154997691E+02 -0.15107458690E+02  0.43400728302E+02  0.00000000000E+00 0.  1.
         11    1    3    3    0    0  0.17365489335E+01  0.38424633978E+00 -0.19034767987E+01  0.26050857246E+01  0.51100000000E-03 0. -1.
        -11    1    3    3    0    0  0.30068373887E+02 -0.16315731828E+02  0.88511521617E+01  0.35336285998E+02  0.51100000000E-03 0.  1.
         12    1    3    3    0    0  0.35385911124E+01 -0.42235122025E+01  0.81597833269E+01  0.98458999755E+01  0.00000000000E+00 0. -1.
</event>
<event>
 7    1  0.2783785E-010  0.4778727E+02  0.7816164E-02  0.1312668E+00
        -11   -1    0    0    0    0  0.00000000000E+00  0.00000000000E+00  0.45593999997E+02  0.45594000000E+02  0.51100000000E-03 0. -1.
         11   -1    0    0    0    0 -0.00000000000E+00 -0.00000000000E+00 -0.45593999997E+02  0.45594000000E+02  0.51100000000E-03 0.  1.
    9900012    2    1    2    0    0  0.32995753001E+02  0.20829901914E+02  0.19000484257E+02  0.47787274984E+02  0.20000017964E+02 0.  0.
        -12    1    1    2    0    0 -0.32995753001E+02 -0.20829901914E+02 -0.19000484257E+02  0.43400725016E+02  0.00000000000E+00 0.  1.
         11    1    3    3    0    0  0.12859983546E+02  0.58607270500E+01  0.32785513199E+01  0.14507797813E+02  0.51100000000E-03 0. -1.
        -11    1    3    3    0    0  0.23346292852E+01  0.97830316366E+01  0.21062365906E+01  0.10275915275E+02  0.51100000000E-03 0.  1.
        -12    1    3    3    0    0  0.17801140170E+02  0.51861432278E+01  0.13615696347E+02  0.23003561897E+02  0.00000000000E+00 0.  1.
</event>
<event>
 7    1  0.2783785E-010  0.4778727E+02  0.7816164E-02  0.1312668E+00
        -11   -1    0    0    0    0  0.00000000000E+00  0.00000000000E+00  0.45593999997E+02  0.45594000000E+02  0.51100000000E-03 0.  1.
         11   -1    0    0    0    0 -0.00000000000E+00 -0.00000000000E+00 -0.45593999997E+02  0.45594000000E+02  0.51100000000E-03 0. -1.
    9900012    2    1    2    0    0 -0.34058955867E+02 -0.25302032124E+02 -0.91333357281E+01  0.47787272750E+02  0.20000007774E+02 0.  0.
        -12    1    1    2    0    0  0.34058955867E+02  0.25302032124E+02  0.91333357281E+01  0.43400727250E+02  0.00000000000E+00 0.  1.
         11    1    3    3    0    0 -0.36692672492E+01 -0.20240727396E+01 -0.50346442011E+01  0.65504225126E+01  0.51100000000E-03 0. -1.
        -11    1    3    3    0    0 -0.53361893215E+01 -0.28826058428E+01 -0.64402780744E+01  0.88465538407E+01  0.51100000000E-03 0.  1.
         12    1    3    3    0    0 -0.25053499296E+02 -0.20395353541E+02  0.23415865474E+01  0.32390296396E+02  0.00000000000E+00 0. -1.
</event>
<event>
 7    1  0.2783785E-010  0.4778729E+02  0.7816164E-02  0.1312668E+00
        -11   -1    0    0    0    0  0.00000000000E+00  0.00000000000E+00  0.45593999997E+02  0.45594000000E+02  0.51100000000E-03 0. -1.
         11   -1    0    0    0    0 -0.00000000000E+00 -0.00000000000E+00 -0.45593999997E+02  0.45594000000E+02  0.51100000000E-03 0.  1.
    9900012    2    1    2    0    0 -0.35731931791E+02  0.24631995565E+02  0.34014895153E+00  0.47787287375E+02  0.20000074458E+02 0.  0.
        -12    1    1    2    0    0  0.35731931791E+02 -0.24631995565E+02 -0.34014895153E+00  0.43400712625E+02  0.00000000000E+00 0.  1.
         11    1    3    3    0    0 -0.23923213320E+02  0.95123195827E+01 -0.78403996536E+01  0.26912380541E+02  0.51100000000E-03 0. -1.
        -11    1    3    3    0    0 -0.32899167302E+01  0.40275976491E+01  0.26323709165E+01  0.58287624602E+01  0.51100000000E-03 0.  1.
         12    1    3    3    0    0 -0.85188017408E+01  0.11092078334E+02  0.55481776886E+01  0.15046144374E+02  0.00000000000E+00 0. -1.
</event>
<event>
 7    1  0.2783785E-010  0.4778727E+02  0.7816164E-02  0.1312668E+00
        -11   -1    0    0    0    0  0.00000000000E+00  0.00000000000E+00  0.45593999997E+02  0.45594000000E+02  0.51100000000E-03 0.  1.
         11   -1    0    0    0    0 -0.00000000000E+00 -0.00000000000E+00 -0.45593999997E+02  0.45594000000E+02  0.51100000000E-03 0. -1.
    9900012    2    1    2    0    0 -0.31349445018E+02  0.10390653723E+01 -0.29995936123E+02  0.47787267936E+02  0.19999985828E+02 0.  0.
        -12    1    1    2    0    0  0.31349445018E+02 -0.10390653723E+01  0.29995936123E+02  0.43400732064E+02  0.00000000000E+00 0.  1.
         11    1    3    3    0    0 -0.17391048292E+02  0.30664242523E+00 -0.67093972432E+01  0.18642923642E+02  0.51100000000E-03 0. -1.
        -11    1    3    3    0    0 -0.14860559290E+01 -0.39279802665E+01 -0.51537909355E+01  0.66482292730E+01  0.51100000000E-03 0.  1.
        -12    1    3    3    0    0 -0.12472340797E+02  0.46604032135E+01 -0.18132747944E+02  0.22496115022E+02  0.00000000000E+00 0.  1.
</event>
<event>
 7    1  0.2783785E-010  0.4778727E+02  0.7816164E-02  0.1312668E+00
        -11   -1    0    0    0    0  0.00000000000E+00  0.00000000000E+00  0.45593999997E+02  0.45594000000E+02  0.51100000000E-03 0.  1.
         11   -1    0    0    0    0 -0.00000000000E+00 -0.00000000000E+00 -0.45593999997E+02  0.45594000000E+02  0.51100000000E-03 0. -1.
    9900012    2    1    2    0    0  0.14372345046E+02  0.35022725949E+02 -0.21224219980E+02  0.47787272486E+02  0.20000006572E+02 0.  0.
        -12    1    1    2    0    0 -0.14372345046E+02 -0.35022725949E+02  0.21224219980E+02  0.43400727514E+02  0.00000000000E+00 0.  1.
         11    1    3    3    0    0  0.17355590282E+01  0.73758559490E+01 -0.35420453178E+01  0.83642992185E+01  0.51100000000E-03 0. -1.
        -11    1    3    3    0    0  0.86469810201E+01  0.18917403379E+02 -0.18153659286E+01  0.20879032187E+02  0.51100000000E-03 0.  1.
         12    1    3    3    0    0  0.39898049974E+01  0.87294666216E+01 -0.15866808733E+02  0.18543941080E+02  0.00000000000E+00 0. -1.
</event>
<event>
 7    1  0.2783785E-010  0.4778727E+02  0.7816164E-02  0.1312668E+00
        -11   -1    0    0    0    0  0.00000000000E+00  0.00000000000E+00  0.45593999997E+02  0.45594000000E+02  0.51100000000E-03 0.  1.
         11   -1    0    0    0    0 -0.00000000000E+00 -0.00000000000E+00 -0.45593999997E+02  0.45594000000E+02  0.51100000000E-03 0. -1.
    9900012    2    1    2    0    0 -0.38407978388E+02  0.19518326155E+02 -0.52426553603E+01  0.47787270802E+02  0.19999998893E+02 0.  0.
        -12    1    1    2    0    0  0.38407978388E+02 -0.19518326155E+02  0.52426553603E+01  0.43400729198E+02  0.00000000000E+00 0.  1.
         11    1    3    3    0    0 -0.11712559898E+02  0.15782986987E+01 -0.13090607354E+00  0.11819146451E+02  0.51100000000E-03 0. -1.
        -11    1    3    3    0    0 -0.17172413941E+02  0.76192883202E+01  0.40266985318E+01  0.19213527952E+02  0.51100000000E-03 0.  1.
         12    1    3    3    0    0 -0.95230045485E+01  0.10320739136E+02 -0.91384478186E+01  0.16754596399E+02  0.00000000000E+00 0. -1.
</event>
<event>
 7    1  0.2783785E-010  0.4778727E+02  0.7816164E-02  0.1312668E+00
        -11   -1    0    0    0    0  0.00000000000E+00  0.00000000000E+00  0.45593999997E+02  0.45594000000E+02  0.51100000000E-03 0.  1.
         11   -1    0    0    0    0 -0.00000000000E+00 -0.00000000000E+00 -0.45593999997E+02  0.45594000000E+02  0.51100000000E-03 0. -1.
    9900012    2    1    2    0    0 -0.10004361364E+02 -0.26064708715E+02 -0.33229009025E+02  0.47787270427E+02  0.19999997183E+02 0.  0.
        -12    1    1    2    0    0  0.10004361364E+02  0.26064708715E+02  0.33229009025E+02  0.43400729573E+02  0.00000000000E+00 0.  1.
         11    1    3    3    0    0 -0.10067938946E+02 -0.17342377872E+02 -0.18150354068E+02  0.27047307037E+02  0.51100000000E-03 0. -1.
        -11    1    3    3    0    0  0.22036455786E+01 -0.89436618813E+01 -0.15950043804E+02  0.18418714376E+02  0.51100000000E-03 0.  1.
        -12    1    3    3    0    0 -0.21400679972E+01  0.22133103852E+00  0.87138884643E+00  0.23212490136E+01  0.00000000000E+00 0.  1.
</event>
<event>
 7    1  0.2783785E-010  0.4778727E+02  0.7816164E-02  0.1312668E+00
        -11   -1    0    0    0    0  0.00000000000E+00  0.00000000000E+00  0.45593999997E+02  0.45594000000E+02  0.51100000000E-03 0.  1.
         11   -1    0    0    0    0 -0.00000000000E+00 -0.00000000000E+00 -0.45593999997E+02  0.45594000000E+02  0.51100000000E-03 0. -1.
    9900012    2    1    2    0    0 -0.37294211002E+02 -0.45868537447E+01 -0.21719245121E+02  0.47787274082E+02  0.20000013852E+02 0.  0.
        -12    1    1    2    0    0  0.37294211002E+02  0.45868537447E+01  0.21719245121E+02  0.43400725918E+02  0.00000000000E+00 0.  1.
         11    1    3    3    0    0 -0.24756551855E+02  0.91398386735E+00 -0.12697787797E+02  0.27838032284E+02  0.51100000000E-03 0. -1.
        -11    1    3    3    0    0 -0.22944209029E+01  0.12632373843E+01  0.21217190021E+01  0.33707310414E+01  0.51100000000E-03 0.  1.
         12    1    3    3    0    0 -0.10243238245E+02 -0.67640749964E+01 -0.11143176326E+02  0.16578510757E+02  0.00000000000E+00 0. -1.
</event>
<event>
 7    1  0.2783785E-010  0.4778727E+02  0.7816164E-02  0.1312668E+00
        -11   -1    0    0    0    0  0.00000000000E+00  0.00000000000E+00  0.45593999997E+02  0.45594000000E+02  0.51100000000E-03 0.  1.
         11   -1    0    0    0    0 -0.00000000000E+00 -0.00000000000E+00 -0.45593999997E+02  0.45594000000E+02  0.51100000000E-03 0. -1.
    9900012    2    1    2    0    0  0.25911788561E+02  0.13723485648E+02 -0.31997944320E+02  0.47787270911E+02  0.19999999392E+02 0.  0.
        -12    1    1    2    0    0 -0.25911788561E+02 -0.13723485648E+02  0.31997944320E+02  0.43400729089E+02  0.00000000000E+00 0.  1.
         11    1    3    3    0    0 -0.52868104672E+00  0.31527787703E+01 -0.49950324768E+00  0.32355867133E+01  0.51100000000E-03 0.  1.
        -11    1    3    3    0    0  0.15483919303E+02  0.43986939922E+01 -0.26528165866E+02  0.31029725270E+02  0.51100000000E-03 0. -1.
         12    1    3    3    0    0  0.10956550304E+02  0.61720128858E+01 -0.49702752056E+01  0.13521958928E+02  0.00000000000E+00 0. -1.
</event>
<event>
 7    1  0.2783785E-010  0.4778727E+02  0.7816164E-02  0.1312668E+00
        -11   -1    0    0    0    0  0.00000000000E+00  0.00000000000E+00  0.45593999997E+02  0.45594000000E+02  0.51100000000E-03 0.  1.
         11   -1    0    0    0    0 -0.00000000000E+00 -0.00000000000E+00 -0.45593999997E+02  0.45594000000E+02  0.51100000000E-03 0. -1.
    9900012    2    1    2    0    0 -0.20421289161E+02 -0.10459866756E+02 -0.36839997210E+02  0.47787271228E+02  0.20000000835E+02 0.  0.
        -12    1    1    2    0    0  0.20421289161E+02  0.10459866756E+02  0.36839997210E+02  0.43400728772E+02  0.00000000000E+00 0.  1.
         11    1    3    3    0    0 -0.12439306497E+02 -0.10074386021E+02 -0.10877688610E+02  0.19353390131E+02  0.51100000000E-03 0.  1.
        -11    1    3    3    0    0  0.12208143229E+01  0.14363397177E+01 -0.73901088668E+01  0.76267403732E+01  0.51100000000E-03 0. -1.
        -12    1    3    3    0    0 -0.92027969873E+01 -0.18218204525E+01 -0.18572199733E+02  0.20807140723E+02  0.00000000000E+00 0.  1.
</event>
<event>
 7    1  0.2783785E-010  0.4778729E+02  0.7816164E-02  0.1312668E+00
        -11   -1    0    0    0    0  0.00000000000E+00  0.00000000000E+00  0.45593999997E+02  0.45594000000E+02  0.51100000000E-03 0.  1.
         11   -1    0    0    0    0 -0.00000000000E+00 -0.00000000000E+00 -0.45593999997E+02  0.45594000000E+02  0.51100000000E-03 0. -1.
    9900012    2    1    2    0    0 -0.23386015565E+02 -0.21055520926E+01 -0.36500451725E+02  0.47787285147E+02  0.20000064299E+02 0.  0.
        -12    1    1    2    0    0  0.23386015565E+02  0.21055520926E+01  0.36500451725E+02  0.43400714853E+02  0.00000000000E+00 0.  1.
         11    1    3    3    0    0 -0.19934200384E+02 -0.16626925393E+01 -0.23085214744E+02  0.30546096829E+02  0.51100000000E-03 0. -1.
        -11    1    3    3    0    0 -0.29988822647E+01  0.22433491453E+01 -0.13968159500E+02  0.14461514109E+02  0.51100000000E-03 0.  1.
        -12    1    3    3    0    0 -0.45293291572E+00 -0.26862086986E+01  0.55292251937E+00  0.27796742095E+01  0.00000000000E+00 0.  1.
</event>
<event>
 7    1  0.2783785E-010  0.4778727E+02  0.7816164E-02  0.1312668E+00
        -11   -1    0    0    0    0  0.00000000000E+00  0.00000000000E+00  0.45593999997E+02  0.45594000000E+02  0.51100000000E-03 0.  1.
         11   -1    0    0    0    0 -0.00000000000E+00 -0.00000000000E+00 -0.45593999997E+02  0.45594000000E+02  0.51100000000E-03 0. -1.
    9900012    2    1    2    0    0  0.60043790917E+00 -0.43208932823E+02 -0.40312662348E+01  0.47787268338E+02  0.19999987660E+02 0.  0.
        -12    1    1    2    0    0 -0.60043790917E+00  0.43208932823E+02  0.40312662348E+01  0.43400731662E+02  0.00000000000E+00 0.  1.
         11    1    3    3    0    0 -0.39857435079E+01 -0.27901420256E+02 -0.80831623156E+01  0.29320861463E+02  0.51100000000E-03 0. -1.
        -11    1    3    3    0    0  0.32840639466E+01 -0.15644260724E+01 -0.98982427846E+00  0.37699147610E+01  0.51100000000E-03 0.  1.
        -12    1    3    3    0    0  0.13021174704E+01 -0.13743086494E+02  0.50417203593E+01  0.14696492114E+02  0.00000000000E+00 0.  1.
</event>
<event>
 7    1  0.2783785E-010  0.4778727E+02  0.7816164E-02  0.1312668E+00
        -11   -1    0    0    0    0  0.00000000000E+00  0.00000000000E+00  0.45593999997E+02  0.45594000000E+02  0.51100000000E-03 0.  1.
         11   -1    0    0    0    0 -0.00000000000E+00 -0.00000000000E+00 -0.45593999997E+02  0.45594000000E+02  0.51100000000E-03 0. -1.
    9900012    2    1    2    0    0 -0.21228977703E+02  0.28815919786E+02 -0.24547842376E+02  0.47787270827E+02  0.19999999010E+02 0.  0.
        -12    1    1    2    0    0  0.21228977703E+02 -0.28815919786E+02  0.24547842376E+02  0.43400729173E+02  0.00000000000E+00 0.  1.
         11    1    3    3    0    0 -0.16025225007E+02  0.19204059615E+02 -0.21459208825E+02  0.32956052340E+02  0.51100000000E-03 0. -1.
        -11    1    3    3    0    0 -0.76078044279E+01  0.69259282675E+01 -0.33245720474E+00  0.10293575600E+02  0.51100000000E-03 0.  1.
        -12    1    3    3    0    0  0.24040517318E+01  0.26859319029E+01 -0.27561763466E+01  0.45376428870E+01  0.00000000000E+00 0.  1.
</event>
<event>
 7    1  0.2783785E-010  0.4778727E+02  0.7816164E-02  0.1312668E+00
        -11   -1    0    0    0    0  0.00000000000E+00  0.00000000000E+00  0.45593999997E+02  0.45594000000E+02  0.51100000000E-03 0.  1.
         11   -1    0    0    0    0 -0.00000000000E+00 -0.00000000000E+00 -0.45593999997E+02  0.45594000000E+02  0.51100000000E-03 0. -1.
    9900012    2    1    2    0    0  0.45790394672E+01  0.31169929113E+02 -0.29851147958E+02  0.47787272842E+02  0.20000008198E+02 0.  0.
        -12    1    1    2    0    0 -0.45790394672E+01 -0.31169929113E+02  0.29851147958E+02  0.43400727158E+02  0.00000000000E+00 0.  1.
         11    1    3    3    0    0  0.46002922293E+01  0.11411257498E+02 -0.15327153255E+02  0.19654544346E+02  0.51100000000E-03 0. -1.
        -11    1    3    3    0    0  0.25345363278E+01  0.12125057898E+02 -0.10428266596E+01  0.12430944901E+02  0.51100000000E-03 0.  1.
         12    1    3    3    0    0 -0.25557890900E+01  0.76336137173E+01 -0.13481168044E+02  0.15701783596E+02  0.00000000000E+00 0. -1.
</event>
<event>
 7    1  0.2923203E-010  0.4778727E+02  0.7816164E-02  0.1312668E+00
        -11   -1    0    0    0    0  0.00000000000E+00  0.00000000000E+00  0.45593999997E+02  0.45594000000E+02  0.51100000000E-03 0.  1.
         11   -1    0    0    0    0 -0.00000000000E+00 -0.00000000000E+00 -0.45593999997E+02  0.45594000000E+02  0.51100000000E-03 0. -1.
    9900012    2    1    2    0    0  0.43029809955E+02 -0.53148999119E+01 -0.19520891587E+01  0.47787270076E+02  0.19999995585E+02 0.  0.
        -12    1    1    2    0    0 -0.43029809955E+02  0.53148999119E+01  0.19520891587E+01  0.43400729924E+02  0.00000000000E+00 0.  1.
         11    1    3    3    0    0  0.29457785310E+02  0.22931471463E+01  0.25908276316E+01  0.29660276926E+02  0.51100000000E-03 0. -1.
        -11    1    3    3    0    0  0.12570461652E+02 -0.35154715731E+01 -0.47961410556E+01  0.13906042421E+02  0.51100000000E-03 0.  1.
        -12    1    3    3    0    0  0.10015629923E+01 -0.40925754851E+01  0.25322426532E+00  0.42209507291E+01  0.00000000000E+00 0.  1.
</event>
<event>
 7    1  0.2783785E-010  0.4778727E+02  0.7816164E-02  0.1312668E+00
        -11   -1    0    0    0    0  0.00000000000E+00  0.00000000000E+00  0.45593999997E+02  0.45594000000E+02  0.51100000000E-03 0.  1.
         11   -1    0    0    0    0 -0.00000000000E+00 -0.00000000000E+00 -0.45593999997E+02  0.45594000000E+02  0.51100000000E-03 0. -1.
    9900012    2    1    2    0    0  0.26520648514E+02  0.11137577372E+02 -0.32499736691E+02  0.47787270602E+02  0.19999997981E+02 0.  0.
        -12    1    1    2    0    0 -0.26520648514E+02 -0.11137577372E+02  0.32499736691E+02  0.43400729398E+02  0.00000000000E+00 0.  1.
         11    1    3    3    0    0  0.13005989596E+01  0.29615889204E+01  0.10644066592E+01  0.34052207541E+01  0.51100000000E-03 0. -1.
        -11    1    3    3    0    0  0.95327466550E+01  0.60902460949E+01 -0.22145029623E+02  0.24866979985E+02  0.51100000000E-03 0.  1.
         12    1    3    3    0    0  0.15687302900E+02  0.20857423569E+01 -0.11419113726E+02  0.19515069863E+02  0.00000000000E+00 0. -1.
</event>
<event>
 7    1  0.2783785E-010  0.4778726E+02  0.7816164E-02  0.1312668E+00
        -11   -1    0    0    0    0  0.00000000000E+00  0.00000000000E+00  0.45593999997E+02  0.45594000000E+02  0.51100000000E-03 0.  1.
         11   -1    0    0    0    0 -0.00000000000E+00 -0.00000000000E+00 -0.45593999997E+02  0.45594000000E+02  0.51100000000E-03 0. -1.
    9900012    2    1    2    0    0 -0.30531870490E+02  0.21429485717E+02 -0.22185719505E+02  0.47787261255E+02  0.19999955365E+02 0.  0.
        -12    1    1    2    0    0  0.30531870490E+02 -0.21429485717E+02  0.22185719505E+02  0.43400738745E+02  0.00000000000E+00 0.  1.
         11    1    3    3    0    0 -0.11838704729E+02  0.28634567246E+01 -0.18653642177E+01  0.12322089839E+02  0.51100000000E-03 0. -1.
        -11    1    3    3    0    0 -0.18345752162E+02  0.16596118339E+02 -0.13140685477E+02  0.28012057786E+02  0.51100000000E-03 0.  1.
        -12    1    3    3    0    0 -0.34741359834E+00  0.19699106528E+01 -0.71796698110E+01  0.74531136302E+01  0.00000000000E+00 0.  1.
</event>
<event>
 7    1  0.2783785E-010  0.4778727E+02  0.7816164E-02  0.1312668E+00
        -11   -1    0    0    0    0  0.00000000000E+00  0.00000000000E+00  0.45593999997E+02  0.45594000000E+02  0.51100000000E-03 0.  1.
         11   -1    0    0    0    0 -0.00000000000E+00 -0.00000000000E+00 -0.45593999997E+02  0.45594000000E+02  0.51100000000E-03 0. -1.
    9900012    2    1    2    0    0 -0.16952330310E+02 -0.18562986709E+02 -0.35378767091E+02  0.47787272594E+02  0.20000007064E+02 0.  0.
        -12    1    1    2    0    0  0.16952330310E+02  0.18562986709E+02  0.35378767091E+02  0.43400727406E+02  0.00000000000E+00 0.  1.
         11    1    3    3    0    0  0.16988353203E+01 -0.72712717885E+01 -0.93634670063E+01  0.11976307841E+02  0.51100000000E-03 0. -1.
        -11    1    3    3    0    0 -0.52734119752E+01  0.20631675407E+01 -0.69246765510E+01  0.89452042883E+01  0.51100000000E-03 0.  1.
        -12    1    3    3    0    0 -0.13377753655E+02 -0.13354882461E+02 -0.19090623534E+02  0.26865760464E+02  0.00000000000E+00 0.  1.
</event>
<event>
 7    1  0.2783785E-010  0.4778727E+02  0.7816164E-02  0.1312668E+00
        -11   -1    0    0    0    0  0.00000000000E+00  0.00000000000E+00  0.45593999997E+02  0.45594000000E+02  0.51100000000E-03 0.  1.
         11   -1    0    0    0    0 -0.00000000000E+00 -0.00000000000E+00 -0.45593999997E+02  0.45594000000E+02  0.51100000000E-03 0. -1.
    9900012    2    1    2    0    0 -0.35501402183E+02 -0.24947683771E+02 -0.94165129811E+00  0.47787272014E+02  0.20000004422E+02 0.  0.
        -12    1    1    2    0    0  0.35501402183E+02  0.24947683771E+02  0.94165129811E+00  0.43400727986E+02  0.00000000000E+00 0.  1.
         11    1    3    3    0    0 -0.48125604039E+01 -0.90170675387E+01 -0.28566193348E+01  0.10612658429E+02  0.51100000000E-03 0. -1.
        -11    1    3    3    0    0 -0.18471635266E+02 -0.14381228193E+02  0.60585904351E+01  0.24181140421E+02  0.51100000000E-03 0.  1.
         12    1    3    3    0    0 -0.12217206514E+02 -0.15493880388E+01 -0.41436223983E+01  0.12993473164E+02  0.00000000000E+00 0. -1.
</event>
<event>
 7    1  0.2783785E-010  0.4778727E+02  0.7816164E-02  0.1312668E+00
        -11   -1    0    0    0    0  0.00000000000E+00  0.00000000000E+00  0.45593999997E+02  0.45594000000E+02  0.51100000000E-03 0. -1.
         11   -1    0    0    0    0 -0.00000000000E+00 -0.00000000000E+00 -0.45593999997E+02  0.45594000000E+02  0.51100000000E-03 0.  1.
    9900012    2    1    2    0    0 -0.33654246963E+02  0.26976930966E+02  0.48228858414E+01  0.47787269928E+02  0.19999994908E+02 0.  0.
        -12    1    1    2    0    0  0.33654246963E+02 -0.26976930966E+02 -0.48228858414E+01  0.43400730072E+02  0.00000000000E+00 0.  1.
         11    1    3    3    0    0 -0.13452883648E+02  0.87292283281E+01  0.28875620202E+01  0.16294708354E+02  0.51100000000E-03 0. -1.
        -11    1    3    3    0    0 -0.57086533473E+01  0.37165581401E+00 -0.48502864076E+01  0.75001419707E+01  0.51100000000E-03 0.  1.
        -12    1    3    3    0    0 -0.14492709967E+02  0.17876046823E+02  0.67856102288E+01  0.23992419603E+02  0.00000000000E+00 0.  1.
</event>
<event>
 7    1  0.2783785E-010  0.4778727E+02  0.7816164E-02  0.1312668E+00
        -11   -1    0    0    0    0  0.00000000000E+00  0.00000000000E+00  0.45593999997E+02  0.45594000000E+02  0.51100000000E-03 0. -1.
         11   -1    0    0    0    0 -0.00000000000E+00 -0.00000000000E+00 -0.45593999997E+02  0.45594000000E+02  0.51100000000E-03 0.  1.
    9900012    2    1    2    0    0 -0.89134669162E+01 -0.26722042636E+02  0.33016756560E+02  0.47787266494E+02  0.19999979251E+02 0.  0.
        -12    1    1    2    0    0  0.89134669162E+01  0.26722042636E+02 -0.33016756560E+02  0.43400733506E+02  0.00000000000E+00 0.  1.
         11    1    3    3    0    0 -0.39199959484E+01 -0.77871973599E+01  0.74859859655E+01  0.11491161695E+02  0.51100000000E-03 0. -1.
        -11    1    3    3    0    0  0.25126795277E+01 -0.46864033550E+01  0.17519802603E+02  0.18308998289E+02  0.51100000000E-03 0.  1.
        -12    1    3    3    0    0 -0.75061504956E+01 -0.14248441922E+02  0.80109679915E+01  0.17987106510E+02  0.00000000000E+00 0.  1.
</event>
<event>
 7    1  0.2783785E-010  0.4778727E+02  0.7816164E-02  0.1312668E+00
        -11   -1    0    0    0    0  0.00000000000E+00  0.00000000000E+00  0.45593999997E+02  0.45594000000E+02  0.51100000000E-03 0.  1.
         11   -1    0    0    0    0 -0.00000000000E+00 -0.00000000000E+00 -0.45593999997E+02  0.45594000000E+02  0.51100000000E-03 0. -1.
    9900012    2    1    2    0    0  0.97947510249E+01 -0.33250279055E+02 -0.26117145737E+02  0.47787268366E+02  0.19999987790E+02 0.  0.
        -12    1    1    2    0    0 -0.97947510249E+01  0.33250279055E+02  0.26117145737E+02  0.43400731634E+02  0.00000000000E+00 0.  1.
         11    1    3    3    0    0 -0.23588568813E+01 -0.17301549911E+02 -0.20317741396E+02  0.26790267837E+02  0.51100000000E-03 0. -1.
        -11    1    3    3    0    0  0.43158885898E+01 -0.75196167804E+01 -0.25197574266E+01  0.90288819127E+01  0.51100000000E-03 0.  1.
         12    1    3    3    0    0  0.78377193164E+01 -0.84291123643E+01 -0.32796469138E+01  0.11968118616E+02  0.00000000000E+00 0. -1.
</event>
<event>
 7    1  0.2783785E-010  0.4778727E+02  0.7816164E-02  0.1312668E+00
        -11   -1    0    0    0    0  0.00000000000E+00  0.00000000000E+00  0.45593999997E+02  0.45594000000E+02  0.51100000000E-03 0. -1.
         11   -1    0    0    0    0 -0.00000000000E+00 -0.00000000000E+00 -0.45593999997E+02  0.45594000000E+02  0.51100000000E-03 0.  1.
    9900012    2    1    2    0    0  0.38358220060E+02 -0.11845236847E+02  0.16491231023E+02  0.47787269790E+02  0.19999994281E+02 0.  0.
        -12    1    1    2    0    0 -0.38358220060E+02  0.11845236847E+02 -0.16491231023E+02  0.43400730210E+02  0.00000000000E+00 0.  1.
         11    1    3    3    0    0  0.31477275045E+02 -0.43970829919E+01  0.14387701376E+02  0.34887807817E+02  0.51100000000E-03 0. -1.
        -11    1    3    3    0    0  0.61174666339E+01 -0.38851630185E+01 -0.18940561896E+01  0.74903497120E+01  0.51100000000E-03 0.  1.
         12    1    3    3    0    0  0.76347838093E+00 -0.35629908370E+01  0.39975858358E+01  0.54091122614E+01  0.00000000000E+00 0. -1.
</event>
<event>
 7    1  0.2783785E-010  0.4778727E+02  0.7816164E-02  0.1312668E+00
        -11   -1    0    0    0    0  0.00000000000E+00  0.00000000000E+00  0.45593999997E+02  0.45594000000E+02  0.51100000000E-03 0.  1.
         11   -1    0    0    0    0 -0.00000000000E+00 -0.00000000000E+00 -0.45593999997E+02  0.45594000000E+02  0.51100000000E-03 0. -1.
    9900012    2    1    2    0    0 -0.96033921692E+01  0.33957455787E+00 -0.42323551912E+02  0.47787268457E+02  0.19999988202E+02 0.  0.
        -12    1    1    2    0    0  0.96033921692E+01 -0.33957455787E+00  0.42323551912E+02  0.43400731543E+02  0.00000000000E+00 0.  1.
         11    1    3    3    0    0 -0.71323850833E+01 -0.78830143065E+01 -0.15009008310E+02  0.18392475696E+02  0.51100000000E-03 0. -1.
        -11    1    3    3    0    0 -0.24313248529E+01  0.10418613471E+01 -0.28072291128E+01  0.38571169492E+01  0.51100000000E-03 0.  1.
        -12    1    3    3    0    0 -0.39682232971E-01  0.71807275172E+01 -0.24507314489E+02  0.25537675811E+02  0.00000000000E+00 0.  1.
</event>
<event>
 7    1  0.2783785E-010  0.4778727E+02  0.7816164E-02  0.1312668E+00
        -11   -1    0    0    0    0  0.00000000000E+00  0.00000000000E+00  0.45593999997E+02  0.45594000000E+02  0.51100000000E-03 0. -1.
         11   -1    0    0    0    0 -0.00000000000E+00 -0.00000000000E+00 -0.45593999997E+02  0.45594000000E+02  0.51100000000E-03 0.  1.
    9900012    2    1    2    0    0 -0.37001611348E+02 -0.16927578211E+02  0.15098375980E+02  0.47787273005E+02  0.20000008940E+02 0.  0.
        -12    1    1    2    0    0  0.37001611348E+02  0.16927578211E+02 -0.15098375980E+02  0.43400726995E+02  0.00000000000E+00 0.  1.
         11    1    3    3    0    0 -0.15332687746E+02 -0.14224629152E+01  0.21602055698E+01  0.15549315182E+02  0.51100000000E-03 0. -1.
        -11    1    3    3    0    0 -0.20827112508E+02 -0.11277296022E+02  0.14361374529E+02  0.27698286944E+02  0.51100000000E-03 0.  1.
        -12    1    3    3    0    0 -0.84181109478E+00 -0.42278192737E+01 -0.14232041196E+01  0.45396708798E+01  0.00000000000E+00 0.  1.
</event>
<event>
 7    1  0.2783785E-010  0.4778727E+02  0.7816164E-02  0.1312668E+00
        -11   -1    0    0    0    0  0.00000000000E+00  0.00000000000E+00  0.45593999997E+02  0.45594000000E+02  0.51100000000E-03 0. -1.
         11   -1    0    0    0    0 -0.00000000000E+00 -0.00000000000E+00 -0.45593999997E+02  0.45594000000E+02  0.51100000000E-03 0.  1.
    9900012    2    1    2    0    0 -0.13783051953E+01  0.56414343926E+01  0.43010435079E+02  0.47787273821E+02  0.20000012657E+02 0.  0.
        -12    1    1    2    0    0  0.13783051953E+01 -0.56414343926E+01 -0.43010435079E+02  0.43400726179E+02  0.00000000000E+00 0.  1.
         11    1    3    3    0    0 -0.33918455528E+01 -0.32014323206E+01  0.45347272492E+01  0.65051930519E+01  0.51100000000E-03 0. -1.
        -11    1    3    3    0    0  0.57020041150E+01  0.69962613426E+01  0.15477196547E+02  0.17916588317E+02  0.51100000000E-03 0.  1.
         12    1    3    3    0    0 -0.36884637575E+01  0.18466053705E+01  0.22998511283E+02  0.23365492452E+02  0.00000000000E+00 0. -1.
</event>
<event>
 7    1  0.2783785E-010  0.4778727E+02  0.7816164E-02  0.1312668E+00
        -11   -1    0    0    0    0  0.00000000000E+00  0.00000000000E+00  0.45593999997E+02  0.45594000000E+02  0.51100000000E-03 0. -1.
         11   -1    0    0    0    0 -0.00000000000E+00 -0.00000000000E+00 -0.45593999997E+02  0.45594000000E+02  0.51100000000E-03 0.  1.
    9900012    2    1    2    0    0  0.36878709964E+02 -0.22686333035E+02 -0.29856956687E+01  0.47787270354E+02  0.19999996851E+02 0.  0.
        -12    1    1    2    0    0 -0.36878709964E+02  0.22686333035E+02  0.29856956687E+01  0.43400729646E+02  0.00000000000E+00 0.  1.
         11    1    3    3    0    0  0.18802692264E+02 -0.89142672350E+01 -0.15704180614E+01  0.20867956533E+02  0.51100000000E-03 0. -1.
        -11    1    3    3    0    0  0.23332957866E+01 -0.43042328429E+01 -0.62346086421E+01  0.79272337405E+01  0.51100000000E-03 0.  1.
        -12    1    3    3    0    0  0.15742721914E+02 -0.94678329567E+01  0.48193310349E+01  0.18992080080E+02  0.00000000000E+00 0.  1.
</event>
<event>
 7    1  0.2783785E-010  0.4778727E+02  0.7816164E-02  0.1312668E+00
        -11   -1    0    0    0    0  0.00000000000E+00  0.00000000000E+00  0.45593999997E+02  0.45594000000E+02  0.51100000000E-03 0.  1.
         11   -1    0    0    0    0 -0.00000000000E+00 -0.00000000000E+00 -0.45593999997E+02  0.45594000000E+02  0.51100000000E-03 0. -1.
    9900012    2    1    2    0    0  0.24485537505E+02  0.16070114126E+02 -0.32028632594E+02  0.47787269352E+02  0.19999992282E+02 0.  0.
        -12    1    1    2    0    0 -0.24485537505E+02 -0.16070114126E+02  0.32028632594E+02  0.43400730648E+02  0.00000000000E+00 0.  1.
         11    1    3    3    0    0  0.10543289724E+02  0.99299776079E+01 -0.14769441715E+02  0.20685787931E+02  0.51100000000E-03 0. -1.
        -11    1    3    3    0    0  0.14973250283E+02  0.85979611341E+00 -0.98432381399E+01  0.17939532066E+02  0.51100000000E-03 0.  1.
         12    1    3    3    0    0 -0.10310025013E+01  0.52803404052E+01 -0.74159527395E+01  0.91619493552E+01  0.00000000000E+00 0. -1.
</event>
<event>
 7    1  0.2783785E-010  0.4778727E+02  0.7816164E-02  0.1312668E+00
        -11   -1    0    0    0    0  0.00000000000E+00  0.00000000000E+00  0.45593999997E+02  0.45594000000E+02  0.51100000000E-03 0. -1.
         11   -1    0    0    0    0 -0.00000000000E+00 -0.00000000000E+00 -0.45593999997E+02  0.45594000000E+02  0.51100000000E-03 0.  1.
    9900012    2    1    2    0    0  0.31728636387E+02  0.24933550801E+02  0.15976066899E+02  0.47787273784E+02  0.20000012492E+02 0.  0.
        -12    1    1    2    0    0 -0.31728636387E+02 -0.24933550801E+02 -0.15976066899E+02  0.43400726216E+02  0.00000000000E+00 0.  1.
         11    1    3    3    0    0  0.51989140227E+01  0.10400240904E+02  0.93875117708E+01  0.14943864807E+02  0.51100000000E-03 0. -1.
        -11    1    3    3    0    0  0.17340406119E+02  0.15028916151E+02  0.41006455352E+01  0.23310368918E+02  0.51100000000E-03 0.  1.
         12    1    3    3    0    0  0.91893162457E+01 -0.49560625427E+00  0.24879095927E+01  0.95330400589E+01  0.00000000000E+00 0. -1.
</event>
<event>
 7    1  0.2783785E-010  0.4778727E+02  0.7816164E-02  0.1312668E+00
        -11   -1    0    0    0    0  0.00000000000E+00  0.00000000000E+00  0.45593999997E+02  0.45594000000E+02  0.51100000000E-03 0.  1.
         11   -1    0    0    0    0 -0.00000000000E+00 -0.00000000000E+00 -0.45593999997E+02  0.45594000000E+02  0.51100000000E-03 0. -1.
    9900012    2    1    2    0    0  0.35036439526E+02 -0.18885917216E+02 -0.17302982362E+02  0.47787272329E+02  0.20000005857E+02 0.  0.
        -12    1    1    2    0    0 -0.35036439526E+02  0.18885917216E+02  0.17302982362E+02  0.43400727671E+02  0.00000000000E+00 0.  1.
         11    1    3    3    0    0  0.21807222879E+02 -0.51495374198E+01 -0.70700957920E+01  0.23495934970E+02  0.51100000000E-03 0. -1.
        -11    1    3    3    0    0  0.13809636616E+02 -0.14233273228E+02 -0.70962384361E+01  0.21062970599E+02  0.51100000000E-03 0.  1.
        -12    1    3    3    0    0 -0.58041996895E+00  0.49689343201E+00 -0.31366481341E+01  0.32283667604E+01  0.00000000000E+00 0.  1.
</event>
<event>
 7    1  0.2783785E-010  0.4778727E+02  0.7816164E-02  0.1312668E+00
        -11   -1    0    0    0    0  0.00000000000E+00  0.00000000000E+00  0.45593999997E+02  0.45594000000E+02  0.51100000000E-03 0.  1.
         11   -1    0    0    0    0 -0.00000000000E+00 -0.00000000000E+00 -0.45593999997E+02  0.45594000000E+02  0.51100000000E-03 0. -1.
    9900012    2    1    2    0    0 -0.15343306212E+02  0.37024556166E+02  0.16654978125E+02  0.47787273035E+02  0.20000009074E+02 0.  0.
        -12    1    1    2    0    0  0.15343306212E+02 -0.37024556166E+02 -0.16654978125E+02  0.43400726965E+02  0.00000000000E+00 0.  1.
         11    1    3    3    0    0 -0.60700325400E+01  0.11565617613E+02 -0.14594650613E+01  0.13143015039E+02  0.51100000000E-03 0. -1.
        -11    1    3    3    0    0 -0.25073423156E+01 -0.59703910271E+00  0.11317926343E+01  0.28149912977E+01  0.51100000000E-03 0.  1.
        -12    1    3    3    0    0 -0.67659313563E+01  0.26055977656E+02  0.16982650552E+02  0.31829266697E+02  0.00000000000E+00 0.  1.
</event>
<event>
 7    1  0.2783785E-010  0.4778727E+02  0.7816164E-02  0.1312668E+00
        -11   -1    0    0    0    0  0.00000000000E+00  0.00000000000E+00  0.45593999997E+02  0.45594000000E+02  0.51100000000E-03 0. -1.
         11   -1    0    0    0    0 -0.00000000000E+00 -0.00000000000E+00 -0.45593999997E+02  0.45594000000E+02  0.51100000000E-03 0.  1.
    9900012    2    1    2    0    0 -0.32939109946E+02  0.87414766435E+01  0.26874245615E+02  0.47787268954E+02  0.19999990470E+02 0.  0.
        -12    1    1    2    0    0  0.32939109946E+02 -0.87414766435E+01 -0.26874245615E+02  0.43400731046E+02  0.00000000000E+00 0.  1.
         11    1    3    3    0    0 -0.88998397445E+00 -0.69434885459E+00  0.65419589144E+01  0.66386307704E+01  0.51100000000E-03 0. -1.
        -11    1    3    3    0    0 -0.15404240385E+01  0.28296506229E+01 -0.96100133946E+00  0.33620459101E+01  0.51100000000E-03 0.  1.
         12    1    3    3    0    0 -0.30508701933E+02  0.66061748753E+01  0.21293288040E+02  0.37786592274E+02  0.00000000000E+00 0. -1.
</event>
<event>
 7    1  0.2783785E-010  0.4778727E+02  0.7816164E-02  0.1312668E+00
        -11   -1    0    0    0    0  0.00000000000E+00  0.00000000000E+00  0.45593999997E+02  0.45594000000E+02  0.51100000000E-03 0.  1.
         11   -1    0    0    0    0 -0.00000000000E+00 -0.00000000000E+00 -0.45593999997E+02  0.45594000000E+02  0.51100000000E-03 0. -1.
    9900012    2    1    2    0    0  0.11278015935E+02 -0.41157073615E+02 -0.79072781203E+01  0.47787269600E+02  0.19999993416E+02 0.  0.
        -12    1    1    2    0    0 -0.11278015935E+02  0.41157073615E+02  0.79072781203E+01  0.43400730400E+02  0.00000000000E+00 0.  1.
         11    1    3    3    0    0  0.34902082672E+01 -0.34624493888E+02 -0.18093513271E+01  0.34846963760E+02  0.51100000000E-03 0. -1.
        -11    1    3    3    0    0  0.10743117541E+01 -0.13470240801E+01 -0.37678924837E+01  0.41431429673E+01  0.51100000000E-03 0.  1.
        -12    1    3    3    0    0  0.67134959135E+01 -0.51855556460E+01 -0.23300343095E+01  0.87971628735E+01  0.00000000000E+00 0.  1.
</event>
<event>
 7    1  0.2783785E-010  0.4778727E+02  0.7816164E-02  0.1312668E+00
        -11   -1    0    0    0    0  0.00000000000E+00  0.00000000000E+00  0.45593999997E+02  0.45594000000E+02  0.51100000000E-03 0. -1.
         11   -1    0    0    0    0 -0.00000000000E+00 -0.00000000000E+00 -0.45593999997E+02  0.45594000000E+02  0.51100000000E-03 0.  1.
    9900012    2    1    2    0    0 -0.17718324850E+02  0.22601222391E+02  0.32540264881E+02  0.47787272729E+02  0.20000007682E+02 0.  0.
        -12    1    1    2    0    0  0.17718324850E+02 -0.22601222391E+02 -0.32540264881E+02  0.43400727271E+02  0.00000000000E+00 0.  1.
         11    1    3    3    0    0 -0.88928533275E+01  0.12089440014E+02  0.94000696031E+01  0.17708718445E+02  0.51100000000E-03 0. -1.
        -11    1    3    3    0    0  0.24573208888E+01  0.66938238056E+01  0.10673597564E+02  0.12836330796E+02  0.51100000000E-03 0.  1.
         12    1    3    3    0    0 -0.11282792411E+02  0.38179585717E+01  0.12466597715E+02  0.17242223488E+02  0.00000000000E+00 0. -1.
</event>
<event>
 7    1  0.2783785E-010  0.4778727E+02  0.7816164E-02  0.1312668E+00
        -11   -1    0    0    0    0  0.00000000000E+00  0.00000000000E+00  0.45593999997E+02  0.45594000000E+02  0.51100000000E-03 0. -1.
         11   -1    0    0    0    0 -0.00000000000E+00 -0.00000000000E+00 -0.45593999997E+02  0.45594000000E+02  0.51100000000E-03 0.  1.
    9900012    2    1    2    0    0 -0.21841080066E+02  0.11290305115E+02  0.35764786905E+02  0.47787265554E+02  0.19999974968E+02 0.  0.
        -12    1    1    2    0    0  0.21841080066E+02 -0.11290305115E+02 -0.35764786905E+02  0.43400734446E+02  0.00000000000E+00 0.  1.
         11    1    3    3    0    0 -0.19958276194E+02  0.15871697164E+02  0.24709553925E+02  0.35507824700E+02  0.51100000000E-03 0. -1.
        -11    1    3    3    0    0 -0.12262143517E+01 -0.18207419695E+01  0.69537892854E+01  0.72920428306E+01  0.51100000000E-03 0.  1.
         12    1    3    3    0    0 -0.65658952079E+00 -0.27606500799E+01  0.41014436954E+01  0.49873980239E+01  0.00000000000E+00 0. -1.
</event>
<event>
 7    1  0.2783785E-010  0.4778727E+02  0.7816164E-02  0.1312668E+00
        -11   -1    0    0    0    0  0.00000000000E+00  0.00000000000E+00  0.45593999997E+02  0.45594000000E+02  0.51100000000E-03 0.  1.
         11   -1    0    0    0    0 -0.00000000000E+00 -0.00000000000E+00 -0.45593999997E+02  0.45594000000E+02  0.51100000000E-03 0. -1.
    9900012    2    1    2    0    0 -0.33868472510E+02 -0.13064045040E+02 -0.23788246690E+02  0.47787269781E+02  0.19999994240E+02 0.  0.
        -12    1    1    2    0    0  0.33868472510E+02  0.13064045040E+02  0.23788246690E+02  0.43400730219E+02  0.00000000000E+00 0.  1.
         11    1    3    3    0    0 -0.17659491217E+02 -0.10747295643E+01 -0.15745891766E+02  0.23684293982E+02  0.51100000000E-03 0. -1.
        -11    1    3    3    0    0 -0.83998531478E+01 -0.16429025754E+01  0.50839667151E+00  0.85740964080E+01  0.51100000000E-03 0.  1.
        -12    1    3    3    0    0 -0.78091281448E+01 -0.10346412900E+02 -0.85507515957E+01  0.15528879391E+02  0.00000000000E+00 0.  1.
</event>
<event>
 7    1  0.2783785E-010  0.4778727E+02  0.7816164E-02  0.1312668E+00
        -11   -1    0    0    0    0  0.00000000000E+00  0.00000000000E+00  0.45593999997E+02  0.45594000000E+02  0.51100000000E-03 0.  1.
         11   -1    0    0    0    0 -0.00000000000E+00 -0.00000000000E+00 -0.45593999997E+02  0.45594000000E+02  0.51100000000E-03 0. -1.
    9900012    2    1    2    0    0  0.10133889446E+02  0.19415539566E+02 -0.37469510044E+02  0.47787273337E+02  0.20000010452E+02 0.  0.
        -12    1    1    2    0    0 -0.10133889446E+02 -0.19415539566E+02  0.37469510044E+02  0.43400726663E+02  0.00000000000E+00 0.  1.
         11    1    3    3    0    0 -0.86776842268E+00  0.21134375409E+01 -0.15832915385E+02  0.15996901267E+02  0.51100000000E-03 0. -1.
        -11    1    3    3    0    0  0.24297269135E+01  0.44080914944E+01  0.18148213751E+00  0.50366436765E+01  0.51100000000E-03 0.  1.
        -12    1    3    3    0    0  0.85719309554E+01  0.12894010531E+02 -0.21818076796E+02  0.26753728394E+02  0.00000000000E+00 0.  1.
</event>
<event>
 7    1  0.2815455E-010  0.4778727E+02  0.7816164E-02  0.1312668E+00
        -11   -1    0    0    0    0  0.00000000000E+00  0.00000000000E+00  0.45593999997E+02  0.45594000000E+02  0.51100000000E-03 0. -1.
         11   -1    0    0    0    0 -0.00000000000E+00 -0.00000000000E+00 -0.45593999997E+02  0.45594000000E+02  0.51100000000E-03 0.  1.
    9900012    2    1    2    0    0  0.24343192423E+02  0.32541383700E+02  0.15234518036E+02  0.47787271778E+02  0.20000003343E+02 0.  0.
        -12    1    1    2    0    0 -0.24343192423E+02 -0.32541383700E+02 -0.15234518036E+02  0.43400728222E+02  0.00000000000E+00 0.  1.
         11    1    3    3    0    0  0.81224163960E+01  0.85919403210E+01  0.11059466157E+01  0.11875108621E+02  0.51100000000E-03 0.  1.
        -11    1    3    3    0    0  0.99904170256E+01  0.16449504017E+02  0.17073003770E+02  0.25727068872E+02  0.51100000000E-03 0. -1.
        -12    1    3    3    0    0  0.62303590010E+01  0.74999393626E+01 -0.29444323498E+01  0.10185094285E+02  0.00000000000E+00 0.  1.
</event>
<event>
 7    1  0.2783785E-010  0.4778727E+02  0.7816164E-02  0.1312668E+00
        -11   -1    0    0    0    0  0.00000000000E+00  0.00000000000E+00  0.45593999997E+02  0.45594000000E+02  0.51100000000E-03 0.  1.
         11   -1    0    0    0    0 -0.00000000000E+00 -0.00000000000E+00 -0.45593999997E+02  0.45594000000E+02  0.51100000000E-03 0. -1.
    9900012    2    1    2    0    0  0.34107649996E+02  0.22677757724E+02 -0.14353075934E+02  0.47787271061E+02  0.20000000075E+02 0.  0.
        -12    1    1    2    0    0 -0.34107649996E+02 -0.22677757724E+02  0.14353075934E+02  0.43400728939E+02  0.00000000000E+00 0.  1.
         11    1    3    3    0    0  0.11161139536E+01  0.10013041857E+01 -0.40020445801E+01  0.42737198682E+01  0.51100000000E-03 0. -1.
        -11    1    3    3    0    0  0.17806594691E+02  0.63803503223E+01  0.13962247341E+01  0.18966631976E+02  0.51100000000E-03 0.  1.
         12    1    3    3    0    0  0.15184941352E+02  0.15296103216E+02 -0.11747256088E+02  0.24546919217E+02  0.00000000000E+00 0. -1.
</event>
<event>
 7    1  0.2783785E-010  0.4778727E+02  0.7816164E-02  0.1312668E+00
        -11   -1    0    0    0    0  0.00000000000E+00  0.00000000000E+00  0.45593999997E+02  0.45594000000E+02  0.51100000000E-03 0.  1.
         11   -1    0    0    0    0 -0.00000000000E+00 -0.00000000000E+00 -0.45593999997E+02  0.45594000000E+02  0.51100000000E-03 0. -1.
    9900012    2    1    2    0    0  0.29495318135E+02 -0.22220035742E+02 -0.22801742147E+02  0.47787271605E+02  0.20000002555E+02 0.  0.
        -12    1    1    2    0    0 -0.29495318135E+02  0.22220035742E+02  0.22801742147E+02  0.43400728395E+02  0.00000000000E+00 0.  1.
         11    1    3    3    0    0  0.21209337726E+02 -0.12526108495E+02 -0.11417383925E+02  0.27149513012E+02  0.51100000000E-03 0. -1.
        -11    1    3    3    0    0  0.65391749873E+01 -0.95344573630E+00 -0.94262128061E+01  0.11511878926E+02  0.51100000000E-03 0.  1.
        -12    1    3    3    0    0  0.17468054216E+01 -0.87404815111E+01 -0.19581454161E+01  0.91258796670E+01  0.00000000000E+00 0.  1.
</event>
<event>
 7    1  0.2783785E-010  0.4778727E+02  0.7816164E-02  0.1312668E+00
        -11   -1    0    0    0    0  0.00000000000E+00  0.00000000000E+00  0.45593999997E+02  0.45594000000E+02  0.51100000000E-03 0.  1.
         11   -1    0    0    0    0 -0.00000000000E+00 -0.00000000000E+00 -0.45593999997E+02  0.45594000000E+02  0.51100000000E-03 0. -1.
    9900012    2    1    2    0    0  0.19217585660E+02 -0.21774386843E+02 -0.32251880466E+02  0.47787270575E+02  0.19999997861E+02 0.  0.
        -12    1    1    2    0    0 -0.19217585660E+02  0.21774386843E+02  0.32251880466E+02  0.43400729425E+02  0.00000000000E+00 0.  1.
         11    1    3    3    0    0 -0.40841691145E+00 -0.15656497431E+01  0.17649933213E+01  0.23944237673E+01  0.51100000000E-03 0. -1.
        -11    1    3    3    0    0  0.11659417199E+02 -0.13972860758E+02 -0.13985508188E+02  0.22951629283E+02  0.51100000000E-03 0.  1.
         12    1    3    3    0    0  0.79665853723E+01 -0.62358763411E+01 -0.20031365599E+02  0.22441217525E+02  0.00000000000E+00 0. -1.
</event>
<event>
 7    1  0.2783785E-010  0.4778727E+02  0.7816164E-02  0.1312668E+00
        -11   -1    0    0    0    0  0.00000000000E+00  0.00000000000E+00  0.45593999997E+02  0.45594000000E+02  0.51100000000E-03 0.  1.
         11   -1    0    0    0    0 -0.00000000000E+00 -0.00000000000E+00 -0.45593999997E+02  0.45594000000E+02  0.51100000000E-03 0. -1.
    9900012    2    1    2    0    0  0.22664891539E+02 -0.35711100641E+02 -0.97284728848E+01  0.47787271871E+02  0.20000003767E+02 0.  0.
        -12    1    1    2    0    0 -0.22664891539E+02  0.35711100641E+02  0.97284728848E+01  0.43400728129E+02  0.00000000000E+00 0.  1.
         11    1    3    3    0    0  0.15210162659E+02 -0.24840705339E+02  0.24781265118E+01  0.29232700887E+02  0.51100000000E-03 0. -1.
        -11    1    3    3    0    0 -0.31556311691E+00 -0.23455132915E+01 -0.28321513374E+01  0.36908121248E+01  0.51100000000E-03 0.  1.
         12    1    3    3    0    0  0.77702919972E+01 -0.85248820103E+01 -0.93744480592E+01  0.14863758859E+02  0.00000000000E+00 0. -1.
</event>
<event>
 7    1  0.2783785E-010  0.4778727E+02  0.7816164E-02  0.1312668E+00
        -11   -1    0    0    0    0  0.00000000000E+00  0.00000000000E+00  0.45593999997E+02  0.45594000000E+02  0.51100000000E-03 0.  1.
         11   -1    0    0    0    0 -0.00000000000E+00 -0.00000000000E+00 -0.45593999997E+02  0.45594000000E+02  0.51100000000E-03 0. -1.
    9900012    2    1    2    0    0  0.18130353385E+02  0.18607474799E+02 -0.34766009935E+02  0.47787270984E+02  0.19999999726E+02 0.  0.
        -12    1    1    2    0    0 -0.18130353385E+02 -0.18607474799E+02  0.34766009935E+02  0.43400729016E+02  0.00000000000E+00 0.  1.
         11    1    3    3    0    0 -0.69938823044E+00  0.78108207012E+01 -0.53786425232E+01  0.95093564229E+01  0.51100000000E-03 0. -1.
        -11    1    3    3    0    0 -0.11774194088E+01  0.43718168589E+00 -0.10223033097E-01  0.12560051999E+01  0.51100000000E-03 0.  1.
         12    1    3    3    0    0  0.20007161024E+02  0.10359472412E+02 -0.29377144379E+02  0.37021909361E+02  0.00000000000E+00 0. -1.
</event>
<event>
 7    1  0.2783785E-010  0.4778732E+02  0.7816164E-02  0.1312668E+00
        -11   -1    0    0    0    0  0.00000000000E+00  0.00000000000E+00  0.45593999997E+02  0.45594000000E+02  0.51100000000E-03 0.  1.
         11   -1    0    0    0    0 -0.00000000000E+00 -0.00000000000E+00 -0.45593999997E+02  0.45594000000E+02  0.51100000000E-03 0. -1.
    9900012    2    1    2    0    0  0.28575099563E+02  0.30565736450E+02 -0.11524692469E+02  0.47787319173E+02  0.20000219435E+02 0.  0.
        -12    1    1    2    0    0 -0.28575099563E+02 -0.30565736450E+02  0.11524692469E+02  0.43400680827E+02  0.00000000000E+00 0.  1.
         11    1    3    3    0    0  0.10853346519E+02  0.58455291780E+01 -0.18991964003E+01  0.12472862112E+02  0.51100000000E-03 0. -1.
        -11    1    3    3    0    0 -0.76032947583E+00  0.95209292214E+01 -0.79777928105E-01  0.95515736363E+01  0.51100000000E-03 0.  1.
         12    1    3    3    0    0  0.18482082520E+02  0.15199278050E+02 -0.95457181405E+01  0.25762883424E+02  0.00000000000E+00 0. -1.
</event>
<event>
 7    1  0.2783785E-010  0.4778727E+02  0.7816164E-02  0.1312668E+00
        -11   -1    0    0    0    0  0.00000000000E+00  0.00000000000E+00  0.45593999997E+02  0.45594000000E+02  0.51100000000E-03 0. -1.
         11   -1    0    0    0    0 -0.00000000000E+00 -0.00000000000E+00 -0.45593999997E+02  0.45594000000E+02  0.51100000000E-03 0.  1.
    9900012    2    1    2    0    0  0.12594181539E+02 -0.42456573268E+01  0.41315667973E+02  0.47787269190E+02  0.19999991544E+02 0.  0.
        -12    1    1    2    0    0 -0.12594181539E+02  0.42456573268E+01 -0.41315667973E+02  0.43400730810E+02  0.00000000000E+00 0.  1.
         11    1    3    3    0    0 -0.29720389843E+01 -0.33986033848E+01  0.91471193322E+01  0.10200652579E+02  0.51100000000E-03 0. -1.
        -11    1    3    3    0    0  0.89935288639E+01  0.31267289179E+01  0.26147884014E+02  0.27827537330E+02  0.51100000000E-03 0.  1.
         12    1    3    3    0    0  0.65726916597E+01 -0.39737828600E+01  0.60206646269E+01  0.97590792814E+01  0.00000000000E+00 0. -1.
</event>
<event>
 7    1  0.2783785E-010  0.4778727E+02  0.7816164E-02  0.1312668E+00
        -11   -1    0    0    0    0  0.00000000000E+00  0.00000000000E+00  0.45593999997E+02  0.45594000000E+02  0.51100000000E-03 0. -1.
         11   -1    0    0    0    0 -0.00000000000E+00 -0.00000000000E+00 -0.45593999997E+02  0.45594000000E+02  0.51100000000E-03 0.  1.
    9900012    2    1    2    0    0  0.37477533236E+02 -0.12979110022E+02  0.17623856474E+02  0.47787272916E+02  0.20000008532E+02 0.  0.
        -12    1    1    2    0    0 -0.37477533236E+02  0.12979110022E+02 -0.17623856474E+02  0.43400727084E+02  0.00000000000E+00 0.  1.
         11    1    3    3    0    0  0.13886227985E+01  0.14744196914E+00 -0.78751423185E+00  0.16031816295E+01  0.51100000000E-03 0. -1.
        -11    1    3    3    0    0  0.14782535769E+02 -0.12421527887E+02  0.22636485338E+01  0.19440725906E+02  0.51100000000E-03 0.  1.
         12    1    3    3    0    0  0.21306374669E+02 -0.70502410362E+00  0.16147722172E+02  0.26743365380E+02  0.00000000000E+00 0. -1.
</event>
<event>
 7    1  0.2783785E-010  0.4778727E+02  0.7816164E-02  0.1312668E+00
        -11   -1    0    0    0    0  0.00000000000E+00  0.00000000000E+00  0.45593999997E+02  0.45594000000E+02  0.51100000000E-03 0. -1.
         11   -1    0    0    0    0 -0.00000000000E+00 -0.00000000000E+00 -0.45593999997E+02  0.45594000000E+02  0.51100000000E-03 0.  1.
    9900012    2    1    2    0    0  0.30513903302E+02  0.22000397774E+02  0.21645029025E+02  0.47787273296E+02  0.20000010266E+02 0.  0.
        -12    1    1    2    0    0 -0.30513903302E+02 -0.22000397774E+02 -0.21645029025E+02  0.43400726704E+02  0.00000000000E+00 0.  1.
         11    1    3    3    0    0  0.11328022931E+02  0.15411340633E+02  0.17739172809E+02  0.26086620629E+02  0.51100000000E-03 0. -1.
        -11    1    3    3    0    0  0.90793124852E+01  0.89331285392E+00  0.43155688636E+01  0.10092376228E+02  0.51100000000E-03 0.  1.
        -12    1    3    3    0    0  0.10106567885E+02  0.56957442876E+01 -0.40971264842E+00  0.11608276438E+02  0.00000000000E+00 0.  1.
</event>
<event>
 7    1  0.2783785E-010  0.4778727E+02  0.7816164E-02  0.1312668E+00
        -11   -1    0    0    0    0  0.00000000000E+00  0.00000000000E+00  0.45593999997E+02  0.45594000000E+02  0.51100000000E-03 0. -1.
         11   -1    0    0    0    0 -0.00000000000E+00 -0.00000000000E+00 -0.45593999997E+02  0.45594000000E+02  0.51100000000E-03 0.  1.
    9900012    2    1    2    0    0 -0.41307707285E+01  0.19097532136E+01  0.43161471579E+02  0.47787273589E+02  0.20000011603E+02 0.  0.
        -12    1    1    2    0    0  0.41307707285E+01 -0.19097532136E+01 -0.43161471579E+02  0.43400726411E+02  0.00000000000E+00 0.  1.
         11    1    3    3    0    0 -0.86972740982E+00  0.21915980801E+01  0.29710254333E+02  0.29803669920E+02  0.51100000000E-03 0. -1.
        -11    1    3    3    0    0 -0.31299974235E+00  0.54340458096E+01  0.52604465476E+01  0.75696182758E+01  0.51100000000E-03 0.  1.
         12    1    3    3    0    0 -0.29480435763E+01 -0.57158906761E+01  0.81907706982E+01  0.10413985394E+02  0.00000000000E+00 0. -1.
</event>
<event>
 7    1  0.2783785E-010  0.4778727E+02  0.7816164E-02  0.1312668E+00
        -11   -1    0    0    0    0  0.00000000000E+00  0.00000000000E+00  0.45593999997E+02  0.45594000000E+02  0.51100000000E-03 0. -1.
         11   -1    0    0    0    0 -0.00000000000E+00 -0.00000000000E+00 -0.45593999997E+02  0.45594000000E+02  0.51100000000E-03 0.  1.
    9900012    2    1    2    0    0  0.24709948619E+02  0.32035458573E+02  0.15708939735E+02  0.47787274726E+02  0.20000016787E+02 0.  0.
        -12    1    1    2    0    0 -0.24709948619E+02 -0.32035458573E+02 -0.15708939735E+02  0.43400725274E+02  0.00000000000E+00 0.  1.
         11    1    3    3    0    0  0.15995685593E+02  0.29354394006E+02  0.11823274763E+02  0.35458880854E+02  0.51100000000E-03 0. -1.
        -11    1    3    3    0    0  0.27524859054E+01  0.14788676077E+01  0.52369822426E+01  0.60982957727E+01  0.51100000000E-03 0.  1.
        -12    1    3    3    0    0  0.59617771207E+01  0.12021969588E+01 -0.13513172708E+01  0.62300980996E+01  0.00000000000E+00 0.  1.
</event>
<event>
 7    1  0.2783785E-010  0.4778727E+02  0.7816164E-02  0.1312668E+00
        -11   -1    0    0    0    0  0.00000000000E+00  0.00000000000E+00  0.45593999997E+02  0.45594000000E+02  0.51100000000E-03 0. -1.
         11   -1    0    0    0    0 -0.00000000000E+00 -0.00000000000E+00 -0.45593999997E+02  0.45594000000E+02  0.51100000000E-03 0.  1.
    9900012    2    1    2    0    0  0.28394863829E+02 -0.29922191123E+02 -0.13491386391E+02  0.47787270511E+02  0.19999997567E+02 0.  0.
        -12    1    1    2    0    0 -0.28394863829E+02  0.29922191123E+02  0.13491386391E+02  0.43400729489E+02  0.00000000000E+00 0.  1.
         11    1    3    3    0    0  0.10817609300E+02 -0.49232636021E+01  0.11995110026E+01  0.11945627751E+02  0.51100000000E-03 0. -1.
        -11    1    3    3    0    0  0.12779688097E+02 -0.20122389472E+02 -0.56389269579E+01  0.24495478836E+02  0.51100000000E-03 0.  1.
         12    1    3    3    0    0  0.47975664320E+01 -0.48765380486E+01 -0.90519704357E+01  0.11346163924E+02  0.00000000000E+00 0. -1.
</event>
<event>
 7    1  0.2783785E-010  0.4778727E+02  0.7816164E-02  0.1312668E+00
        -11   -1    0    0    0    0  0.00000000000E+00  0.00000000000E+00  0.45593999997E+02  0.45594000000E+02  0.51100000000E-03 0.  1.
         11   -1    0    0    0    0 -0.00000000000E+00 -0.00000000000E+00 -0.45593999997E+02  0.45594000000E+02  0.51100000000E-03 0. -1.
    9900012    2    1    2    0    0  0.87415358668E+00  0.35448863357E+02 -0.25024737671E+02  0.47787267826E+02  0.19999985324E+02 0.  0.
        -12    1    1    2    0    0 -0.87415358668E+00 -0.35448863357E+02  0.25024737671E+02  0.43400732174E+02  0.00000000000E+00 0.  1.
         11    1    3    3    0    0 -0.27903444152E+01  0.13956839505E+02 -0.15541532037E+02  0.21074121791E+02  0.51100000000E-03 0. -1.
        -11    1    3    3    0    0  0.13862643144E+01 -0.13264787240E+01 -0.57197972157E-01  0.19195172371E+01  0.51100000000E-03 0.  1.
        -12    1    3    3    0    0  0.22782336875E+01  0.22818502575E+02 -0.94260076620E+01  0.24793628798E+02  0.00000000000E+00 0.  1.
</event>
<event>
 7    1  0.2783785E-010  0.4778727E+02  0.7816164E-02  0.1312668E+00
        -11   -1    0    0    0    0  0.00000000000E+00  0.00000000000E+00  0.45593999997E+02  0.45594000000E+02  0.51100000000E-03 0.  1.
         11   -1    0    0    0    0 -0.00000000000E+00 -0.00000000000E+00 -0.45593999997E+02  0.45594000000E+02  0.51100000000E-03 0. -1.
    9900012    2    1    2    0    0  0.15715347384E+02  0.87268945889E+01 -0.39503069375E+02  0.47787270483E+02  0.19999997440E+02 0.  0.
        -12    1    1    2    0    0 -0.15715347384E+02 -0.87268945889E+01  0.39503069375E+02  0.43400729517E+02  0.00000000000E+00 0.  1.
         11    1    3    3    0    0  0.61516177935E+01  0.50049122054E+01 -0.79084626350E+01  0.11199791479E+02  0.51100000000E-03 0. -1.
        -11    1    3    3    0    0 -0.12865076633E+01 -0.42411529677E+01 -0.44027272540E+01  0.62471183755E+01  0.51100000000E-03 0.  1.
        -12    1    3    3    0    0  0.10850237253E+02  0.79631353512E+01 -0.27191879486E+02  0.30340360629E+02  0.00000000000E+00 0.  1.
</event>
<event>
 7    1  0.2783785E-010  0.4778727E+02  0.7816164E-02  0.1312668E+00
        -11   -1    0    0    0    0  0.00000000000E+00  0.00000000000E+00  0.45593999997E+02  0.45594000000E+02  0.51100000000E-03 0.  1.
         11   -1    0    0    0    0 -0.00000000000E+00 -0.00000000000E+00 -0.45593999997E+02  0.45594000000E+02  0.51100000000E-03 0. -1.
    9900012    2    1    2    0    0 -0.38010078714E+02 -0.69255540189E+01 -0.19771033531E+02  0.47787272481E+02  0.20000006550E+02 0.  0.
        -12    1    1    2    0    0  0.38010078714E+02  0.69255540189E+01  0.19771033531E+02  0.43400727519E+02  0.00000000000E+00 0.  1.
         11    1    3    3    0    0 -0.28015315850E+02  0.24311981654E+01 -0.80846089824E+01  0.29259691545E+02  0.51100000000E-03 0. -1.
        -11    1    3    3    0    0 -0.34712234903E+01 -0.62405868117E+01 -0.55309627936E+01  0.90324894663E+01  0.51100000000E-03 0.  1.
        -12    1    3    3    0    0 -0.65235393737E+01 -0.31161653727E+01 -0.61554617551E+01  0.94950914693E+01  0.00000000000E+00 0.  1.
</event>
<event>
 7    1  0.3031063E-010  0.4778727E+02  0.7816164E-02  0.1312668E+00
        -11   -1    0    0    0    0  0.00000000000E+00  0.00000000000E+00  0.45593999997E+02  0.45594000000E+02  0.51100000000E-03 0. -1.
         11   -1    0    0    0    0 -0.00000000000E+00 -0.00000000000E+00 -0.45593999997E+02  0.45594000000E+02  0.51100000000E-03 0.  1.
    9900012    2    1    2    0    0  0.35510860267E+01  0.25678924296E+02  0.34808127565E+02  0.47787272937E+02  0.20000008630E+02 0.  0.
        -12    1    1    2    0    0 -0.35510860267E+01 -0.25678924296E+02 -0.34808127565E+02  0.43400727063E+02  0.00000000000E+00 0.  1.
         11    1    3    3    0    0 -0.33801424989E+01  0.63395907544E+01  0.98218281941E+01  0.12168980384E+02  0.51100000000E-03 0. -1.
        -11    1    3    3    0    0  0.73107522688E+01  0.38099382659E+01  0.15103690419E+02  0.17207097165E+02  0.51100000000E-03 0.  1.
        -12    1    3    3    0    0 -0.37952374331E+00  0.15529395276E+02  0.98826089522E+01  0.18411195388E+02  0.00000000000E+00 0.  1.
</event>
<event>
 7    1  0.2783785E-010  0.4778728E+02  0.7816164E-02  0.1312668E+00
        -11   -1    0    0    0    0  0.00000000000E+00  0.00000000000E+00  0.45593999997E+02  0.45594000000E+02  0.51100000000E-03 0. -1.
         11   -1    0    0    0    0 -0.00000000000E+00 -0.00000000000E+00 -0.45593999997E+02  0.45594000000E+02  0.51100000000E-03 0.  1.
    9900012    2    1    2    0    0  0.27476227736E+02 -0.27645266899E+02  0.19089752008E+02  0.47787279911E+02  0.20000040427E+02 0.  0.
        -12    1    1    2    0    0 -0.27476227736E+02  0.27645266899E+02 -0.19089752008E+02  0.43400720089E+02  0.00000000000E+00 0.  1.
         11    1    3    3    0    0  0.74694452628E+01 -0.17961694348E+02  0.12472168298E+02  0.23107792165E+02  0.51100000000E-03 0. -1.
        -11    1    3    3    0    0  0.32886340999E+01  0.45360497621E+00  0.35991797538E+01  0.48964238867E+01  0.51100000000E-03 0.  1.
        -12    1    3    3    0    0  0.16718148373E+02 -0.10137177527E+02  0.30184039556E+01  0.19783063860E+02  0.00000000000E+00 0.  1.
</event>
<event>
 7    1  0.2783785E-010  0.4778726E+02  0.7816164E-02  0.1312668E+00
        -11   -1    0    0    0    0  0.00000000000E+00  0.00000000000E+00  0.45593999997E+02  0.45594000000E+02  0.51100000000E-03 0.  1.
         11   -1    0    0    0    0 -0.00000000000E+00 -0.00000000000E+00 -0.45593999997E+02  0.45594000000E+02  0.51100000000E-03 0. -1.
    9900012    2    1    2    0    0 -0.12509736807E+02  0.16127828504E+02 -0.38301749864E+02  0.47787257957E+02  0.19999940328E+02 0.  0.
        -12    1    1    2    0    0  0.12509736807E+02 -0.16127828504E+02  0.38301749864E+02  0.43400742043E+02  0.00000000000E+00 0.  1.
         11    1    3    3    0    0 -0.66810854339E+01  0.67890696090E+01 -0.10596196662E+02  0.14248078912E+02  0.51100000000E-03 0. -1.
        -11    1    3    3    0    0 -0.19144991429E+01  0.63408876052E+01 -0.27829952182E+02  0.28607313773E+02  0.51100000000E-03 0.  1.
         12    1    3    3    0    0 -0.39141522300E+01  0.29978712901E+01  0.12439897952E+00  0.49318652716E+01  0.00000000000E+00 0. -1.
</event>
<event>
 7    1  0.2783785E-010  0.4778727E+02  0.7816164E-02  0.1312668E+00
        -11   -1    0    0    0    0  0.00000000000E+00  0.00000000000E+00  0.45593999997E+02  0.45594000000E+02  0.51100000000E-03 0. -1.
         11   -1    0    0    0    0 -0.00000000000E+00 -0.00000000000E+00 -0.45593999997E+02  0.45594000000E+02  0.51100000000E-03 0.  1.
    9900012    2    1    2    0    0  0.41402929786E+02  0.44517654168E+00 -0.13008555194E+02  0.47787270914E+02  0.19999999403E+02 0.  0.
        -12    1    1    2    0    0 -0.41402929786E+02 -0.44517654168E+00  0.13008555194E+02  0.43400729086E+02  0.00000000000E+00 0.  1.
         11    1    3    3    0    0  0.16015709561E+02  0.30202673685E+01 -0.61218757730E+01  0.17409834318E+02  0.51100000000E-03 0. -1.
        -11    1    3    3    0    0  0.20701264639E+02 -0.18042428364E+01 -0.11505874838E+02  0.23752532621E+02  0.51100000000E-03 0.  1.
        -12    1    3    3    0    0  0.46859555859E+01 -0.77084799048E+00  0.46191954171E+01  0.66249039750E+01  0.00000000000E+00 0.  1.
</event>
<event>
 7    1  0.2783785E-010  0.4778727E+02  0.7816164E-02  0.1312668E+00
        -11   -1    0    0    0    0  0.00000000000E+00  0.00000000000E+00  0.45593999997E+02  0.45594000000E+02  0.51100000000E-03 0.  1.
         11   -1    0    0    0    0 -0.00000000000E+00 -0.00000000000E+00 -0.45593999997E+02  0.45594000000E+02  0.51100000000E-03 0. -1.
    9900012    2    1    2    0    0  0.30244893815E+02  0.31095917231E+02 -0.13833519822E+01  0.47787270363E+02  0.19999996892E+02 0.  0.
        -12    1    1    2    0    0 -0.30244893815E+02 -0.31095917231E+02  0.13833519822E+01  0.43400729637E+02  0.00000000000E+00 0.  1.
         11    1    3    3    0    0  0.18242013433E+01  0.99993024068E+01 -0.56154011880E+01  0.11612342138E+02  0.51100000000E-03 0. -1.
        -11    1    3    3    0    0  0.11117558221E+02  0.71360243302E+01  0.44530772231E+01  0.13941048779E+02  0.51100000000E-03 0.  1.
        -12    1    3    3    0    0  0.17303134250E+02  0.13960590494E+02 -0.22102801733E+00  0.22233879446E+02  0.00000000000E+00 0.  1.
</event>
<event>
 7    1  0.2783785E-010  0.4778727E+02  0.7816164E-02  0.1312668E+00
        -11   -1    0    0    0    0  0.00000000000E+00  0.00000000000E+00  0.45593999997E+02  0.45594000000E+02  0.51100000000E-03 0.  1.
         11   -1    0    0    0    0 -0.00000000000E+00 -0.00000000000E+00 -0.45593999997E+02  0.45594000000E+02  0.51100000000E-03 0. -1.
    9900012    2    1    2    0    0  0.20473339035E+02 -0.16830176602E+01 -0.38231308839E+02  0.47787272642E+02  0.20000007284E+02 0.  0.
        -12    1    1    2    0    0 -0.20473339035E+02  0.16830176602E+01  0.38231308839E+02  0.43400727358E+02  0.00000000000E+00 0.  1.
         11    1    3    3    0    0  0.92122604161E+01 -0.27856886318E+00 -0.90052511020E+01  0.12885569070E+02  0.51100000000E-03 0. -1.
        -11    1    3    3    0    0  0.59321100092E+01  0.82284392434E+00 -0.97678498784E+00  0.60680400838E+01  0.51100000000E-03 0.  1.
        -12    1    3    3    0    0  0.53289686096E+01 -0.22272927213E+01 -0.28249272749E+02  0.28833663488E+02  0.00000000000E+00 0.  1.
</event>
<event>
 7    1  0.2783785E-010  0.4778727E+02  0.7816164E-02  0.1312668E+00
        -11   -1    0    0    0    0  0.00000000000E+00  0.00000000000E+00  0.45593999997E+02  0.45594000000E+02  0.51100000000E-03 0. -1.
         11   -1    0    0    0    0 -0.00000000000E+00 -0.00000000000E+00 -0.45593999997E+02  0.45594000000E+02  0.51100000000E-03 0.  1.
    9900012    2    1    2    0    0 -0.11709001739E+02  0.34948757186E+02  0.22915211089E+02  0.47787271321E+02  0.20000001262E+02 0.  0.
        -12    1    1    2    0    0  0.11709001739E+02 -0.34948757186E+02 -0.22915211089E+02  0.43400728679E+02  0.00000000000E+00 0.  1.
         11    1    3    3    0    0 -0.61089533051E+01  0.23483828233E+02  0.16935935476E+02  0.29591137350E+02  0.51100000000E-03 0. -1.
        -11    1    3    3    0    0 -0.83345049562E+01  0.11332238851E+02  0.34845057423E+01  0.14492252785E+02  0.51100000000E-03 0.  1.
         12    1    3    3    0    0  0.27344565220E+01  0.13269010187E+00  0.24947698711E+01  0.37038811865E+01  0.00000000000E+00 0. -1.
</event>
<event>
 7    1  0.2783785E-010  0.4778729E+02  0.7816164E-02  0.1312668E+00
        -11   -1    0    0    0    0  0.00000000000E+00  0.00000000000E+00  0.45593999997E+02  0.45594000000E+02  0.51100000000E-03 0. -1.
         11   -1    0    0    0    0 -0.00000000000E+00 -0.00000000000E+00 -0.45593999997E+02  0.45594000000E+02  0.51100000000E-03 0.  1.
    9900012    2    1    2    0    0 -0.29436064036E+02 -0.31279294132E+02  0.62246080219E+01  0.47787287421E+02  0.20000074668E+02 0.  0.
        -12    1    1    2    0    0  0.29436064036E+02  0.31279294132E+02 -0.62246080219E+01  0.43400712579E+02  0.00000000000E+00 0.  1.
         11    1    3    3    0    0 -0.39695817041E+01 -0.28010572944E+00  0.11542319551E+00  0.39811255821E+01  0.51100000000E-03 0.  1.
        -11    1    3    3    0    0 -0.10862004194E+02 -0.31215655723E+01  0.48813471332E+01  0.12310761830E+02  0.51100000000E-03 0. -1.
         12    1    3    3    0    0 -0.14604478138E+02 -0.27877622831E+02  0.12278376932E+01  0.31495400010E+02  0.00000000000E+00 0. -1.
</event>
<event>
 7    1  0.2783785E-010  0.4778727E+02  0.7816164E-02  0.1312668E+00
        -11   -1    0    0    0    0  0.00000000000E+00  0.00000000000E+00  0.45593999997E+02  0.45594000000E+02  0.51100000000E-03 0.  1.
         11   -1    0    0    0    0 -0.00000000000E+00 -0.00000000000E+00 -0.45593999997E+02  0.45594000000E+02  0.51100000000E-03 0. -1.
    9900012    2    1    2    0    0 -0.14371750365E+02 -0.32600925368E+02 -0.24784181346E+02  0.47787272029E+02  0.20000004489E+02 0.  0.
        -12    1    1    2    0    0  0.14371750365E+02  0.32600925368E+02  0.24784181346E+02  0.43400727971E+02  0.00000000000E+00 0.  1.
         11    1    3    3    0    0 -0.66718079069E+01 -0.17558227498E+02 -0.18449276759E+02  0.26328315305E+02  0.51100000000E-03 0. -1.
        -11    1    3    3    0    0 -0.59854003223E+01 -0.89656740019E+00 -0.32862772054E+01  0.68868329625E+01  0.51100000000E-03 0.  1.
         12    1    3    3    0    0 -0.17145421359E+01 -0.14146130470E+02 -0.30486273817E+01  0.14572123761E+02  0.00000000000E+00 0. -1.
</event>
<event>
 7    1  0.2783785E-010  0.4778727E+02  0.7816164E-02  0.1312668E+00
        -11   -1    0    0    0    0  0.00000000000E+00  0.00000000000E+00  0.45593999997E+02  0.45594000000E+02  0.51100000000E-03 0. -1.
         11   -1    0    0    0    0 -0.00000000000E+00 -0.00000000000E+00 -0.45593999997E+02  0.45594000000E+02  0.51100000000E-03 0.  1.
    9900012    2    1    2    0    0  0.37472728255E+02 -0.20882544965E+02 -0.65830842681E+01  0.47787273675E+02  0.20000011993E+02 0.  0.
        -12    1    1    2    0    0 -0.37472728255E+02  0.20882544965E+02  0.65830842681E+01  0.43400726325E+02  0.00000000000E+00 0.  1.
         11    1    3    3    0    0  0.12336147235E+02 -0.11652122082E+02 -0.28976918865E+01  0.17214792945E+02  0.51100000000E-03 0. -1.
        -11    1    3    3    0    0  0.14006341348E+02 -0.63893749668E+01 -0.90892136698E+01  0.17877793930E+02  0.51100000000E-03 0.  1.
        -12    1    3    3    0    0  0.11130239672E+02 -0.28410479159E+01  0.54038212881E+01  0.12694686799E+02  0.00000000000E+00 0.  1.
</event>
<event>
 7    1  0.2783785E-010  0.4778728E+02  0.7816164E-02  0.1312668E+00
        -11   -1    0    0    0    0  0.00000000000E+00  0.00000000000E+00  0.45593999997E+02  0.45594000000E+02  0.51100000000E-03 0. -1.
         11   -1    0    0    0    0 -0.00000000000E+00 -0.00000000000E+00 -0.45593999997E+02  0.45594000000E+02  0.51100000000E-03 0.  1.
    9900012    2    1    2    0    0  0.22253340718E+02  0.17357418740E+02  0.32971678670E+02  0.47787277048E+02  0.20000027373E+02 0.  0.
        -12    1    1    2    0    0 -0.22253340718E+02 -0.17357418740E+02 -0.32971678670E+02  0.43400722952E+02  0.00000000000E+00 0.  1.
         11    1    3    3    0    0  0.63542933474E+01  0.21473028871E+01  0.10535744214E+01  0.67895488036E+01  0.51100000000E-03 0. -1.
        -11    1    3    3    0    0  0.70702064794E+01  0.42238761246E+01  0.22722559400E+02  0.24169064010E+02  0.51100000000E-03 0.  1.
         12    1    3    3    0    0  0.88288408914E+01  0.10986239729E+02  0.91955448485E+01  0.16828664235E+02  0.00000000000E+00 0. -1.
</event>
<event>
 7    1  0.2783785E-010  0.4778727E+02  0.7816164E-02  0.1312668E+00
        -11   -1    0    0    0    0  0.00000000000E+00  0.00000000000E+00  0.45593999997E+02  0.45594000000E+02  0.51100000000E-03 0.  1.
         11   -1    0    0    0    0 -0.00000000000E+00 -0.00000000000E+00 -0.45593999997E+02  0.45594000000E+02  0.51100000000E-03 0. -1.
    9900012    2    1    2    0    0  0.30034673633E+02  0.23965295696E+01 -0.31237772208E+02  0.47787269744E+02  0.19999994072E+02 0.  0.
        -12    1    1    2    0    0 -0.30034673633E+02 -0.23965295696E+01  0.31237772208E+02  0.43400730256E+02  0.00000000000E+00 0.  1.
         11    1    3    3    0    0  0.89663371973E+01  0.51063146645E+01 -0.97666244578E+01  0.14207624916E+02  0.51100000000E-03 0. -1.
        -11    1    3    3    0    0  0.54290043138E+01 -0.58662088763E+01 -0.13633610289E+02  0.15803854726E+02  0.51100000000E-03 0.  1.
        -12    1    3    3    0    0  0.15639332122E+02  0.31564237814E+01 -0.78375374606E+01  0.17775790102E+02  0.00000000000E+00 0.  1.
</event>
<event>
 7    1  0.2783785E-010  0.4778728E+02  0.7816164E-02  0.1312668E+00
        -11   -1    0    0    0    0  0.00000000000E+00  0.00000000000E+00  0.45593999997E+02  0.45594000000E+02  0.51100000000E-03 0.  1.
         11   -1    0    0    0    0 -0.00000000000E+00 -0.00000000000E+00 -0.45593999997E+02  0.45594000000E+02  0.51100000000E-03 0. -1.
    9900012    2    1    2    0    0 -0.13317660941E+02  0.37008580728E+01 -0.41140802400E+02  0.47787284965E+02  0.20000063471E+02 0.  0.
        -12    1    1    2    0    0  0.13317660941E+02 -0.37008580728E+01  0.41140802400E+02  0.43400715035E+02  0.00000000000E+00 0.  1.
         11    1    3    3    0    0 -0.29472617699E+01 -0.28970974938E+01 -0.65940838729E+01  0.77821249163E+01  0.51100000000E-03 0. -1.
        -11    1    3    3    0    0 -0.75003091630E+01 -0.39328484747E+01 -0.97625580282E+01  0.12923988323E+02  0.51100000000E-03 0.  1.
         12    1    3    3    0    0 -0.28700900085E+01  0.10530804041E+02 -0.24784160499E+02  0.27081171726E+02  0.00000000000E+00 0. -1.
</event>
<event>
 7    1  0.2783785E-010  0.4778727E+02  0.7816164E-02  0.1312668E+00
        -11   -1    0    0    0    0  0.00000000000E+00  0.00000000000E+00  0.45593999997E+02  0.45594000000E+02  0.51100000000E-03 0.  1.
         11   -1    0    0    0    0 -0.00000000000E+00 -0.00000000000E+00 -0.45593999997E+02  0.45594000000E+02  0.51100000000E-03 0. -1.
    9900012    2    1    2    0    0  0.26169994021E+02  0.28128563980E+02 -0.20187585095E+02  0.47787270852E+02  0.19999999121E+02 0.  0.
        -12    1    1    2    0    0 -0.26169994021E+02 -0.28128563980E+02  0.20187585095E+02  0.43400729148E+02  0.00000000000E+00 0.  1.
         11    1    3    3    0    0  0.32418814178E+01  0.30412890143E+01 -0.46523981048E+00  0.44694163308E+01  0.51100000000E-03 0. -1.
        -11    1    3    3    0    0  0.49251421613E+01  0.18375931127E+02 -0.12640196574E+02  0.22840894023E+02  0.51100000000E-03 0.  1.
         12    1    3    3    0    0  0.18002970442E+02  0.67113438385E+01 -0.70821487106E+01  0.20476960498E+02  0.00000000000E+00 0. -1.
</event>
<event>
 7    1  0.2783785E-010  0.4778727E+02  0.7816164E-02  0.1312668E+00
        -11   -1    0    0    0    0  0.00000000000E+00  0.00000000000E+00  0.45593999997E+02  0.45594000000E+02  0.51100000000E-03 0.  1.
         11   -1    0    0    0    0 -0.00000000000E+00 -0.00000000000E+00 -0.45593999997E+02  0.45594000000E+02  0.51100000000E-03 0. -1.
    9900012    2    1    2    0    0  0.53319547295E+01 -0.11441496861E+02 -0.41524519400E+02  0.47787270708E+02  0.19999998466E+02 0.  0.
        -12    1    1    2    0    0 -0.53319547295E+01  0.11441496861E+02  0.41524519400E+02  0.43400729292E+02  0.00000000000E+00 0.  1.
         11    1    3    3    0    0  0.28069222004E+01 -0.11753459708E+02 -0.11960670552E+02  0.17002360650E+02  0.51100000000E-03 0. -1.
        -11    1    3    3    0    0  0.42155434143E+01  0.12748209794E+01 -0.79888520448E+01  0.91223753520E+01  0.51100000000E-03 0.  1.
        -12    1    3    3    0    0 -0.16905108852E+01 -0.96285813259E+00 -0.21574996803E+02  0.21662534706E+02  0.00000000000E+00 0.  1.
</event>
<event>
 7    1  0.2783785E-010  0.4778728E+02  0.7816164E-02  0.1312668E+00
        -11   -1    0    0    0    0  0.00000000000E+00  0.00000000000E+00  0.45593999997E+02  0.45594000000E+02  0.51100000000E-03 0.  1.
         11   -1    0    0    0    0 -0.00000000000E+00 -0.00000000000E+00 -0.45593999997E+02  0.45594000000E+02  0.51100000000E-03 0. -1.
    9900012    2    1    2    0    0 -0.31629074226E+02 -0.23324845403E+02 -0.18416730771E+02  0.47787277405E+02  0.20000028998E+02 0.  0.
        -12    1    1    2    0    0  0.31629074226E+02  0.23324845403E+02  0.18416730771E+02  0.43400722595E+02  0.00000000000E+00 0.  1.
         11    1    3    3    0    0  0.73904754918E+00 -0.12458609743E+01 -0.34007383198E+01  0.36964012537E+01  0.51100000000E-03 0.  1.
        -11    1    3    3    0    0  0.70595241837E+00  0.83784118553E+00 -0.99582228589E+00  0.14805434662E+01  0.51100000000E-03 0. -1.
         12    1    3    3    0    0 -0.33074074194E+02 -0.22916825615E+02 -0.14020170166E+02  0.42610332685E+02  0.00000000000E+00 0. -1.
</event>
<event>
 7    1  0.2783785E-010  0.4778727E+02  0.7816164E-02  0.1312668E+00
        -11   -1    0    0    0    0  0.00000000000E+00  0.00000000000E+00  0.45593999997E+02  0.45594000000E+02  0.51100000000E-03 0.  1.
         11   -1    0    0    0    0 -0.00000000000E+00 -0.00000000000E+00 -0.45593999997E+02  0.45594000000E+02  0.51100000000E-03 0. -1.
    9900012    2    1    2    0    0 -0.41944564683E+02  0.10609696480E+02 -0.34221427888E+01  0.47787271584E+02  0.20000002458E+02 0.  0.
        -12    1    1    2    0    0  0.41944564683E+02 -0.10609696480E+02  0.34221427888E+01  0.43400728416E+02  0.00000000000E+00 0.  1.
         11    1    3    3    0    0 -0.40216905164E+01  0.15853117948E+00 -0.55482420383E+00  0.40628754476E+01  0.51100000000E-03 0. -1.
        -11    1    3    3    0    0 -0.16007389401E+02 -0.29188262550E+01  0.47425296554E+01  0.16948381927E+02  0.51100000000E-03 0.  1.
        -12    1    3    3    0    0 -0.21915484765E+02  0.13369991556E+02 -0.76098482404E+01  0.26776014209E+02  0.00000000000E+00 0.  1.
</event>
<event>
 7    1  0.2783785E-010  0.4778728E+02  0.7816164E-02  0.1312668E+00
        -11   -1    0    0    0    0  0.00000000000E+00  0.00000000000E+00  0.45593999997E+02  0.45594000000E+02  0.51100000000E-03 0.  1.
         11   -1    0    0    0    0 -0.00000000000E+00 -0.00000000000E+00 -0.45593999997E+02  0.45594000000E+02  0.51100000000E-03 0. -1.
    9900012    2    1    2    0    0 -0.32441847216E+02  0.12095207699E+02 -0.26169737703E+02  0.47787277984E+02  0.20000031638E+02 0.  0.
        -12    1    1    2    0    0  0.32441847216E+02 -0.12095207699E+02  0.26169737703E+02  0.43400722016E+02  0.00000000000E+00 0.  1.
         11    1    3    3    0    0 -0.14183456300E+02  0.70083486440E+00 -0.14986331036E+02  0.20645864484E+02  0.51100000000E-03 0. -1.
        -11    1    3    3    0    0 -0.94244453532E+01  0.66468929605E+01 -0.12522103752E+02  0.17023643525E+02  0.51100000000E-03 0.  1.
        -12    1    3    3    0    0 -0.88339455630E+01  0.47474798740E+01  0.13386970843E+01  0.10117769974E+02  0.00000000000E+00 0.  1.
</event>
<event>
 7    1  0.2783785E-010  0.4778727E+02  0.7816164E-02  0.1312668E+00
        -11   -1    0    0    0    0  0.00000000000E+00  0.00000000000E+00  0.45593999997E+02  0.45594000000E+02  0.51100000000E-03 0.  1.
         11   -1    0    0    0    0 -0.00000000000E+00 -0.00000000000E+00 -0.45593999997E+02  0.45594000000E+02  0.51100000000E-03 0. -1.
    9900012    2    1    2    0    0  0.92634197025E+01  0.26928056920E+02 -0.32751979074E+02  0.47787270428E+02  0.19999997190E+02 0.  0.
        -12    1    1    2    0    0 -0.92634197025E+01 -0.26928056920E+02  0.32751979074E+02  0.43400729572E+02  0.00000000000E+00 0.  1.
         11    1    3    3    0    0  0.40711464695E+01  0.82346802706E+01 -0.56271994976E+01  0.10772630467E+02  0.51100000000E-03 0. -1.
        -11    1    3    3    0    0 -0.27721691898E+01  0.17026805747E+01 -0.13339596104E+02  0.13730581475E+02  0.51100000000E-03 0.  1.
        -12    1    3    3    0    0  0.79644424228E+01  0.16990696075E+02 -0.13785183473E+02  0.23284058486E+02  0.00000000000E+00 0.  1.
</event>
<event>
 7    1  0.2783785E-010  0.4778727E+02  0.7816164E-02  0.1312668E+00
        -11   -1    0    0    0    0  0.00000000000E+00  0.00000000000E+00  0.45593999997E+02  0.45594000000E+02  0.51100000000E-03 0. -1.
         11   -1    0    0    0    0 -0.00000000000E+00 -0.00000000000E+00 -0.45593999997E+02  0.45594000000E+02  0.51100000000E-03 0.  1.
    9900012    2    1    2    0    0  0.31667264418E+02  0.19124556282E+02  0.22694912298E+02  0.47787270364E+02  0.19999996898E+02 0.  0.
        -12    1    1    2    0    0 -0.31667264418E+02 -0.19124556282E+02 -0.22694912298E+02  0.43400729636E+02  0.00000000000E+00 0.  1.
         11    1    3    3    0    0  0.19952813284E+02  0.14564163677E+02  0.18872406835E+02  0.31086932328E+02  0.51100000000E-03 0. -1.
        -11    1    3    3    0    0  0.24947085398E+01  0.31988623172E+01  0.58921359586E+01  0.71535695453E+01  0.51100000000E-03 0.  1.
         12    1    3    3    0    0  0.92197425940E+01  0.13615302883E+01 -0.20696304958E+01  0.95467684907E+01  0.00000000000E+00 0. -1.
</event>
<event>
 7    1  0.2783785E-010  0.4778727E+02  0.7816164E-02  0.1312668E+00
        -11   -1    0    0    0    0  0.00000000000E+00  0.00000000000E+00  0.45593999997E+02  0.45594000000E+02  0.51100000000E-03 0.  1.
         11   -1    0    0    0    0 -0.00000000000E+00 -0.00000000000E+00 -0.45593999997E+02  0.45594000000E+02  0.51100000000E-03 0. -1.
    9900012    2    1    2    0    0 -0.30483751269E+02 -0.24044325610E+02 -0.19396772503E+02  0.47787268797E+02  0.19999989751E+02 0.  0.
        -12    1    1    2    0    0  0.30483751269E+02  0.24044325610E+02  0.19396772503E+02  0.43400731203E+02  0.00000000000E+00 0.  1.
         11    1    3    3    0    0 -0.32956691381E+01  0.12426254541E+01  0.43568698358E+00  0.35489965477E+01  0.51100000000E-03 0. -1.
        -11    1    3    3    0    0 -0.23443784518E+02 -0.14750557984E+02 -0.10322313700E+02  0.29559095956E+02  0.51100000000E-03 0.  1.
         12    1    3    3    0    0 -0.37442976129E+01 -0.10536393080E+02 -0.95101457865E+01  0.14679176293E+02  0.00000000000E+00 0. -1.
</event>
<event>
 7    1  0.2783785E-010  0.4778727E+02  0.7816164E-02  0.1312668E+00
        -11   -1    0    0    0    0  0.00000000000E+00  0.00000000000E+00  0.45593999997E+02  0.45594000000E+02  0.51100000000E-03 0.  1.
         11   -1    0    0    0    0 -0.00000000000E+00 -0.00000000000E+00 -0.45593999997E+02  0.45594000000E+02  0.51100000000E-03 0. -1.
    9900012    2    1    2    0    0  0.12144996845E+02 -0.12932704905E+02 -0.39608934495E+02  0.47787268482E+02  0.19999988315E+02 0.  0.
        -12    1    1    2    0    0 -0.12144996845E+02  0.12932704905E+02  0.39608934495E+02  0.43400731518E+02  0.00000000000E+00 0.  1.
         11    1    3    3    0    0 -0.14886296166E+01  0.11153101948E+00  0.11654247387E+00  0.14973442200E+01  0.51100000000E-03 0.  1.
        -11    1    3    3    0    0  0.85985127604E+01 -0.87499773700E+00 -0.25402264008E+02  0.26832350991E+02  0.51100000000E-03 0. -1.
         12    1    3    3    0    0  0.50351137011E+01 -0.12169238188E+02 -0.14323212961E+02  0.19457573270E+02  0.00000000000E+00 0. -1.
</event>
<event>
 7    1  0.2783785E-010  0.4778727E+02  0.7816164E-02  0.1312668E+00
        -11   -1    0    0    0    0  0.00000000000E+00  0.00000000000E+00  0.45593999997E+02  0.45594000000E+02  0.51100000000E-03 0.  1.
         11   -1    0    0    0    0 -0.00000000000E+00 -0.00000000000E+00 -0.45593999997E+02  0.45594000000E+02  0.51100000000E-03 0. -1.
    9900012    2    1    2    0    0 -0.20632411156E+02  0.99909952540E+01 -0.36852499315E+02  0.47787273254E+02  0.20000010076E+02 0.  0.
        -12    1    1    2    0    0  0.20632411156E+02 -0.99909952540E+01  0.36852499315E+02  0.43400726746E+02  0.00000000000E+00 0.  1.
         11    1    3    3    0    0 -0.16336230052E+02  0.99136065271E+00 -0.19408518820E+02  0.25387906792E+02  0.51100000000E-03 0. -1.
        -11    1    3    3    0    0 -0.28574267709E+01  0.42927167983E+01 -0.10238424526E+01  0.52574289240E+01  0.51100000000E-03 0.  1.
         12    1    3    3    0    0 -0.14387543337E+01  0.47069178030E+01 -0.16420138042E+02  0.17141937538E+02  0.00000000000E+00 0. -1.
</event>
<event>
 7    1  0.2783785E-010  0.4778727E+02  0.7816164E-02  0.1312668E+00
        -11   -1    0    0    0    0  0.00000000000E+00  0.00000000000E+00  0.45593999997E+02  0.45594000000E+02  0.51100000000E-03 0.  1.
         11   -1    0    0    0    0 -0.00000000000E+00 -0.00000000000E+00 -0.45593999997E+02  0.45594000000E+02  0.51100000000E-03 0. -1.
    9900012    2    1    2    0    0 -0.11260548674E+02 -0.15260982538E+02 -0.39037491321E+02  0.47787271053E+02  0.20000000041E+02 0.  0.
        -12    1    1    2    0    0  0.11260548674E+02  0.15260982538E+02  0.39037491321E+02  0.43400728947E+02  0.00000000000E+00 0.  1.
         11    1    3    3    0    0 -0.38417670219E+01 -0.32425249252E+01  0.11533983511E+01  0.51578551509E+01  0.51100000000E-03 0. -1.
        -11    1    3    3    0    0 -0.20589595378E+01 -0.25878960578E+01 -0.11091556434E+02  0.11574072091E+02  0.51100000000E-03 0.  1.
         12    1    3    3    0    0 -0.53598221147E+01 -0.94305615556E+01 -0.29099333238E+02  0.31055343811E+02  0.00000000000E+00 0. -1.
</event>
<event>
 7    1  0.2783785E-010  0.4778727E+02  0.7816164E-02  0.1312668E+00
        -11   -1    0    0    0    0  0.00000000000E+00  0.00000000000E+00  0.45593999997E+02  0.45594000000E+02  0.51100000000E-03 0.  1.
         11   -1    0    0    0    0 -0.00000000000E+00 -0.00000000000E+00 -0.45593999997E+02  0.45594000000E+02  0.51100000000E-03 0. -1.
    9900012    2    1    2    0    0 -0.14970064545E+02 -0.70304367472E+01 -0.40125970366E+02  0.47787269923E+02  0.19999994889E+02 0.  0.
        -12    1    1    2    0    0  0.14970064545E+02  0.70304367472E+01  0.40125970366E+02  0.43400730077E+02  0.00000000000E+00 0.  1.
         11    1    3    3    0    0  0.31530479666E+00 -0.51301554918E+01 -0.16265151024E+02  0.17057932189E+02  0.51100000000E-03 0. -1.
        -11    1    3    3    0    0 -0.63266578561E+01 -0.40578663985E+01 -0.33210118511E+01  0.82171770890E+01  0.51100000000E-03 0.  1.
         12    1    3    3    0    0 -0.89587114859E+01  0.21575851431E+01 -0.20539807492E+02  0.22512160645E+02  0.00000000000E+00 0. -1.
</event>
<event>
 7    1  0.2783785E-010  0.4778727E+02  0.7816164E-02  0.1312668E+00
        -11   -1    0    0    0    0  0.00000000000E+00  0.00000000000E+00  0.45593999997E+02  0.45594000000E+02  0.51100000000E-03 0. -1.
         11   -1    0    0    0    0 -0.00000000000E+00 -0.00000000000E+00 -0.45593999997E+02  0.45594000000E+02  0.51100000000E-03 0.  1.
    9900012    2    1    2    0    0  0.29605123751E+02 -0.31733274062E+02  0.39938497904E+00  0.47787267939E+02  0.19999985843E+02 0.  0.
        -12    1    1    2    0    0 -0.29605123751E+02  0.31733274062E+02 -0.39938497904E+00  0.43400732061E+02  0.00000000000E+00 0.  1.
         11    1    3    3    0    0  0.22172511046E+02 -0.18040268339E+02  0.26887977710E+00  0.28585727636E+02  0.51100000000E-03 0. -1.
        -11    1    3    3    0    0  0.10083114251E+02 -0.79775599316E+01 -0.52068734643E+00  0.12867858059E+02  0.51100000000E-03 0.  1.
         12    1    3    3    0    0 -0.26505015461E+01 -0.57154457914E+01  0.65119254837E+00  0.63336822446E+01  0.00000000000E+00 0. -1.
</event>
<event>
 7    1  0.2783785E-010  0.4778726E+02  0.7816164E-02  0.1312668E+00
        -11   -1    0    0    0    0  0.00000000000E+00  0.00000000000E+00  0.45593999997E+02  0.45594000000E+02  0.51100000000E-03 0.  1.
         11   -1    0    0    0    0 -0.00000000000E+00 -0.00000000000E+00 -0.45593999997E+02  0.45594000000E+02  0.51100000000E-03 0. -1.
    9900012    2    1    2    0    0  0.32968843858E+02  0.13285026454E+02 -0.24903558436E+02  0.47787264799E+02  0.19999971523E+02 0.  0.
        -12    1    1    2    0    0 -0.32968843858E+02 -0.13285026454E+02  0.24903558436E+02  0.43400735201E+02  0.00000000000E+00 0.  1.
         11    1    3    3    0    0  0.30577138782E+02  0.62464204671E+01 -0.19157392399E+02  0.36619460244E+02  0.51100000000E-03 0. -1.
        -11    1    3    3    0    0  0.34264195711E+01  0.17075363910E+01 -0.38135007317E+01  0.54035932208E+01  0.51100000000E-03 0.  1.
        -12    1    3    3    0    0 -0.10347144949E+01  0.53310695961E+01 -0.19326653051E+01  0.57642113343E+01  0.00000000000E+00 0.  1.
</event>
<event>
 7    1  0.2783785E-010  0.4778727E+02  0.7816164E-02  0.1312668E+00
        -11   -1    0    0    0    0  0.00000000000E+00  0.00000000000E+00  0.45593999997E+02  0.45594000000E+02  0.51100000000E-03 0.  1.
         11   -1    0    0    0    0 -0.00000000000E+00 -0.00000000000E+00 -0.45593999997E+02  0.45594000000E+02  0.51100000000E-03 0. -1.
    9900012    2    1    2    0    0  0.99962969948E+01  0.28124976786E+02 -0.31506873561E+02  0.47787270117E+02  0.19999995771E+02 0.  0.
        -12    1    1    2    0    0 -0.99962969948E+01 -0.28124976786E+02  0.31506873561E+02  0.43400729883E+02  0.00000000000E+00 0.  1.
         11    1    3    3    0    0  0.34900683813E+01 -0.23394787309E+01 -0.68863023371E+01  0.80669013987E+01  0.51100000000E-03 0. -1.
        -11    1    3    3    0    0  0.27552449593E+01  0.11417009329E+02 -0.87616091915E+01  0.14652824734E+02  0.51100000000E-03 0.  1.
         12    1    3    3    0    0  0.37509836541E+01  0.19047446188E+02 -0.15858962032E+02  0.25067543984E+02  0.00000000000E+00 0. -1.
</event>
<event>
 7    1  0.2783785E-010  0.4778727E+02  0.7816164E-02  0.1312668E+00
        -11   -1    0    0    0    0  0.00000000000E+00  0.00000000000E+00  0.45593999997E+02  0.45594000000E+02  0.51100000000E-03 0.  1.
         11   -1    0    0    0    0 -0.00000000000E+00 -0.00000000000E+00 -0.45593999997E+02  0.45594000000E+02  0.51100000000E-03 0. -1.
    9900012    2    1    2    0    0  0.20278518119E+02  0.10129074374E+02 -0.37010906150E+02  0.47787267070E+02  0.19999981880E+02 0.  0.
        -12    1    1    2    0    0 -0.20278518119E+02 -0.10129074374E+02  0.37010906150E+02  0.43400732930E+02  0.00000000000E+00 0.  1.
         11    1    3    3    0    0  0.14801802165E+02  0.29579492481E+01 -0.11379631643E+02  0.18903407833E+02  0.51100000000E-03 0. -1.
        -11    1    3    3    0    0  0.32730766005E+01  0.48646613673E+01 -0.41898534602E+01  0.72064438477E+01  0.51100000000E-03 0.  1.
        -12    1    3    3    0    0  0.22036393534E+01  0.23064637586E+01 -0.21441421047E+02  0.21677415389E+02  0.00000000000E+00 0.  1.
</event>
<event>
 7    1  0.2783785E-010  0.4778727E+02  0.7816164E-02  0.1312668E+00
        -11   -1    0    0    0    0  0.00000000000E+00  0.00000000000E+00  0.45593999997E+02  0.45594000000E+02  0.51100000000E-03 0.  1.
         11   -1    0    0    0    0 -0.00000000000E+00 -0.00000000000E+00 -0.45593999997E+02  0.45594000000E+02  0.51100000000E-03 0. -1.
    9900012    2    1    2    0    0  0.11645219760E+02 -0.14663604998E+02 -0.39153424841E+02  0.47787272683E+02  0.20000007472E+02 0.  0.
        -12    1    1    2    0    0 -0.11645219760E+02  0.14663604998E+02  0.39153424841E+02  0.43400727317E+02  0.00000000000E+00 0.  1.
         11    1    3    3    0    0  0.43501212795E+01 -0.72233300712E+01 -0.15544122712E+02  0.17683885422E+02  0.51100000000E-03 0. -1.
        -11    1    3    3    0    0  0.58570594694E+01  0.27020928613E+01 -0.30535403194E+01  0.71365650142E+01  0.51100000000E-03 0.  1.
        -12    1    3    3    0    0  0.14380390113E+01 -0.10142367788E+02 -0.20555761810E+02  0.22966822247E+02  0.00000000000E+00 0.  1.
</event>
<event>
 7    1  0.2783785E-010  0.4778727E+02  0.7816164E-02  0.1312668E+00
        -11   -1    0    0    0    0  0.00000000000E+00  0.00000000000E+00  0.45593999997E+02  0.45594000000E+02  0.51100000000E-03 0.  1.
         11   -1    0    0    0    0 -0.00000000000E+00 -0.00000000000E+00 -0.45593999997E+02  0.45594000000E+02  0.51100000000E-03 0. -1.
    9900012    2    1    2    0    0  0.36205985399E+02 -0.33526733343E+01 -0.23696192675E+02  0.47787270231E+02  0.19999996289E+02 0.  0.
        -12    1    1    2    0    0 -0.36205985399E+02  0.33526733343E+01  0.23696192675E+02  0.43400729769E+02  0.00000000000E+00 0.  1.
         11    1    3    3    0    0  0.24275771103E+01  0.42511439473E+01 -0.64558251477E+01  0.81020388845E+01  0.51100000000E-03 0. -1.
        -11    1    3    3    0    0  0.13844174642E+02 -0.62924164090E+01 -0.10956167596E+02  0.18742819543E+02  0.51100000000E-03 0.  1.
        -12    1    3    3    0    0  0.19934233647E+02 -0.13114008726E+01 -0.62841999318E+01  0.20942411803E+02  0.00000000000E+00 0.  1.
</event>
<event>
 7    1  0.2783785E-010  0.4778727E+02  0.7816164E-02  0.1312668E+00
        -11   -1    0    0    0    0  0.00000000000E+00  0.00000000000E+00  0.45593999997E+02  0.45594000000E+02  0.51100000000E-03 0.  1.
         11   -1    0    0    0    0 -0.00000000000E+00 -0.00000000000E+00 -0.45593999997E+02  0.45594000000E+02  0.51100000000E-03 0. -1.
    9900012    2    1    2    0    0  0.39301867509E+02  0.17737637202E+02 -0.49358730048E+01  0.47787269527E+02  0.19999993084E+02 0.  0.
        -12    1    1    2    0    0 -0.39301867509E+02 -0.17737637202E+02  0.49358730048E+01  0.43400730473E+02  0.00000000000E+00 0.  1.
         11    1    3    3    0    0  0.14869740238E+02  0.40399663120E+01  0.15304831200E+01  0.15484601428E+02  0.51100000000E-03 0. -1.
        -11    1    3    3    0    0  0.33854287189E+01  0.96304712584E+01 -0.23427129447E+01  0.10473557584E+02  0.51100000000E-03 0.  1.
         12    1    3    3    0    0  0.21046698553E+02  0.40671996315E+01 -0.41236431801E+01  0.21829110515E+02  0.00000000000E+00 0. -1.
</event>
<event>
 7    1  0.2783785E-010  0.4778727E+02  0.7816164E-02  0.1312668E+00
        -11   -1    0    0    0    0  0.00000000000E+00  0.00000000000E+00  0.45593999997E+02  0.45594000000E+02  0.51100000000E-03 0. -1.
         11   -1    0    0    0    0 -0.00000000000E+00 -0.00000000000E+00 -0.45593999997E+02  0.45594000000E+02  0.51100000000E-03 0.  1.
    9900012    2    1    2    0    0 -0.26290195555E+02 -0.28772683088E+02  0.19094017589E+02  0.47787272102E+02  0.20000004821E+02 0.  0.
        -12    1    1    2    0    0  0.26290195555E+02  0.28772683088E+02 -0.19094017589E+02  0.43400727898E+02  0.00000000000E+00 0.  1.
         11    1    3    3    0    0 -0.18866272981E+02 -0.11121744946E+02  0.15033892534E+02  0.26564024390E+02  0.51100000000E-03 0. -1.
        -11    1    3    3    0    0 -0.40545074016E+01 -0.79807790370E+01  0.60326247934E+01  0.10794648047E+02  0.51100000000E-03 0.  1.
        -12    1    3    3    0    0 -0.33694151731E+01 -0.96701591053E+01 -0.19724997391E+01  0.10428599664E+02  0.00000000000E+00 0.  1.
</event>
<event>
 7    1  0.2783785E-010  0.4778727E+02  0.7816164E-02  0.1312668E+00
        -11   -1    0    0    0    0  0.00000000000E+00  0.00000000000E+00  0.45593999997E+02  0.45594000000E+02  0.51100000000E-03 0.  1.
         11   -1    0    0    0    0 -0.00000000000E+00 -0.00000000000E+00 -0.45593999997E+02  0.45594000000E+02  0.51100000000E-03 0. -1.
    9900012    2    1    2    0    0  0.33880472562E+02 -0.23071363783E+02 -0.14263548724E+02  0.47787273393E+02  0.20000010706E+02 0.  0.
        -12    1    1    2    0    0 -0.33880472562E+02  0.23071363783E+02  0.14263548724E+02  0.43400726607E+02  0.00000000000E+00 0.  1.
         11    1    3    3    0    0  0.22361594562E+02 -0.52235572409E+01 -0.13018422491E+02  0.26397079119E+02  0.51100000000E-03 0. -1.
        -11    1    3    3    0    0  0.34240412946E+01 -0.44822412776E+01  0.52335224668E+00  0.56646662296E+01  0.51100000000E-03 0.  1.
         12    1    3    3    0    0  0.80948367054E+01 -0.13365565264E+02 -0.17684784798E+01  0.15725528044E+02  0.00000000000E+00 0. -1.
</event>
<event>
 7    1  0.2783785E-010  0.4778726E+02  0.7816164E-02  0.1312668E+00
        -11   -1    0    0    0    0  0.00000000000E+00  0.00000000000E+00  0.45593999997E+02  0.45594000000E+02  0.51100000000E-03 0.  1.
         11   -1    0    0    0    0 -0.00000000000E+00 -0.00000000000E+00 -0.45593999997E+02  0.45594000000E+02  0.51100000000E-03 0. -1.
    9900012    2    1    2    0    0 -0.36884363476E+02 -0.63008495194E+01 -0.21987879056E+02  0.47787264994E+02  0.19999972412E+02 0.  0.
        -12    1    1    2    0    0  0.36884363476E+02  0.63008495194E+01  0.21987879056E+02  0.43400735006E+02  0.00000000000E+00 0.  1.
         11    1    3    3    0    0 -0.58442836042E+01 -0.36056390913E+01 -0.81165892002E+01  0.10631806272E+02  0.51100000000E-03 0. -1.
        -11    1    3    3    0    0 -0.76730670477E+01  0.45260855109E+00 -0.10976748129E+02  0.13400366121E+02  0.51100000000E-03 0.  1.
        -12    1    3    3    0    0 -0.23367012825E+02 -0.31478189793E+01 -0.28945417264E+01  0.23755092601E+02  0.00000000000E+00 0.  1.
</event>
<event>
 7    1  0.2783785E-010  0.4778725E+02  0.7816164E-02  0.1312668E+00
        -11   -1    0    0    0    0  0.00000000000E+00  0.00000000000E+00  0.45593999997E+02  0.45594000000E+02  0.51100000000E-03 0. -1.
         11   -1    0    0    0    0 -0.00000000000E+00 -0.00000000000E+00 -0.45593999997E+02  0.45594000000E+02  0.51100000000E-03 0.  1.
    9900012    2    1    2    0    0 -0.28869542155E+02 -0.42882926919E+01  0.32121407814E+02  0.47787253942E+02  0.19999922021E+02 0.  0.
        -12    1    1    2    0    0  0.28869542155E+02  0.42882926919E+01 -0.32121407814E+02  0.43400746058E+02  0.00000000000E+00 0.  1.
         11    1    3    3    0    0 -0.16571137530E+02 -0.62124928768E+01  0.12285649287E+02  0.21543789023E+02  0.51100000000E-03 0. -1.
        -11    1    3    3    0    0 -0.42697289758E+01 -0.10931246138E+01 -0.23828308025E+00  0.44138742660E+01  0.51100000000E-03 0.  1.
         12    1    3    3    0    0 -0.80286756490E+01  0.30173247987E+01  0.20074041607E+02  0.21829590653E+02  0.00000000000E+00 0. -1.
</event>
<event>
 7    1  0.2783785E-010  0.4778725E+02  0.7816164E-02  0.1312668E+00
        -11   -1    0    0    0    0  0.00000000000E+00  0.00000000000E+00  0.45593999997E+02  0.45594000000E+02  0.51100000000E-03 0.  1.
         11   -1    0    0    0    0 -0.00000000000E+00 -0.00000000000E+00 -0.45593999997E+02  0.45594000000E+02  0.51100000000E-03 0. -1.
    9900012    2    1    2    0    0  0.19805153190E+02  0.12584532262E+02 -0.36510413995E+02  0.47787252596E+02  0.19999915884E+02 0.  0.
        -12    1    1    2    0    0 -0.19805153190E+02 -0.12584532262E+02  0.36510413995E+02  0.43400747404E+02  0.00000000000E+00 0.  1.
         11    1    3    3    0    0  0.66765882968E+01 -0.18521641731E+01 -0.60587264228E+01  0.92041028643E+01  0.51100000000E-03 0. -1.
        -11    1    3    3    0    0 -0.94507877060E+00  0.67116724115E+01 -0.47400076713E+01  0.82708762188E+01  0.51100000000E-03 0.  1.
         12    1    3    3    0    0  0.14073643664E+02  0.77250240238E+01 -0.25711679901E+02  0.30312273513E+02  0.00000000000E+00 0. -1.
</event>
<event>
 7    1  0.2783785E-010  0.4778727E+02  0.7816164E-02  0.1312668E+00
        -11   -1    0    0    0    0  0.00000000000E+00  0.00000000000E+00  0.45593999997E+02  0.45594000000E+02  0.51100000000E-03 0.  1.
         11   -1    0    0    0    0 -0.00000000000E+00 -0.00000000000E+00 -0.45593999997E+02  0.45594000000E+02  0.51100000000E-03 0. -1.
    9900012    2    1    2    0    0  0.12694820280E+02  0.36318987575E+02 -0.20084723128E+02  0.47787269320E+02  0.19999992137E+02 0.  0.
        -12    1    1    2    0    0 -0.12694820280E+02 -0.36318987575E+02  0.20084723128E+02  0.43400730680E+02  0.00000000000E+00 0.  1.
         11    1    3    3    0    0 -0.13487613915E+01  0.36945491436E+01  0.22348054073E+01  0.45236275416E+01  0.51100000000E-03 0. -1.
        -11    1    3    3    0    0  0.19632194073E+01  0.18077298226E+01 -0.55495461031E+01  0.61578876057E+01  0.51100000000E-03 0.  1.
         12    1    3    3    0    0  0.12080362264E+02  0.30816708609E+02 -0.16769982432E+02  0.37105754173E+02  0.00000000000E+00 0. -1.
</event>
<event>
 7    1  0.2783785E-010  0.4778727E+02  0.7816164E-02  0.1312668E+00
        -11   -1    0    0    0    0  0.00000000000E+00  0.00000000000E+00  0.45593999997E+02  0.45594000000E+02  0.51100000000E-03 0.  1.
         11   -1    0    0    0    0 -0.00000000000E+00 -0.00000000000E+00 -0.45593999997E+02  0.45594000000E+02  0.51100000000E-03 0. -1.
    9900012    2    1    2    0    0 -0.35264811005E+02 -0.13965562500E+02 -0.21094529033E+02  0.47787274358E+02  0.20000015107E+02 0.  0.
        -12    1    1    2    0    0  0.35264811005E+02  0.13965562500E+02  0.21094529033E+02  0.43400725642E+02  0.00000000000E+00 0.  1.
         11    1    3    3    0    0 -0.73570962248E+01 -0.25299377951E+01 -0.69548716500E+01  0.10435405600E+02  0.51100000000E-03 0. -1.
        -11    1    3    3    0    0 -0.11905332469E+02 -0.56890140029E+01  0.26479748546E+01  0.13457845021E+02  0.51100000000E-03 0.  1.
        -12    1    3    3    0    0 -0.16002382311E+02 -0.57466107023E+01 -0.16787632237E+02  0.23894023737E+02  0.00000000000E+00 0.  1.
</event>
<event>
 7    1  0.2783785E-010  0.4778727E+02  0.7816164E-02  0.1312668E+00
        -11   -1    0    0    0    0  0.00000000000E+00  0.00000000000E+00  0.45593999997E+02  0.45594000000E+02  0.51100000000E-03 0. -1.
         11   -1    0    0    0    0 -0.00000000000E+00 -0.00000000000E+00 -0.45593999997E+02  0.45594000000E+02  0.51100000000E-03 0.  1.
    9900012    2    1    2    0    0 -0.28451127050E+02 -0.17301509080E+02  0.27835485431E+02  0.47787273093E+02  0.20000009341E+02 0.  0.
        -12    1    1    2    0    0  0.28451127050E+02  0.17301509080E+02 -0.27835485431E+02  0.43400726907E+02  0.00000000000E+00 0.  1.
         11    1    3    3    0    0 -0.16202045804E+02 -0.30927641371E+01  0.10924802075E+02  0.19784407469E+02  0.51100000000E-03 0. -1.
        -11    1    3    3    0    0 -0.29221765098E+01 -0.30820834274E+01  0.11913965795E+02  0.12648357009E+02  0.51100000000E-03 0.  1.
        -12    1    3    3    0    0 -0.93269047361E+01 -0.11126661515E+02  0.49967175615E+01  0.15354508615E+02  0.00000000000E+00 0.  1.
</event>
<event>
 7    1  0.2783785E-010  0.4778727E+02  0.7816164E-02  0.1312668E+00
        -11   -1    0    0    0    0  0.00000000000E+00  0.00000000000E+00  0.45593999997E+02  0.45594000000E+02  0.51100000000E-03 0. -1.
         11   -1    0    0    0    0 -0.00000000000E+00 -0.00000000000E+00 -0.45593999997E+02  0.45594000000E+02  0.51100000000E-03 0.  1.
    9900012    2    1    2    0    0  0.43373722143E+02  0.31461932497E-01 -0.15305463691E+01  0.47787270346E+02  0.19999996814E+02 0.  0.
        -12    1    1    2    0    0 -0.43373722143E+02 -0.31461932497E-01  0.15305463691E+01  0.43400729654E+02  0.00000000000E+00 0.  1.
         11    1    3    3    0    0 -0.13834766427E+01  0.28744397867E+00  0.21084285707E+01  0.25381298155E+01  0.51100000000E-03 0.  1.
        -11    1    3    3    0    0  0.19242793710E+02  0.20291521895E+01  0.17476009213E+00  0.19350274151E+02  0.51100000000E-03 0. -1.
         12    1    3    3    0    0  0.25514405075E+02 -0.22851342357E+01 -0.38137350319E+01  0.25898866379E+02  0.00000000000E+00 0. -1.
</event>
<event>
 7    1  0.2783785E-010  0.4778726E+02  0.7816164E-02  0.1312668E+00
        -11   -1    0    0    0    0  0.00000000000E+00  0.00000000000E+00  0.45593999997E+02  0.45594000000E+02  0.51100000000E-03 0. -1.
         11   -1    0    0    0    0 -0.00000000000E+00 -0.00000000000E+00 -0.45593999997E+02  0.45594000000E+02  0.51100000000E-03 0.  1.
    9900012    2    1    2    0    0 -0.35475920250E+02 -0.14382671221E+02  0.20450476898E+02  0.47787260901E+02  0.19999953751E+02 0.  0.
        -12    1    1    2    0    0  0.35475920250E+02  0.14382671221E+02 -0.20450476898E+02  0.43400739099E+02  0.00000000000E+00 0.  1.
         11    1    3    3    0    0 -0.68021396262E+01 -0.22919845423E+01  0.88940577547E+01  0.11429197708E+02  0.51100000000E-03 0. -1.
        -11    1    3    3    0    0 -0.39191711387E+00  0.25478472386E+01  0.36729600964E+00  0.26038493034E+01  0.51100000000E-03 0.  1.
         12    1    3    3    0    0 -0.28281863510E+02 -0.14638533917E+02  0.11189123134E+02  0.33754213890E+02  0.00000000000E+00 0. -1.
</event>
<event>
 7    1  0.2783785E-010  0.4778727E+02  0.7816164E-02  0.1312668E+00
        -11   -1    0    0    0    0  0.00000000000E+00  0.00000000000E+00  0.45593999997E+02  0.45594000000E+02  0.51100000000E-03 0. -1.
         11   -1    0    0    0    0 -0.00000000000E+00 -0.00000000000E+00 -0.45593999997E+02  0.45594000000E+02  0.51100000000E-03 0.  1.
    9900012    2    1    2    0    0  0.26499621004E+01  0.43028842998E+02 -0.50119643897E+01  0.47787269408E+02  0.19999992539E+02 0.  0.
        -12    1    1    2    0    0 -0.26499621004E+01 -0.43028842998E+02  0.50119643897E+01  0.43400730592E+02  0.00000000000E+00 0.  1.
         11    1    3    3    0    0 -0.34517317589E+01  0.30665435409E+01 -0.16161024425E+01  0.48918226449E+01  0.51100000000E-03 0. -1.
        -11    1    3    3    0    0  0.44210882049E+00 -0.10614002649E+01 -0.80233300074E+00  0.14020589277E+01  0.51100000000E-03 0.  1.
         12    1    3    3    0    0  0.56595850389E+01  0.41023699722E+02 -0.25935289464E+01  0.41493387836E+02  0.00000000000E+00 0. -1.
</event>
<event>
 7    1  0.2783785E-010  0.4778727E+02  0.7816164E-02  0.1312668E+00
        -11   -1    0    0    0    0  0.00000000000E+00  0.00000000000E+00  0.45593999997E+02  0.45594000000E+02  0.51100000000E-03 0.  1.
         11   -1    0    0    0    0 -0.00000000000E+00 -0.00000000000E+00 -0.45593999997E+02  0.45594000000E+02  0.51100000000E-03 0. -1.
    9900012    2    1    2    0    0  0.35584668652E+02 -0.21919922021E+02 -0.11699224437E+02  0.47787268706E+02  0.19999989336E+02 0.  0.
        -12    1    1    2    0    0 -0.35584668652E+02  0.21919922021E+02  0.11699224437E+02  0.43400731294E+02  0.00000000000E+00 0.  1.
         11    1    3    3    0    0  0.26051713548E+02 -0.16655083024E+02 -0.17558274341E+01  0.30970413294E+02  0.51100000000E-03 0. -1.
        -11    1    3    3    0    0  0.39946213496E+01 -0.66494432982E+01 -0.47278161589E+01  0.90842909352E+01  0.51100000000E-03 0.  1.
        -12    1    3    3    0    0  0.55383337541E+01  0.13846043016E+01 -0.52155808444E+01  0.77325644768E+01  0.00000000000E+00 0.  1.
</event>
<event>
 7    1  0.2783785E-010  0.4778727E+02  0.7816164E-02  0.1312668E+00
        -11   -1    0    0    0    0  0.00000000000E+00  0.00000000000E+00  0.45593999997E+02  0.45594000000E+02  0.51100000000E-03 0.  1.
         11   -1    0    0    0    0 -0.00000000000E+00 -0.00000000000E+00 -0.45593999997E+02  0.45594000000E+02  0.51100000000E-03 0. -1.
    9900012    2    1    2    0    0 -0.14661202976E+02 -0.40575138672E+02  0.47255212020E+01  0.47787270725E+02  0.19999998542E+02 0.  0.
        -12    1    1    2    0    0  0.14661202976E+02  0.40575138672E+02 -0.47255212020E+01  0.43400729275E+02  0.00000000000E+00 0.  1.
         11    1    3    3    0    0 -0.49636267957E+01 -0.35672418115E+02  0.13128249508E+01  0.36040012691E+02  0.51100000000E-03 0. -1.
        -11    1    3    3    0    0 -0.19787773102E+01  0.12152043097E+00  0.10299943392E+01  0.22341028308E+01  0.51100000000E-03 0.  1.
         12    1    3    3    0    0 -0.77187988705E+01 -0.50242409879E+01  0.23827019119E+01  0.95131552026E+01  0.00000000000E+00 0. -1.
</event>
<event>
 7    1  0.2783785E-010  0.4778724E+02  0.7816164E-02  0.1312668E+00
        -11   -1    0    0    0    0  0.00000000000E+00  0.00000000000E+00  0.45593999997E+02  0.45594000000E+02  0.51100000000E-03 0. -1.
         11   -1    0    0    0    0 -0.00000000000E+00 -0.00000000000E+00 -0.45593999997E+02  0.45594000000E+02  0.51100000000E-03 0.  1.
    9900012    2    1    2    0    0 -0.22229054501E+02  0.30265079339E+02 -0.21760513349E+02  0.47787241566E+02  0.19999865597E+02 0.  0.
        -12    1    1    2    0    0  0.22229054501E+02 -0.30265079339E+02  0.21760513349E+02  0.43400758434E+02  0.00000000000E+00 0.  1.
         11    1    3    3    0    0 -0.13894473057E+02  0.17692628120E+02 -0.19257016930E+01  0.22578613743E+02  0.51100000000E-03 0. -1.
        -11    1    3    3    0    0 -0.19748307322E+01  0.14510178033E+01 -0.52644019974E+01  0.58068354323E+01  0.51100000000E-03 0.  1.
         12    1    3    3    0    0 -0.63597507118E+01  0.11121433416E+02 -0.14570409658E+02  0.19401792391E+02  0.00000000000E+00 0. -1.
</event>
<event>
 7    1  0.3384949E-010  0.4778727E+02  0.7816164E-02  0.1312668E+00
        -11   -1    0    0    0    0  0.00000000000E+00  0.00000000000E+00  0.45593999997E+02  0.45594000000E+02  0.51100000000E-03 0.  1.
         11   -1    0    0    0    0 -0.00000000000E+00 -0.00000000000E+00 -0.45593999997E+02  0.45594000000E+02  0.51100000000E-03 0. -1.
    9900012    2    1    2    0    0  0.35903118947E+02  0.86390596343E+01 -0.22802542304E+02  0.47787271469E+02  0.20000001937E+02 0.  0.
        -12    1    1    2    0    0 -0.35903118947E+02 -0.86390596343E+01  0.22802542304E+02  0.43400728531E+02  0.00000000000E+00 0.  1.
         11    1    3    3    0    0  0.24092340016E+02  0.76261996838E+01 -0.15068104997E+02  0.29421889088E+02  0.51100000000E-03 0. -1.
        -11    1    3    3    0    0  0.67953643550E+01 -0.20070946947E+01 -0.98557915782E+01  0.12138452691E+02  0.51100000000E-03 0.  1.
        -12    1    3    3    0    0  0.50154145757E+01  0.30199546452E+01  0.21213542711E+01  0.62269296903E+01  0.00000000000E+00 0.  1.
</event>
<event>
 7    1  0.2783785E-010  0.4778727E+02  0.7816164E-02  0.1312668E+00
        -11   -1    0    0    0    0  0.00000000000E+00  0.00000000000E+00  0.45593999997E+02  0.45594000000E+02  0.51100000000E-03 0. -1.
         11   -1    0    0    0    0 -0.00000000000E+00 -0.00000000000E+00 -0.45593999997E+02  0.45594000000E+02  0.51100000000E-03 0.  1.
    9900012    2    1    2    0    0  0.41580005746E+02 -0.11708488695E+02 -0.41996950434E+01  0.47787273926E+02  0.20000013137E+02 0.  0.
        -12    1    1    2    0    0 -0.41580005746E+02  0.11708488695E+02  0.41996950434E+01  0.43400726074E+02  0.00000000000E+00 0.  1.
         11    1    3    3    0    0  0.12840909540E+02 -0.99006158846E+01 -0.26111680169E+01  0.16423439085E+02  0.51100000000E-03 0. -1.
        -11    1    3    3    0    0  0.15102128588E+02 -0.35845768488E+00 -0.69638125667E+01  0.16634225727E+02  0.51100000000E-03 0.  1.
         12    1    3    3    0    0  0.13636967618E+02 -0.14494151252E+01  0.53752855403E+01  0.14729609114E+02  0.00000000000E+00 0. -1.
</event>
<event>
 7    1  0.2783785E-010  0.4778727E+02  0.7816164E-02  0.1312668E+00
        -11   -1    0    0    0    0  0.00000000000E+00  0.00000000000E+00  0.45593999997E+02  0.45594000000E+02  0.51100000000E-03 0.  1.
         11   -1    0    0    0    0 -0.00000000000E+00 -0.00000000000E+00 -0.45593999997E+02  0.45594000000E+02  0.51100000000E-03 0. -1.
    9900012    2    1    2    0    0 -0.27433212127E+02 -0.29160823521E+02 -0.16753754258E+02  0.47787273764E+02  0.20000012399E+02 0.  0.
        -12    1    1    2    0    0  0.27433212127E+02  0.29160823521E+02  0.16753754258E+02  0.43400726236E+02  0.00000000000E+00 0.  1.
         11    1    3    3    0    0 -0.56674038890E+01 -0.11605422337E+02 -0.14383782364E+02  0.19331282674E+02  0.51100000000E-03 0. -1.
        -11    1    3    3    0    0 -0.89592094153E+01 -0.57455621742E+01 -0.28861314776E+01  0.11027632258E+02  0.51100000000E-03 0.  1.
        -12    1    3    3    0    0 -0.12806598823E+02 -0.11809839010E+02  0.51615958347E+00  0.17428358832E+02  0.00000000000E+00 0.  1.
</event>
<event>
 7    1  0.2783785E-010  0.4778728E+02  0.7816164E-02  0.1312668E+00
        -11   -1    0    0    0    0  0.00000000000E+00  0.00000000000E+00  0.45593999997E+02  0.45594000000E+02  0.51100000000E-03 0.  1.
         11   -1    0    0    0    0 -0.00000000000E+00 -0.00000000000E+00 -0.45593999997E+02  0.45594000000E+02  0.51100000000E-03 0. -1.
    9900012    2    1    2    0    0 -0.41587176399E+02  0.60469409119E+01 -0.10842697466E+02  0.47787276233E+02  0.20000023655E+02 0.  0.
        -12    1    1    2    0    0  0.41587176399E+02 -0.60469409119E+01  0.10842697466E+02  0.43400723767E+02  0.00000000000E+00 0.  1.
         11    1    3    3    0    0 -0.30850692362E+02  0.70340933460E+01 -0.14800754578E+02  0.34932878850E+02  0.51100000000E-03 0. -1.
        -11    1    3    3    0    0 -0.58743394302E+01  0.23506124356E+01  0.18627110426E+01  0.65956754963E+01  0.51100000000E-03 0.  1.
         12    1    3    3    0    0 -0.48621446061E+01 -0.33377648697E+01  0.20953460694E+01  0.62587218861E+01  0.00000000000E+00 0. -1.
</event>
<event>
 7    1  0.2783785E-010  0.4778727E+02  0.7816164E-02  0.1312668E+00
        -11   -1    0    0    0    0  0.00000000000E+00  0.00000000000E+00  0.45593999997E+02  0.45594000000E+02  0.51100000000E-03 0.  1.
         11   -1    0    0    0    0 -0.00000000000E+00 -0.00000000000E+00 -0.45593999997E+02  0.45594000000E+02  0.51100000000E-03 0. -1.
    9900012    2    1    2    0    0  0.24804421881E+02  0.10242791693E+02 -0.34109366852E+02  0.47787273813E+02  0.20000012622E+02 0.  0.
        -12    1    1    2    0    0 -0.24804421881E+02 -0.10242791693E+02  0.34109366852E+02  0.43400726187E+02  0.00000000000E+00 0.  1.
         11    1    3    3    0    0  0.90645526793E+01  0.65580233487E+01 -0.23346381027E+02  0.25888748383E+02  0.51100000000E-03 0. -1.
        -11    1    3    3    0    0  0.36330097692E+01 -0.33827461993E+01 -0.37639618258E+01  0.62296982847E+01  0.51100000000E-03 0.  1.
         12    1    3    3    0    0  0.12106859433E+02  0.70675145435E+01 -0.69990239989E+01  0.15668827145E+02  0.00000000000E+00 0. -1.
</event>
<event>
 7    1  0.2783785E-010  0.4778727E+02  0.7816164E-02  0.1312668E+00
        -11   -1    0    0    0    0  0.00000000000E+00  0.00000000000E+00  0.45593999997E+02  0.45594000000E+02  0.51100000000E-03 0. -1.
         11   -1    0    0    0    0 -0.00000000000E+00 -0.00000000000E+00 -0.45593999997E+02  0.45594000000E+02  0.51100000000E-03 0.  1.
    9900012    2    1    2    0    0 -0.41306213436E+02  0.13241676032E+02  0.14414454913E+01  0.47787273996E+02  0.20000013458E+02 0.  0.
        -12    1    1    2    0    0  0.41306213436E+02 -0.13241676032E+02 -0.14414454913E+01  0.43400726004E+02  0.00000000000E+00 0.  1.
         11    1    3    3    0    0 -0.37445985088E+02  0.84073323509E+01  0.68030700371E+01  0.38976490332E+02  0.51100000000E-03 0. -1.
        -11    1    3    3    0    0 -0.12559668969E+00  0.20764266971E+01 -0.61043121695E+00  0.21679365509E+01  0.51100000000E-03 0.  1.
         12    1    3    3    0    0 -0.37346316588E+01  0.27579169836E+01 -0.47511933289E+01  0.66428471128E+01  0.00000000000E+00 0. -1.
</event>
<event>
 7    1  0.2783785E-010  0.4778727E+02  0.7816164E-02  0.1312668E+00
        -11   -1    0    0    0    0  0.00000000000E+00  0.00000000000E+00  0.45593999997E+02  0.45594000000E+02  0.51100000000E-03 0.  1.
         11   -1    0    0    0    0 -0.00000000000E+00 -0.00000000000E+00 -0.45593999997E+02  0.45594000000E+02  0.51100000000E-03 0. -1.
    9900012    2    1    2    0    0  0.33628856502E+01  0.21917193605E+02 -0.37308858004E+02  0.47787271193E+02  0.20000000677E+02 0.  0.
        -12    1    1    2    0    0 -0.33628856502E+01 -0.21917193605E+02  0.37308858004E+02  0.43400728807E+02  0.00000000000E+00 0.  1.
         11    1    3    3    0    0  0.36773745661E+01  0.14797770822E+02 -0.29380906816E+02  0.33101885001E+02  0.51100000000E-03 0. -1.
        -11    1    3    3    0    0 -0.41630063077E+00  0.93860297353E+01 -0.41335214053E+01  0.10264348975E+02  0.51100000000E-03 0.  1.
        -12    1    3    3    0    0  0.10181171482E+00 -0.22666069524E+01 -0.37944297825E+01  0.44210372173E+01  0.00000000000E+00 0.  1.
</event>
<event>
 7    1  0.2783785E-010  0.4778727E+02  0.7816164E-02  0.1312668E+00
        -11   -1    0    0    0    0  0.00000000000E+00  0.00000000000E+00  0.45593999997E+02  0.45594000000E+02  0.51100000000E-03 0.  1.
         11   -1    0    0    0    0 -0.00000000000E+00 -0.00000000000E+00 -0.45593999997E+02  0.45594000000E+02  0.51100000000E-03 0. -1.
    9900012    2    1    2    0    0  0.34781993222E+02 -0.25886877483E+02 -0.19250726414E+01  0.47787269787E+02  0.19999994268E+02 0.  0.
        -12    1    1    2    0    0 -0.34781993222E+02  0.25886877483E+02  0.19250726414E+01  0.43400730213E+02  0.00000000000E+00 0.  1.
         11    1    3    3    0    0  0.22873513753E+01 -0.33887805617E+01 -0.48291113000E+01  0.63274107041E+01  0.51100000000E-03 0. -1.
        -11    1    3    3    0    0  0.13293317166E+02 -0.91128040994E+01 -0.48028768772E+01  0.16817345402E+02  0.51100000000E-03 0.  1.
        -12    1    3    3    0    0  0.19201324681E+02 -0.13385292822E+02  0.77069155358E+01  0.24642513681E+02  0.00000000000E+00 0.  1.
</event>
<event>
 7    1  0.2783785E-010  0.4778727E+02  0.7816164E-02  0.1312668E+00
        -11   -1    0    0    0    0  0.00000000000E+00  0.00000000000E+00  0.45593999997E+02  0.45594000000E+02  0.51100000000E-03 0. -1.
         11   -1    0    0    0    0 -0.00000000000E+00 -0.00000000000E+00 -0.45593999997E+02  0.45594000000E+02  0.51100000000E-03 0.  1.
    9900012    2    1    2    0    0 -0.42199069516E+02  0.11292158551E+01  0.10079020928E+02  0.47787271212E+02  0.20000000764E+02 0.  0.
        -12    1    1    2    0    0  0.42199069516E+02 -0.11292158551E+01 -0.10079020928E+02  0.43400728788E+02  0.00000000000E+00 0.  1.
         11    1    3    3    0    0 -0.48164338545E+01 -0.39423319665E+01 -0.40834819352E+01  0.74441145468E+01  0.51100000000E-03 0.  1.
        -11    1    3    3    0    0 -0.61076095156E+01  0.37513810720E+00  0.17033308203E+01  0.63517681584E+01  0.51100000000E-03 0. -1.
        -12    1    3    3    0    0 -0.31275026146E+02  0.46964097145E+01  0.12459172043E+02  0.33991388507E+02  0.00000000000E+00 0.  1.
</event>
<event>
 7    1  0.2783785E-010  0.4778727E+02  0.7816164E-02  0.1312668E+00
        -11   -1    0    0    0    0  0.00000000000E+00  0.00000000000E+00  0.45593999997E+02  0.45594000000E+02  0.51100000000E-03 0. -1.
         11   -1    0    0    0    0 -0.00000000000E+00 -0.00000000000E+00 -0.45593999997E+02  0.45594000000E+02  0.51100000000E-03 0.  1.
    9900012    2    1    2    0    0 -0.18658221574E+02  0.37512360992E+02 -0.11327703918E+02  0.47787270334E+02  0.19999996761E+02 0.  0.
        -12    1    1    2    0    0  0.18658221574E+02 -0.37512360992E+02  0.11327703918E+02  0.43400729666E+02  0.00000000000E+00 0.  1.
         11    1    3    3    0    0  0.10995475302E-01  0.40285745219E+01  0.43583665547E+01  0.59350562647E+01  0.51100000000E-03 0.  1.
        -11    1    3    3    0    0 -0.11593330550E+01  0.58153861908E+01 -0.36694077512E+01  0.69733294190E+01  0.51100000000E-03 0. -1.
        -12    1    3    3    0    0 -0.17509883994E+02  0.27668400279E+02 -0.12016662722E+02  0.34878884650E+02  0.00000000000E+00 0.  1.
</event>
<event>
 7    1  0.2783785E-010  0.4778728E+02  0.7816164E-02  0.1312668E+00
        -11   -1    0    0    0    0  0.00000000000E+00  0.00000000000E+00  0.45593999997E+02  0.45594000000E+02  0.51100000000E-03 0.  1.
         11   -1    0    0    0    0 -0.00000000000E+00 -0.00000000000E+00 -0.45593999997E+02  0.45594000000E+02  0.51100000000E-03 0. -1.
    9900012    2    1    2    0    0 -0.32446112715E+02  0.36410951845E+01 -0.28593967939E+02  0.47787276424E+02  0.20000024528E+02 0.  0.
        -12    1    1    2    0    0  0.32446112715E+02 -0.36410951845E+01  0.28593967939E+02  0.43400723576E+02  0.00000000000E+00 0.  1.
         11    1    3    3    0    0 -0.21279538749E+02  0.64244088924E+01 -0.19777804185E+02  0.29753207182E+02  0.51100000000E-03 0. -1.
        -11    1    3    3    0    0 -0.21184206211E+01  0.21165430557E+01  0.15977474208E+01  0.33941504852E+01  0.51100000000E-03 0.  1.
        -12    1    3    3    0    0 -0.90481533446E+01 -0.48998567637E+01 -0.10413911174E+02  0.14639918756E+02  0.00000000000E+00 0.  1.
</event>
<event>
 7    1  0.2783785E-010  0.4778727E+02  0.7816164E-02  0.1312668E+00
        -11   -1    0    0    0    0  0.00000000000E+00  0.00000000000E+00  0.45593999997E+02  0.45594000000E+02  0.51100000000E-03 0. -1.
         11   -1    0    0    0    0 -0.00000000000E+00 -0.00000000000E+00 -0.45593999997E+02  0.45594000000E+02  0.51100000000E-03 0.  1.
    9900012    2    1    2    0    0 -0.28937725597E+02 -0.20632074550E+02  0.24910816133E+02  0.47787271626E+02  0.20000002652E+02 0.  0.
        -12    1    1    2    0    0  0.28937725597E+02  0.20632074550E+02 -0.24910816133E+02  0.43400728374E+02  0.00000000000E+00 0.  1.
         11    1    3    3    0    0 -0.10793775974E+02 -0.40483012172E+01  0.15548357380E+01  0.11632362484E+02  0.51100000000E-03 0. -1.
        -11    1    3    3    0    0 -0.12018119593E+01  0.70788697592E+00  0.65207579997E+01  0.66682637251E+01  0.51100000000E-03 0.  1.
         12    1    3    3    0    0 -0.16942137664E+02 -0.17291660309E+02  0.16835222395E+02  0.29486645417E+02  0.00000000000E+00 0. -1.
</event>
<event>
 7    1  0.2783785E-010  0.4778727E+02  0.7816164E-02  0.1312668E+00
        -11   -1    0    0    0    0  0.00000000000E+00  0.00000000000E+00  0.45593999997E+02  0.45594000000E+02  0.51100000000E-03 0.  1.
         11   -1    0    0    0    0 -0.00000000000E+00 -0.00000000000E+00 -0.45593999997E+02  0.45594000000E+02  0.51100000000E-03 0. -1.
    9900012    2    1    2    0    0  0.17166146758E+01 -0.19876266742E+02 -0.38543623181E+02  0.47787266902E+02  0.19999981113E+02 0.  0.
        -12    1    1    2    0    0 -0.17166146758E+01  0.19876266742E+02  0.38543623181E+02  0.43400733098E+02  0.00000000000E+00 0.  1.
         11    1    3    3    0    0 -0.66835691163E+01 -0.23341885402E+01 -0.15127502248E+02  0.16702091390E+02  0.51100000000E-03 0. -1.
        -11    1    3    3    0    0  0.47415099808E+01 -0.40765946420E+01 -0.51602992804E+01  0.81073565172E+01  0.51100000000E-03 0.  1.
         12    1    3    3    0    0  0.36586738113E+01 -0.13465483560E+02 -0.18255821652E+02  0.22977818995E+02  0.00000000000E+00 0. -1.
</event>
<event>
 7    1  0.2783785E-010  0.4778727E+02  0.7816164E-02  0.1312668E+00
        -11   -1    0    0    0    0  0.00000000000E+00  0.00000000000E+00  0.45593999997E+02  0.45594000000E+02  0.51100000000E-03 0.  1.
         11   -1    0    0    0    0 -0.00000000000E+00 -0.00000000000E+00 -0.45593999997E+02  0.45594000000E+02  0.51100000000E-03 0. -1.
    9900012    2    1    2    0    0 -0.14893825883E+02 -0.23745449930E+01 -0.40695931619E+02  0.47787270009E+02  0.19999995281E+02 0.  0.
        -12    1    1    2    0    0  0.14893825883E+02  0.23745449930E+01  0.40695931619E+02  0.43400729991E+02  0.00000000000E+00 0.  1.
         11    1    3    3    0    0 -0.98864406241E+01  0.54042280119E+01 -0.98286393690E+01  0.14951573186E+02  0.51100000000E-03 0. -1.
        -11    1    3    3    0    0 -0.94180833841E+00 -0.28190707600E+01 -0.19981098853E+02  0.20200952318E+02  0.51100000000E-03 0.  1.
        -12    1    3    3    0    0 -0.40655769208E+01 -0.49597022449E+01 -0.10886193397E+02  0.12634744506E+02  0.00000000000E+00 0.  1.
</event>
<event>
 7    1  0.2783785E-010  0.4778727E+02  0.7816164E-02  0.1312668E+00
        -11   -1    0    0    0    0  0.00000000000E+00  0.00000000000E+00  0.45593999997E+02  0.45594000000E+02  0.51100000000E-03 0. -1.
         11   -1    0    0    0    0 -0.00000000000E+00 -0.00000000000E+00 -0.45593999997E+02  0.45594000000E+02  0.51100000000E-03 0.  1.
    9900012    2    1    2    0    0  0.10741110009E+02 -0.18066316787E+02  0.37971831951E+02  0.47787271110E+02  0.20000000297E+02 0.  0.
        -12    1    1    2    0    0 -0.10741110009E+02  0.18066316787E+02 -0.37971831951E+02  0.43400728890E+02  0.00000000000E+00 0.  1.
         11    1    3    3    0    0  0.61606004417E+01 -0.46861250251E+01  0.11826053885E+02  0.14133941994E+02  0.51100000000E-03 0. -1.
        -11    1    3    3    0    0 -0.50714581648E+01 -0.96032207989E+00  0.42094218795E+01  0.66604158456E+01  0.51100000000E-03 0.  1.
         12    1    3    3    0    0  0.96519677323E+01 -0.12419869682E+02  0.21936356187E+02  0.26992913270E+02  0.00000000000E+00 0. -1.
</event>
<event>
 7    1  0.2783785E-010  0.4778728E+02  0.7816164E-02  0.1312668E+00
        -11   -1    0    0    0    0  0.00000000000E+00  0.00000000000E+00  0.45593999997E+02  0.45594000000E+02  0.51100000000E-03 0.  1.
         11   -1    0    0    0    0 -0.00000000000E+00 -0.00000000000E+00 -0.45593999997E+02  0.45594000000E+02  0.51100000000E-03 0. -1.
    9900012    2    1    2    0    0  0.28509498042E+02  0.26862810419E+02 -0.18687438929E+02  0.47787280698E+02  0.20000044016E+02 0.  0.
        -12    1    1    2    0    0 -0.28509498042E+02 -0.26862810419E+02  0.18687438929E+02  0.43400719302E+02  0.00000000000E+00 0.  1.
         11    1    3    3    0    0  0.62694555300E+01  0.39530699913E+01  0.10848068051E+01  0.74906368931E+01  0.51100000000E-03 0. -1.
        -11    1    3    3    0    0 -0.92615991107E+00 -0.12574166531E+01 -0.37586240693E+00  0.16062819275E+01  0.51100000000E-03 0.  1.
         12    1    3    3    0    0  0.23166202423E+02  0.24167157081E+02 -0.19396383327E+02  0.38690361878E+02  0.00000000000E+00 0. -1.
</event>
<event>
 7    1  0.2783785E-010  0.4778722E+02  0.7816164E-02  0.1312668E+00
        -11   -1    0    0    0    0  0.00000000000E+00  0.00000000000E+00  0.45593999997E+02  0.45594000000E+02  0.51100000000E-03 0.  1.
         11   -1    0    0    0    0 -0.00000000000E+00 -0.00000000000E+00 -0.45593999997E+02  0.45594000000E+02  0.51100000000E-03 0. -1.
    9900012    2    1    2    0    0 -0.39887600197E+02 -0.59025369460E+01 -0.16055136015E+02  0.47787216777E+02  0.19999752573E+02 0.  0.
        -12    1    1    2    0    0  0.39887600197E+02  0.59025369460E+01  0.16055136015E+02  0.43400783223E+02  0.00000000000E+00 0.  1.
         11    1    3    3    0    0 -0.29262831981E+02  0.23405169142E+01 -0.46294341660E+01  0.29719068221E+02  0.51100000000E-03 0. -1.
        -11    1    3    3    0    0 -0.41791959942E+01 -0.47604019114E+01 -0.33552822305E+01  0.71683348571E+01  0.51100000000E-03 0.  1.
        -12    1    3    3    0    0 -0.64455722222E+01 -0.34826519488E+01 -0.80704196185E+01  0.10899813700E+02  0.00000000000E+00 0.  1.
</event>
<event>
 7    1  0.2783785E-010  0.4778727E+02  0.7816164E-02  0.1312668E+00
        -11   -1    0    0    0    0  0.00000000000E+00  0.00000000000E+00  0.45593999997E+02  0.45594000000E+02  0.51100000000E-03 0.  1.
         11   -1    0    0    0    0 -0.00000000000E+00 -0.00000000000E+00 -0.45593999997E+02  0.45594000000E+02  0.51100000000E-03 0. -1.
    9900012    2    1    2    0    0  0.42933228266E+02  0.29832290092E+01 -0.56090591960E+01  0.47787270862E+02  0.19999999168E+02 0.  0.
        -12    1    1    2    0    0 -0.42933228266E+02 -0.29832290092E+01  0.56090591960E+01  0.43400729138E+02  0.00000000000E+00 0.  1.
         11    1    3    3    0    0  0.40971015464E+01 -0.18263332338E+01 -0.51346456883E+01  0.68180877647E+01  0.51100000000E-03 0. -1.
        -11    1    3    3    0    0  0.33767976340E+02  0.24565552081E+01 -0.43977585906E+01  0.34141633975E+02  0.51100000000E-03 0.  1.
        -12    1    3    3    0    0  0.50681503791E+01  0.23530070350E+01  0.39233450828E+01  0.68275491218E+01  0.00000000000E+00 0.  1.
</event>
<event>
 7    1  0.2783785E-010  0.4778727E+02  0.7816164E-02  0.1312668E+00
        -11   -1    0    0    0    0  0.00000000000E+00  0.00000000000E+00  0.45593999997E+02  0.45594000000E+02  0.51100000000E-03 0. -1.
         11   -1    0    0    0    0 -0.00000000000E+00 -0.00000000000E+00 -0.45593999997E+02  0.45594000000E+02  0.51100000000E-03 0.  1.
    9900012    2    1    2    0    0 -0.29187609256E+02  0.32051180069E+02 -0.21045259553E+01  0.47787266050E+02  0.19999977227E+02 0.  0.
        -12    1    1    2    0    0  0.29187609256E+02 -0.32051180069E+02  0.21045259553E+01  0.43400733950E+02  0.00000000000E+00 0.  1.
         11    1    3    3    0    0 -0.22625049217E+02  0.17975243271E+02 -0.80702523495E-01  0.28896517712E+02  0.51100000000E-03 0. -1.
        -11    1    3    3    0    0 -0.64436147707E+01  0.24818845201E+01  0.81674822440E+00  0.69532007023E+01  0.51100000000E-03 0.  1.
        -12    1    3    3    0    0 -0.11894526818E+00  0.11594052278E+02 -0.28405716562E+01  0.11937547635E+02  0.00000000000E+00 0.  1.
</event>
<event>
 7    1  0.2783785E-010  0.4778727E+02  0.7816164E-02  0.1312668E+00
        -11   -1    0    0    0    0  0.00000000000E+00  0.00000000000E+00  0.45593999997E+02  0.45594000000E+02  0.51100000000E-03 0.  1.
         11   -1    0    0    0    0 -0.00000000000E+00 -0.00000000000E+00 -0.45593999997E+02  0.45594000000E+02  0.51100000000E-03 0. -1.
    9900012    2    1    2    0    0 -0.65417165853E+01 -0.36246157435E+02  0.22957474618E+02  0.47787266993E+02  0.19999981528E+02 0.  0.
        -12    1    1    2    0    0  0.65417165853E+01  0.36246157435E+02 -0.22957474618E+02  0.43400733007E+02  0.00000000000E+00 0.  1.
         11    1    3    3    0    0 -0.13952131327E+01 -0.19256436887E+02  0.55860334073E+01  0.20098774857E+02  0.51100000000E-03 0. -1.
        -11    1    3    3    0    0 -0.76622613357E+00 -0.15264805807E+02  0.17154820015E+02  0.22975840547E+02  0.51100000000E-03 0.  1.
        -12    1    3    3    0    0 -0.43802773191E+01 -0.17249147410E+01  0.21662119535E+00  0.47126515889E+01  0.00000000000E+00 0.  1.
</event>
<event>
 7    1  0.2783785E-010  0.4778729E+02  0.7816164E-02  0.1312668E+00
        -11   -1    0    0    0    0  0.00000000000E+00  0.00000000000E+00  0.45593999997E+02  0.45594000000E+02  0.51100000000E-03 0.  1.
         11   -1    0    0    0    0 -0.00000000000E+00 -0.00000000000E+00 -0.45593999997E+02  0.45594000000E+02  0.51100000000E-03 0. -1.
    9900012    2    1    2    0    0 -0.22164187648E+02 -0.35063817372E+01 -0.37149368562E+02  0.47787291348E+02  0.20000092570E+02 0.  0.
        -12    1    1    2    0    0  0.22164187648E+02  0.35063817372E+01  0.37149368562E+02  0.43400708652E+02  0.00000000000E+00 0.  1.
         11    1    3    3    0    0 -0.14786097898E+01 -0.18914762704E+01 -0.17640876123E+01  0.29792574170E+01  0.51100000000E-03 0. -1.
        -11    1    3    3    0    0 -0.60611996922E+01  0.48494205609E+01 -0.23559984828E+01  0.81120743708E+01  0.51100000000E-03 0.  1.
         12    1    3    3    0    0 -0.14624378166E+02 -0.64643260276E+01 -0.33029282467E+02  0.36695959560E+02  0.00000000000E+00 0. -1.
</event>
<event>
 7    1  0.2783785E-010  0.4778727E+02  0.7816164E-02  0.1312668E+00
        -11   -1    0    0    0    0  0.00000000000E+00  0.00000000000E+00  0.45593999997E+02  0.45594000000E+02  0.51100000000E-03 0.  1.
         11   -1    0    0    0    0 -0.00000000000E+00 -0.00000000000E+00 -0.45593999997E+02  0.45594000000E+02  0.51100000000E-03 0. -1.
    9900012    2    1    2    0    0  0.52810859697E+01 -0.78128166949E+01 -0.42363822055E+02  0.47787269673E+02  0.19999993749E+02 0.  0.
        -12    1    1    2    0    0 -0.52810859697E+01  0.78128166949E+01  0.42363822055E+02  0.43400730327E+02  0.00000000000E+00 0.  1.
         11    1    3    3    0    0  0.44733765819E+00 -0.59559264899E+01 -0.39109717532E+02  0.39563154286E+02  0.51100000000E-03 0. -1.
        -11    1    3    3    0    0  0.31853252997E+01  0.12856618906E+01 -0.31704109993E+01  0.46744764335E+01  0.51100000000E-03 0.  1.
         12    1    3    3    0    0  0.16484230118E+01 -0.31425520957E+01 -0.83693524156E-01  0.35496389544E+01  0.00000000000E+00 0. -1.
</event>
<event>
 7    1  0.2783785E-010  0.4778727E+02  0.7816164E-02  0.1312668E+00
        -11   -1    0    0    0    0  0.00000000000E+00  0.00000000000E+00  0.45593999997E+02  0.45594000000E+02  0.51100000000E-03 0. -1.
         11   -1    0    0    0    0 -0.00000000000E+00 -0.00000000000E+00 -0.45593999997E+02  0.45594000000E+02  0.51100000000E-03 0.  1.
    9900012    2    1    2    0    0  0.39117538830E+02  0.26119978743E+01  0.18617706788E+02  0.47787269787E+02  0.19999994267E+02 0.  0.
        -12    1    1    2    0    0 -0.39117538830E+02 -0.26119978743E+01 -0.18617706788E+02  0.43400730213E+02  0.00000000000E+00 0.  1.
         11    1    3    3    0    0  0.31539934953E+02 -0.41610556710E+01  0.15011031805E+02  0.35176881005E+02  0.51100000000E-03 0. -1.
        -11    1    3    3    0    0  0.86145618925E+01  0.48234640076E+01  0.28500216284E+01  0.10276142524E+02  0.51100000000E-03 0.  1.
        -12    1    3    3    0    0 -0.10369580159E+01  0.19495895378E+01  0.75665335413E+00  0.23342462575E+01  0.00000000000E+00 0.  1.
</event>
<event>
 7    1  0.2783785E-010  0.4778723E+02  0.7816164E-02  0.1312668E+00
        -11   -1    0    0    0    0  0.00000000000E+00  0.00000000000E+00  0.45593999997E+02  0.45594000000E+02  0.51100000000E-03 0.  1.
         11   -1    0    0    0    0 -0.00000000000E+00 -0.00000000000E+00 -0.45593999997E+02  0.45594000000E+02  0.51100000000E-03 0. -1.
    9900012    2    1    2    0    0 -0.13286828335E+02 -0.40007843318E+02 -0.10317909330E+02  0.47787232874E+02  0.19999825965E+02 0.  0.
        -12    1    1    2    0    0  0.13286828335E+02  0.40007843318E+02  0.10317909330E+02  0.43400767126E+02  0.00000000000E+00 0.  1.
         11    1    3    3    0    0  0.19768270771E+01 -0.98090996623E+01 -0.87130333488E+01  0.13268128424E+02  0.51100000000E-03 0. -1.
        -11    1    3    3    0    0 -0.43622320882E+01 -0.46001261790E+01  0.15250028307E+01  0.65204189704E+01  0.51100000000E-03 0.  1.
         12    1    3    3    0    0 -0.10901423324E+02 -0.25598617477E+02 -0.31298788121E+01  0.27998685480E+02  0.00000000000E+00 0. -1.
</event>
<event>
 7    1  0.2783785E-010  0.4778727E+02  0.7816164E-02  0.1312668E+00
        -11   -1    0    0    0    0  0.00000000000E+00  0.00000000000E+00  0.45593999997E+02  0.45594000000E+02  0.51100000000E-03 0. -1.
         11   -1    0    0    0    0 -0.00000000000E+00 -0.00000000000E+00 -0.45593999997E+02  0.45594000000E+02  0.51100000000E-03 0.  1.
    9900012    2    1    2    0    0  0.73665707090E+01 -0.64359325757E+01  0.42283985030E+02  0.47787274405E+02  0.20000015322E+02 0.  0.
        -12    1    1    2    0    0 -0.73665707090E+01  0.64359325757E+01 -0.42283985030E+02  0.43400725595E+02  0.00000000000E+00 0.  1.
         11    1    3    3    0    0  0.16527398895E+01 -0.84088149970E+01  0.55000970798E+01  0.10182867324E+02  0.51100000000E-03 0. -1.
        -11    1    3    3    0    0  0.46396959136E+00 -0.65512144318E+00  0.15639806123E+02  0.15660395516E+02  0.51100000000E-03 0.  1.
        -12    1    3    3    0    0  0.52498612281E+01  0.26280038644E+01  0.21144081827E+02  0.21944011565E+02  0.00000000000E+00 0.  1.
</event>
<event>
 7    1  0.2783785E-010  0.4778727E+02  0.7816164E-02  0.1312668E+00
        -11   -1    0    0    0    0  0.00000000000E+00  0.00000000000E+00  0.45593999997E+02  0.45594000000E+02  0.51100000000E-03 0.  1.
         11   -1    0    0    0    0 -0.00000000000E+00 -0.00000000000E+00 -0.45593999997E+02  0.45594000000E+02  0.51100000000E-03 0. -1.
    9900012    2    1    2    0    0 -0.28292594382E+02 -0.65417233541E+01 -0.32254581255E+02  0.47787273587E+02  0.20000011591E+02 0.  0.
        -12    1    1    2    0    0  0.28292594382E+02  0.65417233541E+01  0.32254581255E+02  0.43400726413E+02  0.00000000000E+00 0.  1.
         11    1    3    3    0    0 -0.25529508922E+02 -0.66424982789E+01 -0.19236853287E+02  0.32648662053E+02  0.51100000000E-03 0. -1.
        -11    1    3    3    0    0 -0.66179453531E+00  0.17587125198E+01 -0.31454171897E-01  0.18793699371E+01  0.51100000000E-03 0.  1.
         12    1    3    3    0    0 -0.21012909240E+01 -0.16579375951E+01 -0.12986273796E+02  0.13259241597E+02  0.00000000000E+00 0. -1.
</event>
<event>
 7    1  0.2783785E-010  0.4778727E+02  0.7816164E-02  0.1312668E+00
        -11   -1    0    0    0    0  0.00000000000E+00  0.00000000000E+00  0.45593999997E+02  0.45594000000E+02  0.51100000000E-03 0. -1.
         11   -1    0    0    0    0 -0.00000000000E+00 -0.00000000000E+00 -0.45593999997E+02  0.45594000000E+02  0.51100000000E-03 0.  1.
    9900012    2    1    2    0    0 -0.48978998294E+01  0.22221961707E+02  0.36956978764E+02  0.47787270926E+02  0.19999999459E+02 0.  0.
        -12    1    1    2    0    0  0.48978998294E+01 -0.22221961707E+02 -0.36956978764E+02  0.43400729074E+02  0.00000000000E+00 0.  1.
         11    1    3    3    0    0 -0.51060374595E+01  0.32798377929E+01  0.23128677249E+01  0.64944831865E+01  0.51100000000E-03 0. -1.
        -11    1    3    3    0    0 -0.34246279785E+01  0.10761995401E+02  0.10040100479E+02  0.15111328191E+02  0.51100000000E-03 0.  1.
         12    1    3    3    0    0  0.36327656086E+01  0.81801285129E+01  0.24604010560E+02  0.26181459549E+02  0.00000000000E+00 0. -1.
</event>
<event>
 7    1  0.2783785E-010  0.4778727E+02  0.7816164E-02  0.1312668E+00
        -11   -1    0    0    0    0  0.00000000000E+00  0.00000000000E+00  0.45593999997E+02  0.45594000000E+02  0.51100000000E-03 0.  1.
         11   -1    0    0    0    0 -0.00000000000E+00 -0.00000000000E+00 -0.45593999997E+02  0.45594000000E+02  0.51100000000E-03 0. -1.
    9900012    2    1    2    0    0  0.21568062031E+00  0.14389175382E+02 -0.40945434902E+02  0.47787268144E+02  0.19999986778E+02 0.  0.
        -12    1    1    2    0    0 -0.21568062031E+00 -0.14389175382E+02  0.40945434902E+02  0.43400731856E+02  0.00000000000E+00 0.  1.
         11    1    3    3    0    0 -0.17609348531E+01 -0.78696127667E+00 -0.92445148899E+01  0.94435827639E+01  0.51100000000E-03 0. -1.
        -11    1    3    3    0    0 -0.52356251087E+01  0.20902310757E+01 -0.14510961224E+02  0.15567557038E+02  0.51100000000E-03 0.  1.
         12    1    3    3    0    0  0.72122405821E+01  0.13085905583E+02 -0.17189958788E+02  0.22776128342E+02  0.00000000000E+00 0. -1.
</event>
<event>
 7    1  0.2783785E-010  0.4778727E+02  0.7816164E-02  0.1312668E+00
        -11   -1    0    0    0    0  0.00000000000E+00  0.00000000000E+00  0.45593999997E+02  0.45594000000E+02  0.51100000000E-03 0.  1.
         11   -1    0    0    0    0 -0.00000000000E+00 -0.00000000000E+00 -0.45593999997E+02  0.45594000000E+02  0.51100000000E-03 0. -1.
    9900012    2    1    2    0    0  0.29895528519E+02 -0.10519631324E+02  0.29651609177E+02  0.47787271949E+02  0.20000004125E+02 0.  0.
        -12    1    1    2    0    0 -0.29895528519E+02  0.10519631324E+02 -0.29651609177E+02  0.43400728051E+02  0.00000000000E+00 0.  1.
         11    1    3    3    0    0  0.41390753482E+01  0.17866242193E+01  0.85013826218E+01  0.96227583147E+01  0.51100000000E-03 0. -1.
        -11    1    3    3    0    0  0.41638366661E+01 -0.81471419370E+01  0.29297898902E+01  0.96071393550E+01  0.51100000000E-03 0.  1.
         12    1    3    3    0    0  0.21592616504E+02 -0.41591136060E+01  0.18220436664E+02  0.28557374279E+02  0.00000000000E+00 0. -1.
</event>
<event>
 7    1  0.2783785E-010  0.4778727E+02  0.7816164E-02  0.1312668E+00
        -11   -1    0    0    0    0  0.00000000000E+00  0.00000000000E+00  0.45593999997E+02  0.45594000000E+02  0.51100000000E-03 0.  1.
         11   -1    0    0    0    0 -0.00000000000E+00 -0.00000000000E+00 -0.45593999997E+02  0.45594000000E+02  0.51100000000E-03 0. -1.
    9900012    2    1    2    0    0 -0.39567727438E+02 -0.80949652118E+01 -0.15889920921E+02  0.47787273010E+02  0.20000008961E+02 0.  0.
        -12    1    1    2    0    0  0.39567727438E+02  0.80949652118E+01  0.15889920921E+02  0.43400726990E+02  0.00000000000E+00 0.  1.
         11    1    3    3    0    0 -0.68025476403E+01 -0.27273517335E+01 -0.46456438724E+01  0.86772754438E+01  0.51100000000E-03 0. -1.
        -11    1    3    3    0    0 -0.15367346267E+02  0.61792143747E+01 -0.55176518056E+01  0.17458021174E+02  0.51100000000E-03 0.  1.
        -12    1    3    3    0    0 -0.17397833530E+02 -0.11546827853E+02 -0.57266252430E+01  0.21651976392E+02  0.00000000000E+00 0.  1.
</event>
<event>
 7    1  0.2783785E-010  0.4778727E+02  0.7816164E-02  0.1312668E+00
        -11   -1    0    0    0    0  0.00000000000E+00  0.00000000000E+00  0.45593999997E+02  0.45594000000E+02  0.51100000000E-03 0.  1.
         11   -1    0    0    0    0 -0.00000000000E+00 -0.00000000000E+00 -0.45593999997E+02  0.45594000000E+02  0.51100000000E-03 0. -1.
    9900012    2    1    2    0    0 -0.20970410552E+02  0.15618116361E+02 -0.34640142331E+02  0.47787272609E+02  0.20000007135E+02 0.  0.
        -12    1    1    2    0    0  0.20970410552E+02 -0.15618116361E+02  0.34640142331E+02  0.43400727391E+02  0.00000000000E+00 0.  1.
         11    1    3    3    0    0 -0.38703222070E+01  0.58367362763E+01 -0.11508413229E+02  0.13471839505E+02  0.51100000000E-03 0. -1.
        -11    1    3    3    0    0 -0.19426398492E+02  0.10603007715E+02 -0.17662830323E+02  0.28315796055E+02  0.51100000000E-03 0.  1.
        -12    1    3    3    0    0  0.23263101470E+01 -0.82162763096E+00 -0.54688987786E+01  0.59996370486E+01  0.00000000000E+00 0.  1.
</event>
<event>
 7    1  0.2783785E-010  0.4778727E+02  0.7816164E-02  0.1312668E+00
        -11   -1    0    0    0    0  0.00000000000E+00  0.00000000000E+00  0.45593999997E+02  0.45594000000E+02  0.51100000000E-03 0.  1.
         11   -1    0    0    0    0 -0.00000000000E+00 -0.00000000000E+00 -0.45593999997E+02  0.45594000000E+02  0.51100000000E-03 0. -1.
    9900012    2    1    2    0    0  0.39250003921E+02  0.43314669563E+01 -0.18008303504E+02  0.47787269489E+02  0.19999992907E+02 0.  0.
        -12    1    1    2    0    0 -0.39250003921E+02 -0.43314669563E+01  0.18008303504E+02  0.43400730511E+02  0.00000000000E+00 0.  1.
         11    1    3    3    0    0  0.14166444999E+02  0.45077116082E+01 -0.37537834621E+01  0.15332922695E+02  0.51100000000E-03 0. -1.
        -11    1    3    3    0    0  0.17259338259E+02 -0.69427657551E+01 -0.72731903068E+01  0.19974635189E+02  0.51100000000E-03 0.  1.
         12    1    3    3    0    0  0.78242206642E+01  0.67665211033E+01 -0.69813297354E+01  0.12479711604E+02  0.00000000000E+00 0. -1.
</event>
<event>
 7    1  0.2783785E-010  0.4778727E+02  0.7816164E-02  0.1312668E+00
        -11   -1    0    0    0    0  0.00000000000E+00  0.00000000000E+00  0.45593999997E+02  0.45594000000E+02  0.51100000000E-03 0.  1.
         11   -1    0    0    0    0 -0.00000000000E+00 -0.00000000000E+00 -0.45593999997E+02  0.45594000000E+02  0.51100000000E-03 0. -1.
    9900012    2    1    2    0    0 -0.31785559319E+02  0.22426415940E+02 -0.19244671519E+02  0.47787270800E+02  0.19999998887E+02 0.  0.
        -12    1    1    2    0    0  0.31785559319E+02 -0.22426415940E+02  0.19244671519E+02  0.43400729200E+02  0.00000000000E+00 0.  1.
         11    1    3    3    0    0 -0.67085531052E+01  0.78891337867E+01  0.55900859171E+00  0.10370901963E+02  0.51100000000E-03 0. -1.
        -11    1    3    3    0    0 -0.11315200847E+02 -0.86882855379E-02 -0.10089395147E+02  0.15160136555E+02  0.51100000000E-03 0.  1.
         12    1    3    3    0    0 -0.13761805368E+02  0.14545970439E+02 -0.97142849642E+01  0.22256232281E+02  0.00000000000E+00 0. -1.
</event>
<event>
 7    1  0.2783785E-010  0.4778727E+02  0.7816164E-02  0.1312668E+00
        -11   -1    0    0    0    0  0.00000000000E+00  0.00000000000E+00  0.45593999997E+02  0.45594000000E+02  0.51100000000E-03 0. -1.
         11   -1    0    0    0    0 -0.00000000000E+00 -0.00000000000E+00 -0.45593999997E+02  0.45594000000E+02  0.51100000000E-03 0.  1.
    9900012    2    1    2    0    0 -0.29580478646E+02  0.26206436363E+02  0.17939935096E+02  0.47787270801E+02  0.19999998891E+02 0.  0.
        -12    1    1    2    0    0  0.29580478646E+02 -0.26206436363E+02 -0.17939935096E+02  0.43400729199E+02  0.00000000000E+00 0.  1.
         11    1    3    3    0    0 -0.24916325335E+02  0.13545249119E+02  0.12769802609E+02  0.31102490267E+02  0.51100000000E-03 0. -1.
        -11    1    3    3    0    0 -0.55325917873E+01  0.49484048468E+01  0.49468148257E+01  0.89200481833E+01  0.51100000000E-03 0.  1.
        -12    1    3    3    0    0  0.86843847628E+00  0.77127823976E+01  0.22331766042E+00  0.77647323507E+01  0.00000000000E+00 0.  1.
</event>
<event>
 7    1  0.2783785E-010  0.4778727E+02  0.7816164E-02  0.1312668E+00
        -11   -1    0    0    0    0  0.00000000000E+00  0.00000000000E+00  0.45593999997E+02  0.45594000000E+02  0.51100000000E-03 0. -1.
         11   -1    0    0    0    0 -0.00000000000E+00 -0.00000000000E+00 -0.45593999997E+02  0.45594000000E+02  0.51100000000E-03 0.  1.
    9900012    2    1    2    0    0 -0.11826750100E+02  0.40657176210E+01  0.41559851472E+02  0.47787270374E+02  0.19999996945E+02 0.  0.
        -12    1    1    2    0    0  0.11826750100E+02 -0.40657176210E+01 -0.41559851472E+02  0.43400729626E+02  0.00000000000E+00 0.  1.
         11    1    3    3    0    0  0.49945958460E+01  0.15142192697E+01  0.11124087541E+02  0.12287561660E+02  0.51100000000E-03 0. -1.
        -11    1    3    3    0    0 -0.47535763677E+01 -0.22055284936E+01  0.74884281132E+01  0.91398796539E+01  0.51100000000E-03 0.  1.
        -12    1    3    3    0    0 -0.12067769578E+02  0.47570268449E+01  0.22947335817E+02  0.26359829061E+02  0.00000000000E+00 0.  1.
</event>
<event>
 7    1  0.2783785E-010  0.4778727E+02  0.7816164E-02  0.1312668E+00
        -11   -1    0    0    0    0  0.00000000000E+00  0.00000000000E+00  0.45593999997E+02  0.45594000000E+02  0.51100000000E-03 0.  1.
         11   -1    0    0    0    0 -0.00000000000E+00 -0.00000000000E+00 -0.45593999997E+02  0.45594000000E+02  0.51100000000E-03 0. -1.
    9900012    2    1    2    0    0  0.12074012813E+02  0.79071701854E+01 -0.40930650886E+02  0.47787270655E+02  0.19999998224E+02 0.  0.
        -12    1    1    2    0    0 -0.12074012813E+02 -0.79071701854E+01  0.40930650886E+02  0.43400729345E+02  0.00000000000E+00 0.  1.
         11    1    3    3    0    0  0.62350568289E+01  0.55816953731E+01 -0.39563836382E+02  0.40439193939E+02  0.51100000000E-03 0. -1.
        -11    1    3    3    0    0  0.37191146338E+01  0.83906409322E+00 -0.24603915280E+01  0.45375509852E+01  0.51100000000E-03 0.  1.
         12    1    3    3    0    0  0.21198413508E+01  0.14864107190E+01  0.10935770241E+01  0.28105257312E+01  0.00000000000E+00 0. -1.
</event>
<event>
 7    1  0.2783785E-010  0.4778727E+02  0.7816164E-02  0.1312668E+00
        -11   -1    0    0    0    0  0.00000000000E+00  0.00000000000E+00  0.45593999997E+02  0.45594000000E+02  0.51100000000E-03 0. -1.
         11   -1    0    0    0    0 -0.00000000000E+00 -0.00000000000E+00 -0.45593999997E+02  0.45594000000E+02  0.51100000000E-03 0.  1.
    9900012    2    1    2    0    0 -0.27811223768E+02 -0.19611925178E+02  0.26935688672E+02  0.47787273038E+02  0.20000009089E+02 0.  0.
        -12    1    1    2    0    0  0.27811223768E+02  0.19611925178E+02 -0.26935688672E+02  0.43400726962E+02  0.00000000000E+00 0.  1.
         11    1    3    3    0    0 -0.44555662906E+01  0.70332080539E+00  0.65727124511E+01  0.79716548063E+01  0.51100000000E-03 0. -1.
        -11    1    3    3    0    0 -0.27645054568E+00 -0.12567472112E+01  0.68598569431E+01  0.69795039937E+01  0.51100000000E-03 0.  1.
         12    1    3    3    0    0 -0.23079206931E+02 -0.19058498772E+02  0.13503119278E+02  0.32836114238E+02  0.00000000000E+00 0. -1.
</event>
<event>
 7    1  0.2783785E-010  0.4778727E+02  0.7816164E-02  0.1312668E+00
        -11   -1    0    0    0    0  0.00000000000E+00  0.00000000000E+00  0.45593999997E+02  0.45594000000E+02  0.51100000000E-03 0.  1.
         11   -1    0    0    0    0 -0.00000000000E+00 -0.00000000000E+00 -0.45593999997E+02  0.45594000000E+02  0.51100000000E-03 0. -1.
    9900012    2    1    2    0    0 -0.12117657646E+02 -0.41646742378E+02 -0.15278929870E+01  0.47787271498E+02  0.20000002066E+02 0.  0.
        -12    1    1    2    0    0  0.12117657646E+02  0.41646742378E+02  0.15278929870E+01  0.43400728502E+02  0.00000000000E+00 0.  1.
         11    1    3    3    0    0 -0.64076075462E+01 -0.16539340456E+02 -0.16492294935E+00  0.17737937226E+02  0.51100000000E-03 0. -1.
        -11    1    3    3    0    0 -0.15486383149E+01 -0.25711924422E+02 -0.53831272520E+00  0.25764144056E+02  0.51100000000E-03 0.  1.
        -12    1    3    3    0    0 -0.41614117851E+01  0.60452249960E+00 -0.82465731240E+00  0.42851902152E+01  0.00000000000E+00 0.  1.
</event>
<event>
 7    1  0.2783785E-010  0.4778727E+02  0.7816164E-02  0.1312668E+00
        -11   -1    0    0    0    0  0.00000000000E+00  0.00000000000E+00  0.45593999997E+02  0.45594000000E+02  0.51100000000E-03 0.  1.
         11   -1    0    0    0    0 -0.00000000000E+00 -0.00000000000E+00 -0.45593999997E+02  0.45594000000E+02  0.51100000000E-03 0. -1.
    9900012    2    1    2    0    0 -0.13016852347E+02  0.94231559424E+01 -0.40316112819E+02  0.47787271138E+02  0.20000000427E+02 0.  0.
        -12    1    1    2    0    0  0.13016852347E+02 -0.94231559424E+01  0.40316112819E+02  0.43400728862E+02  0.00000000000E+00 0.  1.
         11    1    3    3    0    0 -0.25875788554E+01  0.55945793039E+01 -0.30925004331E+02  0.31533328005E+02  0.51100000000E-03 0. -1.
        -11    1    3    3    0    0 -0.46072790805E+01  0.17212628601E+01  0.10287976704E+00  0.49193852122E+01  0.51100000000E-03 0.  1.
         12    1    3    3    0    0 -0.58219944107E+01  0.21073137785E+01 -0.94939882547E+01  0.11334557921E+02  0.00000000000E+00 0. -1.
</event>
<event>
 7    1  0.2783785E-010  0.4778727E+02  0.7816164E-02  0.1312668E+00
        -11   -1    0    0    0    0  0.00000000000E+00  0.00000000000E+00  0.45593999997E+02  0.45594000000E+02  0.51100000000E-03 0.  1.
         11   -1    0    0    0    0 -0.00000000000E+00 -0.00000000000E+00 -0.45593999997E+02  0.45594000000E+02  0.51100000000E-03 0. -1.
    9900012    2    1    2    0    0  0.31798866765E+02  0.58964804229E+01  0.28942817413E+02  0.47787273178E+02  0.20000009726E+02 0.  0.
        -12    1    1    2    0    0 -0.31798866765E+02 -0.58964804229E+01 -0.28942817413E+02  0.43400726822E+02  0.00000000000E+00 0.  1.
         11    1    3    3    0    0  0.21692506548E+02  0.67126207266E+01  0.13690054242E+02  0.26514933580E+02  0.51100000000E-03 0. -1.
        -11    1    3    3    0    0  0.97107731715E+01 -0.46967671424E+01  0.12426764235E+02  0.16455491691E+02  0.51100000000E-03 0.  1.
         12    1    3    3    0    0  0.39558704577E+00  0.38806268387E+01  0.28259989365E+01  0.48168479072E+01  0.00000000000E+00 0. -1.
</event>
<event>
 7    1  0.2783785E-010  0.4778727E+02  0.7816164E-02  0.1312668E+00
        -11   -1    0    0    0    0  0.00000000000E+00  0.00000000000E+00  0.45593999997E+02  0.45594000000E+02  0.51100000000E-03 0.  1.
         11   -1    0    0    0    0 -0.00000000000E+00 -0.00000000000E+00 -0.45593999997E+02  0.45594000000E+02  0.51100000000E-03 0. -1.
    9900012    2    1    2    0    0  0.20012599722E+02  0.33838731535E+02 -0.18386398924E+02  0.47787267691E+02  0.19999984711E+02 0.  0.
        -12    1    1    2    0    0 -0.20012599722E+02 -0.33838731535E+02  0.18386398924E+02  0.43400732309E+02  0.00000000000E+00 0.  1.
         11    1    3    3    0    0  0.63727514732E+01  0.62214730160E+01 -0.33368633216E+00  0.89123529249E+01  0.51100000000E-03 0. -1.
        -11    1    3    3    0    0  0.65084793870E+01  0.86339316713E+01  0.12423952252E+01  0.10883410596E+02  0.51100000000E-03 0.  1.
        -12    1    3    3    0    0  0.71313688617E+01  0.18983326848E+02 -0.19295107817E+02  0.27991504171E+02  0.00000000000E+00 0.  1.
</event>
<event>
 7    1  0.2783785E-010  0.4778728E+02  0.7816164E-02  0.1312668E+00
        -11   -1    0    0    0    0  0.00000000000E+00  0.00000000000E+00  0.45593999997E+02  0.45594000000E+02  0.51100000000E-03 0.  1.
         11   -1    0    0    0    0 -0.00000000000E+00 -0.00000000000E+00 -0.45593999997E+02  0.45594000000E+02  0.51100000000E-03 0. -1.
    9900012    2    1    2    0    0 -0.28675207956E+02  0.11746571618E+02  0.30387060205E+02  0.47787275075E+02  0.20000018376E+02 0.  0.
        -12    1    1    2    0    0  0.28675207956E+02 -0.11746571618E+02 -0.30387060205E+02  0.43400724925E+02  0.00000000000E+00 0.  1.
         11    1    3    3    0    0 -0.10378651179E+02  0.60405062035E+01  0.22480025515E+01  0.12217104044E+02  0.51100000000E-03 0. -1.
        -11    1    3    3    0    0 -0.15451995165E+01 -0.26251874810E+01  0.41651342703E+01  0.51601932722E+01  0.51100000000E-03 0.  1.
         12    1    3    3    0    0 -0.16751357261E+02  0.83312528953E+01  0.23973923384E+02  0.30409977759E+02  0.00000000000E+00 0. -1.
</event>
<event>
 7    1  0.2783785E-010  0.4778727E+02  0.7816164E-02  0.1312668E+00
        -11   -1    0    0    0    0  0.00000000000E+00  0.00000000000E+00  0.45593999997E+02  0.45594000000E+02  0.51100000000E-03 0. -1.
         11   -1    0    0    0    0 -0.00000000000E+00 -0.00000000000E+00 -0.45593999997E+02  0.45594000000E+02  0.51100000000E-03 0.  1.
    9900012    2    1    2    0    0  0.10689588728E+02  0.41129162394E+02  0.88174900475E+01  0.47787269163E+02  0.19999991423E+02 0.  0.
        -12    1    1    2    0    0 -0.10689588728E+02 -0.41129162394E+02 -0.88174900475E+01  0.43400730837E+02  0.00000000000E+00 0.  1.
         11    1    3    3    0    0  0.11454275073E+02  0.20824659792E+02  0.86391445694E+00  0.23782624358E+02  0.51100000000E-03 0. -1.
        -11    1    3    3    0    0 -0.47730608657E+00 -0.79177693798E+00  0.18062163125E+01  0.20290760085E+01  0.51100000000E-03 0.  1.
         12    1    3    3    0    0 -0.28738025830E+00  0.21096279540E+02  0.61473592781E+01  0.21975568797E+02  0.00000000000E+00 0. -1.
</event>
<event>
 7    1  0.2783785E-010  0.4778727E+02  0.7816164E-02  0.1312668E+00
        -11   -1    0    0    0    0  0.00000000000E+00  0.00000000000E+00  0.45593999997E+02  0.45594000000E+02  0.51100000000E-03 0. -1.
         11   -1    0    0    0    0 -0.00000000000E+00 -0.00000000000E+00 -0.45593999997E+02  0.45594000000E+02  0.51100000000E-03 0.  1.
    9900012    2    1    2    0    0  0.37851081998E+02  0.72904050593E+00 -0.21222330656E+02  0.47787271585E+02  0.20000002465E+02 0.  0.
        -12    1    1    2    0    0 -0.37851081998E+02 -0.72904050593E+00  0.21222330656E+02  0.43400728415E+02  0.00000000000E+00 0.  1.
         11    1    3    3    0    0  0.15908361215E+02  0.12159394952E+01 -0.15570379777E+02  0.22293299264E+02  0.51100000000E-03 0. -1.
        -11    1    3    3    0    0  0.19272586380E+02 -0.39602454072E-01 -0.89312514255E+01  0.21241501981E+02  0.51100000000E-03 0.  1.
        -12    1    3    3    0    0  0.26701344026E+01 -0.44729653521E+00  0.32793005463E+01  0.42524703398E+01  0.00000000000E+00 0.  1.
</event>
<event>
 7    1  0.2783785E-010  0.4778727E+02  0.7816164E-02  0.1312668E+00
        -11   -1    0    0    0    0  0.00000000000E+00  0.00000000000E+00  0.45593999997E+02  0.45594000000E+02  0.51100000000E-03 0. -1.
         11   -1    0    0    0    0 -0.00000000000E+00 -0.00000000000E+00 -0.45593999997E+02  0.45594000000E+02  0.51100000000E-03 0.  1.
    9900012    2    1    2    0    0 -0.12158879676E+02  0.36484482686E+02 -0.20116347973E+02  0.47787270886E+02  0.19999999276E+02 0.  0.
        -12    1    1    2    0    0  0.12158879676E+02 -0.36484482686E+02  0.20116347973E+02  0.43400729114E+02  0.00000000000E+00 0.  1.
         11    1    3    3    0    0  0.18542359288E+01  0.86764203694E+01 -0.67126454168E+01  0.11125559314E+02  0.51100000000E-03 0. -1.
        -11    1    3    3    0    0 -0.40257008963E+01  0.20307735982E+02 -0.12397615207E+02  0.24131126611E+02  0.51100000000E-03 0.  1.
         12    1    3    3    0    0 -0.99874147086E+01  0.75003263355E+01 -0.10060873490E+01  0.12530584961E+02  0.00000000000E+00 0. -1.
</event>
<event>
 7    1  0.2783785E-010  0.4778728E+02  0.7816164E-02  0.1312668E+00
        -11   -1    0    0    0    0  0.00000000000E+00  0.00000000000E+00  0.45593999997E+02  0.45594000000E+02  0.51100000000E-03 0.  1.
         11   -1    0    0    0    0 -0.00000000000E+00 -0.00000000000E+00 -0.45593999997E+02  0.45594000000E+02  0.51100000000E-03 0. -1.
    9900012    2    1    2    0    0 -0.29135312216E+01 -0.75328239147E+01 -0.42642594012E+02  0.47787275071E+02  0.20000018357E+02 0.  0.
        -12    1    1    2    0    0  0.29135312216E+01  0.75328239147E+01  0.42642594012E+02  0.43400724929E+02  0.00000000000E+00 0.  1.
         11    1    3    3    0    0 -0.42086357358E+01 -0.54915264667E+01 -0.24976378123E+02  0.25916962440E+02  0.51100000000E-03 0. -1.
        -11    1    3    3    0    0  0.24608011447E+01  0.33100472444E+01 -0.15400617660E+02  0.15943367888E+02  0.51100000000E-03 0.  1.
         12    1    3    3    0    0 -0.11656966305E+01 -0.53513446924E+01 -0.22655982287E+01  0.59269447429E+01  0.00000000000E+00 0. -1.
</event>
<event>
 7    1  0.2783785E-010  0.4778726E+02  0.7816164E-02  0.1312668E+00
        -11   -1    0    0    0    0  0.00000000000E+00  0.00000000000E+00  0.45593999997E+02  0.45594000000E+02  0.51100000000E-03 0.  1.
         11   -1    0    0    0    0 -0.00000000000E+00 -0.00000000000E+00 -0.45593999997E+02  0.45594000000E+02  0.51100000000E-03 0. -1.
    9900012    2    1    2    0    0 -0.26975936970E+01  0.42590386166E+02 -0.78997500917E+01  0.47787262022E+02  0.19999958864E+02 0.  0.
        -12    1    1    2    0    0  0.26975936970E+01 -0.42590386166E+02  0.78997500917E+01  0.43400737978E+02  0.00000000000E+00 0.  1.
         11    1    3    3    0    0  0.47869279054E+01  0.24614479479E+02 -0.48992659748E+01  0.25549757066E+02  0.51100000000E-03 0. -1.
        -11    1    3    3    0    0 -0.10145958739E+01  0.57205312632E+01  0.36549520568E+01  0.68638587922E+01  0.51100000000E-03 0.  1.
         12    1    3    3    0    0 -0.64699257284E+01  0.12255375424E+02 -0.66554361737E+01  0.15373646164E+02  0.00000000000E+00 0. -1.
</event>
<event>
 7    1  0.3157051E-010  0.4778727E+02  0.7816164E-02  0.1312668E+00
        -11   -1    0    0    0    0  0.00000000000E+00  0.00000000000E+00  0.45593999997E+02  0.45594000000E+02  0.51100000000E-03 0.  1.
         11   -1    0    0    0    0 -0.00000000000E+00 -0.00000000000E+00 -0.45593999997E+02  0.45594000000E+02  0.51100000000E-03 0. -1.
    9900012    2    1    2    0    0  0.54909534310E+01 -0.35495392881E+02  0.24362875203E+02  0.47787272201E+02  0.20000005271E+02 0.  0.
        -12    1    1    2    0    0 -0.54909534310E+01  0.35495392881E+02 -0.24362875203E+02  0.43400727799E+02  0.00000000000E+00 0.  1.
         11    1    3    3    0    0  0.10312728563E+02 -0.29427305201E+02  0.17905944371E+02  0.35957495823E+02  0.51100000000E-03 0. -1.
        -11    1    3    3    0    0 -0.30470499994E+01 -0.42734674718E+01  0.74536630196E+01  0.91161466971E+01  0.51100000000E-03 0.  1.
        -12    1    3    3    0    0 -0.17747251329E+01 -0.17946202080E+01 -0.99673218709E+00  0.27136296802E+01  0.00000000000E+00 0.  1.
</event>
<event>
 7    1  0.2783785E-010  0.4778727E+02  0.7816164E-02  0.1312668E+00
        -11   -1    0    0    0    0  0.00000000000E+00  0.00000000000E+00  0.45593999997E+02  0.45594000000E+02  0.51100000000E-03 0.  1.
         11   -1    0    0    0    0 -0.00000000000E+00 -0.00000000000E+00 -0.45593999997E+02  0.45594000000E+02  0.51100000000E-03 0. -1.
    9900012    2    1    2    0    0 -0.10056507733E+02 -0.19835811564E+02 -0.37269695864E+02  0.47787274223E+02  0.20000014492E+02 0.  0.
        -12    1    1    2    0    0  0.10056507733E+02  0.19835811564E+02  0.37269695864E+02  0.43400725777E+02  0.00000000000E+00 0.  1.
         11    1    3    3    0    0 -0.98360118006E+00 -0.32771694632E+01 -0.41072957326E+01  0.53457636936E+01  0.51100000000E-03 0. -1.
        -11    1    3    3    0    0 -0.40111893284E+01 -0.56089060630E+01 -0.28799789631E+02  0.29613803371E+02  0.51100000000E-03 0.  1.
        -12    1    3    3    0    0 -0.50617172246E+01 -0.10949736038E+02 -0.43626105001E+01  0.12827707158E+02  0.00000000000E+00 0.  1.
</event>
<event>
 7    1  0.2783785E-010  0.4778727E+02  0.7816164E-02  0.1312668E+00
        -11   -1    0    0    0    0  0.00000000000E+00  0.00000000000E+00  0.45593999997E+02  0.45594000000E+02  0.51100000000E-03 0.  1.
         11   -1    0    0    0    0 -0.00000000000E+00 -0.00000000000E+00 -0.45593999997E+02  0.45594000000E+02  0.51100000000E-03 0. -1.
    9900012    2    1    2    0    0 -0.15464926193E+02  0.10809300799E+02 -0.39084762160E+02  0.47787267759E+02  0.19999985019E+02 0.  0.
        -12    1    1    2    0    0  0.15464926193E+02 -0.10809300799E+02  0.39084762160E+02  0.43400732241E+02  0.00000000000E+00 0.  1.
         11    1    3    3    0    0 -0.55888741813E+01  0.35477502571E+01 -0.53081336296E+01  0.84851829321E+01  0.51100000000E-03 0. -1.
        -11    1    3    3    0    0  0.21620745797E+01  0.58945528508E+01 -0.19968404906E+02  0.20932212367E+02  0.51100000000E-03 0.  1.
        -12    1    3    3    0    0 -0.12038126592E+02  0.13669976916E+01 -0.13808223625E+02  0.18369872460E+02  0.00000000000E+00 0.  1.
</event>
<event>
 7    1  0.2783785E-010  0.4778727E+02  0.7816164E-02  0.1312668E+00
        -11   -1    0    0    0    0  0.00000000000E+00  0.00000000000E+00  0.45593999997E+02  0.45594000000E+02  0.51100000000E-03 0. -1.
         11   -1    0    0    0    0 -0.00000000000E+00 -0.00000000000E+00 -0.45593999997E+02  0.45594000000E+02  0.51100000000E-03 0.  1.
    9900012    2    1    2    0    0  0.23580868772E+02  0.33882046065E+02  0.13400475654E+02  0.47787272295E+02  0.20000005702E+02 0.  0.
        -12    1    1    2    0    0 -0.23580868772E+02 -0.33882046065E+02 -0.13400475654E+02  0.43400727705E+02  0.00000000000E+00 0.  1.
         11    1    3    3    0    0  0.76580757213E+01  0.15008841908E+02  0.62061674049E+01  0.17956279494E+02  0.51100000000E-03 0. -1.
        -11    1    3    3    0    0  0.15570917942E+02  0.16432018885E+02  0.44163920906E+00  0.22641991424E+02  0.51100000000E-03 0.  1.
         12    1    3    3    0    0  0.35187510829E+00  0.24411852722E+01  0.67526690402E+01  0.71890013765E+01  0.00000000000E+00 0. -1.
</event>
<event>
 7    1  0.2783785E-010  0.4778727E+02  0.7816164E-02  0.1312668E+00
        -11   -1    0    0    0    0  0.00000000000E+00  0.00000000000E+00  0.45593999997E+02  0.45594000000E+02  0.51100000000E-03 0. -1.
         11   -1    0    0    0    0 -0.00000000000E+00 -0.00000000000E+00 -0.45593999997E+02  0.45594000000E+02  0.51100000000E-03 0.  1.
    9900012    2    1    2    0    0  0.21847774715E+01  0.34992013256E+02  0.25581419831E+02  0.47787270918E+02  0.19999999422E+02 0.  0.
        -12    1    1    2    0    0 -0.21847774715E+01 -0.34992013256E+02 -0.25581419831E+02  0.43400729082E+02  0.00000000000E+00 0.  1.
         11    1    3    3    0    0  0.20670040917E+01  0.29950836287E+02  0.27060925823E+02  0.40418050508E+02  0.51100000000E-03 0. -1.
        -11    1    3    3    0    0  0.22649925138E+01  0.71748597135E+00 -0.26030080207E+00  0.23901326272E+01  0.51100000000E-03 0.  1.
        -12    1    3    3    0    0 -0.21472191341E+01  0.43236909976E+01 -0.12192051898E+01  0.49790877827E+01  0.00000000000E+00 0.  1.
</event>
<event>
 7    1  0.2783785E-010  0.4778727E+02  0.7816164E-02  0.1312668E+00
        -11   -1    0    0    0    0  0.00000000000E+00  0.00000000000E+00  0.45593999997E+02  0.45594000000E+02  0.51100000000E-03 0.  1.
         11   -1    0    0    0    0 -0.00000000000E+00 -0.00000000000E+00 -0.45593999997E+02  0.45594000000E+02  0.51100000000E-03 0. -1.
    9900012    2    1    2    0    0  0.15489053070E+02 -0.40255851490E+02 -0.48144678195E+01  0.47787269077E+02  0.19999991032E+02 0.  0.
        -12    1    1    2    0    0 -0.15489053070E+02  0.40255851490E+02  0.48144678195E+01  0.43400730923E+02  0.00000000000E+00 0.  1.
         11    1    3    3    0    0  0.13242826212E+02 -0.25856571716E+02  0.44341143482E+01  0.29387005926E+02  0.51100000000E-03 0. -1.
        -11    1    3    3    0    0  0.20613304949E+00 -0.11850747024E+01 -0.37584456431E+01  0.39462395768E+01  0.51100000000E-03 0.  1.
        -12    1    3    3    0    0  0.20400938082E+01 -0.13214205072E+02 -0.54901365246E+01  0.14454023574E+02  0.00000000000E+00 0.  1.
</event>
<event>
 7    1  0.3916945E-010  0.4778727E+02  0.7816164E-02  0.1312668E+00
        -11   -1    0    0    0    0  0.00000000000E+00  0.00000000000E+00  0.45593999997E+02  0.45594000000E+02  0.51100000000E-03 0.  1.
         11   -1    0    0    0    0 -0.00000000000E+00 -0.00000000000E+00 -0.45593999997E+02  0.45594000000E+02  0.51100000000E-03 0. -1.
    9900012    2    1    2    0    0  0.19072891399E+02  0.38757643787E+02 -0.42063207345E+01  0.47787271062E+02  0.20000000079E+02 0.  0.
        -12    1    1    2    0    0 -0.19072891399E+02 -0.38757643787E+02  0.42063207345E+01  0.43400728938E+02  0.00000000000E+00 0.  1.
         11    1    3    3    0    0  0.15939375383E+02  0.20846666550E+02 -0.59031606407E+01  0.26897853068E+02  0.51100000000E-03 0. -1.
        -11    1    3    3    0    0  0.45253406687E+01  0.18684716460E+02  0.16617075470E+01  0.19296595803E+02  0.51100000000E-03 0.  1.
        -12    1    3    3    0    0 -0.13918246525E+01 -0.77373922295E+00  0.35132359193E-01  0.15928221907E+01  0.00000000000E+00 0.  1.
</event>
<event>
 7    1  0.2783785E-010  0.4778725E+02  0.7816164E-02  0.1312668E+00
        -11   -1    0    0    0    0  0.00000000000E+00  0.00000000000E+00  0.45593999997E+02  0.45594000000E+02  0.51100000000E-03 0. -1.
         11   -1    0    0    0    0 -0.00000000000E+00 -0.00000000000E+00 -0.45593999997E+02  0.45594000000E+02  0.51100000000E-03 0.  1.
    9900012    2    1    2    0    0  0.10761137713E+02  0.39068395335E+02  0.15539727692E+02  0.47787254204E+02  0.19999923217E+02 0.  0.
        -12    1    1    2    0    0 -0.10761137713E+02 -0.39068395335E+02 -0.15539727692E+02  0.43400745796E+02  0.00000000000E+00 0.  1.
         11    1    3    3    0    0  0.12397635548E+02  0.20848938272E+02  0.10193685789E+02  0.26311420039E+02  0.51100000000E-03 0. -1.
        -11    1    3    3    0    0  0.15299500486E+01  0.11077673440E+02  0.73857629184E+01  0.13401682362E+02  0.51100000000E-03 0.  1.
        -12    1    3    3    0    0 -0.31664478832E+01  0.71417836229E+01 -0.20397210152E+01  0.80741518027E+01  0.00000000000E+00 0.  1.
</event>
<event>
 7    1  0.2783785E-010  0.4778727E+02  0.7816164E-02  0.1312668E+00
        -11   -1    0    0    0    0  0.00000000000E+00  0.00000000000E+00  0.45593999997E+02  0.45594000000E+02  0.51100000000E-03 0.  1.
         11   -1    0    0    0    0 -0.00000000000E+00 -0.00000000000E+00 -0.45593999997E+02  0.45594000000E+02  0.51100000000E-03 0. -1.
    9900012    2    1    2    0    0  0.51732291812E+01  0.19937729660E+02 -0.38201412668E+02  0.47787270812E+02  0.19999998941E+02 0.  0.
        -12    1    1    2    0    0 -0.51732291812E+01 -0.19937729660E+02  0.38201412668E+02  0.43400729188E+02  0.00000000000E+00 0.  1.
         11    1    3    3    0    0  0.42259584294E+01  0.12768747706E+02 -0.13644675354E+02  0.19159248639E+02  0.51100000000E-03 0. -1.
        -11    1    3    3    0    0  0.32414311435E+00 -0.14208368299E+01  0.92776121382E+00  0.17275957822E+01  0.51100000000E-03 0.  1.
         12    1    3    3    0    0  0.62312763747E+00  0.85898187842E+01 -0.25484498528E+02  0.26900426391E+02  0.00000000000E+00 0. -1.
</event>
<event>
 7    1  0.2783785E-010  0.4778727E+02  0.7816164E-02  0.1312668E+00
        -11   -1    0    0    0    0  0.00000000000E+00  0.00000000000E+00  0.45593999997E+02  0.45594000000E+02  0.51100000000E-03 0.  1.
         11   -1    0    0    0    0 -0.00000000000E+00 -0.00000000000E+00 -0.45593999997E+02  0.45594000000E+02  0.51100000000E-03 0. -1.
    9900012    2    1    2    0    0  0.19616221111E+02 -0.35728871564E+02 -0.14908879488E+02  0.47787273260E+02  0.20000010104E+02 0.  0.
        -12    1    1    2    0    0 -0.19616221111E+02  0.35728871564E+02  0.14908879488E+02  0.43400726740E+02  0.00000000000E+00 0.  1.
         11    1    3    3    0    0  0.16106645939E+01 -0.18576418321E+01 -0.60784571437E+01  0.65568830338E+01  0.51100000000E-03 0. -1.
        -11    1    3    3    0    0  0.37726595343E+01 -0.18262759429E+01 -0.40749444886E+01  0.58458033347E+01  0.51100000000E-03 0.  1.
         12    1    3    3    0    0  0.14232896983E+02 -0.32044953789E+02 -0.47554778554E+01  0.35384586892E+02  0.00000000000E+00 0. -1.
</event>
<event>
 7    1  0.2783785E-010  0.4778727E+02  0.7816164E-02  0.1312668E+00
        -11   -1    0    0    0    0  0.00000000000E+00  0.00000000000E+00  0.45593999997E+02  0.45594000000E+02  0.51100000000E-03 0.  1.
         11   -1    0    0    0    0 -0.00000000000E+00 -0.00000000000E+00 -0.45593999997E+02  0.45594000000E+02  0.51100000000E-03 0. -1.
    9900012    2    1    2    0    0 -0.21524317079E+01  0.92262753605E+01 -0.42354057422E+02  0.47787270750E+02  0.19999998658E+02 0.  0.
        -12    1    1    2    0    0  0.21524317079E+01 -0.92262753605E+01  0.42354057422E+02  0.43400729250E+02  0.00000000000E+00 0.  1.
         11    1    3    3    0    0 -0.41797567053E+01 -0.10447744163E+01 -0.99033492518E+01  0.10799918813E+02  0.51100000000E-03 0.  1.
        -11    1    3    3    0    0  0.70796654261E+01  0.10326466094E+02 -0.20629300570E+02  0.24131423638E+02  0.51100000000E-03 0. -1.
         12    1    3    3    0    0 -0.50523404288E+01 -0.55416317075E-01 -0.11821407601E+02  0.12855928299E+02  0.00000000000E+00 0. -1.
</event>
<event>
 7    1  0.2783785E-010  0.4778728E+02  0.7816164E-02  0.1312668E+00
        -11   -1    0    0    0    0  0.00000000000E+00  0.00000000000E+00  0.45593999997E+02  0.45594000000E+02  0.51100000000E-03 0.  1.
         11   -1    0    0    0    0 -0.00000000000E+00 -0.00000000000E+00 -0.45593999997E+02  0.45594000000E+02  0.51100000000E-03 0. -1.
    9900012    2    1    2    0    0  0.21455213489E+02  0.25225300929E+02 -0.28053168918E+02  0.47787282504E+02  0.20000052249E+02 0.  0.
        -12    1    1    2    0    0 -0.21455213489E+02 -0.25225300929E+02  0.28053168918E+02  0.43400717496E+02  0.00000000000E+00 0.  1.
         11    1    3    3    0    0  0.64923245192E+01  0.48199565536E+01 -0.47398022660E+00  0.80998096495E+01  0.51100000000E-03 0. -1.
        -11    1    3    3    0    0  0.16450808250E+02  0.13019153484E+02 -0.21018061641E+02  0.29696571602E+02  0.51100000000E-03 0.  1.
        -12    1    3    3    0    0 -0.14879192800E+01  0.73861908909E+01 -0.65611270503E+01  0.99909012522E+01  0.00000000000E+00 0.  1.
</event>
<event>
 7    1  0.2783785E-010  0.4778727E+02  0.7816164E-02  0.1312668E+00
        -11   -1    0    0    0    0  0.00000000000E+00  0.00000000000E+00  0.45593999997E+02  0.45594000000E+02  0.51100000000E-03 0. -1.
         11   -1    0    0    0    0 -0.00000000000E+00 -0.00000000000E+00 -0.45593999997E+02  0.45594000000E+02  0.51100000000E-03 0.  1.
    9900012    2    1    2    0    0  0.10002964682E+01 -0.15187812196E+02 -0.40644224906E+02  0.47787271313E+02  0.20000001226E+02 0.  0.
        -12    1    1    2    0    0 -0.10002964682E+01  0.15187812196E+02  0.40644224906E+02  0.43400728687E+02  0.00000000000E+00 0.  1.
         11    1    3    3    0    0  0.38076374578E+01 -0.60553781814E+01 -0.68685808277E+01  0.99168095060E+01  0.51100000000E-03 0. -1.
        -11    1    3    3    0    0  0.47877782476E+01 -0.67083789841E+01 -0.11036838252E+02  0.13774504274E+02  0.51100000000E-03 0.  1.
         12    1    3    3    0    0 -0.75951192371E+01 -0.24240550304E+01 -0.22738805826E+02  0.24095957533E+02  0.00000000000E+00 0. -1.
</event>
<event>
 7    1  0.2783785E-010  0.4778727E+02  0.7816164E-02  0.1312668E+00
        -11   -1    0    0    0    0  0.00000000000E+00  0.00000000000E+00  0.45593999997E+02  0.45594000000E+02  0.51100000000E-03 0.  1.
         11   -1    0    0    0    0 -0.00000000000E+00 -0.00000000000E+00 -0.45593999997E+02  0.45594000000E+02  0.51100000000E-03 0. -1.
    9900012    2    1    2    0    0 -0.98815405158E+01 -0.21295246396E+02 -0.36503306377E+02  0.47787265692E+02  0.19999975595E+02 0.  0.
        -12    1    1    2    0    0  0.98815405158E+01  0.21295246396E+02  0.36503306377E+02  0.43400734308E+02  0.00000000000E+00 0.  1.
         11    1    3    3    0    0 -0.54016409912E+00 -0.17101819899E+01 -0.11451342003E+02  0.11590933251E+02  0.51100000000E-03 0. -1.
        -11    1    3    3    0    0 -0.76322299725E+01 -0.71391334448E+01 -0.20173200541E+02  0.22719511020E+02  0.51100000000E-03 0.  1.
        -12    1    3    3    0    0 -0.17091464442E+01 -0.12445930961E+02 -0.48787638338E+01  0.13476821421E+02  0.00000000000E+00 0.  1.
</event>
<event>
 7    1  0.2783785E-010  0.4778727E+02  0.7816164E-02  0.1312668E+00
        -11   -1    0    0    0    0  0.00000000000E+00  0.00000000000E+00  0.45593999997E+02  0.45594000000E+02  0.51100000000E-03 0. -1.
         11   -1    0    0    0    0 -0.00000000000E+00 -0.00000000000E+00 -0.45593999997E+02  0.45594000000E+02  0.51100000000E-03 0.  1.
    9900012    2    1    2    0    0 -0.40661312738E+02 -0.10572206754E+02  0.10886195811E+02  0.47787272259E+02  0.20000005539E+02 0.  0.
        -12    1    1    2    0    0  0.40661312738E+02  0.10572206754E+02 -0.10886195811E+02  0.43400727741E+02  0.00000000000E+00 0.  1.
         11    1    3    3    0    0 -0.77967418769E+01  0.33267385073E+01 -0.34959508279E+00  0.84840196826E+01  0.51100000000E-03 0. -1.
        -11    1    3    3    0    0 -0.45839127015E+01 -0.70857242335E+01  0.11632324424E+01  0.85189702162E+01  0.51100000000E-03 0.  1.
         12    1    3    3    0    0 -0.28280658159E+02 -0.68132210275E+01  0.10072558452E+02  0.30784282360E+02  0.00000000000E+00 0. -1.
</event>
<event>
 7    1  0.2783785E-010  0.4778727E+02  0.7816164E-02  0.1312668E+00
        -11   -1    0    0    0    0  0.00000000000E+00  0.00000000000E+00  0.45593999997E+02  0.45594000000E+02  0.51100000000E-03 0.  1.
         11   -1    0    0    0    0 -0.00000000000E+00 -0.00000000000E+00 -0.45593999997E+02  0.45594000000E+02  0.51100000000E-03 0. -1.
    9900012    2    1    2    0    0 -0.23447437529E+02 -0.70667734207E+01 -0.35831574690E+02  0.47787270075E+02  0.19999995581E+02 0.  0.
        -12    1    1    2    0    0  0.23447437529E+02  0.70667734207E+01  0.35831574690E+02  0.43400729925E+02  0.00000000000E+00 0.  1.
         11    1    3    3    0    0  0.13351419365E+00  0.81069866180E+00  0.29975409365E+00  0.87459198368E+00  0.51100000000E-03 0.  1.
        -11    1    3    3    0    0 -0.17022646293E+02 -0.77951891215E+01 -0.12807199191E+02  0.22683910854E+02  0.51100000000E-03 0. -1.
         12    1    3    3    0    0 -0.65583054295E+01 -0.82282961008E-01 -0.23324129593E+02  0.24228767238E+02  0.00000000000E+00 0. -1.
</event>
<event>
 7    1  0.2783785E-010  0.4778727E+02  0.7816164E-02  0.1312668E+00
        -11   -1    0    0    0    0  0.00000000000E+00  0.00000000000E+00  0.45593999997E+02  0.45594000000E+02  0.51100000000E-03 0. -1.
         11   -1    0    0    0    0 -0.00000000000E+00 -0.00000000000E+00 -0.45593999997E+02  0.45594000000E+02  0.51100000000E-03 0.  1.
    9900012    2    1    2    0    0 -0.36064777825E+02  0.22429668033E+02  0.89367352236E+01  0.47787269083E+02  0.19999991057E+02 0.  0.
        -12    1    1    2    0    0  0.36064777825E+02 -0.22429668033E+02 -0.89367352236E+01  0.43400730917E+02  0.00000000000E+00 0.  1.
         11    1    3    3    0    0 -0.10155466679E+02  0.48339935201E+01  0.73578904073E+01  0.13440221290E+02  0.51100000000E-03 0. -1.
        -11    1    3    3    0    0 -0.27559510363E+02  0.15955939679E+02  0.67821844605E+00  0.31852450502E+02  0.51100000000E-03 0.  1.
        -12    1    3    3    0    0  0.16501992171E+01  0.16397348339E+01  0.90062637026E+00  0.24945972902E+01  0.00000000000E+00 0.  1.
</event>
<event>
 7    1  0.2783785E-010  0.4778727E+02  0.7816164E-02  0.1312668E+00
        -11   -1    0    0    0    0  0.00000000000E+00  0.00000000000E+00  0.45593999997E+02  0.45594000000E+02  0.51100000000E-03 0. -1.
         11   -1    0    0    0    0 -0.00000000000E+00 -0.00000000000E+00 -0.45593999997E+02  0.45594000000E+02  0.51100000000E-03 0.  1.
    9900012    2    1    2    0    0  0.42602833236E+02  0.44344308359E+01  0.69969793486E+01  0.47787270783E+02  0.19999998806E+02 0.  0.
        -12    1    1    2    0    0 -0.42602833236E+02 -0.44344308359E+01 -0.69969793486E+01  0.43400729217E+02  0.00000000000E+00 0.  1.
         11    1    3    3    0    0  0.89261529614E+01  0.23612893785E+01  0.22930754888E+01  0.95136790822E+01  0.51100000000E-03 0. -1.
        -11    1    3    3    0    0  0.19707397330E+02 -0.64545361417E+01 -0.14506632864E+01  0.20788144953E+02  0.51100000000E-03 0.  1.
        -12    1    3    3    0    0  0.13969282944E+02  0.85276775990E+01  0.61545671462E+01  0.17485446748E+02  0.00000000000E+00 0.  1.
</event>
<event>
 7    1  0.2783785E-010  0.4778725E+02  0.7816164E-02  0.1312668E+00
        -11   -1    0    0    0    0  0.00000000000E+00  0.00000000000E+00  0.45593999997E+02  0.45594000000E+02  0.51100000000E-03 0.  1.
         11   -1    0    0    0    0 -0.00000000000E+00 -0.00000000000E+00 -0.45593999997E+02  0.45594000000E+02  0.51100000000E-03 0. -1.
    9900012    2    1    2    0    0 -0.19275758804E+02 -0.42969916760E+01 -0.38647200609E+02  0.47787249663E+02  0.19999902513E+02 0.  0.
        -12    1    1    2    0    0  0.19275758804E+02  0.42969916760E+01  0.38647200609E+02  0.43400750337E+02  0.00000000000E+00 0.  1.
         11    1    3    3    0    0 -0.94474962627E+01  0.32429178452E+01 -0.11999022600E+02  0.15612438804E+02  0.51100000000E-03 0. -1.
        -11    1    3    3    0    0 -0.98459923835E+01 -0.97709643628E+01 -0.15478973722E+02  0.20784944992E+02  0.51100000000E-03 0.  1.
         12    1    3    3    0    0  0.17729842504E-01  0.22310548416E+01 -0.11169204287E+02  0.11389865867E+02  0.00000000000E+00 0. -1.
</event>
<event>
 7    1  0.2783785E-010  0.4778726E+02  0.7816164E-02  0.1312668E+00
        -11   -1    0    0    0    0  0.00000000000E+00  0.00000000000E+00  0.45593999997E+02  0.45594000000E+02  0.51100000000E-03 0. -1.
         11   -1    0    0    0    0 -0.00000000000E+00 -0.00000000000E+00 -0.45593999997E+02  0.45594000000E+02  0.51100000000E-03 0.  1.
    9900012    2    1    2    0    0  0.34540294598E+02  0.24962559385E+02  0.82135680638E+01  0.47787262423E+02  0.19999960689E+02 0.  0.
        -12    1    1    2    0    0 -0.34540294598E+02 -0.24962559385E+02 -0.82135680638E+01  0.43400737577E+02  0.00000000000E+00 0.  1.
         11    1    3    3    0    0  0.28880420266E+02  0.11337849799E+02  0.97759177937E+00  0.31041604320E+02  0.51100000000E-03 0. -1.
        -11    1    3    3    0    0  0.13401678204E+00  0.18268785168E+01  0.19804923056E+01  0.26977389879E+01  0.51100000000E-03 0.  1.
         12    1    3    3    0    0  0.55258575493E+01  0.11797831070E+02  0.52554839788E+01  0.14047919115E+02  0.00000000000E+00 0. -1.
</event>
<event>
 7    1  0.2783785E-010  0.4778727E+02  0.7816164E-02  0.1312668E+00
        -11   -1    0    0    0    0  0.00000000000E+00  0.00000000000E+00  0.45593999997E+02  0.45594000000E+02  0.51100000000E-03 0.  1.
         11   -1    0    0    0    0 -0.00000000000E+00 -0.00000000000E+00 -0.45593999997E+02  0.45594000000E+02  0.51100000000E-03 0. -1.
    9900012    2    1    2    0    0 -0.17994038272E+02  0.46708643541E+01 -0.39217605285E+02  0.47787274759E+02  0.20000016937E+02 0.  0.
        -12    1    1    2    0    0  0.17994038272E+02 -0.46708643541E+01  0.39217605285E+02  0.43400725241E+02  0.00000000000E+00 0.  1.
         11    1    3    3    0    0 -0.76539990244E+01  0.55209086100E+01 -0.27022472477E+02  0.28623035338E+02  0.51100000000E-03 0. -1.
        -11    1    3    3    0    0 -0.17161413728E+01  0.34940309762E+01 -0.38901720859E+00  0.39121258062E+01  0.51100000000E-03 0.  1.
         12    1    3    3    0    0 -0.86238978750E+01 -0.43440752320E+01 -0.11806115600E+02  0.15252113615E+02  0.00000000000E+00 0. -1.
</event>
<event>
 7    1  0.2783785E-010  0.4778727E+02  0.7816164E-02  0.1312668E+00
        -11   -1    0    0    0    0  0.00000000000E+00  0.00000000000E+00  0.45593999997E+02  0.45594000000E+02  0.51100000000E-03 0.  1.
         11   -1    0    0    0    0 -0.00000000000E+00 -0.00000000000E+00 -0.45593999997E+02  0.45594000000E+02  0.51100000000E-03 0. -1.
    9900012    2    1    2    0    0  0.37764312794E+02  0.19365990272E+02  0.90795752807E+01  0.47787267434E+02  0.19999983538E+02 0.  0.
        -12    1    1    2    0    0 -0.37764312794E+02 -0.19365990272E+02 -0.90795752807E+01  0.43400732566E+02  0.00000000000E+00 0.  1.
         11    1    3    3    0    0  0.12841292267E+02  0.12139672386E+02  0.28322321751E+00  0.17673444723E+02  0.51100000000E-03 0. -1.
        -11    1    3    3    0    0  0.15147181402E+02  0.97441142960E+01  0.24168676670E+01  0.18172124736E+02  0.51100000000E-03 0.  1.
        -12    1    3    3    0    0  0.97758391244E+01 -0.25177964101E+01  0.63794843962E+01  0.11941697974E+02  0.00000000000E+00 0.  1.
</event>
<event>
 7    1  0.2783785E-010  0.4778727E+02  0.7816164E-02  0.1312668E+00
        -11   -1    0    0    0    0  0.00000000000E+00  0.00000000000E+00  0.45593999997E+02  0.45594000000E+02  0.51100000000E-03 0.  1.
         11   -1    0    0    0    0 -0.00000000000E+00 -0.00000000000E+00 -0.45593999997E+02  0.45594000000E+02  0.51100000000E-03 0. -1.
    9900012    2    1    2    0    0  0.33406325399E+02 -0.25439449711E+02 -0.10976116907E+02  0.47787270506E+02  0.19999997543E+02 0.  0.
        -12    1    1    2    0    0 -0.33406325399E+02  0.25439449711E+02  0.10976116907E+02  0.43400729494E+02  0.00000000000E+00 0.  1.
         11    1    3    3    0    0  0.15995298161E+02 -0.62174207417E+01 -0.63347039859E+01  0.18293013934E+02  0.51100000000E-03 0. -1.
        -11    1    3    3    0    0  0.49599998557E+01  0.94121974868E-01 -0.42137725819E+01  0.65089428595E+01  0.51100000000E-03 0.  1.
         12    1    3    3    0    0  0.12451027382E+02 -0.19316150944E+02 -0.42764033958E+00  0.22985313712E+02  0.00000000000E+00 0. -1.
</event>
<event>
 7    1  0.2783785E-010  0.4778726E+02  0.7816164E-02  0.1312668E+00
        -11   -1    0    0    0    0  0.00000000000E+00  0.00000000000E+00  0.45593999997E+02  0.45594000000E+02  0.51100000000E-03 0. -1.
         11   -1    0    0    0    0 -0.00000000000E+00 -0.00000000000E+00 -0.45593999997E+02  0.45594000000E+02  0.51100000000E-03 0.  1.
    9900012    2    1    2    0    0  0.80209130592E+01 -0.30195459187E+02  0.30125125902E+02  0.47787262536E+02  0.19999961206E+02 0.  0.
        -12    1    1    2    0    0 -0.80209130592E+01  0.30195459187E+02 -0.30125125902E+02  0.43400737464E+02  0.00000000000E+00 0.  1.
         11    1    3    3    0    0  0.19115289081E+01  0.12542217400E+00  0.52169721588E+01  0.55575599191E+01  0.51100000000E-03 0. -1.
        -11    1    3    3    0    0  0.67269968071E+01 -0.25550093792E+02  0.26241131372E+02  0.37237840361E+02  0.51100000000E-03 0.  1.
        -12    1    3    3    0    0 -0.61761265593E+00 -0.47707875688E+01 -0.13329776288E+01  0.49918622556E+01  0.00000000000E+00 0.  1.
</event>
<event>
 7    1  0.2783785E-010  0.4778727E+02  0.7816164E-02  0.1312668E+00
        -11   -1    0    0    0    0  0.00000000000E+00  0.00000000000E+00  0.45593999997E+02  0.45594000000E+02  0.51100000000E-03 0.  1.
         11   -1    0    0    0    0 -0.00000000000E+00 -0.00000000000E+00 -0.45593999997E+02  0.45594000000E+02  0.51100000000E-03 0. -1.
    9900012    2    1    2    0    0 -0.26483993041E+02  0.49378906442E+01 -0.34027031248E+02  0.47787268359E+02  0.19999987757E+02 0.  0.
        -12    1    1    2    0    0  0.26483993041E+02 -0.49378906442E+01  0.34027031248E+02  0.43400731641E+02  0.00000000000E+00 0.  1.
         11    1    3    3    0    0 -0.23089302046E+02  0.70006938753E+01 -0.31287607623E+02  0.39509998414E+02  0.51100000000E-03 0. -1.
        -11    1    3    3    0    0 -0.37524307361E+01  0.15916045388E+01 -0.19635385664E+01  0.45243149095E+01  0.51100000000E-03 0.  1.
        -12    1    3    3    0    0  0.35773974142E+00 -0.36544077698E+01 -0.77588505924E+00  0.37529550352E+01  0.00000000000E+00 0.  1.
</event>
<event>
 7    1  0.2783785E-010  0.4778727E+02  0.7816164E-02  0.1312668E+00
        -11   -1    0    0    0    0  0.00000000000E+00  0.00000000000E+00  0.45593999997E+02  0.45594000000E+02  0.51100000000E-03 0.  1.
         11   -1    0    0    0    0 -0.00000000000E+00 -0.00000000000E+00 -0.45593999997E+02  0.45594000000E+02  0.51100000000E-03 0. -1.
    9900012    2    1    2    0    0 -0.18028409182E+02 -0.70332063563E+01 -0.38847568412E+02  0.47787273038E+02  0.20000009090E+02 0.  0.
        -12    1    1    2    0    0  0.18028409182E+02  0.70332063563E+01  0.38847568412E+02  0.43400726962E+02  0.00000000000E+00 0.  1.
         11    1    3    3    0    0 -0.13920927022E+02 -0.87515044315E+01 -0.39565917577E+02  0.42846737016E+02  0.51100000000E-03 0. -1.
        -11    1    3    3    0    0 -0.53283481027E+00 -0.45103427614E+00  0.20601886989E+00  0.72786598297E+00  0.51100000000E-03 0.  1.
         12    1    3    3    0    0 -0.35746473496E+01  0.21693323514E+01  0.51233029510E+00  0.42126700388E+01  0.00000000000E+00 0. -1.
</event>
<event>
 7    1  0.2783785E-010  0.4778727E+02  0.7816164E-02  0.1312668E+00
        -11   -1    0    0    0    0  0.00000000000E+00  0.00000000000E+00  0.45593999997E+02  0.45594000000E+02  0.51100000000E-03 0.  1.
         11   -1    0    0    0    0 -0.00000000000E+00 -0.00000000000E+00 -0.45593999997E+02  0.45594000000E+02  0.51100000000E-03 0. -1.
    9900012    2    1    2    0    0  0.23298727323E+02  0.17646570606E+00 -0.36616409804E+02  0.47787270721E+02  0.19999998527E+02 0.  0.
        -12    1    1    2    0    0 -0.23298727323E+02 -0.17646570606E+00  0.36616409804E+02  0.43400729279E+02  0.00000000000E+00 0.  1.
         11    1    3    3    0    0  0.80093943659E+01 -0.29220525339E+01 -0.21105412221E+02  0.22762407922E+02  0.51100000000E-03 0. -1.
        -11    1    3    3    0    0  0.56651448344E+01  0.61439392498E+01 -0.11377106560E+02  0.14116671330E+02  0.51100000000E-03 0.  1.
        -12    1    3    3    0    0  0.96241881227E+01 -0.30454210098E+01 -0.41338910223E+01  0.10908191469E+02  0.00000000000E+00 0.  1.
</event>
<event>
 7    1  0.2783785E-010  0.4778727E+02  0.7816164E-02  0.1312668E+00
        -11   -1    0    0    0    0  0.00000000000E+00  0.00000000000E+00  0.45593999997E+02  0.45594000000E+02  0.51100000000E-03 0.  1.
         11   -1    0    0    0    0 -0.00000000000E+00 -0.00000000000E+00 -0.45593999997E+02  0.45594000000E+02  0.51100000000E-03 0. -1.
    9900012    2    1    2    0    0  0.16278878734E+02 -0.15495449500E+02 -0.37128325014E+02  0.47787269979E+02  0.19999995141E+02 0.  0.
        -12    1    1    2    0    0 -0.16278878734E+02  0.15495449500E+02  0.37128325014E+02  0.43400730021E+02  0.00000000000E+00 0.  1.
         11    1    3    3    0    0  0.88061456450E+00 -0.61831559546E+01 -0.13284610038E+02  0.14679501480E+02  0.51100000000E-03 0. -1.
        -11    1    3    3    0    0  0.78628787614E+01 -0.63751090923E+01 -0.27095141809E+01  0.10478947739E+02  0.51100000000E-03 0.  1.
        -12    1    3    3    0    0  0.75353854078E+01 -0.29371844533E+01 -0.21134200795E+02  0.22628820760E+02  0.00000000000E+00 0.  1.
</event>
<event>
 7    1  0.2783785E-010  0.4778728E+02  0.7816164E-02  0.1312668E+00
        -11   -1    0    0    0    0  0.00000000000E+00  0.00000000000E+00  0.45593999997E+02  0.45594000000E+02  0.51100000000E-03 0.  1.
         11   -1    0    0    0    0 -0.00000000000E+00 -0.00000000000E+00 -0.45593999997E+02  0.45594000000E+02  0.51100000000E-03 0. -1.
    9900012    2    1    2    0    0 -0.36780991003E+02  0.22552514903E+02  0.47080318989E+01  0.47787276597E+02  0.20000025314E+02 0.  0.
        -12    1    1    2    0    0  0.36780991003E+02 -0.22552514903E+02 -0.47080318989E+01  0.43400723403E+02  0.00000000000E+00 0.  1.
         11    1    3    3    0    0 -0.13119580271E+02  0.90703586701E+01 -0.44240892487E+01  0.16551959365E+02  0.51100000000E-03 0. -1.
        -11    1    3    3    0    0 -0.76523104252E+01  0.11146746042E+02  0.58259109055E+01  0.14722399272E+02  0.51100000000E-03 0.  1.
         12    1    3    3    0    0 -0.16009100307E+02  0.23354101908E+01  0.33062102420E+01  0.16512917960E+02  0.00000000000E+00 0. -1.
</event>
<event>
 7    1  0.2783785E-010  0.4778727E+02  0.7816164E-02  0.1312668E+00
        -11   -1    0    0    0    0  0.00000000000E+00  0.00000000000E+00  0.45593999997E+02  0.45594000000E+02  0.51100000000E-03 0.  1.
         11   -1    0    0    0    0 -0.00000000000E+00 -0.00000000000E+00 -0.45593999997E+02  0.45594000000E+02  0.51100000000E-03 0. -1.
    9900012    2    1    2    0    0  0.26368994162E+01 -0.43238860205E+02  0.26591077084E+01  0.47787272769E+02  0.20000007863E+02 0.  0.
        -12    1    1    2    0    0 -0.26368994162E+01  0.43238860205E+02 -0.26591077084E+01  0.43400727231E+02  0.00000000000E+00 0.  1.
         11    1    3    3    0    0  0.42075118302E+01 -0.41837770227E+01 -0.25492940876E+00  0.59390348746E+01  0.51100000000E-03 0. -1.
        -11    1    3    3    0    0 -0.69197173249E+01 -0.10796561745E+02  0.26081311051E+01  0.13086274546E+02  0.51100000000E-03 0.  1.
         12    1    3    3    0    0  0.53491049108E+01 -0.28258521437E+02  0.30590601211E+00  0.28761963348E+02  0.00000000000E+00 0. -1.
</event>
<event>
 7    1  0.2783785E-010  0.4778727E+02  0.7816164E-02  0.1312668E+00
        -11   -1    0    0    0    0  0.00000000000E+00  0.00000000000E+00  0.45593999997E+02  0.45594000000E+02  0.51100000000E-03 0. -1.
         11   -1    0    0    0    0 -0.00000000000E+00 -0.00000000000E+00 -0.45593999997E+02  0.45594000000E+02  0.51100000000E-03 0.  1.
    9900012    2    1    2    0    0 -0.35725171505E+02 -0.16346530646E+02 -0.18442506509E+02  0.47787274320E+02  0.20000014933E+02 0.  0.
        -12    1    1    2    0    0  0.35725171505E+02  0.16346530646E+02  0.18442506509E+02  0.43400725680E+02  0.00000000000E+00 0.  1.
         11    1    3    3    0    0 -0.24947193415E+00 -0.45461543758E+01  0.24851273310E+00  0.45597713423E+01  0.51100000000E-03 0. -1.
        -11    1    3    3    0    0 -0.15876048809E+02 -0.22027348168E+01 -0.28954722357E+01  0.16287563543E+02  0.51100000000E-03 0.  1.
         12    1    3    3    0    0 -0.19599650762E+02 -0.95976414532E+01 -0.15795547007E+02  0.26939939434E+02  0.00000000000E+00 0. -1.
</event>
<event>
 7    1  0.2783785E-010  0.4778727E+02  0.7816164E-02  0.1312668E+00
        -11   -1    0    0    0    0  0.00000000000E+00  0.00000000000E+00  0.45593999997E+02  0.45594000000E+02  0.51100000000E-03 0.  1.
         11   -1    0    0    0    0 -0.00000000000E+00 -0.00000000000E+00 -0.45593999997E+02  0.45594000000E+02  0.51100000000E-03 0. -1.
    9900012    2    1    2    0    0  0.14788636082E+02 -0.11349731556E+02 -0.39193150355E+02  0.47787271915E+02  0.20000003971E+02 0.  0.
        -12    1    1    2    0    0 -0.14788636082E+02  0.11349731556E+02  0.39193150355E+02  0.43400728085E+02  0.00000000000E+00 0.  1.
         11    1    3    3    0    0  0.93064614990E+01  0.34531338612E+01 -0.19350990604E+02  0.21748452743E+02  0.51100000000E-03 0. -1.
        -11    1    3    3    0    0  0.22434603820E+01 -0.42510275857E+01 -0.23378866349E+01  0.53450972113E+01  0.51100000000E-03 0.  1.
         12    1    3    3    0    0  0.32387142007E+01 -0.10551837831E+02 -0.17504273116E+02  0.20693721961E+02  0.00000000000E+00 0. -1.
</event>
<event>
 7    1  0.2783785E-010  0.4778727E+02  0.7816164E-02  0.1312668E+00
        -11   -1    0    0    0    0  0.00000000000E+00  0.00000000000E+00  0.45593999997E+02  0.45594000000E+02  0.51100000000E-03 0. -1.
         11   -1    0    0    0    0 -0.00000000000E+00 -0.00000000000E+00 -0.45593999997E+02  0.45594000000E+02  0.51100000000E-03 0.  1.
    9900012    2    1    2    0    0 -0.94632276319E+00 -0.42196730051E+02 -0.10107606874E+02  0.47787271084E+02  0.20000000178E+02 0.  0.
        -12    1    1    2    0    0  0.94632276319E+00  0.42196730051E+02  0.10107606874E+02  0.43400728916E+02  0.00000000000E+00 0.  1.
         11    1    3    3    0    0 -0.19845086616E+01  0.74992883517E+00 -0.20170039752E+01  0.29272808514E+01  0.51100000000E-03 0.  1.
        -11    1    3    3    0    0  0.47788378021E+01 -0.18405578497E+02 -0.60348509903E+01  0.19950489650E+02  0.51100000000E-03 0. -1.
         12    1    3    3    0    0 -0.37406519037E+01 -0.24541080389E+02 -0.20557519083E+01  0.24909500582E+02  0.00000000000E+00 0. -1.
</event>
<event>
 7    1  0.2783785E-010  0.4778727E+02  0.7816164E-02  0.1312668E+00
        -11   -1    0    0    0    0  0.00000000000E+00  0.00000000000E+00  0.45593999997E+02  0.45594000000E+02  0.51100000000E-03 0.  1.
         11   -1    0    0    0    0 -0.00000000000E+00 -0.00000000000E+00 -0.45593999997E+02  0.45594000000E+02  0.51100000000E-03 0. -1.
    9900012    2    1    2    0    0 -0.87324924445E+01  0.24910472228E+02 -0.34450472757E+02  0.47787272770E+02  0.20000007869E+02 0.  0.
        -12    1    1    2    0    0  0.87324924445E+01 -0.24910472228E+02  0.34450472757E+02  0.43400727230E+02  0.00000000000E+00 0.  1.
         11    1    3    3    0    0 -0.19561270350E+01  0.11989561587E+02 -0.22465666800E+02  0.25539816073E+02  0.51100000000E-03 0. -1.
        -11    1    3    3    0    0 -0.45441504384E+01  0.14973805144E+02 -0.93406594074E+01  0.18223942003E+02  0.51100000000E-03 0.  1.
        -12    1    3    3    0    0 -0.22322149711E+01 -0.20528945033E+01 -0.26441465499E+01  0.40235146944E+01  0.00000000000E+00 0.  1.
</event>
<event>
 7    1  0.2783785E-010  0.4778727E+02  0.7816164E-02  0.1312668E+00
        -11   -1    0    0    0    0  0.00000000000E+00  0.00000000000E+00  0.45593999997E+02  0.45594000000E+02  0.51100000000E-03 0.  1.
         11   -1    0    0    0    0 -0.00000000000E+00 -0.00000000000E+00 -0.45593999997E+02  0.45594000000E+02  0.51100000000E-03 0. -1.
    9900012    2    1    2    0    0 -0.21513799594E+02  0.15456401670E+02 -0.34378468137E+02  0.47787274234E+02  0.20000014542E+02 0.  0.
        -12    1    1    2    0    0  0.21513799594E+02 -0.15456401670E+02  0.34378468137E+02  0.43400725766E+02  0.00000000000E+00 0.  1.
         11    1    3    3    0    0 -0.99644221762E+01  0.84343171779E+01 -0.22475826442E+02  0.25992117845E+02  0.51100000000E-03 0. -1.
        -11    1    3    3    0    0 -0.14023225796E+02  0.45794775885E+01 -0.91338646417E+01  0.17350791344E+02  0.51100000000E-03 0.  1.
        -12    1    3    3    0    0  0.24738483777E+01  0.24426069037E+01 -0.27687770533E+01  0.44443650449E+01  0.00000000000E+00 0.  1.
</event>
<event>
 7    1  0.2783785E-010  0.4778727E+02  0.7816164E-02  0.1312668E+00
        -11   -1    0    0    0    0  0.00000000000E+00  0.00000000000E+00  0.45593999997E+02  0.45594000000E+02  0.51100000000E-03 0.  1.
         11   -1    0    0    0    0 -0.00000000000E+00 -0.00000000000E+00 -0.45593999997E+02  0.45594000000E+02  0.51100000000E-03 0. -1.
    9900012    2    1    2    0    0  0.16306944876E+02  0.30317450824E+01 -0.40106299469E+02  0.47787272050E+02  0.20000004587E+02 0.  0.
        -12    1    1    2    0    0 -0.16306944876E+02 -0.30317450824E+01  0.40106299469E+02  0.43400727950E+02  0.00000000000E+00 0.  1.
         11    1    3    3    0    0  0.16568713886E+02  0.29357936622E+01 -0.33469176613E+02  0.37461005695E+02  0.51100000000E-03 0. -1.
        -11    1    3    3    0    0  0.50102038569E+00  0.39494395802E+01 -0.32427317862E+01  0.51346279439E+01  0.51100000000E-03 0.  1.
         12    1    3    3    0    0 -0.76278939560E+00 -0.38534881600E+01 -0.33943910701E+01  0.51916384117E+01  0.00000000000E+00 0. -1.
</event>
<event>
 7    1  0.2783785E-010  0.4778727E+02  0.7816164E-02  0.1312668E+00
        -11   -1    0    0    0    0  0.00000000000E+00  0.00000000000E+00  0.45593999997E+02  0.45594000000E+02  0.51100000000E-03 0. -1.
         11   -1    0    0    0    0 -0.00000000000E+00 -0.00000000000E+00 -0.45593999997E+02  0.45594000000E+02  0.51100000000E-03 0.  1.
    9900012    2    1    2    0    0  0.39825313841E+02  0.78362259680E+01  0.15367535880E+02  0.47787271677E+02  0.20000002883E+02 0.  0.
        -12    1    1    2    0    0 -0.39825313841E+02 -0.78362259680E+01 -0.15367535880E+02  0.43400728323E+02  0.00000000000E+00 0.  1.
         11    1    3    3    0    0  0.89360832640E+01 -0.24318518174E+01  0.76147094196E+01  0.11989632487E+02  0.51100000000E-03 0. -1.
        -11    1    3    3    0    0  0.15263019706E+02  0.66871642370E+01  0.10263702439E+02  0.19570935698E+02  0.51100000000E-03 0.  1.
        -12    1    3    3    0    0  0.15626210871E+02  0.35809135484E+01 -0.25108759791E+01  0.16226703492E+02  0.00000000000E+00 0.  1.
</event>
<event>
 7    1  0.2783785E-010  0.4778727E+02  0.7816164E-02  0.1312668E+00
        -11   -1    0    0    0    0  0.00000000000E+00  0.00000000000E+00  0.45593999997E+02  0.45594000000E+02  0.51100000000E-03 0. -1.
         11   -1    0    0    0    0 -0.00000000000E+00 -0.00000000000E+00 -0.45593999997E+02  0.45594000000E+02  0.51100000000E-03 0.  1.
    9900012    2    1    2    0    0 -0.27969454379E+02  0.13620725782E+02  0.30262331285E+02  0.47787271390E+02  0.20000001575E+02 0.  0.
        -12    1    1    2    0    0  0.27969454379E+02 -0.13620725782E+02 -0.30262331285E+02  0.43400728610E+02  0.00000000000E+00 0.  1.
         11    1    3    3    0    0 -0.12525190591E+02  0.71461943729E+01  0.92820126951E+01  0.17149468018E+02  0.51100000000E-03 0. -1.
        -11    1    3    3    0    0 -0.88906185814E+01 -0.75406531628E+00  0.18547225258E+02  0.20581819121E+02  0.51100000000E-03 0.  1.
         12    1    3    3    0    0 -0.65536452069E+01  0.72285967254E+01  0.24330933312E+01  0.10055984252E+02  0.00000000000E+00 0. -1.
</event>
<event>
 7    1  0.2783785E-010  0.4778727E+02  0.7816164E-02  0.1312668E+00
        -11   -1    0    0    0    0  0.00000000000E+00  0.00000000000E+00  0.45593999997E+02  0.45594000000E+02  0.51100000000E-03 0.  1.
         11   -1    0    0    0    0 -0.00000000000E+00 -0.00000000000E+00 -0.45593999997E+02  0.45594000000E+02  0.51100000000E-03 0. -1.
    9900012    2    1    2    0    0 -0.97487812931E+01  0.34637187072E+02 -0.24266234529E+02  0.47787267250E+02  0.19999982700E+02 0.  0.
        -12    1    1    2    0    0  0.97487812931E+01 -0.34637187072E+02  0.24266234529E+02  0.43400732750E+02  0.00000000000E+00 0.  1.
         11    1    3    3    0    0  0.56199896552E+00  0.16818483624E+02 -0.47110685435E+01  0.17474879151E+02  0.51100000000E-03 0. -1.
        -11    1    3    3    0    0 -0.81989846148E+00  0.84098878368E+01 -0.12801114989E+02  0.15338415568E+02  0.51100000000E-03 0.  1.
         12    1    3    3    0    0 -0.94908817971E+01  0.94088156116E+01 -0.67540509967E+01  0.14973972531E+02  0.00000000000E+00 0. -1.
</event>
<event>
 7    1  0.2783785E-010  0.4778727E+02  0.7816164E-02  0.1312668E+00
        -11   -1    0    0    0    0  0.00000000000E+00  0.00000000000E+00  0.45593999997E+02  0.45594000000E+02  0.51100000000E-03 0. -1.
         11   -1    0    0    0    0 -0.00000000000E+00 -0.00000000000E+00 -0.45593999997E+02  0.45594000000E+02  0.51100000000E-03 0.  1.
    9900012    2    1    2    0    0  0.37168634332E+02  0.16235903302E+02  0.15443817798E+02  0.47787269104E+02  0.19999991151E+02 0.  0.
        -12    1    1    2    0    0 -0.37168634332E+02 -0.16235903302E+02 -0.15443817798E+02  0.43400730896E+02  0.00000000000E+00 0.  1.
         11    1    3    3    0    0  0.11067358814E+02  0.73389001711E+01  0.49203235013E+01  0.14161760853E+02  0.51100000000E-03 0. -1.
        -11    1    3    3    0    0  0.13061910306E+02  0.98628698561E+01 -0.71684469689E+00  0.16383026864E+02  0.51100000000E-03 0.  1.
         12    1    3    3    0    0  0.13039365212E+02 -0.96586672532E+00  0.11240338994E+02  0.17242481387E+02  0.00000000000E+00 0. -1.
</event>
<event>
 7    1  0.2783785E-010  0.4778727E+02  0.7816164E-02  0.1312668E+00
        -11   -1    0    0    0    0  0.00000000000E+00  0.00000000000E+00  0.45593999997E+02  0.45594000000E+02  0.51100000000E-03 0. -1.
         11   -1    0    0    0    0 -0.00000000000E+00 -0.00000000000E+00 -0.45593999997E+02  0.45594000000E+02  0.51100000000E-03 0.  1.
    9900012    2    1    2    0    0 -0.30412713784E+01 -0.31992277297E+02  0.29169645317E+02  0.47787270212E+02  0.19999996205E+02 0.  0.
        -12    1    1    2    0    0  0.30412713784E+01  0.31992277297E+02 -0.29169645317E+02  0.43400729788E+02  0.00000000000E+00 0.  1.
         11    1    3    3    0    0 -0.64037215468E+00  0.15241032370E+01  0.51690072972E+00  0.17320952049E+01  0.51100000000E-03 0. -1.
        -11    1    3    3    0    0  0.11038606505E+01  0.82408492937E+00  0.36209821036E+00  0.14243383311E+01  0.51100000000E-03 0.  1.
         12    1    3    3    0    0 -0.35047598742E+01 -0.34340465463E+02  0.28290646377E+02  0.44630836676E+02  0.00000000000E+00 0. -1.
</event>
<event>
 7    1  0.2783785E-010  0.4778727E+02  0.7816164E-02  0.1312668E+00
        -11   -1    0    0    0    0  0.00000000000E+00  0.00000000000E+00  0.45593999997E+02  0.45594000000E+02  0.51100000000E-03 0.  1.
         11   -1    0    0    0    0 -0.00000000000E+00 -0.00000000000E+00 -0.45593999997E+02  0.45594000000E+02  0.51100000000E-03 0. -1.
    9900012    2    1    2    0    0 -0.16634336084E+02  0.60501219712E+01 -0.39627240796E+02  0.47787270445E+02  0.19999997266E+02 0.  0.
        -12    1    1    2    0    0  0.16634336084E+02 -0.60501219712E+01  0.39627240796E+02  0.43400729555E+02  0.00000000000E+00 0.  1.
         11    1    3    3    0    0 -0.57461850637E+01  0.89606374932E+01 -0.16958893629E+02  0.20022880423E+02  0.51100000000E-03 0. -1.
        -11    1    3    3    0    0 -0.74031697359E+01 -0.53239875881E+01 -0.21520385516E+02  0.23372607021E+02  0.51100000000E-03 0.  1.
        -12    1    3    3    0    0 -0.34849812840E+01  0.24134720661E+01 -0.11479616516E+01  0.43917829998E+01  0.00000000000E+00 0.  1.
</event>
<event>
 7    1  0.2783785E-010  0.4778725E+02  0.7816164E-02  0.1312668E+00
        -11   -1    0    0    0    0  0.00000000000E+00  0.00000000000E+00  0.45593999997E+02  0.45594000000E+02  0.51100000000E-03 0. -1.
         11   -1    0    0    0    0 -0.00000000000E+00 -0.00000000000E+00 -0.45593999997E+02  0.45594000000E+02  0.51100000000E-03 0.  1.
    9900012    2    1    2    0    0 -0.13092727881E+02 -0.10312011813E+02  0.40073285699E+02  0.47787247268E+02  0.19999891595E+02 0.  0.
        -12    1    1    2    0    0  0.13092727881E+02  0.10312011813E+02 -0.40073285699E+02  0.43400752732E+02  0.00000000000E+00 0.  1.
         11    1    3    3    0    0 -0.70631738028E+01 -0.38433030536E+01  0.98384984959E+01  0.12706512324E+02  0.51100000000E-03 0. -1.
        -11    1    3    3    0    0  0.24828019426E+01 -0.83478085379E+01  0.11578811949E+02  0.14488585138E+02  0.51100000000E-03 0.  1.
        -12    1    3    3    0    0 -0.85123560207E+01  0.18790997781E+01  0.18655975253E+02  0.20592149806E+02  0.00000000000E+00 0.  1.
</event>
<event>
 7    1  0.2783785E-010  0.4778727E+02  0.7816164E-02  0.1312668E+00
        -11   -1    0    0    0    0  0.00000000000E+00  0.00000000000E+00  0.45593999997E+02  0.45594000000E+02  0.51100000000E-03 0.  1.
         11   -1    0    0    0    0 -0.00000000000E+00 -0.00000000000E+00 -0.45593999997E+02  0.45594000000E+02  0.51100000000E-03 0. -1.
    9900012    2    1    2    0    0 -0.40858039109E+02 -0.11954505507E+02  0.84459532623E+01  0.47787266271E+02  0.19999978235E+02 0.  0.
        -12    1    1    2    0    0  0.40858039109E+02  0.11954505507E+02 -0.84459532623E+01  0.43400733729E+02  0.00000000000E+00 0.  1.
         11    1    3    3    0    0 -0.16445125353E+02 -0.48403364736E+01 -0.14507839801E+01  0.17203946625E+02  0.51100000000E-03 0. -1.
        -11    1    3    3    0    0 -0.20469893253E+02 -0.11798519114E+01  0.31006553229E+01  0.20736987342E+02  0.51100000000E-03 0.  1.
        -12    1    3    3    0    0 -0.39430205026E+01 -0.59343171215E+01  0.67960819194E+01  0.98463323039E+01  0.00000000000E+00 0.  1.
</event>
<event>
 7    1  0.2783785E-010  0.4778727E+02  0.7816164E-02  0.1312668E+00
        -11   -1    0    0    0    0  0.00000000000E+00  0.00000000000E+00  0.45593999997E+02  0.45594000000E+02  0.51100000000E-03 0.  1.
         11   -1    0    0    0    0 -0.00000000000E+00 -0.00000000000E+00 -0.45593999997E+02  0.45594000000E+02  0.51100000000E-03 0. -1.
    9900012    2    1    2    0    0  0.18021098088E+02 -0.25294365841E+02 -0.30315980089E+02  0.47787267652E+02  0.19999984532E+02 0.  0.
        -12    1    1    2    0    0 -0.18021098088E+02  0.25294365841E+02  0.30315980089E+02  0.43400732348E+02  0.00000000000E+00 0.  1.
         11    1    3    3    0    0 -0.14430815435E+01 -0.38695579806E+00  0.18768104818E+00  0.15058032965E+01  0.51100000000E-03 0. -1.
        -11    1    3    3    0    0  0.21289661644E+01  0.56876137451E+00 -0.75287329193E+01  0.78446036268E+01  0.51100000000E-03 0.  1.
        -12    1    3    3    0    0  0.17335213467E+02 -0.25476171418E+02 -0.22974928218E+02  0.38436860728E+02  0.00000000000E+00 0.  1.
</event>
<event>
 7    1  0.2783785E-010  0.4778726E+02  0.7816164E-02  0.1312668E+00
        -11   -1    0    0    0    0  0.00000000000E+00  0.00000000000E+00  0.45593999997E+02  0.45594000000E+02  0.51100000000E-03 0.  1.
         11   -1    0    0    0    0 -0.00000000000E+00 -0.00000000000E+00 -0.45593999997E+02  0.45594000000E+02  0.51100000000E-03 0. -1.
    9900012    2    1    2    0    0 -0.18399929574E+02 -0.27435016020E+02 -0.28149362972E+02  0.47787260973E+02  0.19999954080E+02 0.  0.
        -12    1    1    2    0    0  0.18399929574E+02  0.27435016020E+02  0.28149362972E+02  0.43400739027E+02  0.00000000000E+00 0.  1.
         11    1    3    3    0    0 -0.84407394621E+01 -0.17450968933E+02 -0.16329119793E+02  0.25346055962E+02  0.51100000000E-03 0. -1.
        -11    1    3    3    0    0 -0.11376936524E+02 -0.88738164198E+01 -0.48187080631E+01  0.15211812850E+02  0.51100000000E-03 0.  1.
        -12    1    3    3    0    0  0.14177464124E+01 -0.11102306670E+01 -0.70015351164E+01  0.72293921605E+01  0.00000000000E+00 0.  1.
</event>
<event>
 7    1  0.2783785E-010  0.4778728E+02  0.7816164E-02  0.1312668E+00
        -11   -1    0    0    0    0  0.00000000000E+00  0.00000000000E+00  0.45593999997E+02  0.45594000000E+02  0.51100000000E-03 0.  1.
         11   -1    0    0    0    0 -0.00000000000E+00 -0.00000000000E+00 -0.45593999997E+02  0.45594000000E+02  0.51100000000E-03 0. -1.
    9900012    2    1    2    0    0  0.19603648526E+02  0.28812501665E+02 -0.25868118818E+02  0.47787275825E+02  0.20000021797E+02 0.  0.
        -12    1    1    2    0    0 -0.19603648526E+02 -0.28812501665E+02  0.25868118818E+02  0.43400724175E+02  0.00000000000E+00 0.  1.
         11    1    3    3    0    0  0.21368755617E+02  0.26115347647E+02 -0.20200504334E+02  0.39328049468E+02  0.51100000000E-03 0. -1.
        -11    1    3    3    0    0  0.20472543306E+00 -0.15682268126E+01 -0.14112504558E+01  0.21196405235E+01  0.51100000000E-03 0.  1.
        -12    1    3    3    0    0 -0.19698325241E+01  0.42653808308E+01 -0.42563640284E+01  0.63395858340E+01  0.00000000000E+00 0.  1.
</event>
<event>
 7    1  0.2783785E-010  0.4778727E+02  0.7816164E-02  0.1312668E+00
        -11   -1    0    0    0    0  0.00000000000E+00  0.00000000000E+00  0.45593999997E+02  0.45594000000E+02  0.51100000000E-03 0.  1.
         11   -1    0    0    0    0 -0.00000000000E+00 -0.00000000000E+00 -0.45593999997E+02  0.45594000000E+02  0.51100000000E-03 0. -1.
    9900012    2    1    2    0    0 -0.58812608874E+01  0.42612871404E+01 -0.42788727464E+02  0.47787274249E+02  0.20000014609E+02 0.  0.
        -12    1    1    2    0    0  0.58812608874E+01 -0.42612871404E+01  0.42788727464E+02  0.43400725751E+02  0.00000000000E+00 0.  1.
         11    1    3    3    0    0 -0.10059400568E+00  0.17762488437E+01  0.61810457050E+00  0.18834098412E+01  0.51100000000E-03 0.  1.
        -11    1    3    3    0    0  0.35021993623E+01  0.36723333843E+01 -0.10041491990E+02  0.11250910830E+02  0.51100000000E-03 0. -1.
         12    1    3    3    0    0 -0.92828662440E+01 -0.11872950877E+01 -0.33365340045E+02  0.34652953577E+02  0.00000000000E+00 0. -1.
</event>
<event>
 7    1  0.2783785E-010  0.4778727E+02  0.7816164E-02  0.1312668E+00
        -11   -1    0    0    0    0  0.00000000000E+00  0.00000000000E+00  0.45593999997E+02  0.45594000000E+02  0.51100000000E-03 0. -1.
         11   -1    0    0    0    0 -0.00000000000E+00 -0.00000000000E+00 -0.45593999997E+02  0.45594000000E+02  0.51100000000E-03 0.  1.
    9900012    2    1    2    0    0 -0.26131330605E+02  0.25603553553E+02  0.23350271349E+02  0.47787267681E+02  0.19999984667E+02 0.  0.
        -12    1    1    2    0    0  0.26131330605E+02 -0.25603553553E+02 -0.23350271349E+02  0.43400732319E+02  0.00000000000E+00 0.  1.
         11    1    3    3    0    0 -0.18856256833E+02  0.11337376628E+02  0.10604706919E+02  0.24424461911E+02  0.51100000000E-03 0. -1.
        -11    1    3    3    0    0 -0.64854506487E+01  0.13804252274E+02  0.14713826596E+02  0.21192336924E+02  0.51100000000E-03 0.  1.
         12    1    3    3    0    0 -0.78962312306E+00  0.46192465141E+00 -0.19682621655E+01  0.21704688462E+01  0.00000000000E+00 0. -1.
</event>
<event>
 7    1  0.2783785E-010  0.4778727E+02  0.7816164E-02  0.1312668E+00
        -11   -1    0    0    0    0  0.00000000000E+00  0.00000000000E+00  0.45593999997E+02  0.45594000000E+02  0.51100000000E-03 0.  1.
         11   -1    0    0    0    0 -0.00000000000E+00 -0.00000000000E+00 -0.45593999997E+02  0.45594000000E+02  0.51100000000E-03 0. -1.
    9900012    2    1    2    0    0  0.28279108171E+02 -0.11323833119E+02 -0.30914172905E+02  0.47787271413E+02  0.20000001681E+02 0.  0.
        -12    1    1    2    0    0 -0.28279108171E+02  0.11323833119E+02  0.30914172905E+02  0.43400728587E+02  0.00000000000E+00 0.  1.
         11    1    3    3    0    0  0.17161598045E+02 -0.93713397656E+00 -0.14108257854E+02  0.22236042982E+02  0.51100000000E-03 0. -1.
        -11    1    3    3    0    0  0.10592480685E+02 -0.96511139481E+01 -0.74481217268E+01  0.16149896749E+02  0.51100000000E-03 0.  1.
        -12    1    3    3    0    0  0.52502944083E+00 -0.73558519438E+00 -0.93577933242E+01  0.94013316818E+01  0.00000000000E+00 0.  1.
</event>
<event>
 7    1  0.2783785E-010  0.4778728E+02  0.7816164E-02  0.1312668E+00
        -11   -1    0    0    0    0  0.00000000000E+00  0.00000000000E+00  0.45593999997E+02  0.45594000000E+02  0.51100000000E-03 0.  1.
         11   -1    0    0    0    0 -0.00000000000E+00 -0.00000000000E+00 -0.45593999997E+02  0.45594000000E+02  0.51100000000E-03 0. -1.
    9900012    2    1    2    0    0 -0.10141902710E+02 -0.39770258658E+00 -0.42197233856E+02  0.47787275317E+02  0.20000019480E+02 0.  0.
        -12    1    1    2    0    0  0.10141902710E+02  0.39770258658E+00  0.42197233856E+02  0.43400724683E+02  0.00000000000E+00 0.  1.
         11    1    3    3    0    0 -0.11790622887E+02 -0.12492139178E+01 -0.17530925559E+02  0.21163947522E+02  0.51100000000E-03 0. -1.
        -11    1    3    3    0    0 -0.69688386782E+00  0.50408787489E+01 -0.10557542385E+02  0.11719974708E+02  0.51100000000E-03 0.  1.
         12    1    3    3    0    0  0.23456040444E+01 -0.41893674177E+01 -0.14108765911E+02  0.14903353087E+02  0.00000000000E+00 0. -1.
</event>
<event>
 7    1  0.2783785E-010  0.4778727E+02  0.7816164E-02  0.1312668E+00
        -11   -1    0    0    0    0  0.00000000000E+00  0.00000000000E+00  0.45593999997E+02  0.45594000000E+02  0.51100000000E-03 0.  1.
         11   -1    0    0    0    0 -0.00000000000E+00 -0.00000000000E+00 -0.45593999997E+02  0.45594000000E+02  0.51100000000E-03 0. -1.
    9900012    2    1    2    0    0 -0.32533059919E+02  0.27273096581E+02 -0.90222720775E+01  0.47787272146E+02  0.20000005022E+02 0.  0.
        -12    1    1    2    0    0  0.32533059919E+02 -0.27273096581E+02  0.90222720775E+01  0.43400727854E+02  0.00000000000E+00 0.  1.
         11    1    3    3    0    0 -0.20265779435E+02  0.18856112382E+02 -0.98203913282E+01  0.29371667919E+02  0.51100000000E-03 0. -1.
        -11    1    3    3    0    0 -0.74345484019E+01  0.94965569280E+01  0.37753495745E+01  0.12637656749E+02  0.51100000000E-03 0.  1.
        -12    1    3    3    0    0 -0.48327320825E+01 -0.10795727286E+01 -0.29772303238E+01  0.57779474780E+01  0.00000000000E+00 0.  1.
</event>
<event>
 7    1  0.2783785E-010  0.4778727E+02  0.7816164E-02  0.1312668E+00
        -11   -1    0    0    0    0  0.00000000000E+00  0.00000000000E+00  0.45593999997E+02  0.45594000000E+02  0.51100000000E-03 0.  1.
         11   -1    0    0    0    0 -0.00000000000E+00 -0.00000000000E+00 -0.45593999997E+02  0.45594000000E+02  0.51100000000E-03 0. -1.
    9900012    2    1    2    0    0 -0.42936948836E+02  0.27839514267E+01  0.56825738408E+01  0.47787267214E+02  0.19999982536E+02 0.  0.
        -12    1    1    2    0    0  0.42936948836E+02 -0.27839514267E+01 -0.56825738408E+01  0.43400732786E+02  0.00000000000E+00 0.  1.
         11    1    3    3    0    0 -0.28953177062E+02 -0.98177590352E+00 -0.26628765417E+01  0.29091944893E+02  0.51100000000E-03 0. -1.
        -11    1    3    3    0    0 -0.44000342506E+01 -0.20782429625E+01  0.28192601549E+00  0.48743079259E+01  0.51100000000E-03 0.  1.
        -12    1    3    3    0    0 -0.95837375232E+01  0.58439702927E+01  0.80635243669E+01  0.13821014395E+02  0.00000000000E+00 0.  1.
</event>
<event>
 7    1  0.2783785E-010  0.4778727E+02  0.7816164E-02  0.1312668E+00
        -11   -1    0    0    0    0  0.00000000000E+00  0.00000000000E+00  0.45593999997E+02  0.45594000000E+02  0.51100000000E-03 0.  1.
         11   -1    0    0    0    0 -0.00000000000E+00 -0.00000000000E+00 -0.45593999997E+02  0.45594000000E+02  0.51100000000E-03 0. -1.
    9900012    2    1    2    0    0 -0.20516263113E+02 -0.35789501949E+02 -0.13483977391E+02  0.47787272493E+02  0.20000006603E+02 0.  0.
        -12    1    1    2    0    0  0.20516263113E+02  0.35789501949E+02  0.13483977391E+02  0.43400727507E+02  0.00000000000E+00 0.  1.
         11    1    3    3    0    0 -0.18394855541E+01 -0.16194213936E+02 -0.72888041475E+01  0.17853933411E+02  0.51100000000E-03 0. -1.
        -11    1    3    3    0    0 -0.14052468511E+02 -0.19708590171E+02 -0.31839933410E+01  0.24413893824E+02  0.51100000000E-03 0.  1.
         12    1    3    3    0    0 -0.46243090476E+01  0.11330215735E+00 -0.30111799026E+01  0.55194452577E+01  0.00000000000E+00 0. -1.
</event>
<event>
 7    1  0.2783785E-010  0.4778727E+02  0.7816164E-02  0.1312668E+00
        -11   -1    0    0    0    0  0.00000000000E+00  0.00000000000E+00  0.45593999997E+02  0.45594000000E+02  0.51100000000E-03 0. -1.
         11   -1    0    0    0    0 -0.00000000000E+00 -0.00000000000E+00 -0.45593999997E+02  0.45594000000E+02  0.51100000000E-03 0.  1.
    9900012    2    1    2    0    0 -0.87140222075E+01  0.36017034387E+02  0.22593423535E+02  0.47787265720E+02  0.19999975722E+02 0.  0.
        -12    1    1    2    0    0  0.87140222075E+01 -0.36017034387E+02 -0.22593423535E+02  0.43400734280E+02  0.00000000000E+00 0.  1.
         11    1    3    3    0    0 -0.77468219268E+01  0.11913993316E+02  0.16946548022E+01  0.14311825245E+02  0.51100000000E-03 0. -1.
        -11    1    3    3    0    0 -0.13251586578E+01  0.78231333563E+01  0.13760539523E+01  0.80530109723E+01  0.51100000000E-03 0.  1.
         12    1    3    3    0    0  0.35795837705E+00  0.16279907715E+02  0.19522714780E+02  0.25422429502E+02  0.00000000000E+00 0. -1.
</event>
<event>
 7    1  0.2783785E-010  0.4778727E+02  0.7816164E-02  0.1312668E+00
        -11   -1    0    0    0    0  0.00000000000E+00  0.00000000000E+00  0.45593999997E+02  0.45594000000E+02  0.51100000000E-03 0.  1.
         11   -1    0    0    0    0 -0.00000000000E+00 -0.00000000000E+00 -0.45593999997E+02  0.45594000000E+02  0.51100000000E-03 0. -1.
    9900012    2    1    2    0    0 -0.16846552075E+02 -0.38370740326E+02 -0.11291724585E+02  0.47787273347E+02  0.20000010496E+02 0.  0.
        -12    1    1    2    0    0  0.16846552075E+02  0.38370740326E+02  0.11291724585E+02  0.43400726653E+02  0.00000000000E+00 0.  1.
         11    1    3    3    0    0 -0.11604468511E+02 -0.19151534321E+02 -0.14081096009E+02  0.26452263066E+02  0.51100000000E-03 0. -1.
        -11    1    3    3    0    0 -0.60587017670E+01 -0.13788325535E+02 -0.24065492446E+00  0.15062659234E+02  0.51100000000E-03 0.  1.
         12    1    3    3    0    0  0.81661820314E+00 -0.54308804702E+01  0.30300263483E+01  0.62723510459E+01  0.00000000000E+00 0. -1.
</event>
<event>
 7    1  0.2783785E-010  0.4778727E+02  0.7816164E-02  0.1312668E+00
        -11   -1    0    0    0    0  0.00000000000E+00  0.00000000000E+00  0.45593999997E+02  0.45594000000E+02  0.51100000000E-03 0.  1.
         11   -1    0    0    0    0 -0.00000000000E+00 -0.00000000000E+00 -0.45593999997E+02  0.45594000000E+02  0.51100000000E-03 0. -1.
    9900012    2    1    2    0    0  0.11104203758E+02 -0.13616319762E+02 -0.39685205687E+02  0.47787273562E+02  0.20000011477E+02 0.  0.
        -12    1    1    2    0    0 -0.11104203758E+02  0.13616319762E+02  0.39685205687E+02  0.43400726438E+02  0.00000000000E+00 0.  1.
         11    1    3    3    0    0  0.70572795201E+01 -0.10160603177E+02 -0.35876097301E+02  0.37949142401E+02  0.51100000000E-03 0. -1.
        -11    1    3    3    0    0  0.20717040726E+01 -0.56302398243E+01 -0.33303222461E+01  0.68616765275E+01  0.51100000000E-03 0.  1.
        -12    1    3    3    0    0  0.19752201651E+01  0.21745232390E+01 -0.47878613992E+00  0.29764546335E+01  0.00000000000E+00 0.  1.
</event>
<event>
 7    1  0.2783785E-010  0.4778727E+02  0.7816164E-02  0.1312668E+00
        -11   -1    0    0    0    0  0.00000000000E+00  0.00000000000E+00  0.45593999997E+02  0.45594000000E+02  0.51100000000E-03 0.  1.
         11   -1    0    0    0    0 -0.00000000000E+00 -0.00000000000E+00 -0.45593999997E+02  0.45594000000E+02  0.51100000000E-03 0. -1.
    9900012    2    1    2    0    0 -0.33234300886E+01  0.69564977357E+01 -0.42710483827E+02  0.47787268704E+02  0.19999989327E+02 0.  0.
        -12    1    1    2    0    0  0.33234300886E+01 -0.69564977357E+01  0.42710483827E+02  0.43400731296E+02  0.00000000000E+00 0.  1.
         11    1    3    3    0    0 -0.56849681847E+00  0.59388855427E+01 -0.16580638144E+02  0.17621325479E+02  0.51100000000E-03 0. -1.
        -11    1    3    3    0    0 -0.59224931845E+01 -0.53318768420E+01 -0.13302963117E+02  0.15507213294E+02  0.51100000000E-03 0.  1.
        -12    1    3    3    0    0  0.31675599144E+01  0.63494890350E+01 -0.12826882566E+02  0.14658729931E+02  0.00000000000E+00 0.  1.
</event>
<event>
 7    1  0.2783785E-010  0.4778727E+02  0.7816164E-02  0.1312668E+00
        -11   -1    0    0    0    0  0.00000000000E+00  0.00000000000E+00  0.45593999997E+02  0.45594000000E+02  0.51100000000E-03 0. -1.
         11   -1    0    0    0    0 -0.00000000000E+00 -0.00000000000E+00 -0.45593999997E+02  0.45594000000E+02  0.51100000000E-03 0.  1.
    9900012    2    1    2    0    0  0.11538882200E+02  0.61670279000E+01  0.41381700561E+02  0.47787272161E+02  0.20000005093E+02 0.  0.
        -12    1    1    2    0    0 -0.11538882200E+02 -0.61670279000E+01 -0.41381700561E+02  0.43400727839E+02  0.00000000000E+00 0.  1.
         11    1    3    3    0    0 -0.98010402557E+00  0.23546453913E+01  0.21451892166E+02  0.21602977494E+02  0.51100000000E-03 0. -1.
        -11    1    3    3    0    0  0.14460354098E+02  0.37581586202E+01  0.16633696816E+02  0.22358565851E+02  0.51100000000E-03 0.  1.
        -12    1    3    3    0    0 -0.19413678718E+01  0.54223888581E-01  0.32961115786E+01  0.38257288172E+01  0.00000000000E+00 0.  1.
</event>
<event>
 7    1  0.2783785E-010  0.4778727E+02  0.7816164E-02  0.1312668E+00
        -11   -1    0    0    0    0  0.00000000000E+00  0.00000000000E+00  0.45593999997E+02  0.45594000000E+02  0.51100000000E-03 0.  1.
         11   -1    0    0    0    0 -0.00000000000E+00 -0.00000000000E+00 -0.45593999997E+02  0.45594000000E+02  0.51100000000E-03 0. -1.
    9900012    2    1    2    0    0 -0.17087430368E+02  0.32057908568E+02 -0.23747294474E+02  0.47787265293E+02  0.19999973775E+02 0.  0.
        -12    1    1    2    0    0  0.17087430368E+02 -0.32057908568E+02  0.23747294474E+02  0.43400734707E+02  0.00000000000E+00 0.  1.
         11    1    3    3    0    0 -0.93160004414E+01  0.11503004125E+02 -0.10312714454E+02  0.18040483580E+02  0.51100000000E-03 0. -1.
        -11    1    3    3    0    0  0.21853178537E+01  0.10898246252E+02 -0.11049402258E+02  0.15672800516E+02  0.51100000000E-03 0.  1.
        -12    1    3    3    0    0 -0.99567477800E+01  0.96566581900E+01 -0.23851777612E+01  0.14073981196E+02  0.00000000000E+00 0.  1.
</event>
<event>
 7    1  0.2783785E-010  0.4778726E+02  0.7816164E-02  0.1312668E+00
        -11   -1    0    0    0    0  0.00000000000E+00  0.00000000000E+00  0.45593999997E+02  0.45594000000E+02  0.51100000000E-03 0. -1.
         11   -1    0    0    0    0 -0.00000000000E+00 -0.00000000000E+00 -0.45593999997E+02  0.45594000000E+02  0.51100000000E-03 0.  1.
    9900012    2    1    2    0    0 -0.26094848616E+02 -0.32987292500E+02  0.10701472158E+02  0.47787261561E+02  0.19999956759E+02 0.  0.
        -12    1    1    2    0    0  0.26094848616E+02  0.32987292500E+02 -0.10701472158E+02  0.43400738439E+02  0.00000000000E+00 0.  1.
         11    1    3    3    0    0  0.11161854011E+01 -0.23792143577E+00 -0.71502172763E+00  0.13467489711E+01  0.51100000000E-03 0. -1.
        -11    1    3    3    0    0 -0.20046348235E+02 -0.12730047721E+02  0.56508184035E+01  0.24409873851E+02  0.51100000000E-03 0.  1.
         12    1    3    3    0    0 -0.71646857824E+01 -0.20019323343E+02  0.57656754817E+01  0.22030638739E+02  0.00000000000E+00 0. -1.
</event>
<event>
 7    1  0.2783785E-010  0.4778729E+02  0.7816164E-02  0.1312668E+00
        -11   -1    0    0    0    0  0.00000000000E+00  0.00000000000E+00  0.45593999997E+02  0.45594000000E+02  0.51100000000E-03 0. -1.
         11   -1    0    0    0    0 -0.00000000000E+00 -0.00000000000E+00 -0.45593999997E+02  0.45594000000E+02  0.51100000000E-03 0.  1.
    9900012    2    1    2    0    0  0.41116746904E+02  0.67358050490E+01  0.12151691014E+02  0.47787291018E+02  0.20000091067E+02 0.  0.
        -12    1    1    2    0    0 -0.41116746904E+02 -0.67358050490E+01 -0.12151691014E+02  0.43400708982E+02  0.00000000000E+00 0.  1.
         11    1    3    3    0    0  0.22473746637E+02  0.12570440972E+02  0.73148830636E+01  0.26769250804E+02  0.51100000000E-03 0. -1.
        -11    1    3    3    0    0  0.22779131939E+01  0.74630813982E+00 -0.75670249031E+00  0.25136553619E+01  0.51100000000E-03 0.  1.
        -12    1    3    3    0    0  0.16365087074E+02 -0.65809440630E+01  0.55935104402E+01  0.18504384852E+02  0.00000000000E+00 0.  1.
</event>
<event>
 7    1  0.2783785E-010  0.4778727E+02  0.7816164E-02  0.1312668E+00
        -11   -1    0    0    0    0  0.00000000000E+00  0.00000000000E+00  0.45593999997E+02  0.45594000000E+02  0.51100000000E-03 0.  1.
         11   -1    0    0    0    0 -0.00000000000E+00 -0.00000000000E+00 -0.45593999997E+02  0.45594000000E+02  0.51100000000E-03 0. -1.
    9900012    2    1    2    0    0  0.12286498359E+02 -0.13388164675E+02 -0.39413483584E+02  0.47787266325E+02  0.19999978482E+02 0.  0.
        -12    1    1    2    0    0 -0.12286498359E+02  0.13388164675E+02  0.39413483584E+02  0.43400733675E+02  0.00000000000E+00 0.  1.
         11    1    3    3    0    0  0.30055070608E+01 -0.46679950961E+01 -0.16519027910E+02  0.17427034580E+02  0.51100000000E-03 0. -1.
        -11    1    3    3    0    0 -0.17979333114E+01 -0.47212164574E+01 -0.52487827933E+00  0.50791678943E+01  0.51100000000E-03 0.  1.
        -12    1    3    3    0    0  0.11078924610E+02 -0.39989531217E+01 -0.22369577395E+02  0.25281063850E+02  0.00000000000E+00 0.  1.
</event>
<event>
 7    1  0.2783785E-010  0.4778729E+02  0.7816164E-02  0.1312668E+00
        -11   -1    0    0    0    0  0.00000000000E+00  0.00000000000E+00  0.45593999997E+02  0.45594000000E+02  0.51100000000E-03 0.  1.
         11   -1    0    0    0    0 -0.00000000000E+00 -0.00000000000E+00 -0.45593999997E+02  0.45594000000E+02  0.51100000000E-03 0. -1.
    9900012    2    1    2    0    0 -0.17714476071E+01 -0.14905269639E+02 -0.40722427801E+02  0.47787294757E+02  0.20000108113E+02 0.  0.
        -12    1    1    2    0    0  0.17714476071E+01  0.14905269639E+02  0.40722427801E+02  0.43400705243E+02  0.00000000000E+00 0.  1.
         11    1    3    3    0    0 -0.46954202951E+01 -0.46607878731E+01 -0.28654412584E+02  0.29408251838E+02  0.51100000000E-03 0. -1.
        -11    1    3    3    0    0  0.17902484643E+01  0.79864732500E+00 -0.45983408889E+01  0.49987564760E+01  0.51100000000E-03 0.  1.
        -12    1    3    3    0    0  0.11337242236E+01 -0.11043129091E+02 -0.74696743276E+01  0.13380286443E+02  0.00000000000E+00 0.  1.
</event>
<event>
 7    1  0.2783785E-010  0.4778727E+02  0.7816164E-02  0.1312668E+00
        -11   -1    0    0    0    0  0.00000000000E+00  0.00000000000E+00  0.45593999997E+02  0.45594000000E+02  0.51100000000E-03 0.  1.
         11   -1    0    0    0    0 -0.00000000000E+00 -0.00000000000E+00 -0.45593999997E+02  0.45594000000E+02  0.51100000000E-03 0. -1.
    9900012    2    1    2    0    0  0.34658001898E+00 -0.14546594986E+02 -0.40888874055E+02  0.47787267692E+02  0.19999984716E+02 0.  0.
        -12    1    1    2    0    0 -0.34658001898E+00  0.14546594986E+02  0.40888874055E+02  0.43400732308E+02  0.00000000000E+00 0.  1.
         11    1    3    3    0    0  0.49237120238E+01 -0.25364774301E+01 -0.14485059145E+02  0.15507855962E+02  0.51100000000E-03 0. -1.
        -11    1    3    3    0    0 -0.34720591323E+01 -0.93912356451E+01 -0.59875973328E+01  0.11666268625E+02  0.51100000000E-03 0.  1.
        -12    1    3    3    0    0 -0.11050728725E+01 -0.26188819109E+01 -0.20416217576E+02  0.20613143104E+02  0.00000000000E+00 0.  1.
</event>
<event>
 7    1  0.2783785E-010  0.4778728E+02  0.7816164E-02  0.1312668E+00
        -11   -1    0    0    0    0  0.00000000000E+00  0.00000000000E+00  0.45593999997E+02  0.45594000000E+02  0.51100000000E-03 0.  1.
         11   -1    0    0    0    0 -0.00000000000E+00 -0.00000000000E+00 -0.45593999997E+02  0.45594000000E+02  0.51100000000E-03 0. -1.
    9900012    2    1    2    0    0 -0.20468724587E+02 -0.19561621585E+02 -0.32893723334E+02  0.47787276964E+02  0.20000026991E+02 0.  0.
        -12    1    1    2    0    0  0.20468724587E+02  0.19561621585E+02  0.32893723334E+02  0.43400723036E+02  0.00000000000E+00 0.  1.
         11    1    3    3    0    0 -0.64964738256E+01 -0.11034184954E+02 -0.21872173114E+02  0.25344612184E+02  0.51100000000E-03 0. -1.
        -11    1    3    3    0    0  0.14578601700E+00 -0.13661297577E+01  0.16630449771E+01  0.21571469433E+01  0.51100000000E-03 0.  1.
        -12    1    3    3    0    0 -0.14118036779E+02 -0.71613068737E+01 -0.12684595197E+02  0.20285517837E+02  0.00000000000E+00 0.  1.
</event>
<event>
 7    1  0.2783785E-010  0.4778727E+02  0.7816164E-02  0.1312668E+00
        -11   -1    0    0    0    0  0.00000000000E+00  0.00000000000E+00  0.45593999997E+02  0.45594000000E+02  0.51100000000E-03 0. -1.
         11   -1    0    0    0    0 -0.00000000000E+00 -0.00000000000E+00 -0.45593999997E+02  0.45594000000E+02  0.51100000000E-03 0.  1.
    9900012    2    1    2    0    0  0.19469007039E+02  0.31005021411E+02  0.23308151598E+02  0.47787268225E+02  0.19999987143E+02 0.  0.
        -12    1    1    2    0    0 -0.19469007039E+02 -0.31005021411E+02 -0.23308151598E+02  0.43400731775E+02  0.00000000000E+00 0.  1.
         11    1    3    3    0    0  0.21437874718E+02  0.29755729536E+02  0.16335241819E+02  0.40147553327E+02  0.51100000000E-03 0. -1.
        -11    1    3    3    0    0 -0.31877418094E-01 -0.27672491001E+00  0.26368431960E+01  0.26515156320E+01  0.51100000000E-03 0.  1.
         12    1    3    3    0    0 -0.19369902611E+01  0.15260167847E+01  0.43360665826E+01  0.49881992650E+01  0.00000000000E+00 0. -1.
</event>
<event>
 7    1  0.2783785E-010  0.4778728E+02  0.7816164E-02  0.1312668E+00
        -11   -1    0    0    0    0  0.00000000000E+00  0.00000000000E+00  0.45593999997E+02  0.45594000000E+02  0.51100000000E-03 0.  1.
         11   -1    0    0    0    0 -0.00000000000E+00 -0.00000000000E+00 -0.45593999997E+02  0.45594000000E+02  0.51100000000E-03 0. -1.
    9900012    2    1    2    0    0 -0.21773740989E+02  0.54491788695E+01 -0.37146107477E+02  0.47787278258E+02  0.20000032890E+02 0.  0.
        -12    1    1    2    0    0  0.21773740989E+02 -0.54491788695E+01  0.37146107477E+02  0.43400721742E+02  0.00000000000E+00 0.  1.
         11    1    3    3    0    0 -0.18050990485E+02  0.88046894403E+01 -0.18813845606E+02  0.27519476746E+02  0.51100000000E-03 0. -1.
        -11    1    3    3    0    0 -0.33500673004E+01  0.58001907284E+00 -0.13983169958E+02  0.14390566889E+02  0.51100000000E-03 0.  1.
         12    1    3    3    0    0 -0.37268320354E+00 -0.39355296436E+01 -0.43490919130E+01  0.58772346230E+01  0.00000000000E+00 0. -1.
</event>
<event>
 7    1  0.2783785E-010  0.4778727E+02  0.7816164E-02  0.1312668E+00
        -11   -1    0    0    0    0  0.00000000000E+00  0.00000000000E+00  0.45593999997E+02  0.45594000000E+02  0.51100000000E-03 0.  1.
         11   -1    0    0    0    0 -0.00000000000E+00 -0.00000000000E+00 -0.45593999997E+02  0.45594000000E+02  0.51100000000E-03 0. -1.
    9900012    2    1    2    0    0  0.22161270469E+02  0.34654080933E+02 -0.13841819699E+02  0.47787271819E+02  0.20000003530E+02 0.  0.
        -12    1    1    2    0    0 -0.22161270469E+02 -0.34654080933E+02  0.13841819699E+02  0.43400728181E+02  0.00000000000E+00 0.  1.
         11    1    3    3    0    0  0.59397387697E+01  0.58606926254E+01 -0.81371179187E+01  0.11655080565E+02  0.51100000000E-03 0. -1.
        -11    1    3    3    0    0  0.87232075800E+01  0.69180762735E+01  0.28219395375E+01  0.11485533197E+02  0.51100000000E-03 0.  1.
         12    1    3    3    0    0  0.74983241193E+01  0.21875312034E+02 -0.85266413177E+01  0.24646658056E+02  0.00000000000E+00 0. -1.
</event>
<event>
 7    1 -0.2783785E-010  0.4778727E+02  0.7816164E-02  0.1312668E+00
        -11   -1    0    0    0    0  0.00000000000E+00  0.00000000000E+00  0.45593999997E+02  0.45594000000E+02  0.51100000000E-03 0.  1.
         11   -1    0    0    0    0 -0.00000000000E+00 -0.00000000000E+00 -0.45593999997E+02  0.45594000000E+02  0.51100000000E-03 0. -1.
    9900012    2    1    2    0    0  0.27177939393E+02 -0.41501064076E+01 -0.33582137661E+02  0.47787265643E+02  0.19999975371E+02 0.  0.
        -12    1    1    2    0    0 -0.27177939393E+02  0.41501064076E+01  0.33582137661E+02  0.43400734357E+02  0.00000000000E+00 0.  1.
         11    1    3    3    0    0  0.15795319260E+02  0.53254099005E+01 -0.16602049944E+02  0.23526159137E+02  0.51100000000E-03 0. -1.
        -11    1    3    3    0    0 -0.11738736231E+01 -0.14312692364E+01 -0.43188863819E+01  0.46988605800E+01  0.51100000000E-03 0.  1.
         12    1    3    3    0    0  0.12556493756E+02 -0.80442470718E+01 -0.12661201335E+02  0.19562245925E+02  0.00000000000E+00 0. -1.
</event>
<event>
 7    1  0.2783785E-010  0.4778727E+02  0.7816164E-02  0.1312668E+00
        -11   -1    0    0    0    0  0.00000000000E+00  0.00000000000E+00  0.45593999997E+02  0.45594000000E+02  0.51100000000E-03 0.  1.
         11   -1    0    0    0    0 -0.00000000000E+00 -0.00000000000E+00 -0.45593999997E+02  0.45594000000E+02  0.51100000000E-03 0. -1.
    9900012    2    1    2    0    0  0.11814991646E+02 -0.38169215851E+02  0.16945214591E+02  0.47787270008E+02  0.19999995276E+02 0.  0.
        -12    1    1    2    0    0 -0.11814991646E+02  0.38169215851E+02 -0.16945214591E+02  0.43400729992E+02  0.00000000000E+00 0.  1.
         11    1    3    3    0    0  0.47982470935E+00 -0.46741843027E+01  0.23069516288E+00  0.47044076318E+01  0.51100000000E-03 0. -1.
        -11    1    3    3    0    0  0.11553164707E+02 -0.95559816886E+01  0.23839780638E+01  0.15181427879E+02  0.51100000000E-03 0.  1.
         12    1    3    3    0    0 -0.21799777077E+00 -0.23939049860E+02  0.14330541364E+02  0.27901434497E+02  0.00000000000E+00 0. -1.
</event>
<event>
 7    1  0.2783785E-010  0.4778727E+02  0.7816164E-02  0.1312668E+00
        -11   -1    0    0    0    0  0.00000000000E+00  0.00000000000E+00  0.45593999997E+02  0.45594000000E+02  0.51100000000E-03 0.  1.
         11   -1    0    0    0    0 -0.00000000000E+00 -0.00000000000E+00 -0.45593999997E+02  0.45594000000E+02  0.51100000000E-03 0. -1.
    9900012    2    1    2    0    0 -0.39589258924E+01 -0.21611394274E+02 -0.37428570619E+02  0.47787270106E+02  0.19999995722E+02 0.  0.
        -12    1    1    2    0    0  0.39589258924E+01  0.21611394274E+02  0.37428570619E+02  0.43400729894E+02  0.00000000000E+00 0.  1.
         11    1    3    3    0    0  0.33108962863E+01 -0.25011720309E+01 -0.51819801488E+01  0.66385852613E+01  0.51100000000E-03 0. -1.
        -11    1    3    3    0    0 -0.10116682339E+02 -0.57223813926E+01 -0.11967165178E+02  0.16682504399E+02  0.51100000000E-03 0.  1.
        -12    1    3    3    0    0  0.28468601606E+01 -0.13387840851E+02 -0.20279425293E+02  0.24466180446E+02  0.00000000000E+00 0.  1.
</event>
<event>
 7    1  0.2783785E-010  0.4778727E+02  0.7816164E-02  0.1312668E+00
        -11   -1    0    0    0    0  0.00000000000E+00  0.00000000000E+00  0.45593999997E+02  0.45594000000E+02  0.51100000000E-03 0.  1.
         11   -1    0    0    0    0 -0.00000000000E+00 -0.00000000000E+00 -0.45593999997E+02  0.45594000000E+02  0.51100000000E-03 0. -1.
    9900012    2    1    2    0    0 -0.35542067021E+02 -0.90214729048E+00 -0.24891184071E+02  0.47787269105E+02  0.19999991155E+02 0.  0.
        -12    1    1    2    0    0  0.35542067021E+02  0.90214729048E+00  0.24891184071E+02  0.43400730895E+02  0.00000000000E+00 0.  1.
         11    1    3    3    0    0 -0.36839063553E+01  0.11535200812E+01  0.11419491737E+01  0.40256456362E+01  0.51100000000E-03 0. -1.
        -11    1    3    3    0    0 -0.38899626116E+01 -0.25850352661E+01  0.10920761157E+01  0.47965453141E+01  0.51100000000E-03 0.  1.
         12    1    3    3    0    0 -0.27968198054E+02  0.52936789438E+00 -0.27125209360E+02  0.38965078154E+02  0.00000000000E+00 0. -1.
</event>
<event>
 7    1  0.4981946E-010  0.4778727E+02  0.7816164E-02  0.1312668E+00
        -11   -1    0    0    0    0  0.00000000000E+00  0.00000000000E+00  0.45593999997E+02  0.45594000000E+02  0.51100000000E-03 0. -1.
         11   -1    0    0    0    0 -0.00000000000E+00 -0.00000000000E+00 -0.45593999997E+02  0.45594000000E+02  0.51100000000E-03 0.  1.
    9900012    2    1    2    0    0 -0.79456545625E+01 -0.34404075727E+02  0.25235874134E+02  0.47787271937E+02  0.20000004071E+02 0.  0.
        -12    1    1    2    0    0  0.79456545625E+01  0.34404075727E+02 -0.25235874134E+02  0.43400728063E+02  0.00000000000E+00 0.  1.
         11    1    3    3    0    0 -0.48440676521E+01 -0.26469296621E+02  0.18867386634E+02  0.32864371798E+02  0.51100000000E-03 0. -1.
        -11    1    3    3    0    0 -0.19300784238E+00 -0.69395656344E+01 -0.92919667277E+00  0.70041580464E+01  0.51100000000E-03 0.  1.
        -12    1    3    3    0    0 -0.29085790681E+01 -0.99521347178E+00  0.72976841726E+01  0.79187420929E+01  0.00000000000E+00 0.  1.
</event>
<event>
 7    1  0.2783785E-010  0.4778727E+02  0.7816164E-02  0.1312668E+00
        -11   -1    0    0    0    0  0.00000000000E+00  0.00000000000E+00  0.45593999997E+02  0.45594000000E+02  0.51100000000E-03 0. -1.
         11   -1    0    0    0    0 -0.00000000000E+00 -0.00000000000E+00 -0.45593999997E+02  0.45594000000E+02  0.51100000000E-03 0.  1.
    9900012    2    1    2    0    0 -0.38647480018E+02  0.12334274032E+02 -0.15422743838E+02  0.47787273565E+02  0.20000011491E+02 0.  0.
        -12    1    1    2    0    0  0.38647480018E+02 -0.12334274032E+02  0.15422743838E+02  0.43400726435E+02  0.00000000000E+00 0.  1.
         11    1    3    3    0    0 -0.90397325381E+00  0.57838236839E+00  0.27815716400E+01  0.29814149086E+01  0.51100000000E-03 0.  1.
        -11    1    3    3    0    0 -0.19520043072E+02  0.56902769226E+01 -0.15154458032E+02  0.25358803826E+02  0.51100000000E-03 0. -1.
         12    1    3    3    0    0 -0.18223463692E+02  0.60656147411E+01 -0.30498574463E+01  0.19447054830E+02  0.00000000000E+00 0. -1.
</event>
<event>
 7    1  0.2783785E-010  0.4778727E+02  0.7816164E-02  0.1312668E+00
        -11   -1    0    0    0    0  0.00000000000E+00  0.00000000000E+00  0.45593999997E+02  0.45594000000E+02  0.51100000000E-03 0.  1.
         11   -1    0    0    0    0 -0.00000000000E+00 -0.00000000000E+00 -0.45593999997E+02  0.45594000000E+02  0.51100000000E-03 0. -1.
    9900012    2    1    2    0    0 -0.15707031312E+02  0.39687923134E+02 -0.78601002482E+01  0.47787271305E+02  0.20000001188E+02 0.  0.
        -12    1    1    2    0    0  0.15707031312E+02 -0.39687923134E+02  0.78601002482E+01  0.43400728695E+02  0.00000000000E+00 0.  1.
         11    1    3    3    0    0 -0.81370826343E+01  0.24871023452E+02 -0.63263930447E+01  0.26922168757E+02  0.51100000000E-03 0. -1.
        -11    1    3    3    0    0 -0.15153497845E+01  0.38673229567E+01 -0.62410170917E+01  0.74968504334E+01  0.51100000000E-03 0.  1.
        -12    1    3    3    0    0 -0.60545988927E+01  0.10949576726E+02  0.47073098881E+01  0.13368252115E+02  0.00000000000E+00 0.  1.
</event>
<event>
 7    1  0.2783785E-010  0.4778727E+02  0.7816164E-02  0.1312668E+00
        -11   -1    0    0    0    0  0.00000000000E+00  0.00000000000E+00  0.45593999997E+02  0.45594000000E+02  0.51100000000E-03 0. -1.
         11   -1    0    0    0    0 -0.00000000000E+00 -0.00000000000E+00 -0.45593999997E+02  0.45594000000E+02  0.51100000000E-03 0.  1.
    9900012    2    1    2    0    0 -0.53365739284E+01  0.42805900201E+02  0.47748546529E+01  0.47787270164E+02  0.19999995988E+02 0.  0.
        -12    1    1    2    0    0  0.53365739284E+01 -0.42805900201E+02 -0.47748546529E+01  0.43400729836E+02  0.00000000000E+00 0.  1.
         11    1    3    3    0    0 -0.60861769663E+01  0.28300634116E+02  0.51090452218E+01  0.29395063952E+02  0.51100000000E-03 0. -1.
        -11    1    3    3    0    0  0.13449261897E+01  0.10759669760E+02  0.49239401372E+01  0.11909009469E+02  0.51100000000E-03 0.  1.
        -12    1    3    3    0    0 -0.59532315177E+00  0.37455963252E+01 -0.52581307061E+01  0.64831967431E+01  0.00000000000E+00 0.  1.
</event>
<event>
 7    1  0.2783785E-010  0.4778727E+02  0.7816164E-02  0.1312668E+00
        -11   -1    0    0    0    0  0.00000000000E+00  0.00000000000E+00  0.45593999997E+02  0.45594000000E+02  0.51100000000E-03 0.  1.
         11   -1    0    0    0    0 -0.00000000000E+00 -0.00000000000E+00 -0.45593999997E+02  0.45594000000E+02  0.51100000000E-03 0. -1.
    9900012    2    1    2    0    0  0.24059963166E+02  0.33509963576E+02 -0.13484207654E+02  0.47787270254E+02  0.19999996396E+02 0.  0.
        -12    1    1    2    0    0 -0.24059963166E+02 -0.33509963576E+02  0.13484207654E+02  0.43400729746E+02  0.00000000000E+00 0.  1.
         11    1    3    3    0    0  0.15475604047E+02  0.82568555351E+01 -0.56438487250E+01  0.18426150240E+02  0.51100000000E-03 0. -1.
        -11    1    3    3    0    0  0.67185609813E+01  0.13646870239E+02  0.36013032338E-01  0.15211095496E+02  0.51100000000E-03 0.  1.
         12    1    3    3    0    0  0.18657981376E+01  0.11606237802E+02 -0.78763719612E+01  0.14150024519E+02  0.00000000000E+00 0. -1.
</event>
<event>
 7    1  0.2783785E-010  0.4778727E+02  0.7816164E-02  0.1312668E+00
        -11   -1    0    0    0    0  0.00000000000E+00  0.00000000000E+00  0.45593999997E+02  0.45594000000E+02  0.51100000000E-03 0. -1.
         11   -1    0    0    0    0 -0.00000000000E+00 -0.00000000000E+00 -0.45593999997E+02  0.45594000000E+02  0.51100000000E-03 0.  1.
    9900012    2    1    2    0    0 -0.23734948564E+01 -0.20566886894E+02  0.38144371758E+02  0.47787269463E+02  0.19999992790E+02 0.  0.
        -12    1    1    2    0    0  0.23734948564E+01  0.20566886894E+02 -0.38144371758E+02  0.43400730537E+02  0.00000000000E+00 0.  1.
         11    1    3    3    0    0  0.13352944015E+01  0.28409661179E+01  0.68935974748E+00  0.32139254416E+01  0.51100000000E-03 0.  1.
        -11    1    3    3    0    0 -0.25541966390E+01 -0.10099486505E+02  0.12535148046E+02  0.16298879867E+02  0.51100000000E-03 0. -1.
        -12    1    3    3    0    0 -0.11545926189E+01 -0.13308366507E+02  0.24919863964E+02  0.28274464154E+02  0.00000000000E+00 0.  1.
</event>
<event>
 7    1  0.2783785E-010  0.4778727E+02  0.7816164E-02  0.1312668E+00
        -11   -1    0    0    0    0  0.00000000000E+00  0.00000000000E+00  0.45593999997E+02  0.45594000000E+02  0.51100000000E-03 0. -1.
         11   -1    0    0    0    0 -0.00000000000E+00 -0.00000000000E+00 -0.45593999997E+02  0.45594000000E+02  0.51100000000E-03 0.  1.
    9900012    2    1    2    0    0 -0.79317011214E+01  0.40408763772E+02  0.13705582017E+02  0.47787273615E+02  0.20000011722E+02 0.  0.
        -12    1    1    2    0    0  0.79317011214E+01 -0.40408763772E+02 -0.13705582017E+02  0.43400726385E+02  0.00000000000E+00 0.  1.
         11    1    3    3    0    0 -0.60524637509E+01  0.65166470948E+01 -0.14472196556E+01  0.90107409133E+01  0.51100000000E-03 0. -1.
        -11    1    3    3    0    0 -0.13653140106E+01  0.12344880905E+02  0.11478917012E+02  0.16912294432E+02  0.51100000000E-03 0.  1.
         12    1    3    3    0    0 -0.51392335990E+00  0.21547235772E+02  0.36738846607E+01  0.21864238270E+02  0.00000000000E+00 0. -1.
</event>
<event>
 7    1  0.2783785E-010  0.4778727E+02  0.7816164E-02  0.1312668E+00
        -11   -1    0    0    0    0  0.00000000000E+00  0.00000000000E+00  0.45593999997E+02  0.45594000000E+02  0.51100000000E-03 0.  1.
         11   -1    0    0    0    0 -0.00000000000E+00 -0.00000000000E+00 -0.45593999997E+02  0.45594000000E+02  0.51100000000E-03 0. -1.
    9900012    2    1    2    0    0  0.10046004696E+02  0.42028220105E+02 -0.40410220174E+01  0.47787270116E+02  0.19999995765E+02 0.  0.
        -12    1    1    2    0    0 -0.10046004696E+02 -0.42028220105E+02  0.40410220174E+01  0.43400729884E+02  0.00000000000E+00 0.  1.
         11    1    3    3    0    0  0.98702193103E+01  0.26103908132E+02 -0.21585843514E+01  0.27990975968E+02  0.51100000000E-03 0. -1.
        -11    1    3    3    0    0  0.23351003593E+01 -0.10270403787E+01  0.30246976571E+00  0.25688506862E+01  0.51100000000E-03 0.  1.
         12    1    3    3    0    0 -0.21593149739E+01  0.16951352352E+02 -0.21849074317E+01  0.17227443461E+02  0.00000000000E+00 0. -1.
</event>
<event>
 7    1  0.2783785E-010  0.4778727E+02  0.7816164E-02  0.1312668E+00
        -11   -1    0    0    0    0  0.00000000000E+00  0.00000000000E+00  0.45593999997E+02  0.45594000000E+02  0.51100000000E-03 0.  1.
         11   -1    0    0    0    0 -0.00000000000E+00 -0.00000000000E+00 -0.45593999997E+02  0.45594000000E+02  0.51100000000E-03 0. -1.
    9900012    2    1    2    0    0 -0.27604179826E+02  0.32365842380E+02  0.86072663913E+01  0.47787268076E+02  0.19999986464E+02 0.  0.
        -12    1    1    2    0    0  0.27604179826E+02 -0.32365842380E+02 -0.86072663913E+01  0.43400731924E+02  0.00000000000E+00 0.  1.
         11    1    3    3    0    0 -0.13458238974E+01  0.46883311892E+01  0.63186265537E+00  0.49184288120E+01  0.51100000000E-03 0. -1.
        -11    1    3    3    0    0 -0.70406939509E+01  0.69694536583E+01 -0.57555499580E+01  0.11457356204E+02  0.51100000000E-03 0.  1.
        -12    1    3    3    0    0 -0.19217661978E+02  0.20708057533E+02  0.13730953694E+02  0.31411483060E+02  0.00000000000E+00 0.  1.
</event>
<event>
 7    1  0.4727511E-010  0.4778727E+02  0.7816164E-02  0.1312668E+00
        -11   -1    0    0    0    0  0.00000000000E+00  0.00000000000E+00  0.45593999997E+02  0.45594000000E+02  0.51100000000E-03 0. -1.
         11   -1    0    0    0    0 -0.00000000000E+00 -0.00000000000E+00 -0.45593999997E+02  0.45594000000E+02  0.51100000000E-03 0.  1.
    9900012    2    1    2    0    0  0.35429443698E+02  0.36273721933E+00  0.25064838592E+02  0.47787271980E+02  0.20000004265E+02 0.  0.
        -12    1    1    2    0    0 -0.35429443698E+02 -0.36273721933E+00 -0.25064838592E+02  0.43400728020E+02  0.00000000000E+00 0.  1.
         11    1    3    3    0    0  0.16785419427E+02 -0.27701597182E+01  0.19331401318E+02  0.25751255646E+02  0.51100000000E-03 0. -1.
        -11    1    3    3    0    0  0.16191790736E+02 -0.12449507432E+01  0.39753324310E+01  0.16719068688E+02  0.51100000000E-03 0.  1.
        -12    1    3    3    0    0  0.24522335351E+01  0.43778476807E+01  0.17581048431E+01  0.53169476455E+01  0.00000000000E+00 0.  1.
</event>
<event>
 7    1  0.2783785E-010  0.4778727E+02  0.7816164E-02  0.1312668E+00
        -11   -1    0    0    0    0  0.00000000000E+00  0.00000000000E+00  0.45593999997E+02  0.45594000000E+02  0.51100000000E-03 0. -1.
         11   -1    0    0    0    0 -0.00000000000E+00 -0.00000000000E+00 -0.45593999997E+02  0.45594000000E+02  0.51100000000E-03 0.  1.
    9900012    2    1    2    0    0 -0.26734088992E+01 -0.14452086360E+01  0.43294199611E+02  0.47787268864E+02  0.19999990061E+02 0.  0.
        -12    1    1    2    0    0  0.26734088992E+01  0.14452086360E+01 -0.43294199611E+02  0.43400731136E+02  0.00000000000E+00 0.  1.
         11    1    3    3    0    0 -0.70645848259E+01  0.22716582111E+01  0.32957224885E+02  0.33782354301E+02  0.51100000000E-03 0. -1.
        -11    1    3    3    0    0  0.81300919936E+00  0.14040346423E+01 -0.31826215755E+00  0.16533566757E+01  0.51100000000E-03 0.  1.
         12    1    3    3    0    0  0.35781667273E+01 -0.51209014893E+01  0.10655236884E+02  0.12351557887E+02  0.00000000000E+00 0. -1.
</event>
<event>
 7    1  0.2783785E-010  0.4778728E+02  0.7816164E-02  0.1312668E+00
        -11   -1    0    0    0    0  0.00000000000E+00  0.00000000000E+00  0.45593999997E+02  0.45594000000E+02  0.51100000000E-03 0.  1.
         11   -1    0    0    0    0 -0.00000000000E+00 -0.00000000000E+00 -0.45593999997E+02  0.45594000000E+02  0.51100000000E-03 0. -1.
    9900012    2    1    2    0    0 -0.28863049259E+02 -0.53829888491E+01 -0.31962017111E+02  0.47787277434E+02  0.20000029132E+02 0.  0.
        -12    1    1    2    0    0  0.28863049259E+02  0.53829888491E+01  0.31962017111E+02  0.43400722566E+02  0.00000000000E+00 0.  1.
         11    1    3    3    0    0 -0.64962508878E+01 -0.11203766429E+01  0.18929028035E+00  0.65948730458E+01  0.51100000000E-03 0. -1.
        -11    1    3    3    0    0 -0.21106178121E+00 -0.27846212811E+00 -0.86215480733E+01  0.86286255958E+01  0.51100000000E-03 0.  1.
         12    1    3    3    0    0 -0.22155736590E+02 -0.39841500780E+01 -0.23529759318E+02  0.32563778792E+02  0.00000000000E+00 0. -1.
</event>
<event>
 7    1  0.2783785E-010  0.4778727E+02  0.7816164E-02  0.1312668E+00
        -11   -1    0    0    0    0  0.00000000000E+00  0.00000000000E+00  0.45593999997E+02  0.45594000000E+02  0.51100000000E-03 0. -1.
         11   -1    0    0    0    0 -0.00000000000E+00 -0.00000000000E+00 -0.45593999997E+02  0.45594000000E+02  0.51100000000E-03 0.  1.
    9900012    2    1    2    0    0  0.16675751697E+02  0.36989774669E+02  0.15404529674E+02  0.47787266605E+02  0.19999979758E+02 0.  0.
        -12    1    1    2    0    0 -0.16675751697E+02 -0.36989774669E+02 -0.15404529674E+02  0.43400733395E+02  0.00000000000E+00 0.  1.
         11    1    3    3    0    0  0.60794557977E+01  0.11438399969E+01 -0.17801557316E+01  0.64371661020E+01  0.51100000000E-03 0.  1.
        -11    1    3    3    0    0  0.33176271681E+01  0.90512878449E+01  0.63593549262E+01  0.11548759977E+02  0.51100000000E-03 0. -1.
        -12    1    3    3    0    0  0.72786687313E+01  0.26794646828E+02  0.10825330480E+02  0.29801340525E+02  0.00000000000E+00 0.  1.
</event>
<event>
 7    1  0.2783785E-010  0.4778727E+02  0.7816164E-02  0.1312668E+00
        -11   -1    0    0    0    0  0.00000000000E+00  0.00000000000E+00  0.45593999997E+02  0.45594000000E+02  0.51100000000E-03 0.  1.
         11   -1    0    0    0    0 -0.00000000000E+00 -0.00000000000E+00 -0.45593999997E+02  0.45594000000E+02  0.51100000000E-03 0. -1.
    9900012    2    1    2    0    0 -0.32553343518E+02  0.18683500554E+02 -0.21790593038E+02  0.47787270604E+02  0.19999997991E+02 0.  0.
        -12    1    1    2    0    0  0.32553343518E+02 -0.18683500554E+02  0.21790593038E+02  0.43400729396E+02  0.00000000000E+00 0.  1.
         11    1    3    3    0    0 -0.89697160185E+01  0.15868709187E+02 -0.89825749974E+01  0.20321377674E+02  0.51100000000E-03 0. -1.
        -11    1    3    3    0    0 -0.16484361783E+02  0.40018644114E+01 -0.10290761766E+02  0.19840586689E+02  0.51100000000E-03 0.  1.
        -12    1    3    3    0    0 -0.70992657161E+01 -0.11870730441E+01 -0.25172562748E+01  0.76253062412E+01  0.00000000000E+00 0.  1.
</event>
<event>
 7    1  0.2783785E-010  0.4778727E+02  0.7816164E-02  0.1312668E+00
        -11   -1    0    0    0    0  0.00000000000E+00  0.00000000000E+00  0.45593999997E+02  0.45594000000E+02  0.51100000000E-03 0.  1.
         11   -1    0    0    0    0 -0.00000000000E+00 -0.00000000000E+00 -0.45593999997E+02  0.45594000000E+02  0.51100000000E-03 0. -1.
    9900012    2    1    2    0    0 -0.36028383076E+01 -0.36994739479E+02 -0.22406081148E+02  0.47787266534E+02  0.19999979435E+02 0.  0.
        -12    1    1    2    0    0  0.36028383076E+01  0.36994739479E+02  0.22406081148E+02  0.43400733466E+02  0.00000000000E+00 0.  1.
         11    1    3    3    0    0 -0.29084638700E+01 -0.18987930070E+02 -0.61470999083E+01  0.20168973399E+02  0.51100000000E-03 0. -1.
        -11    1    3    3    0    0  0.93779962670E+00 -0.18149081226E+02 -0.17749756780E+02  0.25403198293E+02  0.51100000000E-03 0.  1.
        -12    1    3    3    0    0 -0.16321740642E+01  0.14227181721E+00  0.14907755405E+01  0.22150948418E+01  0.00000000000E+00 0.  1.
</event>
<event>
 7    1  0.2783785E-010  0.4778727E+02  0.7816164E-02  0.1312668E+00
        -11   -1    0    0    0    0  0.00000000000E+00  0.00000000000E+00  0.45593999997E+02  0.45594000000E+02  0.51100000000E-03 0.  1.
         11   -1    0    0    0    0 -0.00000000000E+00 -0.00000000000E+00 -0.45593999997E+02  0.45594000000E+02  0.51100000000E-03 0. -1.
    9900012    2    1    2    0    0 -0.11278884191E+02  0.34669052017E+02 -0.23547121234E+02  0.47787270574E+02  0.19999997854E+02 0.  0.
        -12    1    1    2    0    0  0.11278884191E+02 -0.34669052017E+02  0.23547121234E+02  0.43400729426E+02  0.00000000000E+00 0.  1.
         11    1    3    3    0    0 -0.80125841102E+01  0.16100404793E+02 -0.54360731203E+01  0.18787640348E+02  0.51100000000E-03 0. -1.
        -11    1    3    3    0    0  0.37628683225E+01  0.14896588278E+01 -0.21138332934E+01  0.45658025460E+01  0.51100000000E-03 0.  1.
         12    1    3    3    0    0 -0.70291684033E+01  0.17078988396E+02 -0.15997214820E+02  0.24433827680E+02  0.00000000000E+00 0. -1.
</event>
<event>
 7    1  0.2783785E-010  0.4778731E+02  0.7816164E-02  0.1312668E+00
        -11   -1    0    0    0    0  0.00000000000E+00  0.00000000000E+00  0.45593999997E+02  0.45594000000E+02  0.51100000000E-03 0. -1.
         11   -1    0    0    0    0 -0.00000000000E+00 -0.00000000000E+00 -0.45593999997E+02  0.45594000000E+02  0.51100000000E-03 0.  1.
    9900012    2    1    2    0    0 -0.28795751007E+02  0.17437238738E+02  0.27392837640E+02  0.47787307323E+02  0.20000165408E+02 0.  0.
        -12    1    1    2    0    0  0.28795751007E+02 -0.17437238738E+02 -0.27392837640E+02  0.43400692677E+02  0.00000000000E+00 0.  1.
         11    1    3    3    0    0 -0.45778158162E+01  0.66186830573E+01  0.26768988794E+01  0.84811055253E+01  0.51100000000E-03 0. -1.
        -11    1    3    3    0    0 -0.22964035954E+02  0.12448101429E+02  0.26021721166E+02  0.36870478017E+02  0.51100000000E-03 0.  1.
        -12    1    3    3    0    0 -0.12538992375E+01 -0.16295457488E+01 -0.13057824059E+01  0.24357237809E+01  0.00000000000E+00 0.  1.
</event>
<event>
 7    1  0.2783785E-010  0.4778727E+02  0.7816164E-02  0.1312668E+00
        -11   -1    0    0    0    0  0.00000000000E+00  0.00000000000E+00  0.45593999997E+02  0.45594000000E+02  0.51100000000E-03 0.  1.
         11   -1    0    0    0    0 -0.00000000000E+00 -0.00000000000E+00 -0.45593999997E+02  0.45594000000E+02  0.51100000000E-03 0. -1.
    9900012    2    1    2    0    0 -0.17223284809E+02  0.88207490105E+01 -0.38848118811E+02  0.47787268579E+02  0.19999988760E+02 0.  0.
        -12    1    1    2    0    0  0.17223284809E+02 -0.88207490105E+01  0.38848118811E+02  0.43400731421E+02  0.00000000000E+00 0.  1.
         11    1    3    3    0    0 -0.14627139653E+02  0.13202069862E+02 -0.37611658510E+02  0.42460390003E+02  0.51100000000E-03 0. -1.
        -11    1    3    3    0    0 -0.87589528982E+00 -0.71207831437E+00 -0.25694370933E+00  0.11576996223E+01  0.51100000000E-03 0.  1.
         12    1    3    3    0    0 -0.17202498655E+01 -0.36692425371E+01 -0.97951659151E+00  0.41691789538E+01  0.00000000000E+00 0. -1.
</event>
<event>
 7    1  0.2783785E-010  0.4778727E+02  0.7816164E-02  0.1312668E+00
        -11   -1    0    0    0    0  0.00000000000E+00  0.00000000000E+00  0.45593999997E+02  0.45594000000E+02  0.51100000000E-03 0. -1.
         11   -1    0    0    0    0 -0.00000000000E+00 -0.00000000000E+00 -0.45593999997E+02  0.45594000000E+02  0.51100000000E-03 0.  1.
    9900012    2    1    2    0    0  0.28847230858E+01  0.43302633329E+02  0.42846637598E+00  0.47787271159E+02  0.20000000524E+02 0.  0.
        -12    1    1    2    0    0 -0.28847230858E+01 -0.43302633329E+02 -0.42846637598E+00  0.43400728841E+02  0.00000000000E+00 0.  1.
         11    1    3    3    0    0  0.14205848111E+01  0.23984907028E+02  0.49965951105E+01  0.24540981832E+02  0.51100000000E-03 0. -1.
        -11    1    3    3    0    0 -0.41171973606E+01  0.22372955420E+01  0.76828770418E-01  0.46864387726E+01  0.51100000000E-03 0.  1.
        -12    1    3    3    0    0  0.55813356352E+01  0.17080430759E+02 -0.46449575049E+01  0.18559850554E+02  0.00000000000E+00 0.  1.
</event>
<event>
 7    1  0.2783785E-010  0.4778728E+02  0.7816164E-02  0.1312668E+00
        -11   -1    0    0    0    0  0.00000000000E+00  0.00000000000E+00  0.45593999997E+02  0.45594000000E+02  0.51100000000E-03 0.  1.
         11   -1    0    0    0    0 -0.00000000000E+00 -0.00000000000E+00 -0.45593999997E+02  0.45594000000E+02  0.51100000000E-03 0. -1.
    9900012    2    1    2    0    0  0.11517345756E+02 -0.12449782718E+02 -0.39949667435E+02  0.47787282597E+02  0.20000052670E+02 0.  0.
        -12    1    1    2    0    0 -0.11517345756E+02  0.12449782718E+02  0.39949667435E+02  0.43400717403E+02  0.00000000000E+00 0.  1.
         11    1    3    3    0    0  0.55628679547E+01 -0.92023032484E+01 -0.19486131758E+02  0.22256172539E+02  0.51100000000E-03 0. -1.
        -11    1    3    3    0    0  0.96798150927E+01 -0.32995220938E+00 -0.93945889054E+01  0.13493183081E+02  0.51100000000E-03 0.  1.
         12    1    3    3    0    0 -0.37253372919E+01 -0.29175272598E+01 -0.11068946772E+02  0.12037926977E+02  0.00000000000E+00 0. -1.
</event>
<event>
 7    1  0.2783785E-010  0.4778728E+02  0.7816164E-02  0.1312668E+00
        -11   -1    0    0    0    0  0.00000000000E+00  0.00000000000E+00  0.45593999997E+02  0.45594000000E+02  0.51100000000E-03 0. -1.
         11   -1    0    0    0    0 -0.00000000000E+00 -0.00000000000E+00 -0.45593999997E+02  0.45594000000E+02  0.51100000000E-03 0.  1.
    9900012    2    1    2    0    0 -0.27983386731E+02 -0.22466541748E+02  0.24409167392E+02  0.47787275538E+02  0.20000020487E+02 0.  0.
        -12    1    1    2    0    0  0.27983386731E+02  0.22466541748E+02 -0.24409167392E+02  0.43400724462E+02  0.00000000000E+00 0.  1.
         11    1    3    3    0    0 -0.17467288716E+02 -0.18598941098E+02  0.17434847406E+02  0.30903085435E+02  0.51100000000E-03 0. -1.
        -11    1    3    3    0    0 -0.29303090439E+01  0.14693637851E+01  0.68660744382E+01  0.76084636739E+01  0.51100000000E-03 0.  1.
         12    1    3    3    0    0 -0.75857889707E+01 -0.53369644351E+01  0.10824554866E+00  0.92757264291E+01  0.00000000000E+00 0. -1.
</event>
<event>
 7    1  0.2783785E-010  0.4778729E+02  0.7816164E-02  0.1312668E+00
        -11   -1    0    0    0    0  0.00000000000E+00  0.00000000000E+00  0.45593999997E+02  0.45594000000E+02  0.51100000000E-03 0.  1.
         11   -1    0    0    0    0 -0.00000000000E+00 -0.00000000000E+00 -0.45593999997E+02  0.45594000000E+02  0.51100000000E-03 0. -1.
    9900012    2    1    2    0    0  0.21234038454E+02 -0.99725038613E+01 -0.36514191913E+02  0.47787292248E+02  0.20000096677E+02 0.  0.
        -12    1    1    2    0    0 -0.21234038454E+02  0.99725038613E+01  0.36514191913E+02  0.43400707752E+02  0.00000000000E+00 0.  1.
         11    1    3    3    0    0  0.18803916050E+02 -0.10461195905E+02 -0.27682943519E+02  0.35062362167E+02  0.51100000000E-03 0. -1.
        -11    1    3    3    0    0  0.19997844734E+01  0.48431899624E+00 -0.10654608973E+02  0.10851469737E+02  0.51100000000E-03 0.  1.
        -12    1    3    3    0    0  0.43033793090E+00  0.43730473013E-02  0.18233605797E+01  0.18734603444E+01  0.00000000000E+00 0.  1.
</event>
<event>
 7    1  0.2783785E-010  0.4778726E+02  0.7816164E-02  0.1312668E+00
        -11   -1    0    0    0    0  0.00000000000E+00  0.00000000000E+00  0.45593999997E+02  0.45594000000E+02  0.51100000000E-03 0.  1.
         11   -1    0    0    0    0 -0.00000000000E+00 -0.00000000000E+00 -0.45593999997E+02  0.45594000000E+02  0.51100000000E-03 0. -1.
    9900012    2    1    2    0    0  0.38392283866E+02  0.11889241819E+02 -0.16379955332E+02  0.47787257286E+02  0.19999937268E+02 0.  0.
        -12    1    1    2    0    0 -0.38392283866E+02 -0.11889241819E+02  0.16379955332E+02  0.43400742714E+02  0.00000000000E+00 0.  1.
         11    1    3    3    0    0  0.11740964163E+02  0.90781125809E+01 -0.59245794356E+01  0.15980081641E+02  0.51100000000E-03 0. -1.
        -11    1    3    3    0    0  0.55291567587E+01  0.41108444259E+01  0.20975112183E+01  0.72020948292E+01  0.51100000000E-03 0.  1.
         12    1    3    3    0    0  0.21122162944E+02 -0.12997151879E+01 -0.12552887115E+02  0.24605080815E+02  0.00000000000E+00 0. -1.
</event>
<event>
 7    1  0.2783785E-010  0.4778727E+02  0.7816164E-02  0.1312668E+00
        -11   -1    0    0    0    0  0.00000000000E+00  0.00000000000E+00  0.45593999997E+02  0.45594000000E+02  0.51100000000E-03 0. -1.
         11   -1    0    0    0    0 -0.00000000000E+00 -0.00000000000E+00 -0.45593999997E+02  0.45594000000E+02  0.51100000000E-03 0.  1.
    9900012    2    1    2    0    0 -0.39076013344E+02  0.91483545708E+01 -0.16522606990E+02  0.47787265537E+02  0.19999974888E+02 0.  0.
        -12    1    1    2    0    0  0.39076013344E+02 -0.91483545708E+01  0.16522606990E+02  0.43400734463E+02  0.00000000000E+00 0.  1.
         11    1    3    3    0    0 -0.70072612023E+01  0.57699289512E+00 -0.10194417951E+02  0.12383892279E+02  0.51100000000E-03 0. -1.
        -11    1    3    3    0    0 -0.12849479272E+02 -0.12229287307E+01  0.55263880998E-01  0.12907661546E+02  0.51100000000E-03 0.  1.
        -12    1    3    3    0    0 -0.19219272870E+02  0.97942904064E+01 -0.63834529197E+01  0.22495711711E+02  0.00000000000E+00 0.  1.
</event>
<event>
 7    1  0.2783785E-010  0.4778727E+02  0.7816164E-02  0.1312668E+00
        -11   -1    0    0    0    0  0.00000000000E+00  0.00000000000E+00  0.45593999997E+02  0.45594000000E+02  0.51100000000E-03 0. -1.
         11   -1    0    0    0    0 -0.00000000000E+00 -0.00000000000E+00 -0.45593999997E+02  0.45594000000E+02  0.51100000000E-03 0.  1.
    9900012    2    1    2    0    0  0.37851370887E+02 -0.15223322529E+02  0.14803637223E+02  0.47787268418E+02  0.19999988025E+02 0.  0.
        -12    1    1    2    0    0 -0.37851370887E+02  0.15223322529E+02 -0.14803637223E+02  0.43400731582E+02  0.00000000000E+00 0.  1.
         11    1    3    3    0    0  0.15250045413E+02 -0.75496181013E+01  0.12107541087E+02  0.20884280452E+02  0.51100000000E-03 0.  1.
        -11    1    3    3    0    0  0.10651877371E+02  0.16742026393E+00  0.60098488757E+01  0.12231467812E+02  0.51100000000E-03 0. -1.
        -12    1    3    3    0    0  0.11949448103E+02 -0.78411246918E+01 -0.33137527403E+01  0.14671520154E+02  0.00000000000E+00 0.  1.
</event>
<event>
 7    1  0.2783785E-010  0.4778727E+02  0.7816164E-02  0.1312668E+00
        -11   -1    0    0    0    0  0.00000000000E+00  0.00000000000E+00  0.45593999997E+02  0.45594000000E+02  0.51100000000E-03 0.  1.
         11   -1    0    0    0    0 -0.00000000000E+00 -0.00000000000E+00 -0.45593999997E+02  0.45594000000E+02  0.51100000000E-03 0. -1.
    9900012    2    1    2    0    0 -0.13170018673E+02 -0.23931554568E+02 -0.33726170323E+02  0.47787271198E+02  0.20000000700E+02 0.  0.
        -12    1    1    2    0    0  0.13170018673E+02  0.23931554568E+02  0.33726170323E+02  0.43400728802E+02  0.00000000000E+00 0.  1.
         11    1    3    3    0    0 -0.25541501135E+00 -0.69329911575E+01 -0.10553080896E+02  0.12629296096E+02  0.51100000000E-03 0. -1.
        -11    1    3    3    0    0 -0.30861515523E+01 -0.22504779314E+01  0.20468878409E+01  0.43334434828E+01  0.51100000000E-03 0.  1.
        -12    1    3    3    0    0 -0.98284521089E+01 -0.14748085479E+02 -0.25219977268E+02  0.30824531620E+02  0.00000000000E+00 0.  1.
</event>
<event>
 7    1  0.2783785E-010  0.4778727E+02  0.7816164E-02  0.1312668E+00
        -11   -1    0    0    0    0  0.00000000000E+00  0.00000000000E+00  0.45593999997E+02  0.45594000000E+02  0.51100000000E-03 0.  1.
         11   -1    0    0    0    0 -0.00000000000E+00 -0.00000000000E+00 -0.45593999997E+02  0.45594000000E+02  0.51100000000E-03 0. -1.
    9900012    2    1    2    0    0  0.10121519460E+02 -0.16052274163E+02 -0.39032074710E+02  0.47787268230E+02  0.19999987168E+02 0.  0.
        -12    1    1    2    0    0 -0.10121519460E+02  0.16052274163E+02  0.39032074710E+02  0.43400731770E+02  0.00000000000E+00 0.  1.
         11    1    3    3    0    0  0.94035526231E+01 -0.16426693027E+02 -0.36457893452E+02  0.41078474180E+02  0.51100000000E-03 0. -1.
        -11    1    3    3    0    0  0.34274616602E+01 -0.14285304282E-05 -0.10887535411E+01  0.35962310781E+01  0.51100000000E-03 0.  1.
         12    1    3    3    0    0 -0.27094948230E+01  0.37442029265E+00 -0.14854277170E+01  0.31125629719E+01  0.00000000000E+00 0. -1.
</event>
<event>
 7    1  0.2783785E-010  0.4778727E+02  0.7816164E-02  0.1312668E+00
        -11   -1    0    0    0    0  0.00000000000E+00  0.00000000000E+00  0.45593999997E+02  0.45594000000E+02  0.51100000000E-03 0.  1.
         11   -1    0    0    0    0 -0.00000000000E+00 -0.00000000000E+00 -0.45593999997E+02  0.45594000000E+02  0.51100000000E-03 0. -1.
    9900012    2    1    2    0    0  0.43056982764E+01 -0.38878358676E+02 -0.18803121557E+02  0.47787271996E+02  0.20000004336E+02 0.  0.
        -12    1    1    2    0    0 -0.43056982764E+01  0.38878358676E+02  0.18803121557E+02  0.43400728004E+02  0.00000000000E+00 0.  1.
         11    1    3    3    0    0 -0.20942583462E+01 -0.12718422239E+02  0.15962334412E+01  0.12988153977E+02  0.51100000000E-03 0. -1.
        -11    1    3    3    0    0  0.56490871455E+01 -0.70147265148E+01 -0.72332081858E+01  0.11551531265E+02  0.51100000000E-03 0.  1.
        -12    1    3    3    0    0  0.75086947716E+00 -0.19145209923E+02 -0.13166146813E+02  0.23247586754E+02  0.00000000000E+00 0.  1.
</event>
<event>
 7    1  0.2783785E-010  0.4778727E+02  0.7816164E-02  0.1312668E+00
        -11   -1    0    0    0    0  0.00000000000E+00  0.00000000000E+00  0.45593999997E+02  0.45594000000E+02  0.51100000000E-03 0. -1.
         11   -1    0    0    0    0 -0.00000000000E+00 -0.00000000000E+00 -0.45593999997E+02  0.45594000000E+02  0.51100000000E-03 0.  1.
    9900012    2    1    2    0    0 -0.23255494761E+01  0.89977624230E+01  0.42394046535E+02  0.47787273156E+02  0.20000009628E+02 0.  0.
        -12    1    1    2    0    0  0.23255494761E+01 -0.89977624230E+01 -0.42394046535E+02  0.43400726844E+02  0.00000000000E+00 0.  1.
         11    1    3    3    0    0  0.68604212777E+00  0.49318233053E+01  0.17007876438E+01  0.52617690738E+01  0.51100000000E-03 0. -1.
        -11    1    3    3    0    0 -0.25778838456E+01 -0.35623021161E+01  0.10565673117E+02  0.11444165770E+02  0.51100000000E-03 0.  1.
         12    1    3    3    0    0 -0.43370775818E+00  0.76282412338E+01  0.30127585774E+02  0.31081338312E+02  0.00000000000E+00 0. -1.
</event>
<event>
 7    1  0.2783785E-010  0.4778727E+02  0.7816164E-02  0.1312668E+00
        -11   -1    0    0    0    0  0.00000000000E+00  0.00000000000E+00  0.45593999997E+02  0.45594000000E+02  0.51100000000E-03 0.  1.
         11   -1    0    0    0    0 -0.00000000000E+00 -0.00000000000E+00 -0.45593999997E+02  0.45594000000E+02  0.51100000000E-03 0. -1.
    9900012    2    1    2    0    0  0.15344991699E+02 -0.36127857030E+02 -0.18518429488E+02  0.47787273571E+02  0.20000011520E+02 0.  0.
        -12    1    1    2    0    0 -0.15344991699E+02  0.36127857030E+02  0.18518429488E+02  0.43400726429E+02  0.00000000000E+00 0.  1.
         11    1    3    3    0    0  0.74011289445E+01 -0.76705690774E+01 -0.10861399257E+02  0.15217895180E+02  0.51100000000E-03 0. -1.
        -11    1    3    3    0    0 -0.15172879044E+01 -0.15554419884E+01 -0.29540019295E+01  0.36671092191E+01  0.51100000000E-03 0.  1.
         12    1    3    3    0    0  0.94611506589E+01 -0.26901845965E+02 -0.47030283011E+01  0.28902269172E+02  0.00000000000E+00 0. -1.
</event>
<event>
 7    1  0.2783785E-010  0.4778727E+02  0.7816164E-02  0.1312668E+00
        -11   -1    0    0    0    0  0.00000000000E+00  0.00000000000E+00  0.45593999997E+02  0.45594000000E+02  0.51100000000E-03 0.  1.
         11   -1    0    0    0    0 -0.00000000000E+00 -0.00000000000E+00 -0.45593999997E+02  0.45594000000E+02  0.51100000000E-03 0. -1.
    9900012    2    1    2    0    0  0.41675926900E+01  0.87304655469E+01 -0.42308788517E+02  0.47787269093E+02  0.19999991102E+02 0.  0.
        -12    1    1    2    0    0 -0.41675926900E+01 -0.87304655469E+01  0.42308788517E+02  0.43400730907E+02  0.00000000000E+00 0.  1.
         11    1    3    3    0    0  0.76659935441E+00  0.10203104902E+02 -0.14076219100E+02  0.17402039208E+02  0.51100000000E-03 0. -1.
        -11    1    3    3    0    0 -0.25468563940E+01  0.13241465431E+01 -0.17973848363E+02  0.18201622642E+02  0.51100000000E-03 0.  1.
         12    1    3    3    0    0  0.59478497296E+01 -0.27967858981E+01 -0.10258721054E+02  0.12183607242E+02  0.00000000000E+00 0. -1.
</event>
<event>
 7    1  0.2783785E-010  0.4778728E+02  0.7816164E-02  0.1312668E+00
        -11   -1    0    0    0    0  0.00000000000E+00  0.00000000000E+00  0.45593999997E+02  0.45594000000E+02  0.51100000000E-03 0. -1.
         11   -1    0    0    0    0 -0.00000000000E+00 -0.00000000000E+00 -0.45593999997E+02  0.45594000000E+02  0.51100000000E-03 0.  1.
    9900012    2    1    2    0    0 -0.30884115264E+02 -0.93068834679E+01 -0.29037488437E+02  0.47787281224E+02  0.20000046414E+02 0.  0.
        -12    1    1    2    0    0  0.30884115264E+02  0.93068834679E+01  0.29037488437E+02  0.43400718776E+02  0.00000000000E+00 0.  1.
         11    1    3    3    0    0 -0.15173119372E+02 -0.12526063936E+02 -0.22241470638E+02  0.29695266384E+02  0.51100000000E-03 0.  1.
        -11    1    3    3    0    0 -0.91428681326E+01  0.60795648080E+00 -0.60599097619E+01  0.10985634044E+02  0.51100000000E-03 0. -1.
        -12    1    3    3    0    0 -0.65681277590E+01  0.26112239874E+01 -0.73610803683E+00  0.71063807957E+01  0.00000000000E+00 0.  1.
</event>
<event>
 7    1  0.2783785E-010  0.4778727E+02  0.7816164E-02  0.1312668E+00
        -11   -1    0    0    0    0  0.00000000000E+00  0.00000000000E+00  0.45593999997E+02  0.45594000000E+02  0.51100000000E-03 0.  1.
         11   -1    0    0    0    0 -0.00000000000E+00 -0.00000000000E+00 -0.45593999997E+02  0.45594000000E+02  0.51100000000E-03 0. -1.
    9900012    2    1    2    0    0  0.25300732273E+02 -0.54997342005E+01 -0.34831730870E+02  0.47787267227E+02  0.19999982593E+02 0.  0.
        -12    1    1    2    0    0 -0.25300732273E+02  0.54997342005E+01  0.34831730870E+02  0.43400732773E+02  0.00000000000E+00 0.  1.
         11    1    3    3    0    0 -0.13706323606E+00 -0.39630444136E+01 -0.44969805292E+01  0.59956101854E+01  0.51100000000E-03 0. -1.
        -11    1    3    3    0    0  0.18923968615E+01 -0.42766998114E+01 -0.27664554439E+01  0.54336546764E+01  0.51100000000E-03 0.  1.
        -12    1    3    3    0    0  0.23545398648E+02  0.27400100244E+01 -0.27568294897E+02  0.36358002365E+02  0.00000000000E+00 0.  1.
</event>
<event>
 7    1  0.2783785E-010  0.4778727E+02  0.7816164E-02  0.1312668E+00
        -11   -1    0    0    0    0  0.00000000000E+00  0.00000000000E+00  0.45593999997E+02  0.45594000000E+02  0.51100000000E-03 0.  1.
         11   -1    0    0    0    0 -0.00000000000E+00 -0.00000000000E+00 -0.45593999997E+02  0.45594000000E+02  0.51100000000E-03 0. -1.
    9900012    2    1    2    0    0  0.37494193221E+02  0.10526468850E+02  0.19157304495E+02  0.47787269738E+02  0.19999994043E+02 0.  0.
        -12    1    1    2    0    0 -0.37494193221E+02 -0.10526468850E+02 -0.19157304495E+02  0.43400730262E+02  0.00000000000E+00 0.  1.
         11    1    3    3    0    0  0.31003806458E+02  0.37807935741E+01  0.11192628878E+02  0.33178386887E+02  0.51100000000E-03 0. -1.
        -11    1    3    3    0    0 -0.22677401196E+00  0.34927681200E+01 -0.25133103438E+00  0.35091342440E+01  0.51100000000E-03 0.  1.
         12    1    3    3    0    0  0.67171607753E+01  0.32529071558E+01  0.82160066515E+01  0.11099748607E+02  0.00000000000E+00 0. -1.
</event>
<event>
 7    1  0.2783785E-010  0.4778728E+02  0.7816164E-02  0.1312668E+00
        -11   -1    0    0    0    0  0.00000000000E+00  0.00000000000E+00  0.45593999997E+02  0.45594000000E+02  0.51100000000E-03 0. -1.
         11   -1    0    0    0    0 -0.00000000000E+00 -0.00000000000E+00 -0.45593999997E+02  0.45594000000E+02  0.51100000000E-03 0.  1.
    9900012    2    1    2    0    0 -0.58208221271E+01  0.40958119377E+01  0.42813138117E+02  0.47787280638E+02  0.20000043742E+02 0.  0.
        -12    1    1    2    0    0  0.58208221271E+01 -0.40958119377E+01 -0.42813138117E+02  0.43400719362E+02  0.00000000000E+00 0.  1.
         11    1    3    3    0    0 -0.28462632737E+01  0.54579130845E+00  0.36533759147E+02  0.36648528763E+02  0.51100000000E-03 0. -1.
        -11    1    3    3    0    0 -0.52680015948E+01  0.18983518214E+01  0.61386756613E+01  0.83089662158E+01  0.51100000000E-03 0.  1.
         12    1    3    3    0    0  0.22934427413E+01  0.16516688078E+01  0.14070330870E+00  0.28297856597E+01  0.00000000000E+00 0. -1.
</event>
<event>
 7    1  0.2783785E-010  0.4778727E+02  0.7816164E-02  0.1312668E+00
        -11   -1    0    0    0    0  0.00000000000E+00  0.00000000000E+00  0.45593999997E+02  0.45594000000E+02  0.51100000000E-03 0.  1.
         11   -1    0    0    0    0 -0.00000000000E+00 -0.00000000000E+00 -0.45593999997E+02  0.45594000000E+02  0.51100000000E-03 0. -1.
    9900012    2    1    2    0    0 -0.91337043831E+01  0.38178609369E+02 -0.18509258169E+02  0.47787269510E+02  0.19999993002E+02 0.  0.
        -12    1    1    2    0    0  0.91337043831E+01 -0.38178609369E+02  0.18509258169E+02  0.43400730490E+02  0.00000000000E+00 0.  1.
         11    1    3    3    0    0  0.20774673591E+01  0.12480934005E+02 -0.33108616739E+01  0.13078661612E+02  0.51100000000E-03 0. -1.
        -11    1    3    3    0    0 -0.85806852180E+01  0.62056425154E+01 -0.95121205949E+01  0.14234415910E+02  0.51100000000E-03 0.  1.
         12    1    3    3    0    0 -0.26304865242E+01  0.19492032848E+02 -0.56862759005E+01  0.20474191987E+02  0.00000000000E+00 0. -1.
</event>
<event>
 7    1  0.2783785E-010  0.4778727E+02  0.7816164E-02  0.1312668E+00
        -11   -1    0    0    0    0  0.00000000000E+00  0.00000000000E+00  0.45593999997E+02  0.45594000000E+02  0.51100000000E-03 0.  1.
         11   -1    0    0    0    0 -0.00000000000E+00 -0.00000000000E+00 -0.45593999997E+02  0.45594000000E+02  0.51100000000E-03 0. -1.
    9900012    2    1    2    0    0  0.28733252780E+02 -0.23390111862E+02 -0.22603672126E+02  0.47787272566E+02  0.20000006938E+02 0.  0.
        -12    1    1    2    0    0 -0.28733252780E+02  0.23390111862E+02  0.22603672126E+02  0.43400727434E+02  0.00000000000E+00 0.  1.
         11    1    3    3    0    0  0.24313607168E+02 -0.22569476566E+02 -0.15193492438E+02  0.36488011438E+02  0.51100000000E-03 0. -1.
        -11    1    3    3    0    0  0.11755973381E+00 -0.26639599878E+01 -0.16223072576E+00  0.26714831418E+01  0.51100000000E-03 0.  1.
        -12    1    3    3    0    0  0.43020858776E+01  0.18433246918E+01 -0.72479489621E+01  0.86277779860E+01  0.00000000000E+00 0.  1.
</event>
<event>
 7    1  0.3256463E-010  0.4778727E+02  0.7816164E-02  0.1312668E+00
        -11   -1    0    0    0    0  0.00000000000E+00  0.00000000000E+00  0.45593999997E+02  0.45594000000E+02  0.51100000000E-03 0.  1.
         11   -1    0    0    0    0 -0.00000000000E+00 -0.00000000000E+00 -0.45593999997E+02  0.45594000000E+02  0.51100000000E-03 0. -1.
    9900012    2    1    2    0    0  0.59318853771E+01  0.42248406576E+02 -0.79692078510E+01  0.47787269636E+02  0.19999993578E+02 0.  0.
        -12    1    1    2    0    0 -0.59318853771E+01 -0.42248406576E+02  0.79692078510E+01  0.43400730364E+02  0.00000000000E+00 0.  1.
         11    1    3    3    0    0  0.45989585188E+01  0.16741943304E+02 -0.17540755527E+01  0.17450497597E+02  0.51100000000E-03 0. -1.
        -11    1    3    3    0    0  0.28531198959E+01 -0.59631938435E+00 -0.26657485314E+01  0.39499500556E+01  0.51100000000E-03 0.  1.
        -12    1    3    3    0    0 -0.15201930376E+01  0.26102782656E+02 -0.35493837669E+01  0.26386821984E+02  0.00000000000E+00 0.  1.
</event>
<event>
 7    1  0.2783785E-010  0.4778731E+02  0.7816164E-02  0.1312668E+00
        -11   -1    0    0    0    0  0.00000000000E+00  0.00000000000E+00  0.45593999997E+02  0.45594000000E+02  0.51100000000E-03 0. -1.
         11   -1    0    0    0    0 -0.00000000000E+00 -0.00000000000E+00 -0.45593999997E+02  0.45594000000E+02  0.51100000000E-03 0.  1.
    9900012    2    1    2    0    0  0.26335227659E+02  0.26760574002E+01  0.34393525557E+02  0.47787307617E+02  0.20000166750E+02 0.  0.
        -12    1    1    2    0    0 -0.26335227659E+02 -0.26760574002E+01 -0.34393525557E+02  0.43400692383E+02  0.00000000000E+00 0.  1.
         11    1    3    3    0    0  0.97811784825E+01  0.18734678789E+01  0.16553062098E+02  0.19318001953E+02  0.51100000000E-03 0. -1.
        -11    1    3    3    0    0  0.99834252761E+01  0.20679064015E+01  0.87602996863E+00  0.10232909943E+02  0.51100000000E-03 0.  1.
         12    1    3    3    0    0  0.65706239001E+01 -0.12653168802E+01  0.16964433491E+02  0.18236395721E+02  0.00000000000E+00 0. -1.
</event>
<event>
 7    1  0.2783785E-010  0.4778727E+02  0.7816164E-02  0.1312668E+00
        -11   -1    0    0    0    0  0.00000000000E+00  0.00000000000E+00  0.45593999997E+02  0.45594000000E+02  0.51100000000E-03 0. -1.
         11   -1    0    0    0    0 -0.00000000000E+00 -0.00000000000E+00 -0.45593999997E+02  0.45594000000E+02  0.51100000000E-03 0.  1.
    9900012    2    1    2    0    0  0.18771897172E+02 -0.36633185091E+02  0.13756792289E+02  0.47787266050E+02  0.19999977226E+02 0.  0.
        -12    1    1    2    0    0 -0.18771897172E+02  0.36633185091E+02 -0.13756792289E+02  0.43400733950E+02  0.00000000000E+00 0.  1.
         11    1    3    3    0    0  0.11328258334E+02 -0.22319989843E+02  0.53102607131E+01  0.25587306474E+02  0.51100000000E-03 0. -1.
        -11    1    3    3    0    0  0.66570390215E-01 -0.16819138678E+00 -0.27206713785E+01  0.27266780100E+01  0.51100000000E-03 0.  1.
         12    1    3    3    0    0  0.73770684486E+01 -0.14145003861E+02  0.11167202954E+02  0.19473281566E+02  0.00000000000E+00 0. -1.
</event>
<event>
 7    1  0.2783785E-010  0.4778727E+02  0.7816164E-02  0.1312668E+00
        -11   -1    0    0    0    0  0.00000000000E+00  0.00000000000E+00  0.45593999997E+02  0.45594000000E+02  0.51100000000E-03 0. -1.
         11   -1    0    0    0    0 -0.00000000000E+00 -0.00000000000E+00 -0.45593999997E+02  0.45594000000E+02  0.51100000000E-03 0.  1.
    9900012    2    1    2    0    0 -0.28897400442E+02  0.48233234222E+00 -0.32377935972E+02  0.47787272649E+02  0.20000007317E+02 0.  0.
        -12    1    1    2    0    0  0.28897400442E+02 -0.48233234222E+00  0.32377935972E+02  0.43400727351E+02  0.00000000000E+00 0.  1.
         11    1    3    3    0    0 -0.80323221910E+01 -0.47801214127E+01 -0.83342507680E+01  0.12523078560E+02  0.51100000000E-03 0. -1.
        -11    1    3    3    0    0 -0.10175892196E+02  0.55853069251E+01 -0.21245953920E+02  0.24210224982E+02  0.51100000000E-03 0.  1.
         12    1    3    3    0    0 -0.10689186055E+02 -0.32285317014E+00 -0.27977312834E+01  0.11053969107E+02  0.00000000000E+00 0. -1.
</event>
<event>
 7    1  0.2783785E-010  0.4778727E+02  0.7816164E-02  0.1312668E+00
        -11   -1    0    0    0    0  0.00000000000E+00  0.00000000000E+00  0.45593999997E+02  0.45594000000E+02  0.51100000000E-03 0.  1.
         11   -1    0    0    0    0 -0.00000000000E+00 -0.00000000000E+00 -0.45593999997E+02  0.45594000000E+02  0.51100000000E-03 0. -1.
    9900012    2    1    2    0    0 -0.17554843657E+02 -0.39634378026E+02  0.21369545756E+01  0.47787273829E+02  0.20000012694E+02 0.  0.
        -12    1    1    2    0    0  0.17554843657E+02  0.39634378026E+02 -0.21369545756E+01  0.43400726171E+02  0.00000000000E+00 0.  1.
         11    1    3    3    0    0 -0.17225782089E+02 -0.30397427856E+02 -0.35320261721E+01  0.35117038571E+02  0.51100000000E-03 0. -1.
        -11    1    3    3    0    0 -0.17400685282E+01 -0.68245360784E-01  0.21064132515E+01  0.27330336550E+01  0.51100000000E-03 0.  1.
         12    1    3    3    0    0  0.14110069608E+01 -0.91687048095E+01  0.35625674962E+01  0.99372016026E+01  0.00000000000E+00 0. -1.
</event>
<event>
 7    1  0.2783785E-010  0.4778727E+02  0.7816164E-02  0.1312668E+00
        -11   -1    0    0    0    0  0.00000000000E+00  0.00000000000E+00  0.45593999997E+02  0.45594000000E+02  0.51100000000E-03 0.  1.
         11   -1    0    0    0    0 -0.00000000000E+00 -0.00000000000E+00 -0.45593999997E+02  0.45594000000E+02  0.51100000000E-03 0. -1.
    9900012    2    1    2    0    0 -0.29632185003E+02  0.28849159560E+02  0.13163686821E+02  0.47787273668E+02  0.20000011962E+02 0.  0.
        -12    1    1    2    0    0  0.29632185003E+02 -0.28849159560E+02 -0.13163686821E+02  0.43400726332E+02  0.00000000000E+00 0.  1.
         11    1    3    3    0    0 -0.13622080837E+02  0.19957256764E+02  0.64636937994E+01  0.25012647235E+02  0.51100000000E-03 0. -1.
        -11    1    3    3    0    0 -0.10604532671E+02  0.66517425997E+01  0.10031251141E+02  0.16041439851E+02  0.51100000000E-03 0.  1.
         12    1    3    3    0    0 -0.54055714954E+01  0.22401601962E+01 -0.33312581191E+01  0.67331865823E+01  0.00000000000E+00 0. -1.
</event>
<event>
 7    1  0.2783785E-010  0.4778728E+02  0.7816164E-02  0.1312668E+00
        -11   -1    0    0    0    0  0.00000000000E+00  0.00000000000E+00  0.45593999997E+02  0.45594000000E+02  0.51100000000E-03 0.  1.
         11   -1    0    0    0    0 -0.00000000000E+00 -0.00000000000E+00 -0.45593999997E+02  0.45594000000E+02  0.51100000000E-03 0. -1.
    9900012    2    1    2    0    0 -0.21242988416E+02  0.25002763031E+01 -0.37763823054E+02  0.47787282609E+02  0.20000052727E+02 0.  0.
        -12    1    1    2    0    0  0.21242988416E+02 -0.25002763031E+01  0.37763823054E+02  0.43400717391E+02  0.00000000000E+00 0.  1.
         11    1    3    3    0    0 -0.17707098728E+02  0.51640466013E+01 -0.26520143080E+02  0.32303664063E+02  0.51100000000E-03 0. -1.
        -11    1    3    3    0    0  0.14942627560E+01  0.12330184080E+01 -0.82081315783E+01  0.84336575604E+01  0.51100000000E-03 0.  1.
        -12    1    3    3    0    0 -0.50301524442E+01 -0.38967887062E+01 -0.30355483954E+01  0.70499609853E+01  0.00000000000E+00 0.  1.
</event>
<event>
 7    1  0.2783785E-010  0.4778727E+02  0.7816164E-02  0.1312668E+00
        -11   -1    0    0    0    0  0.00000000000E+00  0.00000000000E+00  0.45593999997E+02  0.45594000000E+02  0.51100000000E-03 0. -1.
         11   -1    0    0    0    0 -0.00000000000E+00 -0.00000000000E+00 -0.45593999997E+02  0.45594000000E+02  0.51100000000E-03 0.  1.
    9900012    2    1    2    0    0  0.29184977546E+02  0.13423160429E+02  0.29183538480E+02  0.47787273411E+02  0.20000010788E+02 0.  0.
        -12    1    1    2    0    0 -0.29184977546E+02 -0.13423160429E+02 -0.29183538480E+02  0.43400726589E+02  0.00000000000E+00 0.  1.
         11    1    3    3    0    0  0.11808445747E+02  0.12475682590E+02  0.98507732300E+01  0.19802014558E+02  0.51100000000E-03 0. -1.
        -11    1    3    3    0    0  0.29911557020E+00 -0.20567820239E+01  0.86810507421E-01  0.20802304544E+01  0.51100000000E-03 0.  1.
         12    1    3    3    0    0  0.17077416229E+02  0.30042598634E+01  0.19245954742E+02  0.25905028399E+02  0.00000000000E+00 0. -1.
</event>
<event>
 7    1  0.2783785E-010  0.4778727E+02  0.7816164E-02  0.1312668E+00
        -11   -1    0    0    0    0  0.00000000000E+00  0.00000000000E+00  0.45593999997E+02  0.45594000000E+02  0.51100000000E-03 0.  1.
         11   -1    0    0    0    0 -0.00000000000E+00 -0.00000000000E+00 -0.45593999997E+02  0.45594000000E+02  0.51100000000E-03 0. -1.
    9900012    2    1    2    0    0 -0.24647881756E+02 -0.12373004432E+02 -0.33511401422E+02  0.47787270294E+02  0.19999996578E+02 0.  0.
        -12    1    1    2    0    0  0.24647881756E+02  0.12373004432E+02  0.33511401422E+02  0.43400729706E+02  0.00000000000E+00 0.  1.
         11    1    3    3    0    0  0.19083024631E+01 -0.62785754715E+01 -0.43769114764E+01  0.78879327187E+01  0.51100000000E-03 0. -1.
        -11    1    3    3    0    0 -0.83662498704E+01 -0.17102558393E+01 -0.86207066556E+01  0.12134071676E+02  0.51100000000E-03 0.  1.
         12    1    3    3    0    0 -0.18189934349E+02 -0.43841731208E+01 -0.20513783290E+02  0.27765265899E+02  0.00000000000E+00 0. -1.
</event>
<event>
 7    1  0.2783785E-010  0.4778727E+02  0.7816164E-02  0.1312668E+00
        -11   -1    0    0    0    0  0.00000000000E+00  0.00000000000E+00  0.45593999997E+02  0.45594000000E+02  0.51100000000E-03 0.  1.
         11   -1    0    0    0    0 -0.00000000000E+00 -0.00000000000E+00 -0.45593999997E+02  0.45594000000E+02  0.51100000000E-03 0. -1.
    9900012    2    1    2    0    0  0.34931541592E+02  0.23441827082E+02  0.10671989767E+02  0.47787271659E+02  0.20000002802E+02 0.  0.
        -12    1    1    2    0    0 -0.34931541592E+02 -0.23441827082E+02 -0.10671989767E+02  0.43400728341E+02  0.00000000000E+00 0.  1.
         11    1    3    3    0    0  0.90459976714E+01  0.10067918289E+02 -0.30375918931E+01  0.13871554250E+02  0.51100000000E-03 0. -1.
        -11    1    3    3    0    0  0.26099608226E+01  0.45404408717E+01  0.57529421010E+01  0.77797070564E+01  0.51100000000E-03 0.  1.
         12    1    3    3    0    0  0.23275583098E+02  0.88334679213E+01  0.79566395589E+01  0.26136010353E+02  0.00000000000E+00 0. -1.
</event>
<event>
 7    1  0.2783785E-010  0.4778727E+02  0.7816164E-02  0.1312668E+00
        -11   -1    0    0    0    0  0.00000000000E+00  0.00000000000E+00  0.45593999997E+02  0.45594000000E+02  0.51100000000E-03 0.  1.
         11   -1    0    0    0    0 -0.00000000000E+00 -0.00000000000E+00 -0.45593999997E+02  0.45594000000E+02  0.51100000000E-03 0. -1.
    9900012    2    1    2    0    0  0.39044365824E+02 -0.17915660072E+02 -0.61797873682E+01  0.47787272468E+02  0.20000006492E+02 0.  0.
        -12    1    1    2    0    0 -0.39044365824E+02  0.17915660072E+02  0.61797873682E+01  0.43400727532E+02  0.00000000000E+00 0.  1.
         11    1    3    3    0    0  0.11911626244E+02 -0.28793978707E+01 -0.84011004705E+01  0.14857868664E+02  0.51100000000E-03 0. -1.
        -11    1    3    3    0    0  0.22758786807E+02 -0.71889274277E+01  0.14086207511E+01  0.23908727845E+02  0.51100000000E-03 0.  1.
         12    1    3    3    0    0  0.43739527728E+01 -0.78473347731E+01  0.81269235125E+00  0.90206759590E+01  0.00000000000E+00 0. -1.
</event>
<event>
 7    1  0.2783785E-010  0.4778727E+02  0.7816164E-02  0.1312668E+00
        -11   -1    0    0    0    0  0.00000000000E+00  0.00000000000E+00  0.45593999997E+02  0.45594000000E+02  0.51100000000E-03 0.  1.
         11   -1    0    0    0    0 -0.00000000000E+00 -0.00000000000E+00 -0.45593999997E+02  0.45594000000E+02  0.51100000000E-03 0. -1.
    9900012    2    1    2    0    0 -0.15498636288E+02 -0.40506283025E+02 -0.16299348954E+01  0.47787269833E+02  0.19999994475E+02 0.  0.
        -12    1    1    2    0    0  0.15498636288E+02  0.40506283025E+02  0.16299348954E+01  0.43400730167E+02  0.00000000000E+00 0.  1.
         11    1    3    3    0    0 -0.88414372117E+01 -0.36984244401E+01 -0.16083476323E+01  0.97178257689E+01  0.51100000000E-03 0. -1.
        -11    1    3    3    0    0 -0.74810280706E-01 -0.17632143249E+02  0.17458823848E+01  0.17718526397E+02  0.51100000000E-03 0.  1.
        -12    1    3    3    0    0 -0.65823887957E+01 -0.19175715336E+02 -0.17674696479E+01  0.20350917667E+02  0.00000000000E+00 0.  1.
</event>
<event>
 7    1  0.2783785E-010  0.4778728E+02  0.7816164E-02  0.1312668E+00
        -11   -1    0    0    0    0  0.00000000000E+00  0.00000000000E+00  0.45593999997E+02  0.45594000000E+02  0.51100000000E-03 0. -1.
         11   -1    0    0    0    0 -0.00000000000E+00 -0.00000000000E+00 -0.45593999997E+02  0.45594000000E+02  0.51100000000E-03 0.  1.
    9900012    2    1    2    0    0  0.26322560751E+02 -0.18711547023E+02  0.28993505040E+02  0.47787279603E+02  0.20000039022E+02 0.  0.
        -12    1    1    2    0    0 -0.26322560751E+02  0.18711547023E+02 -0.28993505040E+02  0.43400720397E+02  0.00000000000E+00 0.  1.
         11    1    3    3    0    0  0.15715768676E+02 -0.33646333620E+01  0.19553881108E+02  0.25311270402E+02  0.51100000000E-03 0. -1.
        -11    1    3    3    0    0  0.11170050894E+01 -0.23432027866E+01 -0.15135837903E+01  0.30048686860E+01  0.51100000000E-03 0.  1.
        -12    1    3    3    0    0  0.94897869864E+01 -0.13003710874E+02  0.10953207722E+02  0.19471140515E+02  0.00000000000E+00 0.  1.
</event>
<event>
 7    1  0.2783785E-010  0.4778727E+02  0.7816164E-02  0.1312668E+00
        -11   -1    0    0    0    0  0.00000000000E+00  0.00000000000E+00  0.45593999997E+02  0.45594000000E+02  0.51100000000E-03 0.  1.
         11   -1    0    0    0    0 -0.00000000000E+00 -0.00000000000E+00 -0.45593999997E+02  0.45594000000E+02  0.51100000000E-03 0. -1.
    9900012    2    1    2    0    0 -0.25963984507E+00 -0.41417940482E+02 -0.12965723152E+02  0.47787272086E+02  0.20000004747E+02 0.  0.
        -12    1    1    2    0    0  0.25963984507E+00  0.41417940482E+02  0.12965723152E+02  0.43400727914E+02  0.00000000000E+00 0.  1.
         11    1    3    3    0    0  0.27970796315E+01 -0.97114052364E+01 -0.39794584986E+01  0.10861451852E+02  0.51100000000E-03 0. -1.
        -11    1    3    3    0    0  0.34709061245E+01 -0.17033464316E+02 -0.11251859915E+02  0.20707255920E+02  0.51100000000E-03 0.  1.
        -12    1    3    3    0    0 -0.65276256011E+01 -0.14673070930E+02  0.22655952617E+01  0.16218564313E+02  0.00000000000E+00 0.  1.
</event>
<event>
 7    1  0.2783785E-010  0.4778727E+02  0.7816164E-02  0.1312668E+00
        -11   -1    0    0    0    0  0.00000000000E+00  0.00000000000E+00  0.45593999997E+02  0.45594000000E+02  0.51100000000E-03 0.  1.
         11   -1    0    0    0    0 -0.00000000000E+00 -0.00000000000E+00 -0.45593999997E+02  0.45594000000E+02  0.51100000000E-03 0. -1.
    9900012    2    1    2    0    0 -0.12251176522E+02 -0.22382900898E+01 -0.41575498984E+02  0.47787269770E+02  0.19999994190E+02 0.  0.
        -12    1    1    2    0    0  0.12251176522E+02  0.22382900898E+01  0.41575498984E+02  0.43400730230E+02  0.00000000000E+00 0.  1.
         11    1    3    3    0    0 -0.59775872447E+01  0.40193729792E+01 -0.99236984859E+01  0.12262410053E+02  0.51100000000E-03 0.  1.
        -11    1    3    3    0    0  0.38349760416E+01 -0.44253929839E+01 -0.11309036091E+02  0.12735204822E+02  0.51100000000E-03 0. -1.
         12    1    3    3    0    0 -0.10108565319E+02 -0.18322700851E+01 -0.20342764408E+02  0.22789654894E+02  0.00000000000E+00 0. -1.
</event>
<event>
 7    1  0.2783785E-010  0.4778727E+02  0.7816164E-02  0.1312668E+00
        -11   -1    0    0    0    0  0.00000000000E+00  0.00000000000E+00  0.45593999997E+02  0.45594000000E+02  0.51100000000E-03 0.  1.
         11   -1    0    0    0    0 -0.00000000000E+00 -0.00000000000E+00 -0.45593999997E+02  0.45594000000E+02  0.51100000000E-03 0. -1.
    9900012    2    1    2    0    0  0.23346769637E+02  0.32366626064E+02 -0.17057362537E+02  0.47787265537E+02  0.19999974888E+02 0.  0.
        -12    1    1    2    0    0 -0.23346769637E+02 -0.32366626064E+02  0.17057362537E+02  0.43400734463E+02  0.00000000000E+00 0.  1.
         11    1    3    3    0    0  0.69836233220E+01  0.42554841459E+00 -0.58739446013E+01  0.91353878733E+01  0.51100000000E-03 0. -1.
        -11    1    3    3    0    0  0.42954534424E+01  0.14065071814E+02 -0.83140326332E+01  0.16893794846E+02  0.51100000000E-03 0.  1.
        -12    1    3    3    0    0  0.12067692873E+02  0.17876005835E+02 -0.28693853030E+01  0.21758082817E+02  0.00000000000E+00 0.  1.
</event>
<event>
 7    1  0.2783785E-010  0.4778727E+02  0.7816164E-02  0.1312668E+00
        -11   -1    0    0    0    0  0.00000000000E+00  0.00000000000E+00  0.45593999997E+02  0.45594000000E+02  0.51100000000E-03 0.  1.
         11   -1    0    0    0    0 -0.00000000000E+00 -0.00000000000E+00 -0.45593999997E+02  0.45594000000E+02  0.51100000000E-03 0. -1.
    9900012    2    1    2    0    0  0.33103132663E+02 -0.19770251918E+02 -0.19923432926E+02  0.47787269216E+02  0.19999991664E+02 0.  0.
        -12    1    1    2    0    0 -0.33103132663E+02  0.19770251918E+02  0.19923432926E+02  0.43400730784E+02  0.00000000000E+00 0.  1.
         11    1    3    3    0    0  0.59810833812E+01 -0.65627159020E+01 -0.97974766478E+01  0.13222448614E+02  0.51100000000E-03 0. -1.
        -11    1    3    3    0    0  0.77548774009E+01  0.19861759207E+01 -0.15615081748E+00  0.80067097880E+01  0.51100000000E-03 0.  1.
         12    1    3    3    0    0  0.19367171881E+02 -0.15193711936E+02 -0.99698054609E+01  0.26558110814E+02  0.00000000000E+00 0. -1.
</event>
<event>
 7    1  0.2783785E-010  0.4778727E+02  0.7816164E-02  0.1312668E+00
        -11   -1    0    0    0    0  0.00000000000E+00  0.00000000000E+00  0.45593999997E+02  0.45594000000E+02  0.51100000000E-03 0.  1.
         11   -1    0    0    0    0 -0.00000000000E+00 -0.00000000000E+00 -0.45593999997E+02  0.45594000000E+02  0.51100000000E-03 0. -1.
    9900012    2    1    2    0    0  0.13041541387E+01 -0.12379431887E+02 -0.41577301615E+02  0.47787272339E+02  0.20000005904E+02 0.  0.
        -12    1    1    2    0    0 -0.13041541387E+01  0.12379431887E+02  0.41577301615E+02  0.43400727661E+02  0.00000000000E+00 0.  1.
         11    1    3    3    0    0  0.10612630819E+01 -0.68772470346E+01 -0.19537378657E+02  0.20739623216E+02  0.51100000000E-03 0. -1.
        -11    1    3    3    0    0 -0.37886886276E+01 -0.46322368751E+01 -0.15982366695E+01  0.61940407407E+01  0.51100000000E-03 0.  1.
         12    1    3    3    0    0  0.40315796844E+01 -0.86994797759E+00 -0.20441686289E+02  0.20853608382E+02  0.00000000000E+00 0. -1.
</event>
<event>
 7    1  0.2783785E-010  0.4778727E+02  0.7816164E-02  0.1312668E+00
        -11   -1    0    0    0    0  0.00000000000E+00  0.00000000000E+00  0.45593999997E+02  0.45594000000E+02  0.51100000000E-03 0.  1.
         11   -1    0    0    0    0 -0.00000000000E+00 -0.00000000000E+00 -0.45593999997E+02  0.45594000000E+02  0.51100000000E-03 0. -1.
    9900012    2    1    2    0    0 -0.26797016958E+01 -0.40381967758E+02 -0.15676066390E+02  0.47787272141E+02  0.20000005000E+02 0.  0.
        -12    1    1    2    0    0  0.26797016958E+01  0.40381967758E+02  0.15676066390E+02  0.43400727859E+02  0.00000000000E+00 0.  1.
         11    1    3    3    0    0  0.19988149688E+01 -0.28057474245E+00  0.53707024491E+00  0.20886426632E+01  0.51100000000E-03 0.  1.
        -11    1    3    3    0    0 -0.79295598816E+01 -0.26707321499E+02 -0.58825768213E+01  0.28473911777E+02  0.51100000000E-03 0. -1.
         12    1    3    3    0    0  0.32510432170E+01 -0.13394071517E+02 -0.10330559814E+02  0.17224717701E+02  0.00000000000E+00 0. -1.
</event>
<event>
 7    1  0.4166861E-010  0.4778726E+02  0.7816164E-02  0.1312668E+00
        -11   -1    0    0    0    0  0.00000000000E+00  0.00000000000E+00  0.45593999997E+02  0.45594000000E+02  0.51100000000E-03 0.  1.
         11   -1    0    0    0    0 -0.00000000000E+00 -0.00000000000E+00 -0.45593999997E+02  0.45594000000E+02  0.51100000000E-03 0. -1.
    9900012    2    1    2    0    0  0.24662258672E+02 -0.35243504978E+02 -0.57699358569E+01  0.47787264917E+02  0.19999972064E+02 0.  0.
        -12    1    1    2    0    0 -0.24662258672E+02  0.35243504978E+02  0.57699358569E+01  0.43400735083E+02  0.00000000000E+00 0.  1.
         11    1    3    3    0    0  0.15148408727E+02 -0.15583799368E+02  0.19679562629E+01  0.21822051733E+02  0.51100000000E-03 0. -1.
        -11    1    3    3    0    0 -0.17774090101E+01 -0.20085638432E+01  0.14916133637E+01  0.30689448006E+01  0.51100000000E-03 0.  1.
        -12    1    3    3    0    0  0.11291258955E+02 -0.17651141766E+02 -0.92295054834E+01  0.22896268384E+02  0.00000000000E+00 0.  1.
</event>
<event>
 7    1  0.2783785E-010  0.4778729E+02  0.7816164E-02  0.1312668E+00
        -11   -1    0    0    0    0  0.00000000000E+00  0.00000000000E+00  0.45593999997E+02  0.45594000000E+02  0.51100000000E-03 0. -1.
         11   -1    0    0    0    0 -0.00000000000E+00 -0.00000000000E+00 -0.45593999997E+02  0.45594000000E+02  0.51100000000E-03 0.  1.
    9900012    2    1    2    0    0 -0.41672948680E+02 -0.33141013628E+00 -0.12119292592E+02  0.47787288746E+02  0.20000080710E+02 0.  0.
        -12    1    1    2    0    0  0.41672948680E+02  0.33141013628E+00  0.12119292592E+02  0.43400711254E+02  0.00000000000E+00 0.  1.
         11    1    3    3    0    0 -0.17535294593E+02 -0.43364827859E+01 -0.11893690992E+02  0.21627564011E+02  0.51100000000E-03 0.  1.
        -11    1    3    3    0    0 -0.13263512929E+02 -0.23452940533E+01 -0.12405044617E+01  0.13526271881E+02  0.51100000000E-03 0. -1.
        -12    1    3    3    0    0 -0.10874141159E+02  0.63503667029E+01  0.10149028612E+01  0.12633452854E+02  0.00000000000E+00 0.  1.
</event>
<event>
 7    1  0.2783785E-010  0.4778727E+02  0.7816164E-02  0.1312668E+00
        -11   -1    0    0    0    0  0.00000000000E+00  0.00000000000E+00  0.45593999997E+02  0.45594000000E+02  0.51100000000E-03 0.  1.
         11   -1    0    0    0    0 -0.00000000000E+00 -0.00000000000E+00 -0.45593999997E+02  0.45594000000E+02  0.51100000000E-03 0. -1.
    9900012    2    1    2    0    0  0.97760176842E+01  0.32343260015E+02 -0.27239054640E+02  0.47787273188E+02  0.20000009772E+02 0.  0.
        -12    1    1    2    0    0 -0.97760176842E+01 -0.32343260015E+02  0.27239054640E+02  0.43400726812E+02  0.00000000000E+00 0.  1.
         11    1    3    3    0    0  0.75424984809E+01  0.22332319331E+02 -0.11421161339E+02  0.26192836743E+02  0.51100000000E-03 0. -1.
        -11    1    3    3    0    0  0.13229516194E+01  0.11280326231E+02 -0.16381541745E+02  0.19933661758E+02  0.51100000000E-03 0.  1.
        -12    1    3    3    0    0  0.91056758394E+00 -0.12693855476E+01  0.56364844366E+00  0.16607746871E+01  0.00000000000E+00 0.  1.
</event>
<event>
 7    1  0.2783785E-010  0.4778727E+02  0.7816164E-02  0.1312668E+00
        -11   -1    0    0    0    0  0.00000000000E+00  0.00000000000E+00  0.45593999997E+02  0.45594000000E+02  0.51100000000E-03 0.  1.
         11   -1    0    0    0    0 -0.00000000000E+00 -0.00000000000E+00 -0.45593999997E+02  0.45594000000E+02  0.51100000000E-03 0. -1.
    9900012    2    1    2    0    0 -0.28290068377E+02  0.31367347656E+02 -0.99691914897E+01  0.47787271357E+02  0.20000001425E+02 0.  0.
        -12    1    1    2    0    0  0.28290068377E+02 -0.31367347656E+02  0.99691914897E+01  0.43400728643E+02  0.00000000000E+00 0.  1.
         11    1    3    3    0    0 -0.32701072100E+00  0.40100376838E+01 -0.30450519718E+01  0.50457586158E+01  0.51100000000E-03 0. -1.
        -11    1    3    3    0    0 -0.21592737466E+02  0.23670722182E+02  0.82987013041E+00  0.32050555137E+02  0.51100000000E-03 0.  1.
        -12    1    3    3    0    0 -0.63703201903E+01  0.36865877903E+01 -0.77540096483E+01  0.10690957604E+02  0.00000000000E+00 0.  1.
</event>
<event>
 7    1  0.2783785E-010  0.4778726E+02  0.7816164E-02  0.1312668E+00
        -11   -1    0    0    0    0  0.00000000000E+00  0.00000000000E+00  0.45593999997E+02  0.45594000000E+02  0.51100000000E-03 0.  1.
         11   -1    0    0    0    0 -0.00000000000E+00 -0.00000000000E+00 -0.45593999997E+02  0.45594000000E+02  0.51100000000E-03 0. -1.
    9900012    2    1    2    0    0  0.11232656492E+02 -0.39854087632E+02 -0.13003970021E+02  0.47787261422E+02  0.19999956127E+02 0.  0.
        -12    1    1    2    0    0 -0.11232656492E+02  0.39854087632E+02  0.13003970021E+02  0.43400738578E+02  0.00000000000E+00 0.  1.
         11    1    3    3    0    0 -0.14136971483E+01 -0.22827064534E+01 -0.23058555344E+01  0.35392454543E+01  0.51100000000E-03 0. -1.
        -11    1    3    3    0    0  0.18081927014E+01 -0.15550524778E+02  0.32913571722E+01  0.15997543999E+02  0.51100000000E-03 0.  1.
         12    1    3    3    0    0  0.10838160939E+02 -0.22020856401E+02 -0.13989471659E+02  0.28250471969E+02  0.00000000000E+00 0. -1.
</event>
<event>
 7    1  0.2783785E-010  0.4778727E+02  0.7816164E-02  0.1312668E+00
        -11   -1    0    0    0    0  0.00000000000E+00  0.00000000000E+00  0.45593999997E+02  0.45594000000E+02  0.51100000000E-03 0.  1.
         11   -1    0    0    0    0 -0.00000000000E+00 -0.00000000000E+00 -0.45593999997E+02  0.45594000000E+02  0.51100000000E-03 0. -1.
    9900012    2    1    2    0    0 -0.12962632463E+01  0.43380990126E+02 -0.18127876824E+00  0.47787268846E+02  0.19999989976E+02 0.  0.
        -12    1    1    2    0    0  0.12962632463E+01 -0.43380990126E+02  0.18127876824E+00  0.43400731154E+02  0.00000000000E+00 0.  1.
         11    1    3    3    0    0 -0.68046232005E+01  0.48747809419E+01 -0.16883924526E+01  0.85391484041E+01  0.51100000000E-03 0. -1.
        -11    1    3    3    0    0  0.20416177774E+01  0.11803421171E+02  0.27583821486E+01  0.12292177464E+02  0.51100000000E-03 0.  1.
         12    1    3    3    0    0  0.34667421768E+01  0.26702788014E+02 -0.12512684643E+01  0.26955942977E+02  0.00000000000E+00 0. -1.
</event>
<event>
 7    1  0.2783785E-010  0.4778727E+02  0.7816164E-02  0.1312668E+00
        -11   -1    0    0    0    0  0.00000000000E+00  0.00000000000E+00  0.45593999997E+02  0.45594000000E+02  0.51100000000E-03 0.  1.
         11   -1    0    0    0    0 -0.00000000000E+00 -0.00000000000E+00 -0.45593999997E+02  0.45594000000E+02  0.51100000000E-03 0. -1.
    9900012    2    1    2    0    0  0.32388065882E+02  0.11993032922E+02  0.26283152567E+02  0.47787265455E+02  0.19999974515E+02 0.  0.
        -12    1    1    2    0    0 -0.32388065882E+02 -0.11993032922E+02 -0.26283152567E+02  0.43400734545E+02  0.00000000000E+00 0.  1.
         11    1    3    3    0    0  0.32948945697E+02  0.78086060202E+01  0.23219298938E+02  0.41057803082E+02  0.51100000000E-03 0. -1.
        -11    1    3    3    0    0 -0.12425290577E+01 -0.36078580975E+00  0.18699209580E+00  0.13072915377E+01  0.51100000000E-03 0.  1.
         12    1    3    3    0    0  0.68164924206E+00  0.45452127111E+01  0.28768615332E+01  0.54221708346E+01  0.00000000000E+00 0. -1.
</event>
<event>
 7    1  0.2783785E-010  0.4778728E+02  0.7816164E-02  0.1312668E+00
        -11   -1    0    0    0    0  0.00000000000E+00  0.00000000000E+00  0.45593999997E+02  0.45594000000E+02  0.51100000000E-03 0.  1.
         11   -1    0    0    0    0 -0.00000000000E+00 -0.00000000000E+00 -0.45593999997E+02  0.45594000000E+02  0.51100000000E-03 0. -1.
    9900012    2    1    2    0    0 -0.25511639999E+02  0.23709285237E+02 -0.25896890008E+02  0.47787275422E+02  0.20000019957E+02 0.  0.
        -12    1    1    2    0    0  0.25511639999E+02 -0.23709285237E+02  0.25896890008E+02  0.43400724578E+02  0.00000000000E+00 0.  1.
         11    1    3    3    0    0 -0.17381839640E+02  0.13445716092E+02 -0.16716906820E+02  0.27611059458E+02  0.51100000000E-03 0. -1.
        -11    1    3    3    0    0 -0.27640607330E+01 -0.23456355844E+01 -0.43130015622E+01  0.56341832387E+01  0.51100000000E-03 0.  1.
        -12    1    3    3    0    0 -0.53657396263E+01  0.12609204729E+02 -0.48669816249E+01  0.14542032725E+02  0.00000000000E+00 0.  1.
</event>
<event>
 7    1  0.2783785E-010  0.4778727E+02  0.7816164E-02  0.1312668E+00
        -11   -1    0    0    0    0  0.00000000000E+00  0.00000000000E+00  0.45593999997E+02  0.45594000000E+02  0.51100000000E-03 0.  1.
         11   -1    0    0    0    0 -0.00000000000E+00 -0.00000000000E+00 -0.45593999997E+02  0.45594000000E+02  0.51100000000E-03 0. -1.
    9900012    2    1    2    0    0 -0.23761497969E+02 -0.26459734273E+02 -0.24877640621E+02  0.47787270439E+02  0.19999997241E+02 0.  0.
        -12    1    1    2    0    0  0.23761497969E+02  0.26459734273E+02  0.24877640621E+02  0.43400729561E+02  0.00000000000E+00 0.  1.
         11    1    3    3    0    0 -0.11661200076E+02 -0.21657030756E+01 -0.10607559716E+02  0.15912076559E+02  0.51100000000E-03 0. -1.
        -11    1    3    3    0    0 -0.96627324213E+01 -0.10557653928E+02 -0.51628208877E+01  0.15214702564E+02  0.51100000000E-03 0.  1.
         12    1    3    3    0    0 -0.24375654721E+01 -0.13736377269E+02 -0.91072600175E+01  0.16660491317E+02  0.00000000000E+00 0. -1.
</event>
<event>
 7    1  0.2783785E-010  0.4778727E+02  0.7816164E-02  0.1312668E+00
        -11   -1    0    0    0    0  0.00000000000E+00  0.00000000000E+00  0.45593999997E+02  0.45594000000E+02  0.51100000000E-03 0.  1.
         11   -1    0    0    0    0 -0.00000000000E+00 -0.00000000000E+00 -0.45593999997E+02  0.45594000000E+02  0.51100000000E-03 0. -1.
    9900012    2    1    2    0    0 -0.13092788492E+02 -0.45358376609E+01 -0.41129408748E+02  0.47787271921E+02  0.20000003999E+02 0.  0.
        -12    1    1    2    0    0  0.13092788492E+02  0.45358376609E+01  0.41129408748E+02  0.43400728079E+02  0.00000000000E+00 0.  1.
         11    1    3    3    0    0 -0.39154486097E+00  0.14210682268E+01 -0.24696117126E+02  0.24740067575E+02  0.51100000000E-03 0. -1.
        -11    1    3    3    0    0 -0.10683401520E+02 -0.10199432822E+01 -0.12114580775E+02  0.16184511730E+02  0.51100000000E-03 0.  1.
        -12    1    3    3    0    0 -0.20178421110E+01 -0.49369626055E+01 -0.43187108474E+01  0.68626926157E+01  0.00000000000E+00 0.  1.
</event>
<event>
 7    1  0.2783785E-010  0.4778727E+02  0.7816164E-02  0.1312668E+00
        -11   -1    0    0    0    0  0.00000000000E+00  0.00000000000E+00  0.45593999997E+02  0.45594000000E+02  0.51100000000E-03 0.  1.
         11   -1    0    0    0    0 -0.00000000000E+00 -0.00000000000E+00 -0.45593999997E+02  0.45594000000E+02  0.51100000000E-03 0. -1.
    9900012    2    1    2    0    0  0.11360752453E+02 -0.37757379985E+01 -0.41716908108E+02  0.47787270561E+02  0.19999997795E+02 0.  0.
        -12    1    1    2    0    0 -0.11360752453E+02  0.37757379985E+01  0.41716908108E+02  0.43400729439E+02  0.00000000000E+00 0.  1.
         11    1    3    3    0    0  0.41458126002E+00  0.16470229736E+00  0.19256008172E+01  0.19765989063E+01  0.51100000000E-03 0. -1.
        -11    1    3    3    0    0  0.28826094158E+01  0.22870648658E+01 -0.13519935461E+02  0.14011736434E+02  0.51100000000E-03 0.  1.
         12    1    3    3    0    0  0.80635617768E+01 -0.62275051618E+01 -0.30122573464E+02  0.31798935221E+02  0.00000000000E+00 0. -1.
</event>
<event>
 7    1  0.2783785E-010  0.4778727E+02  0.7816164E-02  0.1312668E+00
        -11   -1    0    0    0    0  0.00000000000E+00  0.00000000000E+00  0.45593999997E+02  0.45594000000E+02  0.51100000000E-03 0.  1.
         11   -1    0    0    0    0 -0.00000000000E+00 -0.00000000000E+00 -0.45593999997E+02  0.45594000000E+02  0.51100000000E-03 0. -1.
    9900012    2    1    2    0    0 -0.16054175965E+02 -0.45951819896E+01 -0.40059593681E+02  0.47787270636E+02  0.19999998137E+02 0.  0.
        -12    1    1    2    0    0  0.16054175965E+02  0.45951819896E+01  0.40059593681E+02  0.43400729364E+02  0.00000000000E+00 0.  1.
         11    1    3    3    0    0  0.32563702200E+01  0.13684967442E+01 -0.13842741558E+02  0.14286294987E+02  0.51100000000E-03 0. -1.
        -11    1    3    3    0    0 -0.90941860136E-01  0.29062976114E+00 -0.16997122925E+01  0.17267768293E+01  0.51100000000E-03 0.  1.
        -12    1    3    3    0    0 -0.19219604325E+02 -0.62543084950E+01 -0.24517139831E+02  0.31774198820E+02  0.00000000000E+00 0.  1.
</event>
<event>
 7    1  0.2783785E-010  0.4778727E+02  0.7816164E-02  0.1312668E+00
        -11   -1    0    0    0    0  0.00000000000E+00  0.00000000000E+00  0.45593999997E+02  0.45594000000E+02  0.51100000000E-03 0.  1.
         11   -1    0    0    0    0 -0.00000000000E+00 -0.00000000000E+00 -0.45593999997E+02  0.45594000000E+02  0.51100000000E-03 0. -1.
    9900012    2    1    2    0    0 -0.10117702383E+01 -0.91786447234E+01 -0.42406978706E+02  0.47787273728E+02  0.20000012235E+02 0.  0.
        -12    1    1    2    0    0  0.10117702383E+01  0.91786447234E+01  0.42406978706E+02  0.43400726272E+02  0.00000000000E+00 0.  1.
         11    1    3    3    0    0  0.11520152464E+01  0.22500435641E+01 -0.20206670243E+02  0.20364168477E+02  0.51100000000E-03 0. -1.
        -11    1    3    3    0    0  0.18386054209E+01  0.49890033541E+00 -0.89532975039E+01  0.91537373730E+01  0.51100000000E-03 0.  1.
        -12    1    3    3    0    0 -0.40023909056E+01 -0.11927588623E+02 -0.13247010959E+02  0.18269367878E+02  0.00000000000E+00 0.  1.
</event>
<event>
 7    1  0.2783785E-010  0.4778727E+02  0.7816164E-02  0.1312668E+00
        -11   -1    0    0    0    0  0.00000000000E+00  0.00000000000E+00  0.45593999997E+02  0.45594000000E+02  0.51100000000E-03 0.  1.
         11   -1    0    0    0    0 -0.00000000000E+00 -0.00000000000E+00 -0.45593999997E+02  0.45594000000E+02  0.51100000000E-03 0. -1.
    9900012    2    1    2    0    0  0.30408243613E+02  0.20022617221E+02 -0.23623232036E+02  0.47787267612E+02  0.19999984350E+02 0.  0.
        -12    1    1    2    0    0 -0.30408243613E+02 -0.20022617221E+02  0.23623232036E+02  0.43400732388E+02  0.00000000000E+00 0.  1.
         11    1    3    3    0    0  0.16490220329E+02  0.33983342149E+01 -0.59063057805E+01  0.17842659279E+02  0.51100000000E-03 0. -1.
        -11    1    3    3    0    0 -0.36415009547E+00  0.38429310173E+01 -0.23651291108E-01  0.38602180949E+01  0.51100000000E-03 0.  1.
        -12    1    3    3    0    0  0.14282173380E+02  0.12781351989E+02 -0.17693274964E+02  0.26084390238E+02  0.00000000000E+00 0.  1.
</event>
<event>
 7    1  0.2783785E-010  0.4778728E+02  0.7816164E-02  0.1312668E+00
        -11   -1    0    0    0    0  0.00000000000E+00  0.00000000000E+00  0.45593999997E+02  0.45594000000E+02  0.51100000000E-03 0.  1.
         11   -1    0    0    0    0 -0.00000000000E+00 -0.00000000000E+00 -0.45593999997E+02  0.45594000000E+02  0.51100000000E-03 0. -1.
    9900012    2    1    2    0    0  0.14713306181E+02 -0.18147652629E+01 -0.40790289604E+02  0.47787280216E+02  0.20000041819E+02 0.  0.
        -12    1    1    2    0    0 -0.14713306181E+02  0.18147652629E+01  0.40790289604E+02  0.43400719784E+02  0.00000000000E+00 0.  1.
         11    1    3    3    0    0 -0.39158750247E+01  0.13419377358E+01 -0.74959078378E+01  0.85629147298E+01  0.51100000000E-03 0. -1.
        -11    1    3    3    0    0  0.79570212645E+01  0.25992377933E+01 -0.10735692419E+02  0.13613424128E+02  0.51100000000E-03 0.  1.
        -12    1    3    3    0    0  0.10672159941E+02 -0.57559407919E+01 -0.22558689348E+02  0.25610941359E+02  0.00000000000E+00 0.  1.
</event>
<event>
 7    1  0.2783785E-010  0.4778727E+02  0.7816164E-02  0.1312668E+00
        -11   -1    0    0    0    0  0.00000000000E+00  0.00000000000E+00  0.45593999997E+02  0.45594000000E+02  0.51100000000E-03 0.  1.
         11   -1    0    0    0    0 -0.00000000000E+00 -0.00000000000E+00 -0.45593999997E+02  0.45594000000E+02  0.51100000000E-03 0. -1.
    9900012    2    1    2    0    0 -0.18949683642E+01  0.28263022709E+02 -0.32882119078E+02  0.47787272900E+02  0.20000008459E+02 0.  0.
        -12    1    1    2    0    0  0.18949683642E+01 -0.28263022709E+02  0.32882119078E+02  0.43400727100E+02  0.00000000000E+00 0.  1.
         11    1    3    3    0    0 -0.32336130444E+01  0.53121563173E+01 -0.23158325105E+01  0.66361388276E+01  0.51100000000E-03 0. -1.
        -11    1    3    3    0    0 -0.71014917015E+00  0.23386035644E+02 -0.31167464579E+02  0.38972064656E+02  0.51100000000E-03 0.  1.
        -12    1    3    3    0    0  0.20487938504E+01 -0.43516925188E+00  0.60117801180E+00  0.21790694163E+01  0.00000000000E+00 0.  1.
</event>
<event>
 7    1  0.2783785E-010  0.4778728E+02  0.7816164E-02  0.1312668E+00
        -11   -1    0    0    0    0  0.00000000000E+00  0.00000000000E+00  0.45593999997E+02  0.45594000000E+02  0.51100000000E-03 0. -1.
         11   -1    0    0    0    0 -0.00000000000E+00 -0.00000000000E+00 -0.45593999997E+02  0.45594000000E+02  0.51100000000E-03 0.  1.
    9900012    2    1    2    0    0  0.77592501237E+00  0.11041805471E+02  0.41965448176E+02  0.47787281478E+02  0.20000047569E+02 0.  0.
        -12    1    1    2    0    0 -0.77592501237E+00 -0.11041805471E+02 -0.41965448176E+02  0.43400718522E+02  0.00000000000E+00 0.  1.
         11    1    3    3    0    0 -0.80532847894E+00  0.81825631140E+01  0.37286147312E+02  0.38181928641E+02  0.51100000000E-03 0. -1.
        -11    1    3    3    0    0 -0.18067424560E+01  0.43129986859E+01  0.29873589007E+01  0.55489268718E+01  0.51100000000E-03 0.  1.
         12    1    3    3    0    0  0.33879959473E+01 -0.14537563293E+01  0.16919419629E+01  0.40564259650E+01  0.00000000000E+00 0. -1.
</event>
<event>
 7    1  0.2783785E-010  0.4778727E+02  0.7816164E-02  0.1312668E+00
        -11   -1    0    0    0    0  0.00000000000E+00  0.00000000000E+00  0.45593999997E+02  0.45594000000E+02  0.51100000000E-03 0. -1.
         11   -1    0    0    0    0 -0.00000000000E+00 -0.00000000000E+00 -0.45593999997E+02  0.45594000000E+02  0.51100000000E-03 0.  1.
    9900012    2    1    2    0    0  0.31548000423E+02 -0.66593931768E+01  0.29051670258E+02  0.47787269673E+02  0.19999993746E+02 0.  0.
        -12    1    1    2    0    0 -0.31548000423E+02  0.66593931768E+01 -0.29051670258E+02  0.43400730327E+02  0.00000000000E+00 0.  1.
         11    1    3    3    0    0  0.11393228796E+02  0.13046868622E+01  0.15405415610E+02  0.19205069658E+02  0.51100000000E-03 0. -1.
        -11    1    3    3    0    0  0.20983841828E+02 -0.46679715841E+01  0.10392743854E+02  0.23877200457E+02  0.51100000000E-03 0.  1.
        -12    1    3    3    0    0 -0.82907020201E+00 -0.32961084548E+01  0.32535107943E+01  0.47049995573E+01  0.00000000000E+00 0.  1.
</event>
<event>
 7    1  0.2783785E-010  0.4778726E+02  0.7816164E-02  0.1312668E+00
        -11   -1    0    0    0    0  0.00000000000E+00  0.00000000000E+00  0.45593999997E+02  0.45594000000E+02  0.51100000000E-03 0.  1.
         11   -1    0    0    0    0 -0.00000000000E+00 -0.00000000000E+00 -0.45593999997E+02  0.45594000000E+02  0.51100000000E-03 0. -1.
    9900012    2    1    2    0    0  0.42518883585E+02  0.20717216549E+01 -0.84543773143E+01  0.47787262821E+02  0.19999962506E+02 0.  0.
        -12    1    1    2    0    0 -0.42518883585E+02 -0.20717216549E+01  0.84543773143E+01  0.43400737179E+02  0.00000000000E+00 0.  1.
         11    1    3    3    0    0  0.25087752755E+02  0.53906048034E+01  0.56334410293E+00  0.25666540773E+02  0.51100000000E-03 0. -1.
        -11    1    3    3    0    0  0.11380258172E+02 -0.46921695047E+01 -0.15424915814E+01  0.12405886154E+02  0.51100000000E-03 0.  1.
        -12    1    3    3    0    0  0.60508726576E+01  0.13732863561E+01 -0.74752298358E+01  0.97148358933E+01  0.00000000000E+00 0.  1.
</event>
<event>
 7    1  0.2783785E-010  0.4778727E+02  0.7816164E-02  0.1312668E+00
        -11   -1    0    0    0    0  0.00000000000E+00  0.00000000000E+00  0.45593999997E+02  0.45594000000E+02  0.51100000000E-03 0.  1.
         11   -1    0    0    0    0 -0.00000000000E+00 -0.00000000000E+00 -0.45593999997E+02  0.45594000000E+02  0.51100000000E-03 0. -1.
    9900012    2    1    2    0    0 -0.73247319628E+01 -0.38485340022E+02 -0.18677526755E+02  0.47787273040E+02  0.20000009099E+02 0.  0.
        -12    1    1    2    0    0  0.73247319628E+01  0.38485340022E+02  0.18677526755E+02  0.43400726960E+02  0.00000000000E+00 0.  1.
         11    1    3    3    0    0 -0.16462731959E+01 -0.16644580826E+02 -0.16971353501E+02  0.23828116296E+02  0.51100000000E-03 0. -1.
        -11    1    3    3    0    0 -0.61608454642E+01 -0.83806455086E+01 -0.16804022499E+00  0.10402858922E+02  0.51100000000E-03 0.  1.
        -12    1    3    3    0    0  0.48238669736E+00 -0.13460113688E+02 -0.15381330292E+01  0.13556297822E+02  0.00000000000E+00 0.  1.
</event>
<event>
 7    1  0.2783785E-010  0.4778727E+02  0.7816164E-02  0.1312668E+00
        -11   -1    0    0    0    0  0.00000000000E+00  0.00000000000E+00  0.45593999997E+02  0.45594000000E+02  0.51100000000E-03 0.  1.
         11   -1    0    0    0    0 -0.00000000000E+00 -0.00000000000E+00 -0.45593999997E+02  0.45594000000E+02  0.51100000000E-03 0. -1.
    9900012    2    1    2    0    0 -0.25591203928E+02 -0.32609078048E+02 -0.12859307859E+02  0.47787268575E+02  0.19999988740E+02 0.  0.
        -12    1    1    2    0    0  0.25591203928E+02  0.32609078048E+02  0.12859307859E+02  0.43400731425E+02  0.00000000000E+00 0.  1.
         11    1    3    3    0    0 -0.52828122733E+01 -0.21011148776E+02 -0.76076757690E+01  0.22961994889E+02  0.51100000000E-03 0. -1.
        -11    1    3    3    0    0 -0.13187528049E+02 -0.10848056761E+02 -0.42335964043E+01  0.17593026184E+02  0.51100000000E-03 0.  1.
        -12    1    3    3    0    0 -0.71208636054E+01 -0.74987251114E+00 -0.10180356858E+01  0.72322475018E+01  0.00000000000E+00 0.  1.
</event>
<event>
 7    1  0.2783785E-010  0.4778727E+02  0.7816164E-02  0.1312668E+00
        -11   -1    0    0    0    0  0.00000000000E+00  0.00000000000E+00  0.45593999997E+02  0.45594000000E+02  0.51100000000E-03 0.  1.
         11   -1    0    0    0    0 -0.00000000000E+00 -0.00000000000E+00 -0.45593999997E+02  0.45594000000E+02  0.51100000000E-03 0. -1.
    9900012    2    1    2    0    0  0.25827445385E+02 -0.26157706264E+02 -0.23072518142E+02  0.47787266993E+02  0.19999981530E+02 0.  0.
        -12    1    1    2    0    0 -0.25827445385E+02  0.26157706264E+02  0.23072518142E+02  0.43400733007E+02  0.00000000000E+00 0.  1.
         11    1    3    3    0    0  0.70199543206E+01 -0.19693475370E+01 -0.19091860332E+01  0.75367818036E+01  0.51100000000E-03 0. -1.
        -11    1    3    3    0    0  0.14744470475E+02 -0.24428511882E+02 -0.13483478735E+02  0.31558767426E+02  0.51100000000E-03 0.  1.
        -12    1    3    3    0    0  0.40630205893E+01  0.24015315543E+00 -0.76798533738E+01  0.86917177640E+01  0.00000000000E+00 0.  1.
</event>
<event>
 7    1  0.2783785E-010  0.4778729E+02  0.7816164E-02  0.1312668E+00
        -11   -1    0    0    0    0  0.00000000000E+00  0.00000000000E+00  0.45593999997E+02  0.45594000000E+02  0.51100000000E-03 0. -1.
         11   -1    0    0    0    0 -0.00000000000E+00 -0.00000000000E+00 -0.45593999997E+02  0.45594000000E+02  0.51100000000E-03 0.  1.
    9900012    2    1    2    0    0  0.24719071807E+02  0.21600343098E+02  0.28390397426E+02  0.47787285733E+02  0.20000066970E+02 0.  0.
        -12    1    1    2    0    0 -0.24719071807E+02 -0.21600343098E+02 -0.28390397426E+02  0.43400714267E+02  0.00000000000E+00 0.  1.
         11    1    3    3    0    0  0.50548501287E+01  0.21693988283E+01  0.86857048602E+01  0.10281015041E+02  0.51100000000E-03 0. -1.
        -11    1    3    3    0    0  0.45539907956E+01 -0.22080102954E+01  0.10030543179E+01  0.51594825183E+01  0.51100000000E-03 0.  1.
         12    1    3    3    0    0  0.15110230882E+02  0.21638954565E+02  0.18701638248E+02  0.32346788173E+02  0.00000000000E+00 0. -1.
</event>
<event>
 7    1  0.2783785E-010  0.4778727E+02  0.7816164E-02  0.1312668E+00
        -11   -1    0    0    0    0  0.00000000000E+00  0.00000000000E+00  0.45593999997E+02  0.45594000000E+02  0.51100000000E-03 0. -1.
         11   -1    0    0    0    0 -0.00000000000E+00 -0.00000000000E+00 -0.45593999997E+02  0.45594000000E+02  0.51100000000E-03 0.  1.
    9900012    2    1    2    0    0 -0.30894870115E+02 -0.12795298776E+02  0.27666061797E+02  0.47787266763E+02  0.19999980477E+02 0.  0.
        -12    1    1    2    0    0  0.30894870115E+02  0.12795298776E+02 -0.27666061797E+02  0.43400733237E+02  0.00000000000E+00 0.  1.
         11    1    3    3    0    0 -0.34967999200E+01 -0.58138127268E+01  0.11110806955E+02  0.13018373921E+02  0.51100000000E-03 0. -1.
        -11    1    3    3    0    0 -0.51780804251E+01  0.27432484085E+01  0.97323684054E+00  0.59401278546E+01  0.51100000000E-03 0.  1.
         12    1    3    3    0    0 -0.22219989770E+02 -0.97247344579E+01  0.15582018001E+02  0.28828764986E+02  0.00000000000E+00 0. -1.
</event>
<event>
 7    1  0.2783785E-010  0.4778727E+02  0.7816164E-02  0.1312668E+00
        -11   -1    0    0    0    0  0.00000000000E+00  0.00000000000E+00  0.45593999997E+02  0.45594000000E+02  0.51100000000E-03 0.  1.
         11   -1    0    0    0    0 -0.00000000000E+00 -0.00000000000E+00 -0.45593999997E+02  0.45594000000E+02  0.51100000000E-03 0. -1.
    9900012    2    1    2    0    0 -0.65208637580E+01 -0.30573312515E+02 -0.30106049543E+02  0.47787270497E+02  0.19999997506E+02 0.  0.
        -12    1    1    2    0    0  0.65208637580E+01  0.30573312515E+02  0.30106049543E+02  0.43400729503E+02  0.00000000000E+00 0.  1.
         11    1    3    3    0    0 -0.20856942026E+01 -0.33915401436E+01 -0.30892655618E+00  0.39935073220E+01  0.51100000000E-03 0. -1.
        -11    1    3    3    0    0 -0.12888565257E+00  0.22829217676E+01 -0.16622844386E+01  0.28269299822E+01  0.51100000000E-03 0.  1.
         12    1    3    3    0    0 -0.43062839028E+01 -0.29464694139E+02 -0.28134838548E+02  0.40966833193E+02  0.00000000000E+00 0. -1.
</event>
<event>
 7    1  0.2783785E-010  0.4778728E+02  0.7816164E-02  0.1312668E+00
        -11   -1    0    0    0    0  0.00000000000E+00  0.00000000000E+00  0.45593999997E+02  0.45594000000E+02  0.51100000000E-03 0.  1.
         11   -1    0    0    0    0 -0.00000000000E+00 -0.00000000000E+00 -0.45593999997E+02  0.45594000000E+02  0.51100000000E-03 0. -1.
    9900012    2    1    2    0    0  0.35104501909E+02  0.10152488133E+02 -0.23414164052E+02  0.47787284017E+02  0.20000059147E+02 0.  0.
        -12    1    1    2    0    0 -0.35104501909E+02 -0.10152488133E+02  0.23414164052E+02  0.43400715983E+02  0.00000000000E+00 0.  1.
         11    1    3    3    0    0  0.23587294608E+01  0.25169655335E+01 -0.71108463568E+01  0.79033446298E+01  0.51100000000E-03 0.  1.
        -11    1    3    3    0    0  0.99713965468E+01  0.60441355638E+01  0.28516669041E+00  0.11663689129E+02  0.51100000000E-03 0. -1.
         12    1    3    3    0    0  0.22774375902E+02  0.15913870356E+01 -0.16588484385E+02  0.28220250258E+02  0.00000000000E+00 0. -1.
</event>
<event>
 7    1  0.2783785E-010  0.4778727E+02  0.7816164E-02  0.1312668E+00
        -11   -1    0    0    0    0  0.00000000000E+00  0.00000000000E+00  0.45593999997E+02  0.45594000000E+02  0.51100000000E-03 0. -1.
         11   -1    0    0    0    0 -0.00000000000E+00 -0.00000000000E+00 -0.45593999997E+02  0.45594000000E+02  0.51100000000E-03 0.  1.
    9900012    2    1    2    0    0  0.70750893847E+01 -0.42384275412E+02  0.60942110329E+01  0.47787273046E+02  0.20000009128E+02 0.  0.
        -12    1    1    2    0    0 -0.70750893847E+01  0.42384275412E+02 -0.60942110329E+01  0.43400726954E+02  0.00000000000E+00 0.  1.
         11    1    3    3    0    0 -0.28188138682E+01 -0.63247869908E+00 -0.13078946299E+00  0.28918587575E+01  0.51100000000E-03 0. -1.
        -11    1    3    3    0    0  0.65756832487E+01 -0.14666272390E+02 -0.24567704197E+01  0.16259608764E+02  0.51100000000E-03 0.  1.
         12    1    3    3    0    0  0.33182200042E+01 -0.27085524322E+02  0.86817709156E+01  0.28635805525E+02  0.00000000000E+00 0. -1.
</event>
<event>
 7    1  0.2783785E-010  0.4778727E+02  0.7816164E-02  0.1312668E+00
        -11   -1    0    0    0    0  0.00000000000E+00  0.00000000000E+00  0.45593999997E+02  0.45594000000E+02  0.51100000000E-03 0.  1.
         11   -1    0    0    0    0 -0.00000000000E+00 -0.00000000000E+00 -0.45593999997E+02  0.45594000000E+02  0.51100000000E-03 0. -1.
    9900012    2    1    2    0    0  0.14517056689E+02  0.62701931810E+01 -0.40417359143E+02  0.47787272154E+02  0.20000005059E+02 0.  0.
        -12    1    1    2    0    0 -0.14517056689E+02 -0.62701931810E+01  0.40417359143E+02  0.43400727846E+02  0.00000000000E+00 0.  1.
         11    1    3    3    0    0  0.19436669077E+01  0.69136334484E+01 -0.16378120192E+02  0.17883483715E+02  0.51100000000E-03 0. -1.
        -11    1    3    3    0    0  0.63809079576E+01  0.98355825149E+00 -0.17158830493E+01  0.66803913132E+01  0.51100000000E-03 0.  1.
        -12    1    3    3    0    0  0.61924818240E+01 -0.16269985189E+01 -0.22323355902E+02  0.23223397126E+02  0.00000000000E+00 0.  1.
</event>
<event>
 7    1  0.2783785E-010  0.4778721E+02  0.7816164E-02  0.1312668E+00
        -11   -1    0    0    0    0  0.00000000000E+00  0.00000000000E+00  0.45593999997E+02  0.45594000000E+02  0.51100000000E-03 0.  1.
         11   -1    0    0    0    0 -0.00000000000E+00 -0.00000000000E+00 -0.45593999997E+02  0.45594000000E+02  0.51100000000E-03 0. -1.
    9900012    2    1    2    0    0  0.39365271174E+01  0.27424255299E+02 -0.33407221580E+02  0.47787211089E+02  0.19999726636E+02 0.  0.
        -12    1    1    2    0    0 -0.39365271174E+01 -0.27424255299E+02  0.33407221580E+02  0.43400788911E+02  0.00000000000E+00 0.  1.
         11    1    3    3    0    0 -0.39617713435E+01  0.97122503341E+01 -0.65959243298E+01  0.12390708485E+02  0.51100000000E-03 0. -1.
        -11    1    3    3    0    0  0.63253643245E+01  0.49041263325E+01 -0.34656629352E+01  0.87218982317E+01  0.51100000000E-03 0.  1.
        -12    1    3    3    0    0  0.15729341364E+01  0.12807878632E+02 -0.23345634315E+02  0.26674604372E+02  0.00000000000E+00 0.  1.
</event>
<event>
 7    1  0.2783785E-010  0.4778726E+02  0.7816164E-02  0.1312668E+00
        -11   -1    0    0    0    0  0.00000000000E+00  0.00000000000E+00  0.45593999997E+02  0.45594000000E+02  0.51100000000E-03 0.  1.
         11   -1    0    0    0    0 -0.00000000000E+00 -0.00000000000E+00 -0.45593999997E+02  0.45594000000E+02  0.51100000000E-03 0. -1.
    9900012    2    1    2    0    0 -0.39613225136E+02 -0.13431550862E+02 -0.11576262763E+02  0.47787262405E+02  0.19999960610E+02 0.  0.
        -12    1    1    2    0    0  0.39613225136E+02  0.13431550862E+02  0.11576262763E+02  0.43400737595E+02  0.00000000000E+00 0.  1.
         11    1    3    3    0    0 -0.65963886714E+01 -0.47918257279E+01 -0.31993270129E+01  0.87584034451E+01  0.51100000000E-03 0. -1.
        -11    1    3    3    0    0 -0.21127720225E+02  0.29704873869E+01 -0.65100556638E+01  0.22306617454E+02  0.51100000000E-03 0.  1.
        -12    1    3    3    0    0 -0.11889116239E+02 -0.11610212521E+02 -0.18668800863E+01  0.16722241506E+02  0.00000000000E+00 0.  1.
</event>
<event>
 7    1  0.2783785E-010  0.4778727E+02  0.7816164E-02  0.1312668E+00
        -11   -1    0    0    0    0  0.00000000000E+00  0.00000000000E+00  0.45593999997E+02  0.45594000000E+02  0.51100000000E-03 0.  1.
         11   -1    0    0    0    0 -0.00000000000E+00 -0.00000000000E+00 -0.45593999997E+02  0.45594000000E+02  0.51100000000E-03 0. -1.
    9900012    2    1    2    0    0  0.83518616718E+01 -0.39641472878E+02 -0.15569953018E+02  0.47787269565E+02  0.19999993254E+02 0.  0.
        -12    1    1    2    0    0 -0.83518616718E+01  0.39641472878E+02  0.15569953018E+02  0.43400730435E+02  0.00000000000E+00 0.  1.
         11    1    3    3    0    0  0.10477750002E+02 -0.10063923280E+02 -0.88602747149E+01  0.17016764239E+02  0.51100000000E-03 0. -1.
        -11    1    3    3    0    0 -0.22226570267E+01 -0.90453643931E+01 -0.53525496453E+00  0.93298081117E+01  0.51100000000E-03 0.  1.
         12    1    3    3    0    0  0.96768696804E-01 -0.20532185205E+02 -0.61744233390E+01  0.21440697214E+02  0.00000000000E+00 0. -1.
</event>
<event>
 7    1  0.4996146E-010  0.4778727E+02  0.7816164E-02  0.1312668E+00
        -11   -1    0    0    0    0  0.00000000000E+00  0.00000000000E+00  0.45593999997E+02  0.45594000000E+02  0.51100000000E-03 0.  1.
         11   -1    0    0    0    0 -0.00000000000E+00 -0.00000000000E+00 -0.45593999997E+02  0.45594000000E+02  0.51100000000E-03 0. -1.
    9900012    2    1    2    0    0  0.25880409033E+02 -0.33720700954E+02  0.87602733068E+01  0.47787266908E+02  0.19999981140E+02 0.  0.
        -12    1    1    2    0    0 -0.25880409033E+02  0.33720700954E+02 -0.87602733068E+01  0.43400733092E+02  0.00000000000E+00 0.  1.
         11    1    3    3    0    0  0.16102803338E+02 -0.11531288711E+02  0.49053727417E+01  0.20404253887E+02  0.51100000000E-03 0. -1.
        -11    1    3    3    0    0  0.11264805022E+02 -0.22344187175E+02  0.21500423647E+01  0.25115358153E+02  0.51100000000E-03 0.  1.
        -12    1    3    3    0    0 -0.14871993270E+01  0.15477493292E+00  0.17048582005E+01  0.22676548683E+01  0.00000000000E+00 0.  1.
</event>
<event>
 7    1  0.2783785E-010  0.4778727E+02  0.7816164E-02  0.1312668E+00
        -11   -1    0    0    0    0  0.00000000000E+00  0.00000000000E+00  0.45593999997E+02  0.45594000000E+02  0.51100000000E-03 0.  1.
         11   -1    0    0    0    0 -0.00000000000E+00 -0.00000000000E+00 -0.45593999997E+02  0.45594000000E+02  0.51100000000E-03 0. -1.
    9900012    2    1    2    0    0  0.40699892423E+02 -0.13059164070E+02  0.75233041595E+01  0.47787272875E+02  0.20000008348E+02 0.  0.
        -12    1    1    2    0    0 -0.40699892423E+02  0.13059164070E+02 -0.75233041595E+01  0.43400727125E+02  0.00000000000E+00 0.  1.
         11    1    3    3    0    0  0.21917952805E+02 -0.16018320712E+01  0.25097194113E+01  0.22119249827E+02  0.51100000000E-03 0. -1.
        -11    1    3    3    0    0  0.96511273061E+01 -0.43326078937E+01  0.85024878796E+01  0.13572326619E+02  0.51100000000E-03 0.  1.
         12    1    3    3    0    0  0.91308123122E+01 -0.71247241048E+01 -0.34889031314E+01  0.12095696429E+02  0.00000000000E+00 0. -1.
</event>
<event>
 7    1  0.2783785E-010  0.4778726E+02  0.7816164E-02  0.1312668E+00
        -11   -1    0    0    0    0  0.00000000000E+00  0.00000000000E+00  0.45593999997E+02  0.45594000000E+02  0.51100000000E-03 0. -1.
         11   -1    0    0    0    0 -0.00000000000E+00 -0.00000000000E+00 -0.45593999997E+02  0.45594000000E+02  0.51100000000E-03 0.  1.
    9900012    2    1    2    0    0  0.28241048447E+02  0.30990371064E+02  0.11209991054E+02  0.47787264805E+02  0.19999971550E+02 0.  0.
        -12    1    1    2    0    0 -0.28241048447E+02 -0.30990371064E+02 -0.11209991054E+02  0.43400735195E+02  0.00000000000E+00 0.  1.
         11    1    3    3    0    0  0.19220457574E+02  0.17002642885E+02  0.14304411754E+02  0.29379109080E+02  0.51100000000E-03 0. -1.
        -11    1    3    3    0    0  0.21919929596E+01  0.85589457942E+01  0.76644226362E+00  0.88683606291E+01  0.51100000000E-03 0.  1.
        -12    1    3    3    0    0  0.68285979137E+01  0.54287823845E+01 -0.38608629637E+01  0.95397950958E+01  0.00000000000E+00 0.  1.
</event>
<event>
 7    1  0.2783785E-010  0.4778728E+02  0.7816164E-02  0.1312668E+00
        -11   -1    0    0    0    0  0.00000000000E+00  0.00000000000E+00  0.45593999997E+02  0.45594000000E+02  0.51100000000E-03 0.  1.
         11   -1    0    0    0    0 -0.00000000000E+00 -0.00000000000E+00 -0.45593999997E+02  0.45594000000E+02  0.51100000000E-03 0. -1.
    9900012    2    1    2    0    0 -0.11296175056E+02 -0.41880755338E+02  0.14215684845E+01  0.47787284620E+02  0.20000061896E+02 0.  0.
        -12    1    1    2    0    0  0.11296175056E+02  0.41880755338E+02 -0.14215684845E+01  0.43400715380E+02  0.00000000000E+00 0.  1.
         11    1    3    3    0    0 -0.76669830511E+00 -0.23206322525E+02  0.84819519236E+01  0.24719723706E+02  0.51100000000E-03 0. -1.
        -11    1    3    3    0    0 -0.23135934275E+01 -0.32795774574E+01 -0.33490007122E+01  0.52272506042E+01  0.51100000000E-03 0.  1.
         12    1    3    3    0    0 -0.82158833232E+01 -0.15394855355E+02 -0.37113827269E+01  0.17840310309E+02  0.00000000000E+00 0. -1.
</event>
<event>
 7    1  0.2783785E-010  0.4778729E+02  0.7816164E-02  0.1312668E+00
        -11   -1    0    0    0    0  0.00000000000E+00  0.00000000000E+00  0.45593999997E+02  0.45594000000E+02  0.51100000000E-03 0.  1.
         11   -1    0    0    0    0 -0.00000000000E+00 -0.00000000000E+00 -0.45593999997E+02  0.45594000000E+02  0.51100000000E-03 0. -1.
    9900012    2    1    2    0    0 -0.16450838010E+02  0.27423508301E+02 -0.29341826685E+02  0.47787289499E+02  0.20000084142E+02 0.  0.
        -12    1    1    2    0    0  0.16450838010E+02 -0.27423508301E+02  0.29341826685E+02  0.43400710501E+02  0.00000000000E+00 0.  1.
         11    1    3    3    0    0  0.19133249318E+01  0.72451930522E-01  0.52095350755E+00  0.19843019919E+01  0.51100000000E-03 0.  1.
        -11    1    3    3    0    0 -0.14393455886E+02  0.11848436356E+02 -0.17645388113E+02  0.25669373548E+02  0.51100000000E-03 0. -1.
         12    1    3    3    0    0 -0.39707070561E+01  0.15502620014E+02 -0.12217392080E+02  0.20133613959E+02  0.00000000000E+00 0. -1.
</event>
<event>
 7    1  0.2783785E-010  0.4778727E+02  0.7816164E-02  0.1312668E+00
        -11   -1    0    0    0    0  0.00000000000E+00  0.00000000000E+00  0.45593999997E+02  0.45594000000E+02  0.51100000000E-03 0.  1.
         11   -1    0    0    0    0 -0.00000000000E+00 -0.00000000000E+00 -0.45593999997E+02  0.45594000000E+02  0.51100000000E-03 0. -1.
    9900012    2    1    2    0    0  0.67210174579E+01 -0.29357787135E+02 -0.31250142129E+02  0.47787272769E+02  0.20000007863E+02 0.  0.
        -12    1    1    2    0    0 -0.67210174579E+01  0.29357787135E+02  0.31250142129E+02  0.43400727231E+02  0.00000000000E+00 0.  1.
         11    1    3    3    0    0  0.12526856454E+01 -0.10119739794E+02 -0.52831360740E+01  0.11484332016E+02  0.51100000000E-03 0. -1.
        -11    1    3    3    0    0  0.78183749280E+00  0.27345344844E+01 -0.37466256353E+01  0.47038444515E+01  0.51100000000E-03 0.  1.
         12    1    3    3    0    0  0.46864943197E+01 -0.21972581825E+02 -0.22220380419E+02  0.31599096301E+02  0.00000000000E+00 0. -1.
</event>
<event>
 7    1  0.2783785E-010  0.4778727E+02  0.7816164E-02  0.1312668E+00
        -11   -1    0    0    0    0  0.00000000000E+00  0.00000000000E+00  0.45593999997E+02  0.45594000000E+02  0.51100000000E-03 0. -1.
         11   -1    0    0    0    0 -0.00000000000E+00 -0.00000000000E+00 -0.45593999997E+02  0.45594000000E+02  0.51100000000E-03 0.  1.
    9900012    2    1    2    0    0  0.36754648516E+02 -0.19713256812E+02  0.12004431456E+02  0.47787273551E+02  0.20000011429E+02 0.  0.
        -12    1    1    2    0    0 -0.36754648516E+02  0.19713256812E+02 -0.12004431456E+02  0.43400726449E+02  0.00000000000E+00 0.  1.
         11    1    3    3    0    0  0.11592334117E+02 -0.37245291777E+01 -0.35815179092E+01  0.12691792571E+02  0.51100000000E-03 0.  1.
        -11    1    3    3    0    0  0.14582599299E+02 -0.14103536890E+02  0.74307143230E+01  0.21605033458E+02  0.51100000000E-03 0. -1.
        -12    1    3    3    0    0  0.10579715100E+02 -0.18851907449E+01  0.81552350425E+01  0.13490447522E+02  0.00000000000E+00 0.  1.
</event>
<event>
 7    1  0.2783785E-010  0.4778727E+02  0.7816164E-02  0.1312668E+00
        -11   -1    0    0    0    0  0.00000000000E+00  0.00000000000E+00  0.45593999997E+02  0.45594000000E+02  0.51100000000E-03 0.  1.
         11   -1    0    0    0    0 -0.00000000000E+00 -0.00000000000E+00 -0.45593999997E+02  0.45594000000E+02  0.51100000000E-03 0. -1.
    9900012    2    1    2    0    0  0.20594100187E+02 -0.32988033760E+02 -0.19269044582E+02  0.47787269442E+02  0.19999992696E+02 0.  0.
        -12    1    1    2    0    0 -0.20594100187E+02  0.32988033760E+02  0.19269044582E+02  0.43400730558E+02  0.00000000000E+00 0.  1.
         11    1    3    3    0    0  0.11915406763E+02 -0.24634956032E+02 -0.10309591486E+02  0.29242873557E+02  0.51100000000E-03 0. -1.
        -11    1    3    3    0    0  0.25008175667E+01 -0.58865582896E+01 -0.99405988398E+01  0.11820370661E+02  0.51100000000E-03 0.  1.
         12    1    3    3    0    0  0.61778758571E+01 -0.24665194385E+01  0.98114574470E+00  0.67240252244E+01  0.00000000000E+00 0. -1.
</event>
<event>
 7    1  0.2783785E-010  0.4778727E+02  0.7816164E-02  0.1312668E+00
        -11   -1    0    0    0    0  0.00000000000E+00  0.00000000000E+00  0.45593999997E+02  0.45594000000E+02  0.51100000000E-03 0.  1.
         11   -1    0    0    0    0 -0.00000000000E+00 -0.00000000000E+00 -0.45593999997E+02  0.45594000000E+02  0.51100000000E-03 0. -1.
    9900012    2    1    2    0    0  0.19127826907E+02 -0.20416381990E+02 -0.33180130192E+02  0.47787268954E+02  0.19999990468E+02 0.  0.
        -12    1    1    2    0    0 -0.19127826907E+02  0.20416381990E+02  0.33180130192E+02  0.43400731046E+02  0.00000000000E+00 0.  1.
         11    1    3    3    0    0 -0.11466646198E+01 -0.28942154291E+00 -0.10344384872E+02  0.10411767535E+02  0.51100000000E-03 0. -1.
        -11    1    3    3    0    0  0.10104864935E+02 -0.70037455996E+01 -0.13766656796E+02  0.18457561794E+02  0.51100000000E-03 0.  1.
         12    1    3    3    0    0  0.10169626592E+02 -0.13123214848E+02 -0.90690885250E+01  0.18917939624E+02  0.00000000000E+00 0. -1.
</event>
<event>
 7    1  0.2783785E-010  0.4778728E+02  0.7816164E-02  0.1312668E+00
        -11   -1    0    0    0    0  0.00000000000E+00  0.00000000000E+00  0.45593999997E+02  0.45594000000E+02  0.51100000000E-03 0.  1.
         11   -1    0    0    0    0 -0.00000000000E+00 -0.00000000000E+00 -0.45593999997E+02  0.45594000000E+02  0.51100000000E-03 0. -1.
    9900012    2    1    2    0    0  0.20296530818E+00  0.38179065224E+02 -0.20638328807E+02  0.47787276132E+02  0.20000023196E+02 0.  0.
        -12    1    1    2    0    0 -0.20296530818E+00 -0.38179065224E+02  0.20638328807E+02  0.43400723868E+02  0.00000000000E+00 0.  1.
         11    1    3    3    0    0 -0.42622720006E+01  0.34264135085E+02 -0.20073023407E+02  0.39939005805E+02  0.51100000000E-03 0. -1.
        -11    1    3    3    0    0 -0.56590102072E+00  0.59339134634E-02  0.11226526411E+01  0.12572304444E+01  0.51100000000E-03 0.  1.
         12    1    3    3    0    0  0.50311383295E+01  0.39089962256E+01 -0.16879580412E+01  0.65910398823E+01  0.00000000000E+00 0. -1.
</event>
<event>
 7    1  0.2783785E-010  0.4778727E+02  0.7816164E-02  0.1312668E+00
        -11   -1    0    0    0    0  0.00000000000E+00  0.00000000000E+00  0.45593999997E+02  0.45594000000E+02  0.51100000000E-03 0. -1.
         11   -1    0    0    0    0 -0.00000000000E+00 -0.00000000000E+00 -0.45593999997E+02  0.45594000000E+02  0.51100000000E-03 0.  1.
    9900012    2    1    2    0    0 -0.13296950641E+02  0.36533715392E+02  0.19289941509E+02  0.47787273046E+02  0.20000009127E+02 0.  0.
        -12    1    1    2    0    0  0.13296950641E+02 -0.36533715392E+02 -0.19289941509E+02  0.43400726954E+02  0.00000000000E+00 0.  1.
         11    1    3    3    0    0 -0.61675268360E+01  0.32997685711E+02  0.21013526012E+02  0.39603711004E+02  0.51100000000E-03 0. -1.
        -11    1    3    3    0    0 -0.28878540325E+01  0.17173229322E+01 -0.10466117833E+01  0.35191327700E+01  0.51100000000E-03 0.  1.
         12    1    3    3    0    0 -0.42415697726E+01  0.18187067490E+01 -0.67697271968E+00  0.46644292725E+01  0.00000000000E+00 0. -1.
</event>
<event>
 7    1  0.2783785E-010  0.4778727E+02  0.7816164E-02  0.1312668E+00
        -11   -1    0    0    0    0  0.00000000000E+00  0.00000000000E+00  0.45593999997E+02  0.45594000000E+02  0.51100000000E-03 0.  1.
         11   -1    0    0    0    0 -0.00000000000E+00 -0.00000000000E+00 -0.45593999997E+02  0.45594000000E+02  0.51100000000E-03 0. -1.
    9900012    2    1    2    0    0 -0.15700728121E+02 -0.40207702322E+02 -0.45222720385E+01  0.47787272657E+02  0.20000007352E+02 0.  0.
        -12    1    1    2    0    0  0.15700728121E+02  0.40207702322E+02  0.45222720385E+01  0.43400727343E+02  0.00000000000E+00 0.  1.
         11    1    3    3    0    0 -0.93308398747E+01 -0.24367799271E+02 -0.53561793146E+01  0.26637245938E+02  0.51100000000E-03 0. -1.
        -11    1    3    3    0    0 -0.77919635577E+01 -0.12169503249E+02  0.51201229187E+01  0.15330595695E+02  0.51100000000E-03 0.  1.
         12    1    3    3    0    0  0.14220753113E+01 -0.36703998017E+01 -0.42862156427E+01  0.58194310230E+01  0.00000000000E+00 0. -1.
</event>
<event>
 7    1  0.2783785E-010  0.4778721E+02  0.7816164E-02  0.1312668E+00
        -11   -1    0    0    0    0  0.00000000000E+00  0.00000000000E+00  0.45593999997E+02  0.45594000000E+02  0.51100000000E-03 0. -1.
         11   -1    0    0    0    0 -0.00000000000E+00 -0.00000000000E+00 -0.45593999997E+02  0.45594000000E+02  0.51100000000E-03 0.  1.
    9900012    2    1    2    0    0 -0.12512559523E+02 -0.76235504792E+01  0.40852729110E+02  0.47787214944E+02  0.19999744214E+02 0.  0.
        -12    1    1    2    0    0  0.12512559523E+02  0.76235504792E+01 -0.40852729110E+02  0.43400785056E+02  0.00000000000E+00 0.  1.
         11    1    3    3    0    0 -0.16625683972E+01 -0.28384218026E+01  0.14984831858E+02  0.15341641310E+02  0.51100000000E-03 0. -1.
        -11    1    3    3    0    0 -0.52155147893E+01 -0.45697807522E+01  0.10720272702E+01  0.70166753786E+01  0.51100000000E-03 0.  1.
        -12    1    3    3    0    0 -0.56344763366E+01 -0.21534792443E+00  0.24795869982E+02  0.25428898255E+02  0.00000000000E+00 0.  1.
</event>
<event>
 7    1  0.2783785E-010  0.4778731E+02  0.7816164E-02  0.1312668E+00
        -11   -1    0    0    0    0  0.00000000000E+00  0.00000000000E+00  0.45593999997E+02  0.45594000000E+02  0.51100000000E-03 0.  1.
         11   -1    0    0    0    0 -0.00000000000E+00 -0.00000000000E+00 -0.45593999997E+02  0.45594000000E+02  0.51100000000E-03 0. -1.
    9900012    2    1    2    0    0  0.34708521827E+02 -0.86765672749E+01 -0.24569408591E+02  0.47787307084E+02  0.20000164316E+02 0.  0.
        -12    1    1    2    0    0 -0.34708521827E+02  0.86765672749E+01  0.24569408591E+02  0.43400692916E+02  0.00000000000E+00 0.  1.
         11    1    3    3    0    0  0.10163235568E+02 -0.65082581265E+01 -0.13584011987E+02  0.18170695171E+02  0.51100000000E-03 0. -1.
        -11    1    3    3    0    0  0.17642626170E+02 -0.56873391046E+01 -0.35409488711E+01  0.18871841548E+02  0.51100000000E-03 0.  1.
         12    1    3    3    0    0  0.69026600893E+01  0.35190299563E+01 -0.74444477329E+01  0.10744770365E+02  0.00000000000E+00 0. -1.
</event>
<event>
 7    1  0.2783785E-010  0.4778727E+02  0.7816164E-02  0.1312668E+00
        -11   -1    0    0    0    0  0.00000000000E+00  0.00000000000E+00  0.45593999997E+02  0.45594000000E+02  0.51100000000E-03 0.  1.
         11   -1    0    0    0    0 -0.00000000000E+00 -0.00000000000E+00 -0.45593999997E+02  0.45594000000E+02  0.51100000000E-03 0. -1.
    9900012    2    1    2    0    0  0.28811168042E+02  0.15684127749E+02 -0.28417396019E+02  0.47787266553E+02  0.19999979523E+02 0.  0.
        -12    1    1    2    0    0 -0.28811168042E+02 -0.15684127749E+02  0.28417396019E+02  0.43400733447E+02  0.00000000000E+00 0.  1.
         11    1    3    3    0    0  0.12847348120E+02  0.37424237997E+01 -0.38784392427E+01  0.13932063050E+02  0.51100000000E-03 0. -1.
        -11    1    3    3    0    0  0.48011170382E+01  0.10967650301E+02 -0.10777191590E+02  0.16108629264E+02  0.51100000000E-03 0.  1.
         12    1    3    3    0    0  0.11162702884E+02  0.97405364910E+00 -0.13761765186E+02  0.17746574239E+02  0.00000000000E+00 0. -1.
</event>
<event>
 7    1  0.2783785E-010  0.4778727E+02  0.7816164E-02  0.1312668E+00
        -11   -1    0    0    0    0  0.00000000000E+00  0.00000000000E+00  0.45593999997E+02  0.45594000000E+02  0.51100000000E-03 0.  1.
         11   -1    0    0    0    0 -0.00000000000E+00 -0.00000000000E+00 -0.45593999997E+02  0.45594000000E+02  0.51100000000E-03 0. -1.
    9900012    2    1    2    0    0 -0.37788771848E+02 -0.21119467432E+02  0.30983754214E+01  0.47787272902E+02  0.20000008468E+02 0.  0.
        -12    1    1    2    0    0  0.37788771848E+02  0.21119467432E+02 -0.30983754214E+01  0.43400727098E+02  0.00000000000E+00 0.  1.
         11    1    3    3    0    0 -0.96874427585E+01 -0.45871588443E+00 -0.24462336339E+01  0.10002051125E+02  0.51100000000E-03 0. -1.
        -11    1    3    3    0    0 -0.25763086693E+02 -0.13421454873E+02  0.73531366033E+01  0.29965658762E+02  0.51100000000E-03 0.  1.
         12    1    3    3    0    0 -0.23382423967E+01 -0.72392966745E+01 -0.18085275480E+01  0.78195630146E+01  0.00000000000E+00 0. -1.
</event>
<event>
 7    1  0.2783785E-010  0.4778727E+02  0.7816164E-02  0.1312668E+00
        -11   -1    0    0    0    0  0.00000000000E+00  0.00000000000E+00  0.45593999997E+02  0.45594000000E+02  0.51100000000E-03 0.  1.
         11   -1    0    0    0    0 -0.00000000000E+00 -0.00000000000E+00 -0.45593999997E+02  0.45594000000E+02  0.51100000000E-03 0. -1.
    9900012    2    1    2    0    0 -0.25162571200E+02  0.28410367219E+02 -0.21055148431E+02  0.47787271545E+02  0.20000002284E+02 0.  0.
        -12    1    1    2    0    0  0.25162571200E+02 -0.28410367219E+02  0.21055148431E+02  0.43400728455E+02  0.00000000000E+00 0.  1.
         11    1    3    3    0    0 -0.20532632857E+01  0.88032083300E+01 -0.11760564157E+02  0.14833180258E+02  0.51100000000E-03 0. -1.
        -11    1    3    3    0    0 -0.17862785359E+02  0.16238854668E+02 -0.10942848301E+02  0.26505196301E+02  0.51100000000E-03 0.  1.
        -12    1    3    3    0    0 -0.52465225556E+01  0.33683042207E+01  0.16482640268E+01  0.64488949869E+01  0.00000000000E+00 0.  1.
</event>
<event>
 7    1  0.2783785E-010  0.4778727E+02  0.7816164E-02  0.1312668E+00
        -11   -1    0    0    0    0  0.00000000000E+00  0.00000000000E+00  0.45593999997E+02  0.45594000000E+02  0.51100000000E-03 0. -1.
         11   -1    0    0    0    0 -0.00000000000E+00 -0.00000000000E+00 -0.45593999997E+02  0.45594000000E+02  0.51100000000E-03 0.  1.
    9900012    2    1    2    0    0 -0.30253192227E+02  0.21652881900E+02  0.22349956292E+02  0.47787268661E+02  0.19999989135E+02 0.  0.
        -12    1    1    2    0    0  0.30253192227E+02 -0.21652881900E+02 -0.22349956292E+02  0.43400731339E+02  0.00000000000E+00 0.  1.
         11    1    3    3    0    0 -0.36998110695E+01  0.54636092808E+01  0.16666165965E+00  0.66005609378E+01  0.51100000000E-03 0. -1.
        -11    1    3    3    0    0 -0.66396322512E+01  0.10269897206E+02  0.23268773863E+01  0.12448689235E+02  0.51100000000E-03 0.  1.
        -12    1    3    3    0    0 -0.19913748906E+02  0.59193754130E+01  0.19856417246E+02  0.28738018488E+02  0.00000000000E+00 0.  1.
</event>
<event>
 7    1  0.2783785E-010  0.4778727E+02  0.7816164E-02  0.1312668E+00
        -11   -1    0    0    0    0  0.00000000000E+00  0.00000000000E+00  0.45593999997E+02  0.45594000000E+02  0.51100000000E-03 0.  1.
         11   -1    0    0    0    0 -0.00000000000E+00 -0.00000000000E+00 -0.45593999997E+02  0.45594000000E+02  0.51100000000E-03 0. -1.
    9900012    2    1    2    0    0  0.94783433139E+01  0.37430368402E+02 -0.19817959613E+02  0.47787274270E+02  0.20000014706E+02 0.  0.
        -12    1    1    2    0    0 -0.94783433139E+01 -0.37430368402E+02  0.19817959613E+02  0.43400725730E+02  0.00000000000E+00 0.  1.
         11    1    3    3    0    0  0.45567203178E+01  0.31355735179E+01 -0.52394562920E+01  0.76188859972E+01  0.51100000000E-03 0. -1.
        -11    1    3    3    0    0  0.14226318365E+00  0.11918850391E+02  0.17656658396E+01  0.12049763881E+02  0.51100000000E-03 0.  1.
         12    1    3    3    0    0  0.47793598124E+01  0.22375944493E+02 -0.16344169160E+02  0.28118624392E+02  0.00000000000E+00 0. -1.
</event>
<event>
 7    1  0.2783785E-010  0.4778727E+02  0.7816164E-02  0.1312668E+00
        -11   -1    0    0    0    0  0.00000000000E+00  0.00000000000E+00  0.45593999997E+02  0.45594000000E+02  0.51100000000E-03 0.  1.
         11   -1    0    0    0    0 -0.00000000000E+00 -0.00000000000E+00 -0.45593999997E+02  0.45594000000E+02  0.51100000000E-03 0. -1.
    9900012    2    1    2    0    0 -0.35957025936E+02 -0.84369743890E+01 -0.22793267957E+02  0.47787270568E+02  0.19999997830E+02 0.  0.
        -12    1    1    2    0    0  0.35957025936E+02  0.84369743890E+01  0.22793267957E+02  0.43400729432E+02  0.00000000000E+00 0.  1.
         11    1    3    3    0    0 -0.61475088832E+00 -0.95091276977E-01  0.25269930939E+00  0.67142997232E+00  0.51100000000E-03 0. -1.
        -11    1    3    3    0    0 -0.13406513686E+02  0.52107719923E+01 -0.36191472701E+01  0.14831890682E+02  0.51100000000E-03 0.  1.
         12    1    3    3    0    0 -0.21935761362E+02 -0.13552655104E+02 -0.19426819997E+02  0.32283949914E+02  0.00000000000E+00 0. -1.
</event>
<event>
 7    1  0.2783785E-010  0.4778727E+02  0.7816164E-02  0.1312668E+00
        -11   -1    0    0    0    0  0.00000000000E+00  0.00000000000E+00  0.45593999997E+02  0.45594000000E+02  0.51100000000E-03 0.  1.
         11   -1    0    0    0    0 -0.00000000000E+00 -0.00000000000E+00 -0.45593999997E+02  0.45594000000E+02  0.51100000000E-03 0. -1.
    9900012    2    1    2    0    0  0.15486089929E+02  0.16166759311E+02 -0.37181176275E+02  0.47787274694E+02  0.20000016638E+02 0.  0.
        -12    1    1    2    0    0 -0.15486089929E+02 -0.16166759311E+02  0.37181176275E+02  0.43400725306E+02  0.00000000000E+00 0.  1.
         11    1    3    3    0    0  0.11056097105E+01  0.13767645714E+02 -0.18419828124E+02  0.23023043016E+02  0.51100000000E-03 0. -1.
        -11    1    3    3    0    0  0.91513628085E+01  0.32329178127E+01 -0.73186490009E+01  0.12155732076E+02  0.51100000000E-03 0.  1.
        -12    1    3    3    0    0  0.52291174097E+01 -0.83380421595E+00 -0.11442699150E+02  0.12608499602E+02  0.00000000000E+00 0.  1.
</event>
<event>
 7    1  0.2783785E-010  0.4778727E+02  0.7816164E-02  0.1312668E+00
        -11   -1    0    0    0    0  0.00000000000E+00  0.00000000000E+00  0.45593999997E+02  0.45594000000E+02  0.51100000000E-03 0.  1.
         11   -1    0    0    0    0 -0.00000000000E+00 -0.00000000000E+00 -0.45593999997E+02  0.45594000000E+02  0.51100000000E-03 0. -1.
    9900012    2    1    2    0    0 -0.32183082849E+02  0.11081228469E+02 -0.26927287321E+02  0.47787271337E+02  0.20000001333E+02 0.  0.
        -12    1    1    2    0    0  0.32183082849E+02 -0.11081228469E+02  0.26927287321E+02  0.43400728663E+02  0.00000000000E+00 0.  1.
         11    1    3    3    0    0 -0.50799181267E+01  0.28319409811E+01 -0.92719559632E+01  0.10945073117E+02  0.51100000000E-03 0. -1.
        -11    1    3    3    0    0 -0.21435424918E+02  0.94597370971E+00 -0.66369084820E+01  0.22459315710E+02  0.51100000000E-03 0.  1.
        -12    1    3    3    0    0 -0.56677398039E+01  0.73033137781E+01 -0.11018422876E+02  0.14382882510E+02  0.00000000000E+00 0.  1.
</event>
<event>
 7    1  0.2783785E-010  0.4778728E+02  0.7816164E-02  0.1312668E+00
        -11   -1    0    0    0    0  0.00000000000E+00  0.00000000000E+00  0.45593999997E+02  0.45594000000E+02  0.51100000000E-03 0.  1.
         11   -1    0    0    0    0 -0.00000000000E+00 -0.00000000000E+00 -0.45593999997E+02  0.45594000000E+02  0.51100000000E-03 0. -1.
    9900012    2    1    2    0    0  0.37971303077E+02  0.19281269776E+01 -0.20930483056E+02  0.47787278210E+02  0.20000032669E+02 0.  0.
        -12    1    1    2    0    0 -0.37971303077E+02 -0.19281269776E+01  0.20930483056E+02  0.43400721790E+02  0.00000000000E+00 0.  1.
         11    1    3    3    0    0  0.24794414232E+02  0.30307708103E+00 -0.16925543660E+02  0.30022139518E+02  0.51100000000E-03 0. -1.
        -11    1    3    3    0    0  0.12551362962E+02  0.47936801529E+01 -0.12030467581E+01  0.13489381134E+02  0.51100000000E-03 0.  1.
         12    1    3    3    0    0  0.62552588203E+00 -0.31686302564E+01 -0.28018926382E+01  0.42757575570E+01  0.00000000000E+00 0. -1.
</event>
<event>
 7    1  0.2783785E-010  0.4778727E+02  0.7816164E-02  0.1312668E+00
        -11   -1    0    0    0    0  0.00000000000E+00  0.00000000000E+00  0.45593999997E+02  0.45594000000E+02  0.51100000000E-03 0.  1.
         11   -1    0    0    0    0 -0.00000000000E+00 -0.00000000000E+00 -0.45593999997E+02  0.45594000000E+02  0.51100000000E-03 0. -1.
    9900012    2    1    2    0    0  0.36741214234E+02 -0.18665250315E+02 -0.13613041956E+02  0.47787270697E+02  0.19999998417E+02 0.  0.
        -12    1    1    2    0    0 -0.36741214234E+02  0.18665250315E+02  0.13613041956E+02  0.43400729303E+02  0.00000000000E+00 0.  1.
         11    1    3    3    0    0  0.96684870677E+01 -0.79867208130E+01 -0.61785256213E+01  0.13980040438E+02  0.51100000000E-03 0. -1.
        -11    1    3    3    0    0  0.13811758769E+01 -0.32611171079E+01  0.34423976990E+01  0.49388899333E+01  0.51100000000E-03 0.  1.
        -12    1    3    3    0    0  0.25691551290E+02 -0.74174123937E+01 -0.10876914034E+02  0.28868340326E+02  0.00000000000E+00 0.  1.
</event>
<event>
 7    1  0.2783785E-010  0.4778727E+02  0.7816164E-02  0.1312668E+00
        -11   -1    0    0    0    0  0.00000000000E+00  0.00000000000E+00  0.45593999997E+02  0.45594000000E+02  0.51100000000E-03 0. -1.
         11   -1    0    0    0    0 -0.00000000000E+00 -0.00000000000E+00 -0.45593999997E+02  0.45594000000E+02  0.51100000000E-03 0.  1.
    9900012    2    1    2    0    0  0.36045979303E+01 -0.36069735543E+02  0.23866383968E+02  0.47787271526E+02  0.20000002197E+02 0.  0.
        -12    1    1    2    0    0 -0.36045979303E+01  0.36069735543E+02 -0.23866383968E+02  0.43400728474E+02  0.00000000000E+00 0.  1.
         11    1    3    3    0    0  0.31432815341E+01 -0.31247157918E+02  0.12454869632E+02  0.33784447229E+02  0.51100000000E-03 0. -1.
        -11    1    3    3    0    0 -0.16048236423E+01  0.38575424249E+00  0.47994736120E+00  0.17188993540E+01  0.51100000000E-03 0.  1.
        -12    1    3    3    0    0  0.20661400385E+01 -0.52083318673E+01  0.10931566975E+02  0.12283924943E+02  0.00000000000E+00 0.  1.
</event>
<event>
 7    1  0.2783785E-010  0.4778727E+02  0.7816164E-02  0.1312668E+00
        -11   -1    0    0    0    0  0.00000000000E+00  0.00000000000E+00  0.45593999997E+02  0.45594000000E+02  0.51100000000E-03 0. -1.
         11   -1    0    0    0    0 -0.00000000000E+00 -0.00000000000E+00 -0.45593999997E+02  0.45594000000E+02  0.51100000000E-03 0.  1.
    9900012    2    1    2    0    0  0.65794021602E+01 -0.42764997908E+02  0.33896787020E+01  0.47787268433E+02  0.19999988094E+02 0.  0.
        -12    1    1    2    0    0 -0.65794021602E+01  0.42764997908E+02 -0.33896787020E+01  0.43400731567E+02  0.00000000000E+00 0.  1.
         11    1    3    3    0    0 -0.27000938230E+01 -0.78556926992E+01  0.21454279932E+01  0.85793517221E+01  0.51100000000E-03 0. -1.
        -11    1    3    3    0    0  0.13412141344E+02 -0.29055156305E+02  0.52074399675E+00  0.32005606039E+02  0.51100000000E-03 0.  1.
        -12    1    3    3    0    0 -0.41326453604E+01 -0.58541489032E+01  0.72350671208E+00  0.72023106722E+01  0.00000000000E+00 0.  1.
</event>
<event>
 7    1  0.2783785E-010  0.4778727E+02  0.7816164E-02  0.1312668E+00
        -11   -1    0    0    0    0  0.00000000000E+00  0.00000000000E+00  0.45593999997E+02  0.45594000000E+02  0.51100000000E-03 0.  1.
         11   -1    0    0    0    0 -0.00000000000E+00 -0.00000000000E+00 -0.45593999997E+02  0.45594000000E+02  0.51100000000E-03 0. -1.
    9900012    2    1    2    0    0 -0.10203075940E+02  0.50592116447E+01 -0.41879889339E+02  0.47787268299E+02  0.19999987483E+02 0.  0.
        -12    1    1    2    0    0  0.10203075940E+02 -0.50592116447E+01  0.41879889339E+02  0.43400731701E+02  0.00000000000E+00 0.  1.
         11    1    3    3    0    0  0.42471916586E+00 -0.14377042261E+01  0.93074477391E+00  0.17645582752E+01  0.51100000000E-03 0.  1.
        -11    1    3    3    0    0 -0.52768323587E+01  0.88451989446E+01 -0.20266347454E+02  0.22733397095E+02  0.51100000000E-03 0. -1.
         12    1    3    3    0    0 -0.53509627474E+01 -0.23482830739E+01 -0.22544286659E+02  0.23289312929E+02  0.00000000000E+00 0. -1.
</event>
<event>
 7    1  0.2783785E-010  0.4778727E+02  0.7816164E-02  0.1312668E+00
        -11   -1    0    0    0    0  0.00000000000E+00  0.00000000000E+00  0.45593999997E+02  0.45594000000E+02  0.51100000000E-03 0.  1.
         11   -1    0    0    0    0 -0.00000000000E+00 -0.00000000000E+00 -0.45593999997E+02  0.45594000000E+02  0.51100000000E-03 0. -1.
    9900012    2    1    2    0    0 -0.16260924832E+02 -0.39220736347E+02 -0.89966434547E+01  0.47787269252E+02  0.19999991829E+02 0.  0.
        -12    1    1    2    0    0  0.16260924832E+02  0.39220736347E+02  0.89966434547E+01  0.43400730748E+02  0.00000000000E+00 0.  1.
         11    1    3    3    0    0 -0.91738939130E+01 -0.15263459770E+02 -0.94675479448E+01  0.20168490226E+02  0.51100000000E-03 0. -1.
        -11    1    3    3    0    0 -0.45850302278E+01 -0.42072565294E+01  0.40041791734E+01  0.73997946463E+01  0.51100000000E-03 0.  1.
         12    1    3    3    0    0 -0.25020006913E+01 -0.19750020048E+02 -0.35332746834E+01  0.20218984380E+02  0.00000000000E+00 0. -1.
</event>
<event>
 7    1  0.2783785E-010  0.4778727E+02  0.7816164E-02  0.1312668E+00
        -11   -1    0    0    0    0  0.00000000000E+00  0.00000000000E+00  0.45593999997E+02  0.45594000000E+02  0.51100000000E-03 0.  1.
         11   -1    0    0    0    0 -0.00000000000E+00 -0.00000000000E+00 -0.45593999997E+02  0.45594000000E+02  0.51100000000E-03 0. -1.
    9900012    2    1    2    0    0  0.33553178771E+02  0.17447721192E+02 -0.21292823842E+02  0.47787272730E+02  0.20000007683E+02 0.  0.
        -12    1    1    2    0    0 -0.33553178771E+02 -0.17447721192E+02  0.21292823842E+02  0.43400727270E+02  0.00000000000E+00 0.  1.
         11    1    3    3    0    0  0.20701756673E+02  0.58559185131E+01 -0.44497143371E+01  0.21969398465E+02  0.51100000000E-03 0. -1.
        -11    1    3    3    0    0  0.26734605341E+01  0.76119872991E+01 -0.41640470248E+01  0.90790434383E+01  0.51100000000E-03 0.  1.
        -12    1    3    3    0    0  0.10177961564E+02  0.39798153797E+01 -0.12679062480E+02  0.16738830826E+02  0.00000000000E+00 0.  1.
</event>
<event>
 7    1  0.2783785E-010  0.4778731E+02  0.7816164E-02  0.1312668E+00
        -11   -1    0    0    0    0  0.00000000000E+00  0.00000000000E+00  0.45593999997E+02  0.45594000000E+02  0.51100000000E-03 0.  1.
         11   -1    0    0    0    0 -0.00000000000E+00 -0.00000000000E+00 -0.45593999997E+02  0.45594000000E+02  0.51100000000E-03 0. -1.
    9900012    2    1    2    0    0 -0.84043735837E+01 -0.22823509279E+02 -0.35945429546E+02  0.47787309033E+02  0.20000173207E+02 0.  0.
        -12    1    1    2    0    0  0.84043735837E+01  0.22823509279E+02  0.35945429546E+02  0.43400690967E+02  0.00000000000E+00 0.  1.
         11    1    3    3    0    0 -0.65616281893E+01 -0.67951653441E+01 -0.13931125013E+02  0.16831680871E+02  0.51100000000E-03 0. -1.
        -11    1    3    3    0    0 -0.26499941593E+01  0.24906329400E+00 -0.10921768608E+02  0.11241420344E+02  0.51100000000E-03 0.  1.
         12    1    3    3    0    0  0.80724876497E+00 -0.16277407229E+02 -0.11092535925E+02  0.19714207819E+02  0.00000000000E+00 0. -1.
</event>
<event>
 7    1  0.2783785E-010  0.4778728E+02  0.7816164E-02  0.1312668E+00
        -11   -1    0    0    0    0  0.00000000000E+00  0.00000000000E+00  0.45593999997E+02  0.45594000000E+02  0.51100000000E-03 0.  1.
         11   -1    0    0    0    0 -0.00000000000E+00 -0.00000000000E+00 -0.45593999997E+02  0.45594000000E+02  0.51100000000E-03 0. -1.
    9900012    2    1    2    0    0 -0.29820068984E+02  0.21907005794E+02 -0.22681919742E+02  0.47787275348E+02  0.20000019623E+02 0.  0.
        -12    1    1    2    0    0  0.29820068984E+02 -0.21907005794E+02  0.22681919742E+02  0.43400724652E+02  0.00000000000E+00 0.  1.
         11    1    3    3    0    0 -0.16794830040E+02  0.94076697075E+01 -0.15166322819E+02  0.24506895224E+02  0.51100000000E-03 0. -1.
        -11    1    3    3    0    0 -0.14045649583E+02  0.59123545056E+01 -0.40527060597E+01  0.15768976969E+02  0.51100000000E-03 0.  1.
         12    1    3    3    0    0  0.10204106386E+01  0.65869815814E+01 -0.34628908634E+01  0.75114031550E+01  0.00000000000E+00 0. -1.
</event>
<event>
 7    1  0.2783785E-010  0.4778727E+02  0.7816164E-02  0.1312668E+00
        -11   -1    0    0    0    0  0.00000000000E+00  0.00000000000E+00  0.45593999997E+02  0.45594000000E+02  0.51100000000E-03 0.  1.
         11   -1    0    0    0    0 -0.00000000000E+00 -0.00000000000E+00 -0.45593999997E+02  0.45594000000E+02  0.51100000000E-03 0. -1.
    9900012    2    1    2    0    0 -0.24624696390E+02 -0.34125672905E+00 -0.35736968931E+02  0.47787273314E+02  0.20000010349E+02 0.  0.
        -12    1    1    2    0    0  0.24624696390E+02  0.34125672905E+00  0.35736968931E+02  0.43400726686E+02  0.00000000000E+00 0.  1.
         11    1    3    3    0    0 -0.15617458744E+02 -0.13337995020E+01 -0.21228156508E+02  0.26387850760E+02  0.51100000000E-03 0. -1.
        -11    1    3    3    0    0  0.16379309640E+01 -0.36394912640E+01 -0.49688344078E+01  0.63732276075E+01  0.51100000000E-03 0.  1.
        -12    1    3    3    0    0 -0.10645168610E+02  0.46320340369E+01 -0.95399780154E+01  0.15026194947E+02  0.00000000000E+00 0.  1.
</event>
<event>
 7    1  0.2783785E-010  0.4778727E+02  0.7816164E-02  0.1312668E+00
        -11   -1    0    0    0    0  0.00000000000E+00  0.00000000000E+00  0.45593999997E+02  0.45594000000E+02  0.51100000000E-03 0. -1.
         11   -1    0    0    0    0 -0.00000000000E+00 -0.00000000000E+00 -0.45593999997E+02  0.45594000000E+02  0.51100000000E-03 0.  1.
    9900012    2    1    2    0    0  0.24080435076E+02 -0.35253030822E+02 -0.78089355843E+01  0.47787274078E+02  0.20000013832E+02 0.  0.
        -12    1    1    2    0    0 -0.24080435076E+02  0.35253030822E+02  0.78089355843E+01  0.43400725922E+02  0.00000000000E+00 0.  1.
         11    1    3    3    0    0  0.21630653253E+02 -0.34276956224E+02 -0.83554456449E+01  0.41383672629E+02  0.51100000000E-03 0. -1.
        -11    1    3    3    0    0  0.16307714083E+01 -0.54173389329E+00 -0.26037983440E+01  0.31197206726E+01  0.51100000000E-03 0.  1.
         12    1    3    3    0    0  0.81901041470E+00 -0.43434070504E+00  0.31503084047E+01  0.32838807762E+01  0.00000000000E+00 0. -1.
</event>
<event>
 7    1  0.2783785E-010  0.4778728E+02  0.7816164E-02  0.1312668E+00
        -11   -1    0    0    0    0  0.00000000000E+00  0.00000000000E+00  0.45593999997E+02  0.45594000000E+02  0.51100000000E-03 0.  1.
         11   -1    0    0    0    0 -0.00000000000E+00 -0.00000000000E+00 -0.45593999997E+02  0.45594000000E+02  0.51100000000E-03 0. -1.
    9900012    2    1    2    0    0 -0.16744507473E+02 -0.33501721643E+02 -0.21928946897E+02  0.47787278859E+02  0.20000035631E+02 0.  0.
        -12    1    1    2    0    0  0.16744507473E+02  0.33501721643E+02  0.21928946897E+02  0.43400721141E+02  0.00000000000E+00 0.  1.
         11    1    3    3    0    0 -0.10543172147E+02 -0.29186908003E+02 -0.19201947179E+02  0.36493134333E+02  0.51100000000E-03 0. -1.
        -11    1    3    3    0    0 -0.38184294742E+01 -0.96262191174E+00 -0.51788259963E+01  0.65059421727E+01  0.51100000000E-03 0.  1.
        -12    1    3    3    0    0 -0.23829058515E+01 -0.33521917278E+01  0.24518262786E+01  0.47882023535E+01  0.00000000000E+00 0.  1.
</event>
<event>
 7    1  0.2783785E-010  0.4778727E+02  0.7816164E-02  0.1312668E+00
        -11   -1    0    0    0    0  0.00000000000E+00  0.00000000000E+00  0.45593999997E+02  0.45594000000E+02  0.51100000000E-03 0.  1.
         11   -1    0    0    0    0 -0.00000000000E+00 -0.00000000000E+00 -0.45593999997E+02  0.45594000000E+02  0.51100000000E-03 0. -1.
    9900012    2    1    2    0    0 -0.34307036166E+01  0.41881071612E+02 -0.10854913444E+02  0.47787273825E+02  0.20000012676E+02 0.  0.
        -12    1    1    2    0    0  0.34307036166E+01 -0.41881071612E+02  0.10854913444E+02  0.43400726175E+02  0.00000000000E+00 0.  1.
         11    1    3    3    0    0 -0.45210117034E+01  0.20920816610E+02 -0.11618553185E+02  0.24353868129E+02  0.51100000000E-03 0.  1.
        -11    1    3    3    0    0  0.30133164895E+01  0.19198658201E+02 -0.21157809040E+01  0.19548531456E+02  0.51100000000E-03 0. -1.
        -12    1    3    3    0    0 -0.19230084027E+01  0.17615968012E+01  0.28794206457E+01  0.38848742401E+01  0.00000000000E+00 0.  1.
</event>
<event>
 7    1  0.2783785E-010  0.4778726E+02  0.7816164E-02  0.1312668E+00
        -11   -1    0    0    0    0  0.00000000000E+00  0.00000000000E+00  0.45593999997E+02  0.45594000000E+02  0.51100000000E-03 0.  1.
         11   -1    0    0    0    0 -0.00000000000E+00 -0.00000000000E+00 -0.45593999997E+02  0.45594000000E+02  0.51100000000E-03 0. -1.
    9900012    2    1    2    0    0 -0.20832834826E+01  0.42313274644E+02  0.94271299880E+01  0.47787261977E+02  0.19999958657E+02 0.  0.
        -12    1    1    2    0    0  0.20832834826E+01 -0.42313274644E+02 -0.94271299880E+01  0.43400738023E+02  0.00000000000E+00 0.  1.
         11    1    3    3    0    0  0.18457684769E+01  0.17300017761E+02  0.85849750786E+00  0.17419371230E+02  0.51100000000E-03 0. -1.
        -11    1    3    3    0    0 -0.72269067067E+01  0.22348264602E+02  0.10476611637E+02  0.25718330096E+02  0.51100000000E-03 0.  1.
        -12    1    3    3    0    0  0.32978547473E+01  0.26649922806E+01 -0.19079791564E+01  0.46495606514E+01  0.00000000000E+00 0.  1.
</event>
<event>
 7    1  0.2783785E-010  0.4778727E+02  0.7816164E-02  0.1312668E+00
        -11   -1    0    0    0    0  0.00000000000E+00  0.00000000000E+00  0.45593999997E+02  0.45594000000E+02  0.51100000000E-03 0. -1.
         11   -1    0    0    0    0 -0.00000000000E+00 -0.00000000000E+00 -0.45593999997E+02  0.45594000000E+02  0.51100000000E-03 0.  1.
    9900012    2    1    2    0    0  0.18230125554E+02 -0.13508581454E+02  0.36997355532E+02  0.47787267668E+02  0.19999984604E+02 0.  0.
        -12    1    1    2    0    0 -0.18230125554E+02  0.13508581454E+02 -0.36997355532E+02  0.43400732332E+02  0.00000000000E+00 0.  1.
         11    1    3    3    0    0  0.40351562579E+01 -0.82534151784E+01  0.53363871642E+01  0.10624423578E+02  0.51100000000E-03 0. -1.
        -11    1    3    3    0    0  0.15577482387E+00  0.14175980264E+01  0.12071283418E+02  0.12155234822E+02  0.51100000000E-03 0.  1.
         12    1    3    3    0    0  0.14039194472E+02 -0.66727643020E+01  0.19589684951E+02  0.25007609268E+02  0.00000000000E+00 0. -1.
</event>
<event>
 7    1  0.2783785E-010  0.4778727E+02  0.7816164E-02  0.1312668E+00
        -11   -1    0    0    0    0  0.00000000000E+00  0.00000000000E+00  0.45593999997E+02  0.45594000000E+02  0.51100000000E-03 0. -1.
         11   -1    0    0    0    0 -0.00000000000E+00 -0.00000000000E+00 -0.45593999997E+02  0.45594000000E+02  0.51100000000E-03 0.  1.
    9900012    2    1    2    0    0  0.29395597637E+02 -0.19426212140E+02  0.25340571114E+02  0.47787269327E+02  0.19999992168E+02 0.  0.
        -12    1    1    2    0    0 -0.29395597637E+02  0.19426212140E+02 -0.25340571114E+02  0.43400730673E+02  0.00000000000E+00 0.  1.
         11    1    3    3    0    0  0.69222145496E+01 -0.13847205376E+02  0.49925293660E+01  0.16266145847E+02  0.51100000000E-03 0. -1.
        -11    1    3    3    0    0  0.26327704947E+01  0.87206316293E+00  0.46404950090E+01  0.54061232715E+01  0.51100000000E-03 0.  1.
         12    1    3    3    0    0  0.19840612593E+02 -0.64510699271E+01  0.15707546740E+02  0.26115000208E+02  0.00000000000E+00 0. -1.
</event>
<event>
 7    1 -0.2783785E-010  0.4778728E+02  0.7816164E-02  0.1312668E+00
        -11   -1    0    0    0    0  0.00000000000E+00  0.00000000000E+00  0.45593999997E+02  0.45594000000E+02  0.51100000000E-03 0.  1.
         11   -1    0    0    0    0 -0.00000000000E+00 -0.00000000000E+00 -0.45593999997E+02  0.45594000000E+02  0.51100000000E-03 0. -1.
    9900012    2    1    2    0    0 -0.10273863694E+02  0.34792328972E+02 -0.23823607395E+02  0.47787277658E+02  0.20000030154E+02 0.  0.
        -12    1    1    2    0    0  0.10273863694E+02 -0.34792328972E+02  0.23823607395E+02  0.43400722342E+02  0.00000000000E+00 0.  1.
         11    1    3    3    0    0 -0.68394699052E+01  0.18810190987E+02 -0.14681480449E+02  0.24822318627E+02  0.51100000000E-03 0. -1.
        -11    1    3    3    0    0 -0.80248261113E+01  0.61065871724E+01 -0.33230539067E+01  0.10617482213E+02  0.51100000000E-03 0.  1.
         12    1    3    3    0    0  0.45904323225E+01  0.98755508120E+01 -0.58190730394E+01  0.12347476819E+02  0.00000000000E+00 0. -1.
</event>
<event>
 7    1  0.2783785E-010  0.4778727E+02  0.7816164E-02  0.1312668E+00
        -11   -1    0    0    0    0  0.00000000000E+00  0.00000000000E+00  0.45593999997E+02  0.45594000000E+02  0.51100000000E-03 0.  1.
         11   -1    0    0    0    0 -0.00000000000E+00 -0.00000000000E+00 -0.45593999997E+02  0.45594000000E+02  0.51100000000E-03 0. -1.
    9900012    2    1    2    0    0 -0.25107188327E+02 -0.13772371518E+02 -0.32612485260E+02  0.47787270539E+02  0.19999997695E+02 0.  0.
        -12    1    1    2    0    0  0.25107188327E+02  0.13772371518E+02  0.32612485260E+02  0.43400729461E+02  0.00000000000E+00 0.  1.
         11    1    3    3    0    0 -0.32328356792E+01  0.14006828900E+01 -0.18333093902E-02  0.35232290174E+01  0.51100000000E-03 0. -1.
        -11    1    3    3    0    0 -0.14470472846E+02 -0.68275227451E+01 -0.95168961504E+01  0.18616685092E+02  0.51100000000E-03 0.  1.
         12    1    3    3    0    0 -0.74038798020E+01 -0.83455316631E+01 -0.23093755800E+02  0.25647356429E+02  0.00000000000E+00 0. -1.
</event>
<event>
 7    1  0.2783785E-010  0.4778727E+02  0.7816164E-02  0.1312668E+00
        -11   -1    0    0    0    0  0.00000000000E+00  0.00000000000E+00  0.45593999997E+02  0.45594000000E+02  0.51100000000E-03 0.  1.
         11   -1    0    0    0    0 -0.00000000000E+00 -0.00000000000E+00 -0.45593999997E+02  0.45594000000E+02  0.51100000000E-03 0. -1.
    9900012    2    1    2    0    0 -0.32576152726E+02  0.15176307427E+02 -0.24333050157E+02  0.47787270012E+02  0.19999995294E+02 0.  0.
        -12    1    1    2    0    0  0.32576152726E+02 -0.15176307427E+02  0.24333050157E+02  0.43400729988E+02  0.00000000000E+00 0.  1.
         11    1    3    3    0    0 -0.17760636544E+02  0.12760823983E+02 -0.77818934374E+01  0.23212856457E+02  0.51100000000E-03 0. -1.
        -11    1    3    3    0    0 -0.42793100071E+01 -0.30943181168E+01 -0.16951105775E+01  0.55462328544E+01  0.51100000000E-03 0.  1.
        -12    1    3    3    0    0 -0.10536206175E+02  0.55098015607E+01 -0.14856046142E+02  0.19028180700E+02  0.00000000000E+00 0.  1.
</event>
<event>
 7    1  0.2783785E-010  0.4778728E+02  0.7816164E-02  0.1312668E+00
        -11   -1    0    0    0    0  0.00000000000E+00  0.00000000000E+00  0.45593999997E+02  0.45594000000E+02  0.51100000000E-03 0. -1.
         11   -1    0    0    0    0 -0.00000000000E+00 -0.00000000000E+00 -0.45593999997E+02  0.45594000000E+02  0.51100000000E-03 0.  1.
    9900012    2    1    2    0    0  0.35114907216E+01  0.38134516994E+02  0.20421824826E+02  0.47787275551E+02  0.20000020549E+02 0.  0.
        -12    1    1    2    0    0 -0.35114907216E+01 -0.38134516994E+02 -0.20421824826E+02  0.43400724449E+02  0.00000000000E+00 0.  1.
         11    1    3    3    0    0 -0.14680660213E+01  0.12255802911E+02  0.15744580196E+02  0.20006292226E+02  0.51100000000E-03 0. -1.
        -11    1    3    3    0    0 -0.17880753624E+01  0.66727882298E+01  0.97313307961E-01  0.69088918361E+01  0.51100000000E-03 0.  1.
        -12    1    3    3    0    0  0.67676321053E+01  0.19205925854E+02  0.45799313213E+01  0.20872091489E+02  0.00000000000E+00 0.  1.
</event>
<event>
 7    1  0.2783785E-010  0.4778728E+02  0.7816164E-02  0.1312668E+00
        -11   -1    0    0    0    0  0.00000000000E+00  0.00000000000E+00  0.45593999997E+02  0.45594000000E+02  0.51100000000E-03 0.  1.
         11   -1    0    0    0    0 -0.00000000000E+00 -0.00000000000E+00 -0.45593999997E+02  0.45594000000E+02  0.51100000000E-03 0. -1.
    9900012    2    1    2    0    0  0.29720188568E+01 -0.22167547169E+02 -0.37193949577E+02  0.47787275021E+02  0.20000018131E+02 0.  0.
        -12    1    1    2    0    0 -0.29720188568E+01  0.22167547169E+02  0.37193949577E+02  0.43400724979E+02  0.00000000000E+00 0.  1.
         11    1    3    3    0    0 -0.51060412121E+01 -0.64482198106E+01 -0.34039910957E+01  0.89015926230E+01  0.51100000000E-03 0.  1.
        -11    1    3    3    0    0  0.43832438014E+01 -0.16278953705E+01 -0.80859776002E+01  0.93405515668E+01  0.51100000000E-03 0. -1.
         12    1    3    3    0    0  0.36948162676E+01 -0.14091431988E+02 -0.25703980881E+02  0.29545130831E+02  0.00000000000E+00 0. -1.
</event>
<event>
 7    1  0.2783785E-010  0.4778728E+02  0.7816164E-02  0.1312668E+00
        -11   -1    0    0    0    0  0.00000000000E+00  0.00000000000E+00  0.45593999997E+02  0.45594000000E+02  0.51100000000E-03 0. -1.
         11   -1    0    0    0    0 -0.00000000000E+00 -0.00000000000E+00 -0.45593999997E+02  0.45594000000E+02  0.51100000000E-03 0.  1.
    9900012    2    1    2    0    0  0.81765779591E+01  0.38961667715E+02  0.17284523830E+02  0.47787277169E+02  0.20000027923E+02 0.  0.
        -12    1    1    2    0    0 -0.81765779591E+01 -0.38961667715E+02 -0.17284523830E+02  0.43400722831E+02  0.00000000000E+00 0.  1.
         11    1    3    3    0    0  0.96056174457E+01  0.18899420566E+02  0.10428748629E+02  0.23626569418E+02  0.51100000000E-03 0. -1.
        -11    1    3    3    0    0 -0.12404097171E+01 -0.11057417100E+01 -0.52404956692E+00  0.17423860666E+01  0.51100000000E-03 0.  1.
         12    1    3    3    0    0 -0.18862976949E+00  0.21167988859E+02  0.73798247681E+01  0.22418321684E+02  0.00000000000E+00 0. -1.
</event>
<event>
 7    1  0.2783785E-010  0.4778727E+02  0.7816164E-02  0.1312668E+00
        -11   -1    0    0    0    0  0.00000000000E+00  0.00000000000E+00  0.45593999997E+02  0.45594000000E+02  0.51100000000E-03 0.  1.
         11   -1    0    0    0    0 -0.00000000000E+00 -0.00000000000E+00 -0.45593999997E+02  0.45594000000E+02  0.51100000000E-03 0. -1.
    9900012    2    1    2    0    0  0.11687026481E+01 -0.33118514284E+02 -0.28025371708E+02  0.47787270587E+02  0.19999997913E+02 0.  0.
        -12    1    1    2    0    0 -0.11687026481E+01  0.33118514284E+02  0.28025371708E+02  0.43400729413E+02  0.00000000000E+00 0.  1.
         11    1    3    3    0    0  0.50867496910E+01 -0.13522736536E+02 -0.10475645122E+02  0.17845967803E+02  0.51100000000E-03 0.  1.
        -11    1    3    3    0    0 -0.36251459476E+01 -0.18617210884E+01 -0.97464945513E+01  0.10564177434E+02  0.51100000000E-03 0. -1.
         12    1    3    3    0    0 -0.29290109530E+00 -0.17734056659E+02 -0.78032320353E+01  0.19377125350E+02  0.00000000000E+00 0. -1.
</event>
<event>
 7    1  0.2783785E-010  0.4778728E+02  0.7816164E-02  0.1312668E+00
        -11   -1    0    0    0    0  0.00000000000E+00  0.00000000000E+00  0.45593999997E+02  0.45594000000E+02  0.51100000000E-03 0.  1.
         11   -1    0    0    0    0 -0.00000000000E+00 -0.00000000000E+00 -0.45593999997E+02  0.45594000000E+02  0.51100000000E-03 0. -1.
    9900012    2    1    2    0    0  0.12088431089E+02  0.26006974399E+02 -0.32574983650E+02  0.47787280612E+02  0.20000043624E+02 0.  0.
        -12    1    1    2    0    0 -0.12088431089E+02 -0.26006974399E+02  0.32574983650E+02  0.43400719388E+02  0.00000000000E+00 0.  1.
         11    1    3    3    0    0  0.27428975286E+01  0.81364210984E+01 -0.25558526898E+01  0.89586393150E+01  0.51100000000E-03 0.  1.
        -11    1    3    3    0    0 -0.85956620225E+00  0.39068543368E+01  0.20532802681E+00  0.40055617240E+01  0.51100000000E-03 0. -1.
         12    1    3    3    0    0  0.10205099763E+02  0.13963698963E+02 -0.30224458987E+02  0.34823079573E+02  0.00000000000E+00 0. -1.
</event>
<event>
 7    1  0.2783785E-010  0.4778725E+02  0.7816164E-02  0.1312668E+00
        -11   -1    0    0    0    0  0.00000000000E+00  0.00000000000E+00  0.45593999997E+02  0.45594000000E+02  0.51100000000E-03 0. -1.
         11   -1    0    0    0    0 -0.00000000000E+00 -0.00000000000E+00 -0.45593999997E+02  0.45594000000E+02  0.51100000000E-03 0.  1.
    9900012    2    1    2    0    0  0.40854028634E+02  0.13220643811E+02 -0.63077454574E+01  0.47787254256E+02  0.19999923452E+02 0.  0.
        -12    1    1    2    0    0 -0.40854028634E+02 -0.13220643811E+02  0.63077454574E+01  0.43400745744E+02  0.00000000000E+00 0.  1.
         11    1    3    3    0    0  0.38069234271E+02  0.93042182002E+01  0.67475593830E+00  0.39195540182E+02  0.51100000000E-03 0. -1.
        -11    1    3    3    0    0  0.18384143808E+01  0.20039247995E+01 -0.28407855689E+01  0.39326257065E+01  0.51100000000E-03 0.  1.
         12    1    3    3    0    0  0.94637998237E+00  0.19125008116E+01 -0.41417158268E+01  0.46590883674E+01  0.00000000000E+00 0. -1.
</event>
<event>
 7    1  0.2783785E-010  0.4778727E+02  0.7816164E-02  0.1312668E+00
        -11   -1    0    0    0    0  0.00000000000E+00  0.00000000000E+00  0.45593999997E+02  0.45594000000E+02  0.51100000000E-03 0.  1.
         11   -1    0    0    0    0 -0.00000000000E+00 -0.00000000000E+00 -0.45593999997E+02  0.45594000000E+02  0.51100000000E-03 0. -1.
    9900012    2    1    2    0    0  0.61367691900E+01  0.40510093055E+02 -0.14314179496E+02  0.47787270628E+02  0.19999998100E+02 0.  0.
        -12    1    1    2    0    0 -0.61367691900E+01 -0.40510093055E+02  0.14314179496E+02  0.43400729372E+02  0.00000000000E+00 0.  1.
         11    1    3    3    0    0  0.11219457464E+01  0.27222769703E+02 -0.78838173674E+01  0.28363577509E+02  0.51100000000E-03 0. -1.
        -11    1    3    3    0    0  0.61378075947E-01 -0.49642001593E+00  0.23124954878E+01  0.23659745862E+01  0.51100000000E-03 0.  1.
         12    1    3    3    0    0  0.49534453676E+01  0.13783743368E+02 -0.87428576161E+01  0.17057718533E+02  0.00000000000E+00 0. -1.
</event>
<event>
 7    1  0.2783785E-010  0.4778727E+02  0.7816164E-02  0.1312668E+00
        -11   -1    0    0    0    0  0.00000000000E+00  0.00000000000E+00  0.45593999997E+02  0.45594000000E+02  0.51100000000E-03 0.  1.
         11   -1    0    0    0    0 -0.00000000000E+00 -0.00000000000E+00 -0.45593999997E+02  0.45594000000E+02  0.51100000000E-03 0. -1.
    9900012    2    1    2    0    0  0.17519363735E+02  0.82842945014E+01 -0.38833818039E+02  0.47787273456E+02  0.20000010997E+02 0.  0.
        -12    1    1    2    0    0 -0.17519363735E+02 -0.82842945014E+01  0.38833818039E+02  0.43400726544E+02  0.00000000000E+00 0.  1.
         11    1    3    3    0    0  0.55110783887E+01  0.35453539958E+01 -0.16889437270E+02  0.18116142291E+02  0.51100000000E-03 0. -1.
        -11    1    3    3    0    0  0.16754693161E+01  0.24349755273E+01  0.19469441776E+01  0.35393354093E+01  0.51100000000E-03 0.  1.
         12    1    3    3    0    0  0.10332816030E+02  0.23039649783E+01 -0.23891324946E+02  0.26131795756E+02  0.00000000000E+00 0. -1.
</event>
<event>
 7    1  0.2783785E-010  0.4778728E+02  0.7816164E-02  0.1312668E+00
        -11   -1    0    0    0    0  0.00000000000E+00  0.00000000000E+00  0.45593999997E+02  0.45594000000E+02  0.51100000000E-03 0. -1.
         11   -1    0    0    0    0 -0.00000000000E+00 -0.00000000000E+00 -0.45593999997E+02  0.45594000000E+02  0.51100000000E-03 0.  1.
    9900012    2    1    2    0    0 -0.15739425829E+02 -0.14438019076E+02  0.37781436580E+02  0.47787275693E+02  0.20000021197E+02 0.  0.
        -12    1    1    2    0    0  0.15739425829E+02  0.14438019076E+02 -0.37781436580E+02  0.43400724307E+02  0.00000000000E+00 0.  1.
         11    1    3    3    0    0 -0.40628320274E+01 -0.76433740415E+01  0.25340110130E+02  0.26777769744E+02  0.51100000000E-03 0. -1.
        -11    1    3    3    0    0 -0.95376553665E+00 -0.41072378348E+01  0.81026222458E+01  0.91340877404E+01  0.51100000000E-03 0.  1.
        -12    1    3    3    0    0 -0.10722828265E+02 -0.26874071995E+01  0.43387042045E+01  0.11875418209E+02  0.00000000000E+00 0.  1.
</event>
<event>
 7    1  0.2783785E-010  0.4778727E+02  0.7816164E-02  0.1312668E+00
        -11   -1    0    0    0    0  0.00000000000E+00  0.00000000000E+00  0.45593999997E+02  0.45594000000E+02  0.51100000000E-03 0.  1.
         11   -1    0    0    0    0 -0.00000000000E+00 -0.00000000000E+00 -0.45593999997E+02  0.45594000000E+02  0.51100000000E-03 0. -1.
    9900012    2    1    2    0    0  0.21239304843E+02 -0.21311636610E+02 -0.31278258145E+02  0.47787270078E+02  0.19999995592E+02 0.  0.
        -12    1    1    2    0    0 -0.21239304843E+02  0.21311636610E+02  0.31278258145E+02  0.43400729922E+02  0.00000000000E+00 0.  1.
         11    1    3    3    0    0  0.18713173658E+01 -0.16932112610E+01  0.17647785402E+01  0.30794864206E+01  0.51100000000E-03 0.  1.
        -11    1    3    3    0    0  0.67003891007E+01 -0.20641497218E+01 -0.14882774059E+02  0.16451531604E+02  0.51100000000E-03 0. -1.
         12    1    3    3    0    0  0.12667598376E+02 -0.17554275627E+02 -0.18160262626E+02  0.28256252053E+02  0.00000000000E+00 0. -1.
</event>
<event>
 7    1  0.2783785E-010  0.4778730E+02  0.7816164E-02  0.1312668E+00
        -11   -1    0    0    0    0  0.00000000000E+00  0.00000000000E+00  0.45593999997E+02  0.45594000000E+02  0.51100000000E-03 0.  1.
         11   -1    0    0    0    0 -0.00000000000E+00 -0.00000000000E+00 -0.45593999997E+02  0.45594000000E+02  0.51100000000E-03 0. -1.
    9900012    2    1    2    0    0  0.26692793486E+02 -0.22425870280E+02 -0.25849487867E+02  0.47787298336E+02  0.20000124434E+02 0.  0.
        -12    1    1    2    0    0 -0.26692793486E+02  0.22425870280E+02  0.25849487867E+02  0.43400701664E+02  0.00000000000E+00 0.  1.
         11    1    3    3    0    0  0.14258857493E+02 -0.15819276182E+02 -0.21034173468E+02  0.29933275292E+02  0.51100000000E-03 0. -1.
        -11    1    3    3    0    0  0.13737822922E+02 -0.74608258541E+01 -0.44208047525E+01  0.16246083096E+02  0.51100000000E-03 0.  1.
        -12    1    3    3    0    0 -0.13038869289E+01  0.85423175597E+00 -0.39450964649E+00  0.16079399483E+01  0.00000000000E+00 0.  1.
</event>
<event>
 7    1  0.3775536E-010  0.4778727E+02  0.7816164E-02  0.1312668E+00
        -11   -1    0    0    0    0  0.00000000000E+00  0.00000000000E+00  0.45593999997E+02  0.45594000000E+02  0.51100000000E-03 0. -1.
         11   -1    0    0    0    0 -0.00000000000E+00 -0.00000000000E+00 -0.45593999997E+02  0.45594000000E+02  0.51100000000E-03 0.  1.
    9900012    2    1    2    0    0  0.37191376484E+02  0.98891896064E+01  0.20065606657E+02  0.47787272743E+02  0.20000007746E+02 0.  0.
        -12    1    1    2    0    0 -0.37191376484E+02 -0.98891896064E+01 -0.20065606657E+02  0.43400727257E+02  0.00000000000E+00 0.  1.
         11    1    3    3    0    0  0.28748298802E+02  0.27089162455E+01  0.12267870437E+02  0.31373612425E+02  0.51100000000E-03 0. -1.
        -11    1    3    3    0    0  0.24093908911E+01  0.28289235966E+01 -0.19142618350E+01  0.41799966287E+01  0.51100000000E-03 0.  1.
        -12    1    3    3    0    0  0.60336867912E+01  0.43513497643E+01  0.97119980550E+01  0.12233663690E+02  0.00000000000E+00 0.  1.
</event>
<event>
 7    1  0.2783785E-010  0.4778724E+02  0.7816164E-02  0.1312668E+00
        -11   -1    0    0    0    0  0.00000000000E+00  0.00000000000E+00  0.45593999997E+02  0.45594000000E+02  0.51100000000E-03 0.  1.
         11   -1    0    0    0    0 -0.00000000000E+00 -0.00000000000E+00 -0.45593999997E+02  0.45594000000E+02  0.51100000000E-03 0. -1.
    9900012    2    1    2    0    0 -0.29897053455E+02  0.28116829601E+02  0.14115092985E+02  0.47787242379E+02  0.19999869302E+02 0.  0.
        -12    1    1    2    0    0  0.29897053455E+02 -0.28116829601E+02 -0.14115092985E+02  0.43400757621E+02  0.00000000000E+00 0.  1.
         11    1    3    3    0    0 -0.20827731291E+02  0.73578851104E+01  0.79763955301E+01  0.23485224077E+02  0.51100000000E-03 0. -1.
        -11    1    3    3    0    0 -0.69623968599E+01  0.10018072317E+02  0.10908323170E+01  0.12248536990E+02  0.51100000000E-03 0.  1.
        -12    1    3    3    0    0 -0.21069253040E+01  0.10740872174E+02  0.50478651376E+01  0.12053481312E+02  0.00000000000E+00 0.  1.
</event>
<event>
 7    1  0.2783785E-010  0.4778727E+02  0.7816164E-02  0.1312668E+00
        -11   -1    0    0    0    0  0.00000000000E+00  0.00000000000E+00  0.45593999997E+02  0.45594000000E+02  0.51100000000E-03 0. -1.
         11   -1    0    0    0    0 -0.00000000000E+00 -0.00000000000E+00 -0.45593999997E+02  0.45594000000E+02  0.51100000000E-03 0.  1.
    9900012    2    1    2    0    0 -0.39233453450E+02 -0.16438522150E+02  0.86101309060E+01  0.47787271500E+02  0.20000002078E+02 0.  0.
        -12    1    1    2    0    0  0.39233453450E+02  0.16438522150E+02 -0.86101309060E+01  0.43400728500E+02  0.00000000000E+00 0.  1.
         11    1    3    3    0    0 -0.34102937711E-02 -0.47841408322E+01  0.40249174170E+01  0.62520377164E+01  0.51100000000E-03 0. -1.
        -11    1    3    3    0    0 -0.15979073653E+02 -0.74805025179E+01  0.25211535956E+01  0.17822596007E+02  0.51100000000E-03 0.  1.
        -12    1    3    3    0    0 -0.23250969503E+02 -0.41738788003E+01  0.20640598933E+01  0.23712637776E+02  0.00000000000E+00 0.  1.
</event>
<event>
 7    1  0.2783785E-010  0.4778727E+02  0.7816164E-02  0.1312668E+00
        -11   -1    0    0    0    0  0.00000000000E+00  0.00000000000E+00  0.45593999997E+02  0.45594000000E+02  0.51100000000E-03 0.  1.
         11   -1    0    0    0    0 -0.00000000000E+00 -0.00000000000E+00 -0.45593999997E+02  0.45594000000E+02  0.51100000000E-03 0. -1.
    9900012    2    1    2    0    0 -0.80573228598E+01 -0.24423544617E+01 -0.42576262623E+02  0.47787266297E+02  0.19999978354E+02 0.  0.
        -12    1    1    2    0    0  0.80573228598E+01  0.24423544617E+01  0.42576262623E+02  0.43400733703E+02  0.00000000000E+00 0.  1.
         11    1    3    3    0    0 -0.54574279619E+00 -0.55495630350E+01 -0.16244505944E+02  0.17174966047E+02  0.51100000000E-03 0. -1.
        -11    1    3    3    0    0 -0.46367504916E+01 -0.79486377301E+00 -0.98511073437E+00  0.48064235101E+01  0.51100000000E-03 0.  1.
         12    1    3    3    0    0 -0.28748295720E+01  0.39020723463E+01 -0.25346645945E+02  0.25805876740E+02  0.00000000000E+00 0. -1.
</event>
<event>
 7    1  0.2783785E-010  0.4778727E+02  0.7816164E-02  0.1312668E+00
        -11   -1    0    0    0    0  0.00000000000E+00  0.00000000000E+00  0.45593999997E+02  0.45594000000E+02  0.51100000000E-03 0. -1.
         11   -1    0    0    0    0 -0.00000000000E+00 -0.00000000000E+00 -0.45593999997E+02  0.45594000000E+02  0.51100000000E-03 0.  1.
    9900012    2    1    2    0    0  0.38243659396E+02  0.19064216312E+02 -0.75895661392E+01  0.47787270262E+02  0.19999996434E+02 0.  0.
        -12    1    1    2    0    0 -0.38243659396E+02 -0.19064216312E+02  0.75895661392E+01  0.43400729738E+02  0.00000000000E+00 0.  1.
         11    1    3    3    0    0  0.15263394022E+02  0.15013108365E+02 -0.61556423888E+01  0.22276816499E+02  0.51100000000E-03 0. -1.
        -11    1    3    3    0    0  0.23983516471E+00  0.26719939869E+01 -0.30921897828E+00  0.27004979929E+01  0.51100000000E-03 0.  1.
        -12    1    3    3    0    0  0.22740430209E+02  0.13791139599E+01 -0.11247047721E+01  0.22809955770E+02  0.00000000000E+00 0.  1.
</event>
<event>
 7    1  0.2783785E-010  0.4778728E+02  0.7816164E-02  0.1312668E+00
        -11   -1    0    0    0    0  0.00000000000E+00  0.00000000000E+00  0.45593999997E+02  0.45594000000E+02  0.51100000000E-03 0. -1.
         11   -1    0    0    0    0 -0.00000000000E+00 -0.00000000000E+00 -0.45593999997E+02  0.45594000000E+02  0.51100000000E-03 0.  1.
    9900012    2    1    2    0    0  0.85586256979E+01  0.35582730277E+02  0.23328993684E+02  0.47787277493E+02  0.20000029400E+02 0.  0.
        -12    1    1    2    0    0 -0.85586256979E+01 -0.35582730277E+02 -0.23328993684E+02  0.43400722507E+02  0.00000000000E+00 0.  1.
         11    1    3    3    0    0 -0.41934440279E+01  0.14864107503E+02  0.10759277200E+02  0.18822558561E+02  0.51100000000E-03 0. -1.
        -11    1    3    3    0    0  0.58040413705E+01  0.15173514377E+02  0.42572452614E+01  0.16794242235E+02  0.51100000000E-03 0.  1.
        -12    1    3    3    0    0  0.69480283553E+01  0.55451083973E+01  0.83124712235E+01  0.12170476696E+02  0.00000000000E+00 0.  1.
</event>
<event>
 7    1  0.2783785E-010  0.4778727E+02  0.7816164E-02  0.1312668E+00
        -11   -1    0    0    0    0  0.00000000000E+00  0.00000000000E+00  0.45593999997E+02  0.45594000000E+02  0.51100000000E-03 0. -1.
         11   -1    0    0    0    0 -0.00000000000E+00 -0.00000000000E+00 -0.45593999997E+02  0.45594000000E+02  0.51100000000E-03 0.  1.
    9900012    2    1    2    0    0 -0.32775604011E+02  0.11435380251E+02  0.26050245240E+02  0.47787269397E+02  0.19999992489E+02 0.  0.
        -12    1    1    2    0    0  0.32775604011E+02 -0.11435380251E+02 -0.26050245240E+02  0.43400730603E+02  0.00000000000E+00 0.  1.
         11    1    3    3    0    0 -0.13498307753E+02  0.15576934551E+01  0.13331062463E+02  0.19035439258E+02  0.51100000000E-03 0. -1.
        -11    1    3    3    0    0 -0.13275448521E+01  0.67737184909E+01  0.72277598314E+00  0.69403200871E+01  0.51100000000E-03 0.  1.
        -12    1    3    3    0    0 -0.17949751406E+02  0.31039683053E+01  0.11996406795E+02  0.21811510052E+02  0.00000000000E+00 0.  1.
</event>
<event>
 7    1  0.2783785E-010  0.4778727E+02  0.7816164E-02  0.1312668E+00
        -11   -1    0    0    0    0  0.00000000000E+00  0.00000000000E+00  0.45593999997E+02  0.45594000000E+02  0.51100000000E-03 0.  1.
         11   -1    0    0    0    0 -0.00000000000E+00 -0.00000000000E+00 -0.45593999997E+02  0.45594000000E+02  0.51100000000E-03 0. -1.
    9900012    2    1    2    0    0 -0.26232747687E+02  0.39444851610E+01 -0.34349778666E+02  0.47787270642E+02  0.19999998166E+02 0.  0.
        -12    1    1    2    0    0  0.26232747687E+02 -0.39444851610E+01  0.34349778666E+02  0.43400729358E+02  0.00000000000E+00 0.  1.
         11    1    3    3    0    0 -0.12456385383E+02  0.16763566070E+01 -0.69246228048E+01  0.14349986395E+02  0.51100000000E-03 0. -1.
        -11    1    3    3    0    0 -0.37361324385E+01 -0.52284339117E+01 -0.11499825474E+02  0.13173503443E+02  0.51100000000E-03 0.  1.
         12    1    3    3    0    0 -0.10040229865E+02  0.74965624657E+01 -0.15925330388E+02  0.20263780805E+02  0.00000000000E+00 0. -1.
</event>
<event>
 7    1  0.2783785E-010  0.4778727E+02  0.7816164E-02  0.1312668E+00
        -11   -1    0    0    0    0  0.00000000000E+00  0.00000000000E+00  0.45593999997E+02  0.45594000000E+02  0.51100000000E-03 0. -1.
         11   -1    0    0    0    0 -0.00000000000E+00 -0.00000000000E+00 -0.45593999997E+02  0.45594000000E+02  0.51100000000E-03 0.  1.
    9900012    2    1    2    0    0 -0.34516428739E+02 -0.25540419411E+02  0.63187314593E+01  0.47787271391E+02  0.20000001578E+02 0.  0.
        -12    1    1    2    0    0  0.34516428739E+02  0.25540419411E+02 -0.63187314593E+01  0.43400728609E+02  0.00000000000E+00 0.  1.
         11    1    3    3    0    0 -0.14666119262E+02 -0.10879079400E+02  0.50505620553E+01  0.18946176399E+02  0.51100000000E-03 0. -1.
        -11    1    3    3    0    0 -0.11770789845E+02  0.16508680013E+00 -0.95402569505E+00  0.11810542431E+02  0.51100000000E-03 0.  1.
         12    1    3    3    0    0 -0.80795196323E+01 -0.14826426812E+02  0.22221950991E+01  0.17030552561E+02  0.00000000000E+00 0. -1.
</event>
<event>
 7    1  0.2783785E-010  0.4778728E+02  0.7816164E-02  0.1312668E+00
        -11   -1    0    0    0    0  0.00000000000E+00  0.00000000000E+00  0.45593999997E+02  0.45594000000E+02  0.51100000000E-03 0. -1.
         11   -1    0    0    0    0 -0.00000000000E+00 -0.00000000000E+00 -0.45593999997E+02  0.45594000000E+02  0.51100000000E-03 0.  1.
    9900012    2    1    2    0    0 -0.27323669337E+02  0.18178974656E+02  0.28400082638E+02  0.47787277432E+02  0.20000029123E+02 0.  0.
        -12    1    1    2    0    0  0.27323669337E+02 -0.18178974656E+02 -0.28400082638E+02  0.43400722568E+02  0.00000000000E+00 0.  1.
         11    1    3    3    0    0 -0.10570912963E+02  0.33208051077E+01  0.81090631523E+01  0.13730580938E+02  0.51100000000E-03 0. -1.
        -11    1    3    3    0    0 -0.87387427033E-01  0.25439792491E+01  0.11100594300E+02  0.11388707612E+02  0.51100000000E-03 0.  1.
        -12    1    3    3    0    0 -0.16665368947E+02  0.12314190300E+02  0.91904251854E+01  0.22667988882E+02  0.00000000000E+00 0.  1.
</event>
<event>
 7    1  0.2783785E-010  0.4778727E+02  0.7816164E-02  0.1312668E+00
        -11   -1    0    0    0    0  0.00000000000E+00  0.00000000000E+00  0.45593999997E+02  0.45594000000E+02  0.51100000000E-03 0.  1.
         11   -1    0    0    0    0 -0.00000000000E+00 -0.00000000000E+00 -0.45593999997E+02  0.45594000000E+02  0.51100000000E-03 0. -1.
    9900012    2    1    2    0    0 -0.32052714385E+00 -0.94341108108E+01 -0.42361753141E+02  0.47787270587E+02  0.19999997914E+02 0.  0.
        -12    1    1    2    0    0  0.32052714385E+00  0.94341108108E+01  0.42361753141E+02  0.43400729413E+02  0.00000000000E+00 0.  1.
         11    1    3    3    0    0  0.56847212884E+01 -0.43677985093E+01 -0.11940289039E+02  0.13927103882E+02  0.51100000000E-03 0. -1.
        -11    1    3    3    0    0  0.25974232520E+01 -0.14154904669E+01 -0.18386249834E+02  0.18622685199E+02  0.51100000000E-03 0.  1.
        -12    1    3    3    0    0 -0.86026716842E+01 -0.36508218346E+01 -0.12035214268E+02  0.15237481507E+02  0.00000000000E+00 0.  1.
</event>
<event>
 7    1  0.2783785E-010  0.4778727E+02  0.7816164E-02  0.1312668E+00
        -11   -1    0    0    0    0  0.00000000000E+00  0.00000000000E+00  0.45593999997E+02  0.45594000000E+02  0.51100000000E-03 0. -1.
         11   -1    0    0    0    0 -0.00000000000E+00 -0.00000000000E+00 -0.45593999997E+02  0.45594000000E+02  0.51100000000E-03 0.  1.
    9900012    2    1    2    0    0  0.27772557441E+02 -0.17762417521E+02  0.28227729860E+02  0.47787272401E+02  0.20000006187E+02 0.  0.
        -12    1    1    2    0    0 -0.27772557441E+02  0.17762417521E+02 -0.28227729860E+02  0.43400727599E+02  0.00000000000E+00 0.  1.
         11    1    3    3    0    0  0.10836303001E+02  0.17672059677E+01  0.32148299840E+01  0.11440437568E+02  0.51100000000E-03 0.  1.
        -11    1    3    3    0    0  0.45080442184E+01 -0.50169933221E+01  0.99299716805E+01  0.12004041924E+02  0.51100000000E-03 0. -1.
        -12    1    3    3    0    0  0.12428210222E+02 -0.14512630167E+02  0.15082928196E+02  0.24342792909E+02  0.00000000000E+00 0.  1.
</event>
<event>
 7    1  0.2783785E-010  0.4778727E+02  0.7816164E-02  0.1312668E+00
        -11   -1    0    0    0    0  0.00000000000E+00  0.00000000000E+00  0.45593999997E+02  0.45594000000E+02  0.51100000000E-03 0. -1.
         11   -1    0    0    0    0 -0.00000000000E+00 -0.00000000000E+00 -0.45593999997E+02  0.45594000000E+02  0.51100000000E-03 0.  1.
    9900012    2    1    2    0    0  0.14235379268E+02  0.16175086451E+02  0.37674181103E+02  0.47787269979E+02  0.19999995142E+02 0.  0.
        -12    1    1    2    0    0 -0.14235379268E+02 -0.16175086451E+02 -0.37674181103E+02  0.43400730021E+02  0.00000000000E+00 0.  1.
         11    1    3    3    0    0  0.12339297032E+02  0.42369740465E+01  0.27869825803E+02  0.30772347828E+02  0.51100000000E-03 0. -1.
        -11    1    3    3    0    0 -0.16747756669E+01  0.32396182281E+01  0.56737537454E+01  0.67447373280E+01  0.51100000000E-03 0.  1.
        -12    1    3    3    0    0  0.35708579036E+01  0.86984941760E+01  0.41306015542E+01  0.10270184823E+02  0.00000000000E+00 0.  1.
</event>
<event>
 7    1  0.2783785E-010  0.4778728E+02  0.7816164E-02  0.1312668E+00
        -11   -1    0    0    0    0  0.00000000000E+00  0.00000000000E+00  0.45593999997E+02  0.45594000000E+02  0.51100000000E-03 0. -1.
         11   -1    0    0    0    0 -0.00000000000E+00 -0.00000000000E+00 -0.45593999997E+02  0.45594000000E+02  0.51100000000E-03 0.  1.
    9900012    2    1    2    0    0  0.85926218066E+01  0.28761266575E+02  0.31346119360E+02  0.47787276464E+02  0.20000024709E+02 0.  0.
        -12    1    1    2    0    0 -0.85926218066E+01 -0.28761266575E+02 -0.31346119360E+02  0.43400723536E+02  0.00000000000E+00 0.  1.
         11    1    3    3    0    0 -0.34526893361E+00  0.25063367682E+01  0.12855894456E+01  0.28378997720E+01  0.51100000000E-03 0. -1.
        -11    1    3    3    0    0  0.82880210470E+01  0.27140852357E+02  0.19735335027E+02  0.34565887931E+02  0.51100000000E-03 0.  1.
        -12    1    3    3    0    0  0.64986969324E+00 -0.88592255023E+00  0.10325194888E+02  0.10383488761E+02  0.00000000000E+00 0.  1.
</event>
<event>
 7    1  0.2783785E-010  0.4778727E+02  0.7816164E-02  0.1312668E+00
        -11   -1    0    0    0    0  0.00000000000E+00  0.00000000000E+00  0.45593999997E+02  0.45594000000E+02  0.51100000000E-03 0. -1.
         11   -1    0    0    0    0 -0.00000000000E+00 -0.00000000000E+00 -0.45593999997E+02  0.45594000000E+02  0.51100000000E-03 0.  1.
    9900012    2    1    2    0    0  0.43710064871E+01  0.23203030743E+02  0.36416170028E+02  0.47787265295E+02  0.19999973788E+02 0.  0.
        -12    1    1    2    0    0 -0.43710064871E+01 -0.23203030743E+02 -0.36416170028E+02  0.43400734705E+02  0.00000000000E+00 0.  1.
         11    1    3    3    0    0 -0.14823494692E+01 -0.24709159272E+01  0.22781118206E+01  0.36732246319E+01  0.51100000000E-03 0. -1.
        -11    1    3    3    0    0 -0.15234857167E+01  0.96817218291E+01  0.82916886834E+01  0.12837789833E+02  0.51100000000E-03 0.  1.
        -12    1    3    3    0    0  0.73768416730E+01  0.15992224841E+02  0.25846369524E+02  0.31276250831E+02  0.00000000000E+00 0.  1.
</event>
<event>
 7    1  0.2783785E-010  0.4778727E+02  0.7816164E-02  0.1312668E+00
        -11   -1    0    0    0    0  0.00000000000E+00  0.00000000000E+00  0.45593999997E+02  0.45594000000E+02  0.51100000000E-03 0. -1.
         11   -1    0    0    0    0 -0.00000000000E+00 -0.00000000000E+00 -0.45593999997E+02  0.45594000000E+02  0.51100000000E-03 0.  1.
    9900012    2    1    2    0    0 -0.22531093627E+02 -0.13103513662E+02  0.34702606289E+02  0.47787272661E+02  0.20000007371E+02 0.  0.
        -12    1    1    2    0    0  0.22531093627E+02  0.13103513662E+02 -0.34702606289E+02  0.43400727339E+02  0.00000000000E+00 0.  1.
         11    1    3    3    0    0 -0.13476969289E+02 -0.96983843205E+00  0.10822126101E+02  0.17311490444E+02  0.51100000000E-03 0. -1.
        -11    1    3    3    0    0  0.87813063530E+00 -0.20944319385E+01 -0.47683569714E+00  0.23205885247E+01  0.51100000000E-03 0.  1.
        -12    1    3    3    0    0 -0.99322549730E+01 -0.10039243292E+02  0.24357315885E+02  0.28155193692E+02  0.00000000000E+00 0.  1.
</event>
<event>
 7    1  0.2783785E-010  0.4778727E+02  0.7816164E-02  0.1312668E+00
        -11   -1    0    0    0    0  0.00000000000E+00  0.00000000000E+00  0.45593999997E+02  0.45594000000E+02  0.51100000000E-03 0.  1.
         11   -1    0    0    0    0 -0.00000000000E+00 -0.00000000000E+00 -0.45593999997E+02  0.45594000000E+02  0.51100000000E-03 0. -1.
    9900012    2    1    2    0    0  0.31075390663E+01  0.36315694048E+01 -0.43136735508E+02  0.47787273673E+02  0.20000011985E+02 0.  0.
        -12    1    1    2    0    0 -0.31075390663E+01 -0.36315694048E+01  0.43136735508E+02  0.43400726327E+02  0.00000000000E+00 0.  1.
         11    1    3    3    0    0 -0.27660822068E+01  0.81131658332E+00 -0.14862600501E+02  0.15139562057E+02  0.51100000000E-03 0. -1.
        -11    1    3    3    0    0  0.35831610069E+01 -0.23783407154E-01  0.52191244093E+00  0.36210497523E+01  0.51100000000E-03 0.  1.
        -12    1    3    3    0    0  0.22904602663E+01  0.28440362286E+01 -0.28796047448E+02  0.29026661864E+02  0.00000000000E+00 0.  1.
</event>
<event>
 7    1  0.3573547E-010  0.4778727E+02  0.7816164E-02  0.1312668E+00
        -11   -1    0    0    0    0  0.00000000000E+00  0.00000000000E+00  0.45593999997E+02  0.45594000000E+02  0.51100000000E-03 0. -1.
         11   -1    0    0    0    0 -0.00000000000E+00 -0.00000000000E+00 -0.45593999997E+02  0.45594000000E+02  0.51100000000E-03 0.  1.
    9900012    2    1    2    0    0  0.27968117925E+02  0.28218448644E+02  0.17467875455E+02  0.47787272621E+02  0.20000007186E+02 0.  0.
        -12    1    1    2    0    0 -0.27968117925E+02 -0.28218448644E+02 -0.17467875455E+02  0.43400727379E+02  0.00000000000E+00 0.  1.
         11    1    3    3    0    0  0.11259470482E+02  0.98485358116E+01  0.31757194368E+01  0.15292302880E+02  0.51100000000E-03 0. -1.
        -11    1    3    3    0    0  0.73215356305E+01  0.27909309174E+00  0.86724280350E+01  0.11353139884E+02  0.51100000000E-03 0.  1.
        -12    1    3    3    0    0  0.93871118117E+01  0.18090819741E+02  0.56197279835E+01  0.21141829856E+02  0.00000000000E+00 0.  1.
</event>
<event>
 7    1  0.2783785E-010  0.4778727E+02  0.7816164E-02  0.1312668E+00
        -11   -1    0    0    0    0  0.00000000000E+00  0.00000000000E+00  0.45593999997E+02  0.45594000000E+02  0.51100000000E-03 0.  1.
         11   -1    0    0    0    0 -0.00000000000E+00 -0.00000000000E+00 -0.45593999997E+02  0.45594000000E+02  0.51100000000E-03 0. -1.
    9900012    2    1    2    0    0 -0.30619019119E+01 -0.47699578994E+01 -0.43029006254E+02  0.47787272807E+02  0.20000008037E+02 0.  0.
        -12    1    1    2    0    0  0.30619019119E+01  0.47699578994E+01  0.43029006254E+02  0.43400727193E+02  0.00000000000E+00 0.  1.
         11    1    3    3    0    0 -0.11623251457E+01 -0.18236824900E+01 -0.17868857147E+02  0.17999246473E+02  0.51100000000E-03 0. -1.
        -11    1    3    3    0    0  0.51352836669E+01  0.20062481629E+01 -0.36257558140E+01  0.65986570993E+01  0.51100000000E-03 0.  1.
        -12    1    3    3    0    0 -0.70348604331E+01 -0.49525235723E+01 -0.21534393293E+02  0.23189369235E+02  0.00000000000E+00 0.  1.
</event>
<event>
 7    1  0.2783785E-010  0.4778727E+02  0.7816164E-02  0.1312668E+00
        -11   -1    0    0    0    0  0.00000000000E+00  0.00000000000E+00  0.45593999997E+02  0.45594000000E+02  0.51100000000E-03 0.  1.
         11   -1    0    0    0    0 -0.00000000000E+00 -0.00000000000E+00 -0.45593999997E+02  0.45594000000E+02  0.51100000000E-03 0. -1.
    9900012    2    1    2    0    0 -0.41294579701E+02 -0.10296195924E+02 -0.85070098908E+01  0.47787272121E+02  0.20000004907E+02 0.  0.
        -12    1    1    2    0    0  0.41294579701E+02  0.10296195924E+02  0.85070098908E+01  0.43400727879E+02  0.00000000000E+00 0.  1.
         11    1    3    3    0    0 -0.56244924871E+01 -0.52616512425E+01  0.24625743811E+01  0.80860473891E+01  0.51100000000E-03 0. -1.
        -11    1    3    3    0    0 -0.16979335616E+02  0.23745949967E+01 -0.78352404950E+00  0.17162472128E+02  0.51100000000E-03 0.  1.
         12    1    3    3    0    0 -0.18690751598E+02 -0.74091396786E+01 -0.10186060222E+02  0.22538752604E+02  0.00000000000E+00 0. -1.
</event>
<event>
 7    1  0.2783785E-010  0.4778727E+02  0.7816164E-02  0.1312668E+00
        -11   -1    0    0    0    0  0.00000000000E+00  0.00000000000E+00  0.45593999997E+02  0.45594000000E+02  0.51100000000E-03 0. -1.
         11   -1    0    0    0    0 -0.00000000000E+00 -0.00000000000E+00 -0.45593999997E+02  0.45594000000E+02  0.51100000000E-03 0.  1.
    9900012    2    1    2    0    0  0.28492881233E+02 -0.31411687670E+02 -0.92241312626E+01  0.47787274190E+02  0.20000014342E+02 0.  0.
        -12    1    1    2    0    0 -0.28492881233E+02  0.31411687670E+02  0.92241312626E+01  0.43400725810E+02  0.00000000000E+00 0.  1.
         11    1    3    3    0    0  0.74238337159E+01 -0.16099722046E+02 -0.81176322862E+01  0.19498982311E+02  0.51100000000E-03 0.  1.
        -11    1    3    3    0    0  0.27681465799E+01 -0.56470552713E+01  0.33383617441E+01  0.71201494451E+01  0.51100000000E-03 0. -1.
         12    1    3    3    0    0  0.18300900937E+02 -0.96649103536E+01 -0.44448607205E+01  0.21168142434E+02  0.00000000000E+00 0. -1.
</event>
<event>
 7    1  0.2783785E-010  0.4778727E+02  0.7816164E-02  0.1312668E+00
        -11   -1    0    0    0    0  0.00000000000E+00  0.00000000000E+00  0.45593999997E+02  0.45594000000E+02  0.51100000000E-03 0.  1.
         11   -1    0    0    0    0 -0.00000000000E+00 -0.00000000000E+00 -0.45593999997E+02  0.45594000000E+02  0.51100000000E-03 0. -1.
    9900012    2    1    2    0    0 -0.30577443514E+02  0.15298120408E+02 -0.26732201821E+02  0.47787272425E+02  0.20000006296E+02 0.  0.
        -12    1    1    2    0    0  0.30577443514E+02 -0.15298120408E+02  0.26732201821E+02  0.43400727575E+02  0.00000000000E+00 0.  1.
         11    1    3    3    0    0 -0.54138949658E+01 -0.10741803151E+01 -0.83004495960E+01  0.99680281805E+01  0.51100000000E-03 0. -1.
        -11    1    3    3    0    0 -0.73274602436E+01  0.12728545436E+02 -0.99192069320E+01  0.17722816056E+02  0.51100000000E-03 0.  1.
         12    1    3    3    0    0 -0.17836088304E+02  0.36437552869E+01 -0.85125452927E+01  0.20096428189E+02  0.00000000000E+00 0. -1.
</event>
<event>
 7    1  0.2783785E-010  0.4778727E+02  0.7816164E-02  0.1312668E+00
        -11   -1    0    0    0    0  0.00000000000E+00  0.00000000000E+00  0.45593999997E+02  0.45594000000E+02  0.51100000000E-03 0.  1.
         11   -1    0    0    0    0 -0.00000000000E+00 -0.00000000000E+00 -0.45593999997E+02  0.45594000000E+02  0.51100000000E-03 0. -1.
    9900012    2    1    2    0    0  0.19799168544E+02  0.27154568491E+01 -0.38525864175E+02  0.47787274299E+02  0.20000014837E+02 0.  0.
        -12    1    1    2    0    0 -0.19799168544E+02 -0.27154568491E+01  0.38525864175E+02  0.43400725701E+02  0.00000000000E+00 0.  1.
         11    1    3    3    0    0  0.96844480721E+01  0.14023346988E+01 -0.48942608493E+01  0.10941154719E+02  0.51100000000E-03 0. -1.
        -11    1    3    3    0    0 -0.23171802077E+01  0.11684631253E+01 -0.50590433033E+01  0.56858200461E+01  0.51100000000E-03 0.  1.
         12    1    3    3    0    0  0.12431900680E+02  0.14465902502E+00 -0.28572560023E+02  0.31160299533E+02  0.00000000000E+00 0. -1.
</event>
<event>
 7    1  0.2783785E-010  0.4778727E+02  0.7816164E-02  0.1312668E+00
        -11   -1    0    0    0    0  0.00000000000E+00  0.00000000000E+00  0.45593999997E+02  0.45594000000E+02  0.51100000000E-03 0. -1.
         11   -1    0    0    0    0 -0.00000000000E+00 -0.00000000000E+00 -0.45593999997E+02  0.45594000000E+02  0.51100000000E-03 0.  1.
    9900012    2    1    2    0    0  0.28423532703E+02 -0.32476936762E+02  0.45797915924E+01  0.47787272773E+02  0.20000007882E+02 0.  0.
        -12    1    1    2    0    0 -0.28423532703E+02  0.32476936762E+02 -0.45797915924E+01  0.43400727227E+02  0.00000000000E+00 0.  1.
         11    1    3    3    0    0  0.14100286753E+01  0.14239839556E+00 -0.14991632137E+01  0.20629950971E+01  0.51100000000E-03 0. -1.
        -11    1    3    3    0    0  0.24633035963E+01  0.12646571604E+01  0.24964257643E+01  0.37281851079E+01  0.51100000000E-03 0.  1.
         12    1    3    3    0    0  0.24550200431E+02 -0.33883992318E+02  0.35825290418E+01  0.41996092568E+02  0.00000000000E+00 0. -1.
</event>
<event>
 7    1  0.2783785E-010  0.4778724E+02  0.7816164E-02  0.1312668E+00
        -11   -1    0    0    0    0  0.00000000000E+00  0.00000000000E+00  0.45593999997E+02  0.45594000000E+02  0.51100000000E-03 0.  1.
         11   -1    0    0    0    0 -0.00000000000E+00 -0.00000000000E+00 -0.45593999997E+02  0.45594000000E+02  0.51100000000E-03 0. -1.
    9900012    2    1    2    0    0  0.34740564968E+02  0.24532099342E+02 -0.86541792865E+01  0.47787244574E+02  0.19999879312E+02 0.  0.
        -12    1    1    2    0    0 -0.34740564968E+02 -0.24532099342E+02  0.86541792865E+01  0.43400755426E+02  0.00000000000E+00 0.  1.
         11    1    3    3    0    0  0.10120269857E+02  0.45849513070E+01  0.49145929055E+01  0.12148862669E+02  0.51100000000E-03 0. -1.
        -11    1    3    3    0    0  0.95599643529E+01  0.42459253998E+01 -0.80322461036E+01  0.13188547254E+02  0.51100000000E-03 0.  1.
        -12    1    3    3    0    0  0.15060330758E+02  0.15701222635E+02 -0.55365260884E+01  0.22449834652E+02  0.00000000000E+00 0.  1.
</event>
<event>
 7    1  0.2783785E-010  0.4778727E+02  0.7816164E-02  0.1312668E+00
        -11   -1    0    0    0    0  0.00000000000E+00  0.00000000000E+00  0.45593999997E+02  0.45594000000E+02  0.51100000000E-03 0.  1.
         11   -1    0    0    0    0 -0.00000000000E+00 -0.00000000000E+00 -0.45593999997E+02  0.45594000000E+02  0.51100000000E-03 0. -1.
    9900012    2    1    2    0    0  0.20467676471E+02 -0.35274203099E+02 -0.14846809757E+02  0.47787274841E+02  0.20000017309E+02 0.  0.
        -12    1    1    2    0    0 -0.20467676471E+02  0.35274203099E+02  0.14846809757E+02  0.43400725159E+02  0.00000000000E+00 0.  1.
         11    1    3    3    0    0  0.12623737918E+01 -0.19658754062E+01 -0.25109284990E+01  0.34297253376E+01  0.51100000000E-03 0. -1.
        -11    1    3    3    0    0  0.69624941308E+01 -0.36467727691E+01  0.34647192027E+01  0.85895026378E+01  0.51100000000E-03 0.  1.
        -12    1    3    3    0    0  0.12242808548E+02 -0.29661554924E+02 -0.15800600461E+02  0.35768046865E+02  0.00000000000E+00 0.  1.
</event>
<event>
 7    1  0.2783785E-010  0.4778731E+02  0.7816164E-02  0.1312668E+00
        -11   -1    0    0    0    0  0.00000000000E+00  0.00000000000E+00  0.45593999997E+02  0.45594000000E+02  0.51100000000E-03 0.  1.
         11   -1    0    0    0    0 -0.00000000000E+00 -0.00000000000E+00 -0.45593999997E+02  0.45594000000E+02  0.51100000000E-03 0. -1.
    9900012    2    1    2    0    0  0.11058446921E+02  0.40156478892E+02  0.12197874096E+02  0.47787306713E+02  0.20000162627E+02 0.  0.
        -12    1    1    2    0    0 -0.11058446921E+02 -0.40156478892E+02 -0.12197874096E+02  0.43400693287E+02  0.00000000000E+00 0.  1.
         11    1    3    3    0    0  0.26375613251E+01 -0.20092451570E+00  0.20440659228E+01  0.33429487227E+01  0.51100000000E-03 0. -1.
        -11    1    3    3    0    0 -0.73328192844E+00  0.19011256971E+02  0.93634368972E+01  0.21204705723E+02  0.51100000000E-03 0.  1.
         12    1    3    3    0    0  0.91541675239E+01  0.21346146437E+02  0.79037127578E+00  0.23239652267E+02  0.00000000000E+00 0. -1.
</event>
<event>
 7    1  0.2783785E-010  0.4778723E+02  0.7816164E-02  0.1312668E+00
        -11   -1    0    0    0    0  0.00000000000E+00  0.00000000000E+00  0.45593999997E+02  0.45594000000E+02  0.51100000000E-03 0. -1.
         11   -1    0    0    0    0 -0.00000000000E+00 -0.00000000000E+00 -0.45593999997E+02  0.45594000000E+02  0.51100000000E-03 0.  1.
    9900012    2    1    2    0    0 -0.33713079140E+02  0.21955603155E+02 -0.16279031934E+02  0.47787227015E+02  0.19999799252E+02 0.  0.
        -12    1    1    2    0    0  0.33713079140E+02 -0.21955603155E+02  0.16279031934E+02  0.43400772985E+02  0.00000000000E+00 0.  1.
         11    1    3    3    0    0 -0.24806402603E+02  0.23028321578E+02 -0.10755964778E+02  0.35515517501E+02  0.51100000000E-03 0. -1.
        -11    1    3    3    0    0 -0.95051079360E+01  0.12484846568E+00 -0.53865472699E+01  0.10926003650E+02  0.51100000000E-03 0.  1.
         12    1    3    3    0    0  0.59843139866E+00 -0.11975668892E+01 -0.13651988636E+00  0.13457058640E+01  0.00000000000E+00 0. -1.
</event>
<event>
 7    1  0.2783785E-010  0.4778727E+02  0.7816164E-02  0.1312668E+00
        -11   -1    0    0    0    0  0.00000000000E+00  0.00000000000E+00  0.45593999997E+02  0.45594000000E+02  0.51100000000E-03 0. -1.
         11   -1    0    0    0    0 -0.00000000000E+00 -0.00000000000E+00 -0.45593999997E+02  0.45594000000E+02  0.51100000000E-03 0.  1.
    9900012    2    1    2    0    0 -0.40656493698E+02 -0.14602371949E+02 -0.41765656961E+01  0.47787269046E+02  0.19999990888E+02 0.  0.
        -12    1    1    2    0    0  0.40656493698E+02  0.14602371949E+02  0.41765656961E+01  0.43400730954E+02  0.00000000000E+00 0.  1.
         11    1    3    3    0    0 -0.11820812422E+02 -0.54352387827E+01 -0.40838171301E+01  0.13636384768E+02  0.51100000000E-03 0. -1.
        -11    1    3    3    0    0  0.36945914414E+00  0.49547771592E+00  0.31576293271E+01  0.32175489825E+01  0.51100000000E-03 0.  1.
         12    1    3    3    0    0 -0.29205140420E+02 -0.96626108827E+01 -0.32503778932E+01  0.30933335295E+02  0.00000000000E+00 0. -1.
</event>
<event>
 7    1  0.2783785E-010  0.4778725E+02  0.7816164E-02  0.1312668E+00
        -11   -1    0    0    0    0  0.00000000000E+00  0.00000000000E+00  0.45593999997E+02  0.45594000000E+02  0.51100000000E-03 0. -1.
         11   -1    0    0    0    0 -0.00000000000E+00 -0.00000000000E+00 -0.45593999997E+02  0.45594000000E+02  0.51100000000E-03 0.  1.
    9900012    2    1    2    0    0  0.42331750991E+01 -0.40569899558E+02  0.14825280049E+02  0.47787245973E+02  0.19999885688E+02 0.  0.
        -12    1    1    2    0    0 -0.42331750991E+01  0.40569899558E+02 -0.14825280049E+02  0.43400754027E+02  0.00000000000E+00 0.  1.
         11    1    3    3    0    0  0.45050781542E+00 -0.21345321664E+01  0.22384928916E+01  0.31257056080E+01  0.51100000000E-03 0. -1.
        -11    1    3    3    0    0 -0.23005547976E+01 -0.92193204953E+01  0.11337433994E+02  0.14792762846E+02  0.51100000000E-03 0.  1.
         12    1    3    3    0    0  0.60832220813E+01 -0.29216046897E+02  0.12493531630E+01  0.29868777519E+02  0.00000000000E+00 0. -1.
</event>
<event>
 7    1  0.2783785E-010  0.4778727E+02  0.7816164E-02  0.1312668E+00
        -11   -1    0    0    0    0  0.00000000000E+00  0.00000000000E+00  0.45593999997E+02  0.45594000000E+02  0.51100000000E-03 0. -1.
         11   -1    0    0    0    0 -0.00000000000E+00 -0.00000000000E+00 -0.45593999997E+02  0.45594000000E+02  0.51100000000E-03 0.  1.
    9900012    2    1    2    0    0 -0.25953873592E+02  0.33585335850E+02 -0.90578622875E+01  0.47787271805E+02  0.20000003470E+02 0.  0.
        -12    1    1    2    0    0  0.25953873592E+02 -0.33585335850E+02  0.90578622875E+01  0.43400728195E+02  0.00000000000E+00 0.  1.
         11    1    3    3    0    0 -0.72166757512E+01  0.16802049122E+02 -0.52554587220E+01  0.19026537001E+02  0.51100000000E-03 0. -1.
        -11    1    3    3    0    0 -0.11590802202E+02  0.11794214306E+02  0.40548832496E+01  0.17026222869E+02  0.51100000000E-03 0.  1.
        -12    1    3    3    0    0 -0.71463956395E+01  0.49890724219E+01 -0.78572868150E+01  0.11734511935E+02  0.00000000000E+00 0.  1.
</event>
<event>
 7    1  0.2783785E-010  0.4778728E+02  0.7816164E-02  0.1312668E+00
        -11   -1    0    0    0    0  0.00000000000E+00  0.00000000000E+00  0.45593999997E+02  0.45594000000E+02  0.51100000000E-03 0.  1.
         11   -1    0    0    0    0 -0.00000000000E+00 -0.00000000000E+00 -0.45593999997E+02  0.45594000000E+02  0.51100000000E-03 0. -1.
    9900012    2    1    2    0    0  0.45083713221E+01  0.32141788163E+02 -0.28813242367E+02  0.47787275421E+02  0.20000019955E+02 0.  0.
        -12    1    1    2    0    0 -0.45083713221E+01 -0.32141788163E+02  0.28813242367E+02  0.43400724579E+02  0.00000000000E+00 0.  1.
         11    1    3    3    0    0  0.16721090634E+01  0.19685232196E+01 -0.52651086786E+01  0.58645035633E+01  0.51100000000E-03 0. -1.
        -11    1    3    3    0    0  0.83253924964E+01  0.12588731942E+02 -0.53079531152E+01  0.15998834291E+02  0.51100000000E-03 0.  1.
         12    1    3    3    0    0 -0.54891302376E+01  0.17584533001E+02 -0.18240180573E+02  0.25923937567E+02  0.00000000000E+00 0. -1.
</event>
<event>
 7    1  0.2783785E-010  0.4778727E+02  0.7816164E-02  0.1312668E+00
        -11   -1    0    0    0    0  0.00000000000E+00  0.00000000000E+00  0.45593999997E+02  0.45594000000E+02  0.51100000000E-03 0. -1.
         11   -1    0    0    0    0 -0.00000000000E+00 -0.00000000000E+00 -0.45593999997E+02  0.45594000000E+02  0.51100000000E-03 0.  1.
    9900012    2    1    2    0    0  0.23330995529E+02 -0.34258828196E+02  0.12869358718E+02  0.47787273559E+02  0.20000011466E+02 0.  0.
        -12    1    1    2    0    0 -0.23330995529E+02  0.34258828196E+02 -0.12869358718E+02  0.43400726441E+02  0.00000000000E+00 0.  1.
         11    1    3    3    0    0 -0.43643553971E+00 -0.66380170525E+01 -0.53036977906E+00  0.66734577794E+01  0.51100000000E-03 0. -1.
        -11    1    3    3    0    0  0.63895263623E+01 -0.20167932530E+01  0.66534178626E+01  0.94425352356E+01  0.51100000000E-03 0.  1.
         12    1    3    3    0    0  0.17377904707E+02 -0.25604017891E+02  0.67463106346E+01  0.31671280544E+02  0.00000000000E+00 0. -1.
</event>
<event>
 7    1  0.2783785E-010  0.4778727E+02  0.7816164E-02  0.1312668E+00
        -11   -1    0    0    0    0  0.00000000000E+00  0.00000000000E+00  0.45593999997E+02  0.45594000000E+02  0.51100000000E-03 0. -1.
         11   -1    0    0    0    0 -0.00000000000E+00 -0.00000000000E+00 -0.45593999997E+02  0.45594000000E+02  0.51100000000E-03 0.  1.
    9900012    2    1    2    0    0 -0.66104761333E+01 -0.21033738266E+02  0.37383240339E+02  0.47787271914E+02  0.20000003964E+02 0.  0.
        -12    1    1    2    0    0  0.66104761333E+01  0.21033738266E+02 -0.37383240339E+02  0.43400728086E+02  0.00000000000E+00 0.  1.
         11    1    3    3    0    0 -0.47846657991E+01 -0.63390504494E+01  0.34082688442E+01  0.86425045088E+01  0.51100000000E-03 0.  1.
        -11    1    3    3    0    0  0.10704154340E+01  0.18714803959E+01  0.72934286156E+01  0.76054144730E+01  0.51100000000E-03 0. -1.
         12    1    3    3    0    0 -0.28962257682E+01 -0.16566168213E+02  0.26681542879E+02  0.31539352932E+02  0.00000000000E+00 0. -1.
</event>
<event>
 7    1  0.2783785E-010  0.4778727E+02  0.7816164E-02  0.1312668E+00
        -11   -1    0    0    0    0  0.00000000000E+00  0.00000000000E+00  0.45593999997E+02  0.45594000000E+02  0.51100000000E-03 0.  1.
         11   -1    0    0    0    0 -0.00000000000E+00 -0.00000000000E+00 -0.45593999997E+02  0.45594000000E+02  0.51100000000E-03 0. -1.
    9900012    2    1    2    0    0 -0.21281238704E+02 -0.19343661625E+02 -0.32504691229E+02  0.47787270539E+02  0.19999997696E+02 0.  0.
        -12    1    1    2    0    0  0.21281238704E+02  0.19343661625E+02  0.32504691229E+02  0.43400729461E+02  0.00000000000E+00 0.  1.
         11    1    3    3    0    0 -0.16578925119E+02 -0.10122354835E+02 -0.19022158199E+02  0.27187595118E+02  0.51100000000E-03 0. -1.
        -11    1    3    3    0    0 -0.19987668451E+01  0.26903751113E+01 -0.31845636817E+01  0.46232708384E+01  0.51100000000E-03 0.  1.
         12    1    3    3    0    0 -0.27035467407E+01 -0.11911681901E+02 -0.10297969348E+02  0.15976404583E+02  0.00000000000E+00 0. -1.
</event>
<event>
 7    1  0.2783785E-010  0.4778727E+02  0.7816164E-02  0.1312668E+00
        -11   -1    0    0    0    0  0.00000000000E+00  0.00000000000E+00  0.45593999997E+02  0.45594000000E+02  0.51100000000E-03 0.  1.
         11   -1    0    0    0    0 -0.00000000000E+00 -0.00000000000E+00 -0.45593999997E+02  0.45594000000E+02  0.51100000000E-03 0. -1.
    9900012    2    1    2    0    0 -0.12368762641E+02 -0.27998672658E+02 -0.30768681013E+02  0.47787266237E+02  0.19999978081E+02 0.  0.
        -12    1    1    2    0    0  0.12368762641E+02  0.27998672658E+02  0.30768681013E+02  0.43400733763E+02  0.00000000000E+00 0.  1.
         11    1    3    3    0    0  0.33553834040E+00 -0.96429792529E+01 -0.18747551224E+02  0.21084836068E+02  0.51100000000E-03 0. -1.
        -11    1    3    3    0    0 -0.28615580926E+01 -0.73940124790E+01 -0.83608639464E+01  0.11522325349E+02  0.51100000000E-03 0.  1.
        -12    1    3    3    0    0 -0.98427428892E+01 -0.10961680926E+02 -0.36602658424E+01  0.15180104820E+02  0.00000000000E+00 0.  1.
</event>
<event>
 7    1  0.2783785E-010  0.4778727E+02  0.7816164E-02  0.1312668E+00
        -11   -1    0    0    0    0  0.00000000000E+00  0.00000000000E+00  0.45593999997E+02  0.45594000000E+02  0.51100000000E-03 0. -1.
         11   -1    0    0    0    0 -0.00000000000E+00 -0.00000000000E+00 -0.45593999997E+02  0.45594000000E+02  0.51100000000E-03 0.  1.
    9900012    2    1    2    0    0  0.13813341129E+02  0.37058585949E+02  0.17873895168E+02  0.47787270580E+02  0.19999997884E+02 0.  0.
        -12    1    1    2    0    0 -0.13813341129E+02 -0.37058585949E+02 -0.17873895168E+02  0.43400729420E+02  0.00000000000E+00 0.  1.
         11    1    3    3    0    0  0.38674388034E+01  0.15562609997E+02  0.61325136192E+01  0.17168565356E+02  0.51100000000E-03 0. -1.
        -11    1    3    3    0    0  0.11040832045E+02  0.92804787734E+01  0.11340654977E+02  0.18347689611E+02  0.51100000000E-03 0.  1.
         12    1    3    3    0    0 -0.10949297187E+01  0.12215497179E+02  0.40072657228E+00  0.12271015614E+02  0.00000000000E+00 0. -1.
</event>
<event>
 7    1  0.2783785E-010  0.4778727E+02  0.7816164E-02  0.1312668E+00
        -11   -1    0    0    0    0  0.00000000000E+00  0.00000000000E+00  0.45593999997E+02  0.45594000000E+02  0.51100000000E-03 0.  1.
         11   -1    0    0    0    0 -0.00000000000E+00 -0.00000000000E+00 -0.45593999997E+02  0.45594000000E+02  0.51100000000E-03 0. -1.
    9900012    2    1    2    0    0  0.47996909792E+01 -0.23232185014E+02 -0.36343525180E+02  0.47787271014E+02  0.19999999861E+02 0.  0.
        -12    1    1    2    0    0 -0.47996909792E+01  0.23232185014E+02  0.36343525180E+02  0.43400728986E+02  0.00000000000E+00 0.  1.
         11    1    3    3    0    0  0.21494820229E+01 -0.25336810656E+02 -0.32817220464E+02  0.41515589921E+02  0.51100000000E-03 0. -1.
        -11    1    3    3    0    0  0.21709668350E+01  0.29674388943E+00 -0.37950122773E+01  0.43821538517E+01  0.51100000000E-03 0.  1.
         12    1    3    3    0    0  0.47924212128E+00  0.18078817527E+01  0.26870756156E+00  0.18895272415E+01  0.00000000000E+00 0. -1.
</event>
<event>
 7    1  0.2783785E-010  0.4778730E+02  0.7816164E-02  0.1312668E+00
        -11   -1    0    0    0    0  0.00000000000E+00  0.00000000000E+00  0.45593999997E+02  0.45594000000E+02  0.51100000000E-03 0. -1.
         11   -1    0    0    0    0 -0.00000000000E+00 -0.00000000000E+00 -0.45593999997E+02  0.45594000000E+02  0.51100000000E-03 0.  1.
    9900012    2    1    2    0    0  0.28611563525E+01  0.11554886769E+02  0.41736309110E+02  0.47787295834E+02  0.20000113027E+02 0.  0.
        -12    1    1    2    0    0 -0.28611563525E+01 -0.11554886769E+02 -0.41736309110E+02  0.43400704166E+02  0.00000000000E+00 0.  1.
         11    1    3    3    0    0  0.44387357864E+01 -0.41386840327E+01  0.13320798263E+02  0.14638126504E+02  0.51100000000E-03 0. -1.
        -11    1    3    3    0    0 -0.41135363208E+01  0.85087310697E+01  0.15914650230E+02  0.18509342983E+02  0.51100000000E-03 0.  1.
        -12    1    3    3    0    0  0.25359568869E+01  0.71848397319E+01  0.12500860617E+02  0.14639826347E+02  0.00000000000E+00 0.  1.
</event>
<event>
 7    1  0.2783785E-010  0.4778727E+02  0.7816164E-02  0.1312668E+00
        -11   -1    0    0    0    0  0.00000000000E+00  0.00000000000E+00  0.45593999997E+02  0.45594000000E+02  0.51100000000E-03 0. -1.
         11   -1    0    0    0    0 -0.00000000000E+00 -0.00000000000E+00 -0.45593999997E+02  0.45594000000E+02  0.51100000000E-03 0.  1.
    9900012    2    1    2    0    0  0.23375524085E+02 -0.13477673081E+02  0.33993533227E+02  0.47787273057E+02  0.20000009176E+02 0.  0.
        -12    1    1    2    0    0 -0.23375524085E+02  0.13477673081E+02 -0.33993533227E+02  0.43400726943E+02  0.00000000000E+00 0.  1.
         11    1    3    3    0    0  0.77585492982E+01 -0.75208866672E+01  0.73490826490E+01  0.13067816938E+02  0.51100000000E-03 0. -1.
        -11    1    3    3    0    0  0.39681444651E+01 -0.70654764643E+01  0.35853524842E+01  0.88612572957E+01  0.51100000000E-03 0.  1.
         12    1    3    3    0    0  0.11648830321E+02  0.11086900504E+01  0.23059098094E+02  0.25858198824E+02  0.00000000000E+00 0. -1.
</event>
<event>
 7    1  0.2783785E-010  0.4778727E+02  0.7816164E-02  0.1312668E+00
        -11   -1    0    0    0    0  0.00000000000E+00  0.00000000000E+00  0.45593999997E+02  0.45594000000E+02  0.51100000000E-03 0.  1.
         11   -1    0    0    0    0 -0.00000000000E+00 -0.00000000000E+00 -0.45593999997E+02  0.45594000000E+02  0.51100000000E-03 0. -1.
    9900012    2    1    2    0    0  0.26794664218E+01 -0.43268715529E+02  0.20645594038E+01  0.47787266258E+02  0.19999978176E+02 0.  0.
        -12    1    1    2    0    0 -0.26794664218E+01  0.43268715529E+02 -0.20645594038E+01  0.43400733742E+02  0.00000000000E+00 0.  1.
         11    1    3    3    0    0  0.50555873880E+01 -0.71223486669E+01  0.14342837719E+00  0.87354099121E+01  0.51100000000E-03 0. -1.
        -11    1    3    3    0    0  0.38086534710E+01 -0.26479106414E+01 -0.13484458379E+01  0.48306913031E+01  0.51100000000E-03 0.  1.
        -12    1    3    3    0    0 -0.61847744373E+01 -0.33498456221E+02  0.32695768644E+01  0.34221165043E+02  0.00000000000E+00 0.  1.
</event>
<event>
 7    1  0.2783785E-010  0.4778727E+02  0.7816164E-02  0.1312668E+00
        -11   -1    0    0    0    0  0.00000000000E+00  0.00000000000E+00  0.45593999997E+02  0.45594000000E+02  0.51100000000E-03 0.  1.
         11   -1    0    0    0    0 -0.00000000000E+00 -0.00000000000E+00 -0.45593999997E+02  0.45594000000E+02  0.51100000000E-03 0. -1.
    9900012    2    1    2    0    0  0.12282232732E+02 -0.24388560949E+02 -0.33733784853E+02  0.47787269746E+02  0.19999994081E+02 0.  0.
        -12    1    1    2    0    0 -0.12282232732E+02  0.24388560949E+02  0.33733784853E+02  0.43400730254E+02  0.00000000000E+00 0.  1.
         11    1    3    3    0    0 -0.26438974687E+01 -0.16815099014E+01 -0.22174496614E+01  0.38385873229E+01  0.51100000000E-03 0. -1.
        -11    1    3    3    0    0  0.96380367308E-01 -0.99273288889E+01 -0.16578901157E+02  0.19324107014E+02  0.51100000000E-03 0.  1.
         12    1    3    3    0    0  0.14829749833E+02 -0.12779722158E+02 -0.14937434035E+02  0.24624575409E+02  0.00000000000E+00 0. -1.
</event>
<event>
 7    1  0.2783785E-010  0.4778727E+02  0.7816164E-02  0.1312668E+00
        -11   -1    0    0    0    0  0.00000000000E+00  0.00000000000E+00  0.45593999997E+02  0.45594000000E+02  0.51100000000E-03 0.  1.
         11   -1    0    0    0    0 -0.00000000000E+00 -0.00000000000E+00 -0.45593999997E+02  0.45594000000E+02  0.51100000000E-03 0. -1.
    9900012    2    1    2    0    0 -0.40243204102E+02 -0.86106820741E+01 -0.13782751005E+02  0.47787267893E+02  0.19999985630E+02 0.  0.
        -12    1    1    2    0    0  0.40243204102E+02  0.86106820741E+01  0.13782751005E+02  0.43400732107E+02  0.00000000000E+00 0.  1.
         11    1    3    3    0    0 -0.94087359358E+01 -0.31438305538E+01 -0.63168914410E+01  0.11760573974E+02  0.51100000000E-03 0. -1.
        -11    1    3    3    0    0 -0.54403386908E+01  0.39596869414E+01  0.24798786620E+01  0.71712066058E+01  0.51100000000E-03 0.  1.
        -12    1    3    3    0    0 -0.25394129476E+02 -0.94265384617E+01 -0.99457382263E+01  0.28855487313E+02  0.00000000000E+00 0.  1.
</event>
<event>
 7    1  0.2783785E-010  0.4778727E+02  0.7816164E-02  0.1312668E+00
        -11   -1    0    0    0    0  0.00000000000E+00  0.00000000000E+00  0.45593999997E+02  0.45594000000E+02  0.51100000000E-03 0.  1.
         11   -1    0    0    0    0 -0.00000000000E+00 -0.00000000000E+00 -0.45593999997E+02  0.45594000000E+02  0.51100000000E-03 0. -1.
    9900012    2    1    2    0    0 -0.17306736749E+02  0.33644810306E+02 -0.21263277442E+02  0.47787269995E+02  0.19999995214E+02 0.  0.
        -12    1    1    2    0    0  0.17306736749E+02 -0.33644810306E+02  0.21263277442E+02  0.43400730005E+02  0.00000000000E+00 0.  1.
         11    1    3    3    0    0 -0.21006369650E+02  0.26534069455E+02 -0.14757614943E+02  0.36920341369E+02  0.51100000000E-03 0. -1.
        -11    1    3    3    0    0 -0.86356326071E-01 -0.29550766890E+00 -0.12420559997E-02  0.30787010452E+00  0.51100000000E-03 0.  1.
         12    1    3    3    0    0  0.37859892268E+01  0.74062485191E+01 -0.65044204432E+01  0.10559058521E+02  0.00000000000E+00 0. -1.
</event>
<event>
 7    1  0.2783785E-010  0.4778727E+02  0.7816164E-02  0.1312668E+00
        -11   -1    0    0    0    0  0.00000000000E+00  0.00000000000E+00  0.45593999997E+02  0.45594000000E+02  0.51100000000E-03 0.  1.
         11   -1    0    0    0    0 -0.00000000000E+00 -0.00000000000E+00 -0.45593999997E+02  0.45594000000E+02  0.51100000000E-03 0. -1.
    9900012    2    1    2    0    0  0.11672431346E+01  0.28551684593E+02 -0.32665912446E+02  0.47787274366E+02  0.20000015145E+02 0.  0.
        -12    1    1    2    0    0 -0.11672431346E+01 -0.28551684593E+02  0.32665912446E+02  0.43400725634E+02  0.00000000000E+00 0.  1.
         11    1    3    3    0    0  0.33670933970E+01  0.27816156621E+02 -0.30747929918E+02  0.41599412035E+02  0.51100000000E-03 0. -1.
        -11    1    3    3    0    0 -0.28263994542E+01  0.20215085490E+01 -0.28384174968E+01  0.44868301545E+01  0.51100000000E-03 0.  1.
         12    1    3    3    0    0  0.62654919184E+00 -0.12859805771E+01  0.92043496922E+00  0.17010321769E+01  0.00000000000E+00 0. -1.
</event>
<event>
 7    1  0.2783785E-010  0.4778727E+02  0.7816164E-02  0.1312668E+00
        -11   -1    0    0    0    0  0.00000000000E+00  0.00000000000E+00  0.45593999997E+02  0.45594000000E+02  0.51100000000E-03 0.  1.
         11   -1    0    0    0    0 -0.00000000000E+00 -0.00000000000E+00 -0.45593999997E+02  0.45594000000E+02  0.51100000000E-03 0. -1.
    9900012    2    1    2    0    0 -0.12302779797E+02 -0.21035183675E+02 -0.35913587035E+02  0.47787273316E+02  0.20000010355E+02 0.  0.
        -12    1    1    2    0    0  0.12302779797E+02  0.21035183675E+02  0.35913587035E+02  0.43400726684E+02  0.00000000000E+00 0.  1.
         11    1    3    3    0    0 -0.52055685306E+01 -0.31647577609E+01 -0.18818872575E+02  0.19780384240E+02  0.51100000000E-03 0. -1.
        -11    1    3    3    0    0 -0.52242264424E+01 -0.14357632449E+02 -0.18307513520E+02  0.23845318262E+02  0.51100000000E-03 0.  1.
        -12    1    3    3    0    0 -0.18729848242E+01 -0.35127934649E+01  0.12127990598E+01  0.41615708138E+01  0.00000000000E+00 0.  1.
</event>
<event>
 7    1  0.2783785E-010  0.4778727E+02  0.7816164E-02  0.1312668E+00
        -11   -1    0    0    0    0  0.00000000000E+00  0.00000000000E+00  0.45593999997E+02  0.45594000000E+02  0.51100000000E-03 0. -1.
         11   -1    0    0    0    0 -0.00000000000E+00 -0.00000000000E+00 -0.45593999997E+02  0.45594000000E+02  0.51100000000E-03 0.  1.
    9900012    2    1    2    0    0  0.22604436550E+02 -0.20250743401E+02 -0.31025316041E+02  0.47787269644E+02  0.19999993614E+02 0.  0.
        -12    1    1    2    0    0 -0.22604436550E+02  0.20250743401E+02  0.31025316041E+02  0.43400730356E+02  0.00000000000E+00 0.  1.
         11    1    3    3    0    0  0.13417715393E+02 -0.21354244198E+02 -0.22528231869E+02  0.33816564920E+02  0.51100000000E-03 0. -1.
        -11    1    3    3    0    0  0.85698006882E+01 -0.92435023536E+00 -0.80717094041E+01  0.11808827214E+02  0.51100000000E-03 0.  1.
        -12    1    3    3    0    0  0.61692046883E+00  0.20278510324E+01 -0.42537476790E+00  0.21618775098E+01  0.00000000000E+00 0.  1.
</event>
<event>
 7    1  0.2783785E-010  0.4778727E+02  0.7816164E-02  0.1312668E+00
        -11   -1    0    0    0    0  0.00000000000E+00  0.00000000000E+00  0.45593999997E+02  0.45594000000E+02  0.51100000000E-03 0.  1.
         11   -1    0    0    0    0 -0.00000000000E+00 -0.00000000000E+00 -0.45593999997E+02  0.45594000000E+02  0.51100000000E-03 0. -1.
    9900012    2    1    2    0    0  0.19952750816E+02 -0.38522967560E+02 -0.12215097839E+01  0.47787269811E+02  0.19999994377E+02 0.  0.
        -12    1    1    2    0    0 -0.19952750816E+02  0.38522967560E+02  0.12215097839E+01  0.43400730189E+02  0.00000000000E+00 0.  1.
         11    1    3    3    0    0  0.11348149954E+02 -0.22992307852E+02 -0.29092468602E+01  0.25804853134E+02  0.51100000000E-03 0. -1.
        -11    1    3    3    0    0  0.62663506757E+01 -0.17748559307E+00  0.15235285785E+01  0.64513402885E+01  0.51100000000E-03 0.  1.
         12    1    3    3    0    0  0.23382501857E+01 -0.15353174115E+02  0.16420849781E+00  0.15531076388E+02  0.00000000000E+00 0. -1.
</event>
<event>
 7    1  0.2783785E-010  0.4778727E+02  0.7816164E-02  0.1312668E+00
        -11   -1    0    0    0    0  0.00000000000E+00  0.00000000000E+00  0.45593999997E+02  0.45594000000E+02  0.51100000000E-03 0. -1.
         11   -1    0    0    0    0 -0.00000000000E+00 -0.00000000000E+00 -0.45593999997E+02  0.45594000000E+02  0.51100000000E-03 0.  1.
    9900012    2    1    2    0    0  0.20501230198E+02  0.36199015583E+02 -0.12367461639E+02  0.47787271018E+02  0.19999999879E+02 0.  0.
        -12    1    1    2    0    0 -0.20501230198E+02 -0.36199015583E+02  0.12367461639E+02  0.43400728982E+02  0.00000000000E+00 0.  1.
         11    1    3    3    0    0  0.90954537095E+01  0.18927239077E+02 -0.95172621488E+01  0.23055280010E+02  0.51100000000E-03 0. -1.
        -11    1    3    3    0    0  0.50013456714E+01 -0.10619343183E+01 -0.65841585565E-01  0.51132669006E+01  0.51100000000E-03 0.  1.
         12    1    3    3    0    0  0.64044308168E+01  0.18333710824E+02 -0.27843579045E+01  0.19618724107E+02  0.00000000000E+00 0. -1.
</event>
<event>
 7    1  0.2783785E-010  0.4778727E+02  0.7816164E-02  0.1312668E+00
        -11   -1    0    0    0    0  0.00000000000E+00  0.00000000000E+00  0.45593999997E+02  0.45594000000E+02  0.51100000000E-03 0. -1.
         11   -1    0    0    0    0 -0.00000000000E+00 -0.00000000000E+00 -0.45593999997E+02  0.45594000000E+02  0.51100000000E-03 0.  1.
    9900012    2    1    2    0    0 -0.29864089375E+02  0.31453902566E+02  0.15529934019E+01  0.47787267180E+02  0.19999982381E+02 0.  0.
        -12    1    1    2    0    0  0.29864089375E+02 -0.31453902566E+02 -0.15529934019E+01  0.43400732820E+02  0.00000000000E+00 0.  1.
         11    1    3    3    0    0 -0.87020480759E+01  0.12701029102E+02  0.38403496595E+01  0.15867894213E+02  0.51100000000E-03 0. -1.
        -11    1    3    3    0    0 -0.23095961037E+02  0.15344688010E+02 -0.31494414179E+01  0.27907021479E+02  0.51100000000E-03 0.  1.
        -12    1    3    3    0    0  0.19339197383E+01  0.34081854537E+01  0.86208516033E+00  0.40123514881E+01  0.00000000000E+00 0.  1.
</event>
<event>
 7    1  0.2783785E-010  0.4778727E+02  0.7816164E-02  0.1312668E+00
        -11   -1    0    0    0    0  0.00000000000E+00  0.00000000000E+00  0.45593999997E+02  0.45594000000E+02  0.51100000000E-03 0.  1.
         11   -1    0    0    0    0 -0.00000000000E+00 -0.00000000000E+00 -0.45593999997E+02  0.45594000000E+02  0.51100000000E-03 0. -1.
    9900012    2    1    2    0    0  0.29238683460E+02 -0.25568745080E+02  0.19363933897E+02  0.47787271073E+02  0.20000000129E+02 0.  0.
        -12    1    1    2    0    0 -0.29238683460E+02  0.25568745080E+02 -0.19363933897E+02  0.43400728927E+02  0.00000000000E+00 0.  1.
         11    1    3    3    0    0  0.13517474537E+02 -0.98848171833E+01  0.10820526975E+02  0.19937791575E+02  0.51100000000E-03 0. -1.
        -11    1    3    3    0    0 -0.11002813445E+01  0.18579588690E+01  0.27084406275E+00  0.21762322862E+01  0.51100000000E-03 0.  1.
        -12    1    3    3    0    0  0.16821490268E+02 -0.17541886766E+02  0.82725628596E+01  0.25673247212E+02  0.00000000000E+00 0.  1.
</event>
<event>
 7    1  0.2783785E-010  0.4778727E+02  0.7816164E-02  0.1312668E+00
        -11   -1    0    0    0    0  0.00000000000E+00  0.00000000000E+00  0.45593999997E+02  0.45594000000E+02  0.51100000000E-03 0.  1.
         11   -1    0    0    0    0 -0.00000000000E+00 -0.00000000000E+00 -0.45593999997E+02  0.45594000000E+02  0.51100000000E-03 0. -1.
    9900012    2    1    2    0    0 -0.36963040474E+02  0.40061650063E+01 -0.22389893618E+02  0.47787273562E+02  0.20000011478E+02 0.  0.
        -12    1    1    2    0    0  0.36963040474E+02 -0.40061650063E+01  0.22389893618E+02  0.43400726438E+02  0.00000000000E+00 0.  1.
         11    1    3    3    0    0 -0.21883803015E+02  0.82599423798E+01 -0.70560176085E+01  0.24431841258E+02  0.51100000000E-03 0. -1.
        -11    1    3    3    0    0 -0.10293446665E+02  0.79593711442E+00 -0.68787048747E+01  0.12405851085E+02  0.51100000000E-03 0.  1.
        -12    1    3    3    0    0 -0.47857907937E+01 -0.50497144879E+01 -0.84551711352E+01  0.10949581218E+02  0.00000000000E+00 0.  1.
</event>
<event>
 7    1  0.2783785E-010  0.4778727E+02  0.7816164E-02  0.1312668E+00
        -11   -1    0    0    0    0  0.00000000000E+00  0.00000000000E+00  0.45593999997E+02  0.45594000000E+02  0.51100000000E-03 0. -1.
         11   -1    0    0    0    0 -0.00000000000E+00 -0.00000000000E+00 -0.45593999997E+02  0.45594000000E+02  0.51100000000E-03 0.  1.
    9900012    2    1    2    0    0 -0.31823899963E+02 -0.29210194766E+02 -0.41984957679E+01  0.47787268971E+02  0.19999990545E+02 0.  0.
        -12    1    1    2    0    0  0.31823899963E+02  0.29210194766E+02  0.41984957679E+01  0.43400731029E+02  0.00000000000E+00 0.  1.
         11    1    3    3    0    0 -0.15959075314E+02 -0.23576029308E+02 -0.70339453310E+01  0.29325716189E+02  0.51100000000E-03 0. -1.
        -11    1    3    3    0    0 -0.11006259914E+01 -0.12030517394E+01  0.25710159278E+01  0.30444760178E+01  0.51100000000E-03 0.  1.
         12    1    3    3    0    0 -0.14764198658E+02 -0.44311137187E+01  0.26443363536E+00  0.15417076764E+02  0.00000000000E+00 0. -1.
</event>
<event>
 7    1  0.2783785E-010  0.4778728E+02  0.7816164E-02  0.1312668E+00
        -11   -1    0    0    0    0  0.00000000000E+00  0.00000000000E+00  0.45593999997E+02  0.45594000000E+02  0.51100000000E-03 0.  1.
         11   -1    0    0    0    0 -0.00000000000E+00 -0.00000000000E+00 -0.45593999997E+02  0.45594000000E+02  0.51100000000E-03 0. -1.
    9900012    2    1    2    0    0  0.59418241454E+01 -0.39741353704E+02 -0.16399457807E+02  0.47787277832E+02  0.20000030946E+02 0.  0.
        -12    1    1    2    0    0 -0.59418241454E+01  0.39741353704E+02  0.16399457807E+02  0.43400722168E+02  0.00000000000E+00 0.  1.
         11    1    3    3    0    0  0.56667345809E+01 -0.14162513658E+02 -0.84216968080E+01  0.17424512943E+02  0.51100000000E-03 0. -1.
        -11    1    3    3    0    0 -0.45163395621E+01 -0.35723519949E+01 -0.50351215206E+01  0.76492791036E+01  0.51100000000E-03 0.  1.
        -12    1    3    3    0    0  0.47914291267E+01 -0.22006488051E+02 -0.29426394786E+01  0.22713485785E+02  0.00000000000E+00 0.  1.
</event>
<event>
 7    1  0.2783785E-010  0.4778727E+02  0.7816164E-02  0.1312668E+00
        -11   -1    0    0    0    0  0.00000000000E+00  0.00000000000E+00  0.45593999997E+02  0.45594000000E+02  0.51100000000E-03 0.  1.
         11   -1    0    0    0    0 -0.00000000000E+00 -0.00000000000E+00 -0.45593999997E+02  0.45594000000E+02  0.51100000000E-03 0. -1.
    9900012    2    1    2    0    0  0.14976286935E+02  0.22851219190E+02 -0.33721742228E+02  0.47787270885E+02  0.19999999275E+02 0.  0.
        -12    1    1    2    0    0 -0.14976286935E+02 -0.22851219190E+02  0.33721742228E+02  0.43400729115E+02  0.00000000000E+00 0.  1.
         11    1    3    3    0    0  0.26755029179E+01  0.10487022384E+02 -0.46715804932E+01  0.11788113458E+02  0.51100000000E-03 0.  1.
        -11    1    3    3    0    0  0.53408048283E+01  0.55043245368E+01 -0.31043158412E+01  0.82739689341E+01  0.51100000000E-03 0. -1.
        -12    1    3    3    0    0  0.69599791890E+01  0.68598722693E+01 -0.25945845893E+02  0.27725188493E+02  0.00000000000E+00 0.  1.
</event>
<event>
 7    1  0.2783785E-010  0.4778727E+02  0.7816164E-02  0.1312668E+00
        -11   -1    0    0    0    0  0.00000000000E+00  0.00000000000E+00  0.45593999997E+02  0.45594000000E+02  0.51100000000E-03 0.  1.
         11   -1    0    0    0    0 -0.00000000000E+00 -0.00000000000E+00 -0.45593999997E+02  0.45594000000E+02  0.51100000000E-03 0. -1.
    9900012    2    1    2    0    0 -0.18746074271E+02 -0.33313758822E+02 -0.20552412129E+02  0.47787268765E+02  0.19999989608E+02 0.  0.
        -12    1    1    2    0    0  0.18746074271E+02  0.33313758822E+02  0.20552412129E+02  0.43400731235E+02  0.00000000000E+00 0.  1.
         11    1    3    3    0    0 -0.12643457155E+02 -0.19488277366E+02 -0.15184436414E+02  0.27752784959E+02  0.51100000000E-03 0. -1.
        -11    1    3    3    0    0 -0.69278939142E+01 -0.21367540630E+01 -0.26787685892E+00  0.72548735541E+01  0.51100000000E-03 0.  1.
         12    1    3    3    0    0  0.82527679817E+00 -0.11688727392E+02 -0.51000988561E+01  0.12779610252E+02  0.00000000000E+00 0. -1.
</event>
<event>
 7    1  0.2783785E-010  0.4778727E+02  0.7816164E-02  0.1312668E+00
        -11   -1    0    0    0    0  0.00000000000E+00  0.00000000000E+00  0.45593999997E+02  0.45594000000E+02  0.51100000000E-03 0.  1.
         11   -1    0    0    0    0 -0.00000000000E+00 -0.00000000000E+00 -0.45593999997E+02  0.45594000000E+02  0.51100000000E-03 0. -1.
    9900012    2    1    2    0    0 -0.37111767547E+02  0.22215061833E+02  0.35820505759E+01  0.47787270179E+02  0.19999996052E+02 0.  0.
        -12    1    1    2    0    0  0.37111767547E+02 -0.22215061833E+02 -0.35820505759E+01  0.43400729821E+02  0.00000000000E+00 0.  1.
         11    1    3    3    0    0 -0.21907681240E+02  0.74427902893E+01  0.76750506783E+01  0.24377203034E+02  0.51100000000E-03 0. -1.
        -11    1    3    3    0    0 -0.36590260100E+01  0.77868329321E+01  0.16230756237E+01  0.87554333528E+01  0.51100000000E-03 0.  1.
         12    1    3    3    0    0 -0.11545060297E+02  0.69854386113E+01 -0.57160757261E+01  0.14654633791E+02  0.00000000000E+00 0. -1.
</event>
<event>
 7    1  0.2783785E-010  0.4778727E+02  0.7816164E-02  0.1312668E+00
        -11   -1    0    0    0    0  0.00000000000E+00  0.00000000000E+00  0.45593999997E+02  0.45594000000E+02  0.51100000000E-03 0. -1.
         11   -1    0    0    0    0 -0.00000000000E+00 -0.00000000000E+00 -0.45593999997E+02  0.45594000000E+02  0.51100000000E-03 0.  1.
    9900012    2    1    2    0    0 -0.38885091538E+02  0.38080947412E+01  0.18896342192E+02  0.47787266392E+02  0.19999978786E+02 0.  0.
        -12    1    1    2    0    0  0.38885091538E+02 -0.38080947412E+01 -0.18896342192E+02  0.43400733608E+02  0.00000000000E+00 0.  1.
         11    1    3    3    0    0 -0.12295909146E+02  0.41585585656E+01  0.31919440223E+01  0.13366805825E+02  0.51100000000E-03 0. -1.
        -11    1    3    3    0    0 -0.68330437414E+01  0.19185045397E+01  0.12363481902E+02  0.14255764850E+02  0.51100000000E-03 0.  1.
        -12    1    3    3    0    0 -0.19756138651E+02 -0.22689683642E+01  0.33409162676E+01  0.20164695717E+02  0.00000000000E+00 0.  1.
</event>
<event>
 7    1  0.2783785E-010  0.4778727E+02  0.7816164E-02  0.1312668E+00
        -11   -1    0    0    0    0  0.00000000000E+00  0.00000000000E+00  0.45593999997E+02  0.45594000000E+02  0.51100000000E-03 0.  1.
         11   -1    0    0    0    0 -0.00000000000E+00 -0.00000000000E+00 -0.45593999997E+02  0.45594000000E+02  0.51100000000E-03 0. -1.
    9900012    2    1    2    0    0  0.40745193447E+02 -0.14948311526E+02 -0.22674483621E-01  0.47787270506E+02  0.19999997545E+02 0.  0.
        -12    1    1    2    0    0 -0.40745193447E+02  0.14948311526E+02  0.22674483621E-01  0.43400729494E+02  0.00000000000E+00 0.  1.
         11    1    3    3    0    0  0.49379918702E+00 -0.15188880731E+01 -0.78392089564E+00  0.17791545317E+01  0.51100000000E-03 0.  1.
        -11    1    3    3    0    0  0.28436066981E+02 -0.25394691418E+01  0.58713672728E+01  0.29146728166E+02  0.51100000000E-03 0. -1.
         12    1    3    3    0    0  0.11815327278E+02 -0.10889954311E+02 -0.51101208608E+01  0.16861387808E+02  0.00000000000E+00 0. -1.
</event>
<event>
 7    1  0.2783785E-010  0.4778727E+02  0.7816164E-02  0.1312668E+00
        -11   -1    0    0    0    0  0.00000000000E+00  0.00000000000E+00  0.45593999997E+02  0.45594000000E+02  0.51100000000E-03 0.  1.
         11   -1    0    0    0    0 -0.00000000000E+00 -0.00000000000E+00 -0.45593999997E+02  0.45594000000E+02  0.51100000000E-03 0. -1.
    9900012    2    1    2    0    0 -0.21744178979E+02 -0.41215601221E+01 -0.37333987312E+02  0.47787272058E+02  0.20000004620E+02 0.  0.
        -12    1    1    2    0    0  0.21744178979E+02  0.41215601221E+01  0.37333987312E+02  0.43400727942E+02  0.00000000000E+00 0.  1.
         11    1    3    3    0    0 -0.12228241157E+02  0.10335013059E+01 -0.14594952678E+02  0.19068577574E+02  0.51100000000E-03 0. -1.
        -11    1    3    3    0    0 -0.70121766918E+01 -0.77029688496E+01 -0.69303519868E+01  0.12511439964E+02  0.51100000000E-03 0.  1.
        -12    1    3    3    0    0 -0.25037611295E+01  0.25479074216E+01 -0.15808682647E+02  0.16207254520E+02  0.00000000000E+00 0.  1.
</event>
<event>
 7    1  0.2783785E-010  0.4778727E+02  0.7816164E-02  0.1312668E+00
        -11   -1    0    0    0    0  0.00000000000E+00  0.00000000000E+00  0.45593999997E+02  0.45594000000E+02  0.51100000000E-03 0.  1.
         11   -1    0    0    0    0 -0.00000000000E+00 -0.00000000000E+00 -0.45593999997E+02  0.45594000000E+02  0.51100000000E-03 0. -1.
    9900012    2    1    2    0    0  0.11511144971E+02 -0.18172138817E+02 -0.37694697262E+02  0.47787270865E+02  0.19999999183E+02 0.  0.
        -12    1    1    2    0    0 -0.11511144971E+02  0.18172138817E+02  0.37694697262E+02  0.43400729135E+02  0.00000000000E+00 0.  1.
         11    1    3    3    0    0  0.30549930189E+01 -0.35707810551E+01 -0.12410244939E+02  0.13270178574E+02  0.51100000000E-03 0. -1.
        -11    1    3    3    0    0 -0.26961805835E+01 -0.46400970994E+01 -0.26927412006E+00  0.53733043505E+01  0.51100000000E-03 0.  1.
        -12    1    3    3    0    0  0.11152332535E+02 -0.99612606623E+01 -0.25015178204E+02  0.29143787940E+02  0.00000000000E+00 0.  1.
</event>
<event>
 7    1  0.2783785E-010  0.4778727E+02  0.7816164E-02  0.1312668E+00
        -11   -1    0    0    0    0  0.00000000000E+00  0.00000000000E+00  0.45593999997E+02  0.45594000000E+02  0.51100000000E-03 0.  1.
         11   -1    0    0    0    0 -0.00000000000E+00 -0.00000000000E+00 -0.45593999997E+02  0.45594000000E+02  0.51100000000E-03 0. -1.
    9900012    2    1    2    0    0 -0.12273355954E+02 -0.26146610889E+01 -0.41546979561E+02  0.47787271554E+02  0.20000002325E+02 0.  0.
        -12    1    1    2    0    0  0.12273355954E+02  0.26146610889E+01  0.41546979561E+02  0.43400728446E+02  0.00000000000E+00 0.  1.
         11    1    3    3    0    0  0.32360397723E+01 -0.37116277255E+01 -0.23607471571E+01  0.54608846519E+01  0.51100000000E-03 0.  1.
        -11    1    3    3    0    0 -0.68833892552E+01  0.23298016223E+01 -0.16819022652E+02  0.18321805218E+02  0.51100000000E-03 0. -1.
        -12    1    3    3    0    0 -0.86260064711E+01 -0.12328349856E+01 -0.22367209752E+02  0.24004581684E+02  0.00000000000E+00 0.  1.
</event>
<event>
 7    1  0.2783785E-010  0.4778727E+02  0.7816164E-02  0.1312668E+00
        -11   -1    0    0    0    0  0.00000000000E+00  0.00000000000E+00  0.45593999997E+02  0.45594000000E+02  0.51100000000E-03 0.  1.
         11   -1    0    0    0    0 -0.00000000000E+00 -0.00000000000E+00 -0.45593999997E+02  0.45594000000E+02  0.51100000000E-03 0. -1.
    9900012    2    1    2    0    0  0.14558517654E+02 -0.40845911316E+02 -0.18122989192E+01  0.47787270341E+02  0.19999996795E+02 0.  0.
        -12    1    1    2    0    0 -0.14558517654E+02  0.40845911316E+02  0.18122989192E+01  0.43400729659E+02  0.00000000000E+00 0.  1.
         11    1    3    3    0    0  0.33295411157E+01 -0.45146386848E+01 -0.48935222512E+01  0.74440826688E+01  0.51100000000E-03 0. -1.
        -11    1    3    3    0    0 -0.13961712481E+01 -0.77851015197E+01  0.44957170667E+01  0.90977234532E+01  0.51100000000E-03 0.  1.
         12    1    3    3    0    0  0.12625147786E+02 -0.28546171112E+02 -0.14144937347E+01  0.31245464219E+02  0.00000000000E+00 0. -1.
</event>
<event>
 7    1  0.2783785E-010  0.4778727E+02  0.7816164E-02  0.1312668E+00
        -11   -1    0    0    0    0  0.00000000000E+00  0.00000000000E+00  0.45593999997E+02  0.45594000000E+02  0.51100000000E-03 0.  1.
         11   -1    0    0    0    0 -0.00000000000E+00 -0.00000000000E+00 -0.45593999997E+02  0.45594000000E+02  0.51100000000E-03 0. -1.
    9900012    2    1    2    0    0  0.78283879074E-01  0.13957710212E+02 -0.41095005014E+02  0.47787271437E+02  0.20000001790E+02 0.  0.
        -12    1    1    2    0    0 -0.78283879074E-01 -0.13957710212E+02  0.41095005014E+02  0.43400728563E+02  0.00000000000E+00 0.  1.
         11    1    3    3    0    0  0.53938647173E+01 -0.16138168117E+01 -0.46317315602E+01  0.72904813831E+01  0.51100000000E-03 0.  1.
        -11    1    3    3    0    0  0.94864138758E+00  0.65962108353E+01 -0.14448345578E+02  0.15911147290E+02  0.51100000000E-03 0. -1.
        -12    1    3    3    0    0 -0.62642222258E+01  0.89753161881E+01 -0.22014927875E+02  0.24585642764E+02  0.00000000000E+00 0.  1.
</event>
<event>
 7    1  0.2783785E-010  0.4778726E+02  0.7816164E-02  0.1312668E+00
        -11   -1    0    0    0    0  0.00000000000E+00  0.00000000000E+00  0.45593999997E+02  0.45594000000E+02  0.51100000000E-03 0.  1.
         11   -1    0    0    0    0 -0.00000000000E+00 -0.00000000000E+00 -0.45593999997E+02  0.45594000000E+02  0.51100000000E-03 0. -1.
    9900012    2    1    2    0    0  0.30902837992E+02 -0.33536835615E+01 -0.30288470532E+02  0.47787262258E+02  0.19999959940E+02 0.  0.
        -12    1    1    2    0    0 -0.30902837992E+02  0.33536835615E+01  0.30288470532E+02  0.43400737742E+02  0.00000000000E+00 0.  1.
         11    1    3    3    0    0  0.18732317406E+02 -0.31852089598E+01 -0.28893041664E+02  0.34581109415E+02  0.51100000000E-03 0. -1.
        -11    1    3    3    0    0  0.88329818310E+01 -0.15385283780E+01 -0.27095967576E+01  0.93664589064E+01  0.51100000000E-03 0.  1.
        -12    1    3    3    0    0  0.33375387546E+01  0.13700537762E+01  0.13141678891E+01  0.38396939369E+01  0.00000000000E+00 0.  1.
</event>
<event>
 7    1  0.2783785E-010  0.4778727E+02  0.7816164E-02  0.1312668E+00
        -11   -1    0    0    0    0  0.00000000000E+00  0.00000000000E+00  0.45593999997E+02  0.45594000000E+02  0.51100000000E-03 0.  1.
         11   -1    0    0    0    0 -0.00000000000E+00 -0.00000000000E+00 -0.45593999997E+02  0.45594000000E+02  0.51100000000E-03 0. -1.
    9900012    2    1    2    0    0 -0.25834068531E+02 -0.26413826681E+02 -0.22771333590E+02  0.47787274542E+02  0.20000015948E+02 0.  0.
        -12    1    1    2    0    0  0.25834068531E+02  0.26413826681E+02  0.22771333590E+02  0.43400725458E+02  0.00000000000E+00 0.  1.
         11    1    3    3    0    0 -0.85633484760E+01 -0.14123512785E+00 -0.11266019274E+02  0.14151822322E+02  0.51100000000E-03 0. -1.
        -11    1    3    3    0    0 -0.35083138709E+01 -0.37090147560E+01 -0.10451556894E+01  0.52112769408E+01  0.51100000000E-03 0.  1.
         12    1    3    3    0    0 -0.13762406184E+02 -0.22563576797E+02 -0.10460158627E+02  0.28424175280E+02  0.00000000000E+00 0. -1.
</event>
<event>
 7    1  0.2783785E-010  0.4778727E+02  0.7816164E-02  0.1312668E+00
        -11   -1    0    0    0    0  0.00000000000E+00  0.00000000000E+00  0.45593999997E+02  0.45594000000E+02  0.51100000000E-03 0.  1.
         11   -1    0    0    0    0 -0.00000000000E+00 -0.00000000000E+00 -0.45593999997E+02  0.45594000000E+02  0.51100000000E-03 0. -1.
    9900012    2    1    2    0    0 -0.10142319084E+01  0.17236607517E+01 -0.43354626739E+02  0.47787270370E+02  0.19999996926E+02 0.  0.
        -12    1    1    2    0    0  0.10142319084E+01 -0.17236607517E+01  0.43354626739E+02  0.43400729630E+02  0.00000000000E+00 0.  1.
         11    1    3    3    0    0  0.12276249758E+01  0.58004172796E+01 -0.55128709417E+01  0.80959032837E+01  0.51100000000E-03 0. -1.
        -11    1    3    3    0    0  0.12339081861E+01  0.30704265617E+01 -0.18274664354E+02  0.18571844448E+02  0.51100000000E-03 0.  1.
        -12    1    3    3    0    0 -0.34757650703E+01 -0.71471830896E+01 -0.19567091443E+02  0.21119522639E+02  0.00000000000E+00 0.  1.
</event>
<event>
 7    1  0.2783785E-010  0.4778727E+02  0.7816164E-02  0.1312668E+00
        -11   -1    0    0    0    0  0.00000000000E+00  0.00000000000E+00  0.45593999997E+02  0.45594000000E+02  0.51100000000E-03 0. -1.
         11   -1    0    0    0    0 -0.00000000000E+00 -0.00000000000E+00 -0.45593999997E+02  0.45594000000E+02  0.51100000000E-03 0.  1.
    9900012    2    1    2    0    0  0.39232934001E+01  0.17642166582E+02  0.39458651679E+02  0.47787268841E+02  0.19999989953E+02 0.  0.
        -12    1    1    2    0    0 -0.39232934001E+01 -0.17642166582E+02 -0.39458651679E+02  0.43400731159E+02  0.00000000000E+00 0.  1.
         11    1    3    3    0    0 -0.13792204109E+01 -0.25918613429E+01  0.54729926476E+01  0.62107683055E+01  0.51100000000E-03 0. -1.
        -11    1    3    3    0    0  0.55348071382E+01  0.86750462356E+01  0.76735137330E+01  0.12836406449E+02  0.51100000000E-03 0.  1.
        -12    1    3    3    0    0 -0.23229332721E+00  0.11558981689E+02  0.26312145299E+02  0.28740094086E+02  0.00000000000E+00 0.  1.
</event>
<event>
 7    1  0.2783785E-010  0.4778727E+02  0.7816164E-02  0.1312668E+00
        -11   -1    0    0    0    0  0.00000000000E+00  0.00000000000E+00  0.45593999997E+02  0.45594000000E+02  0.51100000000E-03 0.  1.
         11   -1    0    0    0    0 -0.00000000000E+00 -0.00000000000E+00 -0.45593999997E+02  0.45594000000E+02  0.51100000000E-03 0. -1.
    9900012    2    1    2    0    0 -0.47125800595E+01  0.79917574232E+01 -0.42397488653E+02  0.47787266808E+02  0.19999980686E+02 0.  0.
        -12    1    1    2    0    0  0.47125800595E+01 -0.79917574232E+01  0.42397488653E+02  0.43400733192E+02  0.00000000000E+00 0.  1.
         11    1    3    3    0    0  0.46944771497E+01  0.90765626290E+01 -0.11189662775E+02  0.15153569155E+02  0.51100000000E-03 0. -1.
        -11    1    3    3    0    0 -0.26925463141E+01 -0.22800488362E+00 -0.10783886401E+02  0.11117283753E+02  0.51100000000E-03 0.  1.
         12    1    3    3    0    0 -0.67145108952E+01 -0.85680032219E+00 -0.20423939477E+02  0.21516413900E+02  0.00000000000E+00 0. -1.
</event>
<event>
 7    1  0.2783785E-010  0.4778727E+02  0.7816164E-02  0.1312668E+00
        -11   -1    0    0    0    0  0.00000000000E+00  0.00000000000E+00  0.45593999997E+02  0.45594000000E+02  0.51100000000E-03 0.  1.
         11   -1    0    0    0    0 -0.00000000000E+00 -0.00000000000E+00 -0.45593999997E+02  0.45594000000E+02  0.51100000000E-03 0. -1.
    9900012    2    1    2    0    0 -0.24636096484E+02  0.13655996831E+02 -0.33018170653E+02  0.47787273132E+02  0.20000009518E+02 0.  0.
        -12    1    1    2    0    0  0.24636096484E+02 -0.13655996831E+02  0.33018170653E+02  0.43400726868E+02  0.00000000000E+00 0.  1.
         11    1    3    3    0    0 -0.39350108369E+01  0.42150422559E+01 -0.14135954008E+02  0.15266829648E+02  0.51100000000E-03 0. -1.
        -11    1    3    3    0    0 -0.10884655269E+01  0.31833950946E+01 -0.91506331911E+01  0.97495050946E+01  0.51100000000E-03 0.  1.
         12    1    3    3    0    0 -0.19612620120E+02  0.62575594802E+01 -0.97315834535E+01  0.22770938390E+02  0.00000000000E+00 0. -1.
</event>
<event>
 7    1  0.2783785E-010  0.4778727E+02  0.7816164E-02  0.1312668E+00
        -11   -1    0    0    0    0  0.00000000000E+00  0.00000000000E+00  0.45593999997E+02  0.45594000000E+02  0.51100000000E-03 0. -1.
         11   -1    0    0    0    0 -0.00000000000E+00 -0.00000000000E+00 -0.45593999997E+02  0.45594000000E+02  0.51100000000E-03 0.  1.
    9900012    2    1    2    0    0  0.34467832908E+02 -0.19620031457E+02  0.17625156767E+02  0.47787270849E+02  0.19999999109E+02 0.  0.
        -12    1    1    2    0    0 -0.34467832908E+02  0.19620031457E+02 -0.17625156767E+02  0.43400729151E+02  0.00000000000E+00 0.  1.
         11    1    3    3    0    0  0.19757020979E+02 -0.10570726183E+02  0.10730959031E+02  0.24844186683E+02  0.51100000000E-03 0. -1.
        -11    1    3    3    0    0  0.13457704384E+02 -0.32500124979E+01  0.91506187276E+01  0.16595367181E+02  0.51100000000E-03 0.  1.
        -12    1    3    3    0    0  0.12531075461E+01 -0.57992927765E+01 -0.22564209911E+01  0.63477169848E+01  0.00000000000E+00 0.  1.
</event>
<event>
 7    1  0.2783785E-010  0.4778728E+02  0.7816164E-02  0.1312668E+00
        -11   -1    0    0    0    0  0.00000000000E+00  0.00000000000E+00  0.45593999997E+02  0.45594000000E+02  0.51100000000E-03 0. -1.
         11   -1    0    0    0    0 -0.00000000000E+00 -0.00000000000E+00 -0.45593999997E+02  0.45594000000E+02  0.51100000000E-03 0.  1.
    9900012    2    1    2    0    0  0.21263777792E+02  0.12786074275E+01  0.37813223038E+02  0.47787275127E+02  0.20000018614E+02 0.  0.
        -12    1    1    2    0    0 -0.21263777792E+02 -0.12786074275E+01 -0.37813223038E+02  0.43400724873E+02  0.00000000000E+00 0.  1.
         11    1    3    3    0    0  0.87121840864E+00  0.31390427827E+01  0.17332868341E+02  0.17636352692E+02  0.51100000000E-03 0. -1.
        -11    1    3    3    0    0  0.49445222300E+01  0.17479052877E+01  0.15839707759E+01  0.54783607638E+01  0.51100000000E-03 0.  1.
         12    1    3    3    0    0  0.15448037154E+02 -0.36083406430E+01  0.18896383922E+02  0.24672561671E+02  0.00000000000E+00 0. -1.
</event>
<event>
 7    1  0.2783785E-010  0.4778727E+02  0.7816164E-02  0.1312668E+00
        -11   -1    0    0    0    0  0.00000000000E+00  0.00000000000E+00  0.45593999997E+02  0.45594000000E+02  0.51100000000E-03 0.  1.
         11   -1    0    0    0    0 -0.00000000000E+00 -0.00000000000E+00 -0.45593999997E+02  0.45594000000E+02  0.51100000000E-03 0. -1.
    9900012    2    1    2    0    0 -0.21698862160E+02 -0.17831080496E+02 -0.33088295128E+02  0.47787270454E+02  0.19999997306E+02 0.  0.
        -12    1    1    2    0    0  0.21698862160E+02  0.17831080496E+02  0.33088295128E+02  0.43400729546E+02  0.00000000000E+00 0.  1.
         11    1    3    3    0    0 -0.54575667394E+01 -0.84327197058E+01 -0.59501839599E+01  0.11674779902E+02  0.51100000000E-03 0. -1.
        -11    1    3    3    0    0 -0.54521683605E+00 -0.23960192882E+01 -0.14682032178E+02  0.14886243279E+02  0.51100000000E-03 0.  1.
        -12    1    3    3    0    0 -0.15696078585E+02 -0.70023415017E+01 -0.12456078990E+02  0.21226247272E+02  0.00000000000E+00 0.  1.
</event>
<event>
 7    1  0.2783785E-010  0.4778727E+02  0.7816164E-02  0.1312668E+00
        -11   -1    0    0    0    0  0.00000000000E+00  0.00000000000E+00  0.45593999997E+02  0.45594000000E+02  0.51100000000E-03 0.  1.
         11   -1    0    0    0    0 -0.00000000000E+00 -0.00000000000E+00 -0.45593999997E+02  0.45594000000E+02  0.51100000000E-03 0. -1.
    9900012    2    1    2    0    0  0.24605077229E+02 -0.19945514707E+02 -0.29671363132E+02  0.47787272212E+02  0.20000005325E+02 0.  0.
        -12    1    1    2    0    0 -0.24605077229E+02  0.19945514707E+02  0.29671363132E+02  0.43400727788E+02  0.00000000000E+00 0.  1.
         11    1    3    3    0    0  0.48659022089E+01  0.26143201456E+01 -0.60506780175E+01  0.81928248402E+01  0.51100000000E-03 0. -1.
        -11    1    3    3    0    0  0.67312021981E+00 -0.69208433310E+01 -0.35953371965E+01  0.78280018561E+01  0.51100000000E-03 0.  1.
         12    1    3    3    0    0  0.19066054801E+02 -0.15638991522E+02 -0.20025347918E+02  0.31766445516E+02  0.00000000000E+00 0. -1.
</event>
<event>
 7    1  0.2783785E-010  0.4778727E+02  0.7816164E-02  0.1312668E+00
        -11   -1    0    0    0    0  0.00000000000E+00  0.00000000000E+00  0.45593999997E+02  0.45594000000E+02  0.51100000000E-03 0.  1.
         11   -1    0    0    0    0 -0.00000000000E+00 -0.00000000000E+00 -0.45593999997E+02  0.45594000000E+02  0.51100000000E-03 0. -1.
    9900012    2    1    2    0    0 -0.55164791048E+01  0.42601350872E+02 -0.61900621047E+01  0.47787268362E+02  0.19999987770E+02 0.  0.
        -12    1    1    2    0    0  0.55164791048E+01 -0.42601350872E+02  0.61900621047E+01  0.43400731638E+02  0.00000000000E+00 0.  1.
         11    1    3    3    0    0 -0.15978619638E+01  0.21081055208E+02 -0.36542807841E+01  0.21455018523E+02  0.51100000000E-03 0. -1.
        -11    1    3    3    0    0 -0.60969701847E+01  0.22408293282E+01  0.11119047557E+01  0.65901968072E+01  0.51100000000E-03 0.  1.
        -12    1    3    3    0    0  0.21783530437E+01  0.19279466336E+02 -0.36476860764E+01  0.19742053032E+02  0.00000000000E+00 0.  1.
</event>
<event>
 7    1  0.2783785E-010  0.4778727E+02  0.7816164E-02  0.1312668E+00
        -11   -1    0    0    0    0  0.00000000000E+00  0.00000000000E+00  0.45593999997E+02  0.45594000000E+02  0.51100000000E-03 0.  1.
         11   -1    0    0    0    0 -0.00000000000E+00 -0.00000000000E+00 -0.45593999997E+02  0.45594000000E+02  0.51100000000E-03 0. -1.
    9900012    2    1    2    0    0  0.39937901682E+02 -0.10783522904E+02 -0.13126422507E+02  0.47787270457E+02  0.19999997323E+02 0.  0.
        -12    1    1    2    0    0 -0.39937901682E+02  0.10783522904E+02  0.13126422507E+02  0.43400729543E+02  0.00000000000E+00 0.  1.
         11    1    3    3    0    0  0.22722909379E+02 -0.12029914455E+02 -0.11488172079E+02  0.28160744848E+02  0.51100000000E-03 0. -1.
        -11    1    3    3    0    0 -0.11173326303E+01  0.88100483030E-01  0.28718296594E+00  0.11570083055E+01  0.51100000000E-03 0.  1.
         12    1    3    3    0    0  0.18332324934E+02  0.11582910678E+01 -0.19254333940E+01  0.18469517304E+02  0.00000000000E+00 0. -1.
</event>
<event>
 7    1  0.2783785E-010  0.4778727E+02  0.7816164E-02  0.1312668E+00
        -11   -1    0    0    0    0  0.00000000000E+00  0.00000000000E+00  0.45593999997E+02  0.45594000000E+02  0.51100000000E-03 0.  1.
         11   -1    0    0    0    0 -0.00000000000E+00 -0.00000000000E+00 -0.45593999997E+02  0.45594000000E+02  0.51100000000E-03 0. -1.
    9900012    2    1    2    0    0 -0.27516368423E+01 -0.22466701700E+02 -0.37031058084E+02  0.47787268976E+02  0.19999990570E+02 0.  0.
        -12    1    1    2    0    0  0.27516368423E+01  0.22466701700E+02  0.37031058084E+02  0.43400731024E+02  0.00000000000E+00 0.  1.
         11    1    3    3    0    0 -0.26377779726E+01 -0.91846985352E+01 -0.55207221027E+01  0.11036074149E+02  0.51100000000E-03 0. -1.
        -11    1    3    3    0    0  0.39739527859E+00  0.14530193541E+01  0.43470219299E+00  0.15678502826E+01  0.51100000000E-03 0.  1.
         12    1    3    3    0    0 -0.51125414838E+00 -0.14735022518E+02 -0.31945038174E+02  0.35183344545E+02  0.00000000000E+00 0. -1.
</event>
<event>
 7    1  0.2783785E-010  0.4778727E+02  0.7816164E-02  0.1312668E+00
        -11   -1    0    0    0    0  0.00000000000E+00  0.00000000000E+00  0.45593999997E+02  0.45594000000E+02  0.51100000000E-03 0.  1.
         11   -1    0    0    0    0 -0.00000000000E+00 -0.00000000000E+00 -0.45593999997E+02  0.45594000000E+02  0.51100000000E-03 0. -1.
    9900012    2    1    2    0    0 -0.11869627798E+02 -0.39682146212E+02 -0.12963889242E+02  0.47787271708E+02  0.20000003024E+02 0.  0.
        -12    1    1    2    0    0  0.11869627798E+02  0.39682146212E+02  0.12963889242E+02  0.43400728292E+02  0.00000000000E+00 0.  1.
         11    1    3    3    0    0 -0.38109811458E+01 -0.82812300232E+01 -0.68688685976E+01  0.11414188717E+02  0.51100000000E-03 0. -1.
        -11    1    3    3    0    0  0.28454607487E+01 -0.19023039876E+02 -0.17468476967E+01  0.19313833646E+02  0.51100000000E-03 0.  1.
         12    1    3    3    0    0 -0.10904107400E+02 -0.12377876313E+02 -0.43481729473E+01  0.17059249345E+02  0.00000000000E+00 0. -1.
</event>
<event>
 7    1  0.2783785E-010  0.4778727E+02  0.7816164E-02  0.1312668E+00
        -11   -1    0    0    0    0  0.00000000000E+00  0.00000000000E+00  0.45593999997E+02  0.45594000000E+02  0.51100000000E-03 0.  1.
         11   -1    0    0    0    0 -0.00000000000E+00 -0.00000000000E+00 -0.45593999997E+02  0.45594000000E+02  0.51100000000E-03 0. -1.
    9900012    2    1    2    0    0 -0.24737926501E+01  0.41802658319E+02 -0.11403560576E+02  0.47787273204E+02  0.20000009845E+02 0.  0.
        -12    1    1    2    0    0  0.24737926501E+01 -0.41802658319E+02  0.11403560576E+02  0.43400726796E+02  0.00000000000E+00 0.  1.
         11    1    3    3    0    0 -0.78443570893E+01  0.20458673970E+02 -0.68901168593E+01  0.22968782932E+02  0.51100000000E-03 0. -1.
        -11    1    3    3    0    0  0.28415688580E+01 -0.65469689476E-01 -0.67064474597E+00  0.29203706085E+01  0.51100000000E-03 0.  1.
         12    1    3    3    0    0  0.25289955813E+01  0.21409454038E+02 -0.38427989706E+01  0.21898119664E+02  0.00000000000E+00 0. -1.
</event>
<event>
 7    1  0.2783785E-010  0.4778727E+02  0.7816164E-02  0.1312668E+00
        -11   -1    0    0    0    0  0.00000000000E+00  0.00000000000E+00  0.45593999997E+02  0.45594000000E+02  0.51100000000E-03 0. -1.
         11   -1    0    0    0    0 -0.00000000000E+00 -0.00000000000E+00 -0.45593999997E+02  0.45594000000E+02  0.51100000000E-03 0.  1.
    9900012    2    1    2    0    0 -0.30598750841E+01 -0.13877815438E+02  0.41008128167E+02  0.47787272211E+02  0.20000005320E+02 0.  0.
        -12    1    1    2    0    0  0.30598750841E+01  0.13877815438E+02 -0.41008128167E+02  0.43400727789E+02  0.00000000000E+00 0.  1.
         11    1    3    3    0    0  0.34213237120E+01 -0.61106798293E+01  0.11881401946E+02  0.13791793806E+02  0.51100000000E-03 0. -1.
        -11    1    3    3    0    0 -0.38749513051E+01 -0.98565489116E+01  0.99555585489E+01  0.14535472140E+02  0.51100000000E-03 0.  1.
         12    1    3    3    0    0 -0.26062474910E+01  0.20894133028E+01  0.19171167671E+02  0.19460006265E+02  0.00000000000E+00 0. -1.
</event>
<event>
 7    1  0.2783785E-010  0.4778725E+02  0.7816164E-02  0.1312668E+00
        -11   -1    0    0    0    0  0.00000000000E+00  0.00000000000E+00  0.45593999997E+02  0.45594000000E+02  0.51100000000E-03 0. -1.
         11   -1    0    0    0    0 -0.00000000000E+00 -0.00000000000E+00 -0.45593999997E+02  0.45594000000E+02  0.51100000000E-03 0.  1.
    9900012    2    1    2    0    0 -0.19113687426E+00 -0.30563637028E+02  0.30813185750E+02  0.47787252797E+02  0.19999916803E+02 0.  0.
        -12    1    1    2    0    0  0.19113687426E+00  0.30563637028E+02 -0.30813185750E+02  0.43400747203E+02  0.00000000000E+00 0.  1.
         11    1    3    3    0    0  0.23180080256E+01  0.91472726360E+00  0.14998341312E+01  0.29085030266E+01  0.51100000000E-03 0. -1.
        -11    1    3    3    0    0  0.58827411836E+00 -0.35106179199E+01 -0.81710063586E+00  0.36521443465E+01  0.51100000000E-03 0.  1.
         12    1    3    3    0    0 -0.30974190183E+01 -0.27967746372E+02  0.30130452255E+02  0.41226605424E+02  0.00000000000E+00 0. -1.
</event>
<event>
 7    1  0.2783785E-010  0.4778727E+02  0.7816164E-02  0.1312668E+00
        -11   -1    0    0    0    0  0.00000000000E+00  0.00000000000E+00  0.45593999997E+02  0.45594000000E+02  0.51100000000E-03 0. -1.
         11   -1    0    0    0    0 -0.00000000000E+00 -0.00000000000E+00 -0.45593999997E+02  0.45594000000E+02  0.51100000000E-03 0.  1.
    9900012    2    1    2    0    0 -0.29614555073E+02  0.59801742099E+01  0.31158295539E+02  0.47787265713E+02  0.19999975692E+02 0.  0.
        -12    1    1    2    0    0  0.29614555073E+02 -0.59801742099E+01 -0.31158295539E+02  0.43400734287E+02  0.00000000000E+00 0.  1.
         11    1    3    3    0    0 -0.26647627317E+02  0.78329436560E+01  0.26063298993E+02  0.38088667641E+02  0.51100000000E-03 0. -1.
        -11    1    3    3    0    0 -0.41391703594E+01 -0.37818139631E+01  0.21888864995E+01  0.60188098894E+01  0.51100000000E-03 0.  1.
        -12    1    3    3    0    0  0.11722426037E+01  0.19290445170E+01  0.29061100461E+01  0.36797881828E+01  0.00000000000E+00 0.  1.
</event>
<event>
 7    1  0.2783785E-010  0.4778727E+02  0.7816164E-02  0.1312668E+00
        -11   -1    0    0    0    0  0.00000000000E+00  0.00000000000E+00  0.45593999997E+02  0.45594000000E+02  0.51100000000E-03 0.  1.
         11   -1    0    0    0    0 -0.00000000000E+00 -0.00000000000E+00 -0.45593999997E+02  0.45594000000E+02  0.51100000000E-03 0. -1.
    9900012    2    1    2    0    0  0.23793828197E+02 -0.16267465653E+02 -0.32447597678E+02  0.47787270811E+02  0.19999998936E+02 0.  0.
        -12    1    1    2    0    0 -0.23793828197E+02  0.16267465653E+02  0.32447597678E+02  0.43400729189E+02  0.00000000000E+00 0.  1.
         11    1    3    3    0    0  0.15123479422E+02 -0.10998831788E+02 -0.16099700913E+02  0.24675783681E+02  0.51100000000E-03 0. -1.
        -11    1    3    3    0    0  0.32712758516E+00  0.29421082083E+00  0.20831796260E+01  0.21291336453E+01  0.51100000000E-03 0.  1.
         12    1    3    3    0    0  0.83432211901E+01 -0.55628446864E+01 -0.18431076391E+02  0.20982353485E+02  0.00000000000E+00 0. -1.
</event>
<event>
 7    1  0.2783785E-010  0.4778727E+02  0.7816164E-02  0.1312668E+00
        -11   -1    0    0    0    0  0.00000000000E+00  0.00000000000E+00  0.45593999997E+02  0.45594000000E+02  0.51100000000E-03 0.  1.
         11   -1    0    0    0    0 -0.00000000000E+00 -0.00000000000E+00 -0.45593999997E+02  0.45594000000E+02  0.51100000000E-03 0. -1.
    9900012    2    1    2    0    0 -0.13829047655E+02  0.30507055900E+02 -0.27598917504E+02  0.47787271134E+02  0.20000000406E+02 0.  0.
        -12    1    1    2    0    0  0.13829047655E+02 -0.30507055900E+02  0.27598917504E+02  0.43400728866E+02  0.00000000000E+00 0.  1.
         11    1    3    3    0    0 -0.15467009997E+01  0.10913506740E+02 -0.47065061625E+01  0.11985329109E+02  0.51100000000E-03 0. -1.
        -11    1    3    3    0    0 -0.56721534008E+01  0.12695347349E+02 -0.22235637972E+02  0.26225345847E+02  0.51100000000E-03 0.  1.
        -12    1    3    3    0    0 -0.66101932544E+01  0.68982018113E+01 -0.65677337044E+00  0.95765961776E+01  0.00000000000E+00 0.  1.
</event>
<event>
 7    1  0.2783785E-010  0.4778727E+02  0.7816164E-02  0.1312668E+00
        -11   -1    0    0    0    0  0.00000000000E+00  0.00000000000E+00  0.45593999997E+02  0.45594000000E+02  0.51100000000E-03 0.  1.
         11   -1    0    0    0    0 -0.00000000000E+00 -0.00000000000E+00 -0.45593999997E+02  0.45594000000E+02  0.51100000000E-03 0. -1.
    9900012    2    1    2    0    0  0.16775391189E+02 -0.34287801176E+02  0.20653235887E+02  0.47787271762E+02  0.20000003270E+02 0.  0.
        -12    1    1    2    0    0 -0.16775391189E+02  0.34287801176E+02 -0.20653235887E+02  0.43400728238E+02  0.00000000000E+00 0.  1.
         11    1    3    3    0    0  0.34565160934E+01  0.83660819542E+00  0.12615927400E+01  0.37734643605E+01  0.51100000000E-03 0. -1.
        -11    1    3    3    0    0 -0.75419332656E+00  0.58726210350E+00  0.12069255322E+01  0.15395953538E+01  0.51100000000E-03 0.  1.
        -12    1    3    3    0    0  0.14073068422E+02 -0.35711671475E+02  0.18184717615E+02  0.42474212048E+02  0.00000000000E+00 0.  1.
</event>
<event>
 7    1  0.2783785E-010  0.4778727E+02  0.7816164E-02  0.1312668E+00
        -11   -1    0    0    0    0  0.00000000000E+00  0.00000000000E+00  0.45593999997E+02  0.45594000000E+02  0.51100000000E-03 0.  1.
         11   -1    0    0    0    0 -0.00000000000E+00 -0.00000000000E+00 -0.45593999997E+02  0.45594000000E+02  0.51100000000E-03 0. -1.
    9900012    2    1    2    0    0 -0.28025192693E+02 -0.27492944098E+02 -0.18502703759E+02  0.47787269050E+02  0.19999990905E+02 0.  0.
        -12    1    1    2    0    0  0.28025192693E+02  0.27492944098E+02  0.18502703759E+02  0.43400730950E+02  0.00000000000E+00 0.  1.
         11    1    3    3    0    0 -0.78807145115E+01 -0.10496712679E+02 -0.40632370562E+01  0.13740325102E+02  0.51100000000E-03 0. -1.
        -11    1    3    3    0    0 -0.54198956065E+01  0.24987053839E+01 -0.52380441373E+01  0.79407747497E+01  0.51100000000E-03 0.  1.
        -12    1    3    3    0    0 -0.14724582575E+02 -0.19494936803E+02 -0.92014225656E+01  0.26106169198E+02  0.00000000000E+00 0.  1.
</event>
<event>
 7    1  0.2783785E-010  0.4778727E+02  0.7816164E-02  0.1312668E+00
        -11   -1    0    0    0    0  0.00000000000E+00  0.00000000000E+00  0.45593999997E+02  0.45594000000E+02  0.51100000000E-03 0.  1.
         11   -1    0    0    0    0 -0.00000000000E+00 -0.00000000000E+00 -0.45593999997E+02  0.45594000000E+02  0.51100000000E-03 0. -1.
    9900012    2    1    2    0    0 -0.11724176687E+02 -0.35182088362E+02 -0.22547461642E+02  0.47787266285E+02  0.19999978302E+02 0.  0.
        -12    1    1    2    0    0  0.11724176687E+02  0.35182088362E+02  0.22547461642E+02  0.43400733715E+02  0.00000000000E+00 0.  1.
         11    1    3    3    0    0 -0.77152839317E+01 -0.22687823025E+02 -0.17027703717E+02  0.29397374268E+02  0.51100000000E-03 0. -1.
        -11    1    3    3    0    0 -0.57394964849E+01 -0.64492062536E+01 -0.78651494963E+01  0.11678812357E+02  0.51100000000E-03 0.  1.
        -12    1    3    3    0    0  0.17306037294E+01 -0.60450590833E+01  0.23453915710E+01  0.67110796606E+01  0.00000000000E+00 0.  1.
</event>
<event>
 7    1  0.2783785E-010  0.4778727E+02  0.7816164E-02  0.1312668E+00
        -11   -1    0    0    0    0  0.00000000000E+00  0.00000000000E+00  0.45593999997E+02  0.45594000000E+02  0.51100000000E-03 0.  1.
         11   -1    0    0    0    0 -0.00000000000E+00 -0.00000000000E+00 -0.45593999997E+02  0.45594000000E+02  0.51100000000E-03 0. -1.
    9900012    2    1    2    0    0 -0.18715250358E+02  0.13003725724E+02 -0.36935969179E+02  0.47787270768E+02  0.19999998740E+02 0.  0.
        -12    1    1    2    0    0  0.18715250358E+02 -0.13003725724E+02  0.36935969179E+02  0.43400729232E+02  0.00000000000E+00 0.  1.
         11    1    3    3    0    0 -0.13979327336E+02  0.40053140610E+01 -0.15817243133E+02  0.21486026019E+02  0.51100000000E-03 0. -1.
        -11    1    3    3    0    0 -0.29977124575E+01 -0.63437197058E+00 -0.44138704063E-01  0.30644177687E+01  0.51100000000E-03 0.  1.
        -12    1    3    3    0    0 -0.17382105648E+01  0.96327836340E+01 -0.21074587341E+02  0.23236826980E+02  0.00000000000E+00 0.  1.
</event>
<event>
 7    1  0.2783785E-010  0.4778730E+02  0.7816164E-02  0.1312668E+00
        -11   -1    0    0    0    0  0.00000000000E+00  0.00000000000E+00  0.45593999997E+02  0.45594000000E+02  0.51100000000E-03 0.  1.
         11   -1    0    0    0    0 -0.00000000000E+00 -0.00000000000E+00 -0.45593999997E+02  0.45594000000E+02  0.51100000000E-03 0. -1.
    9900012    2    1    2    0    0 -0.39500866607E+02  0.78972987142E+01 -0.16153494326E+02  0.47787295298E+02  0.20000110580E+02 0.  0.
        -12    1    1    2    0    0  0.39500866607E+02 -0.78972987142E+01  0.16153494326E+02  0.43400704702E+02  0.00000000000E+00 0.  1.
         11    1    3    3    0    0 -0.79914761883E+01 -0.36270273222E+01 -0.85936484201E+00  0.88180228542E+01  0.51100000000E-03 0. -1.
        -11    1    3    3    0    0 -0.27610847173E+02  0.77570166796E+01 -0.78032336497E+01  0.29722392989E+02  0.51100000000E-03 0.  1.
        -12    1    3    3    0    0 -0.38985432462E+01  0.37673093569E+01 -0.74908958346E+01  0.92468794541E+01  0.00000000000E+00 0.  1.
</event>
<event>
 7    1  0.2783785E-010  0.4778727E+02  0.7816164E-02  0.1312668E+00
        -11   -1    0    0    0    0  0.00000000000E+00  0.00000000000E+00  0.45593999997E+02  0.45594000000E+02  0.51100000000E-03 0. -1.
         11   -1    0    0    0    0 -0.00000000000E+00 -0.00000000000E+00 -0.45593999997E+02  0.45594000000E+02  0.51100000000E-03 0.  1.
    9900012    2    1    2    0    0  0.41476065812E+02  0.95915478140E+01  0.84475665748E+01  0.47787271829E+02  0.20000003578E+02 0.  0.
        -12    1    1    2    0    0 -0.41476065812E+02 -0.95915478140E+01 -0.84475665748E+01  0.43400728171E+02  0.00000000000E+00 0.  1.
         11    1    3    3    0    0  0.35511429994E+02  0.60469152128E+01  0.97564491433E+01  0.37320438689E+02  0.51100000000E-03 0. -1.
        -11    1    3    3    0    0  0.54619750853E+00  0.17550834795E+00  0.28129011461E+01  0.28708096449E+01  0.51100000000E-03 0.  1.
         12    1    3    3    0    0  0.54184383096E+01  0.33691242532E+01 -0.41217837146E+01  0.75960234952E+01  0.00000000000E+00 0. -1.
</event>
<event>
 7    1  0.2783785E-010  0.4778725E+02  0.7816164E-02  0.1312668E+00
        -11   -1    0    0    0    0  0.00000000000E+00  0.00000000000E+00  0.45593999997E+02  0.45594000000E+02  0.51100000000E-03 0. -1.
         11   -1    0    0    0    0 -0.00000000000E+00 -0.00000000000E+00 -0.45593999997E+02  0.45594000000E+02  0.51100000000E-03 0.  1.
    9900012    2    1    2    0    0 -0.70431570203E+01 -0.16825183894E+02  0.39381880532E+02  0.47787246687E+02  0.19999888947E+02 0.  0.
        -12    1    1    2    0    0  0.70431570203E+01  0.16825183894E+02 -0.39381880532E+02  0.43400753313E+02  0.00000000000E+00 0.  1.
         11    1    3    3    0    0 -0.30303243338E+00 -0.61924100385E+00 -0.37502002630E+00  0.78481103317E+00  0.51100000000E-03 0.  1.
        -11    1    3    3    0    0 -0.10708337347E+02 -0.17811742748E+02  0.32494178402E+02  0.38571988524E+02  0.51100000000E-03 0. -1.
         12    1    3    3    0    0  0.39682127598E+01  0.16057998581E+01  0.72627221565E+01  0.84304471301E+01  0.00000000000E+00 0. -1.
</event>
<event>
 7    1  0.2783785E-010  0.4778726E+02  0.7816164E-02  0.1312668E+00
        -11   -1    0    0    0    0  0.00000000000E+00  0.00000000000E+00  0.45593999997E+02  0.45594000000E+02  0.51100000000E-03 0.  1.
         11   -1    0    0    0    0 -0.00000000000E+00 -0.00000000000E+00 -0.45593999997E+02  0.45594000000E+02  0.51100000000E-03 0. -1.
    9900012    2    1    2    0    0 -0.67730118242E-01  0.12584458965E+00 -0.43400501518E+02  0.47787263183E+02  0.19999964155E+02 0.  0.
        -12    1    1    2    0    0  0.67730118242E-01 -0.12584458965E+00  0.43400501518E+02  0.43400736817E+02  0.00000000000E+00 0.  1.
         11    1    3    3    0    0 -0.30985993241E+00 -0.26203077177E+01 -0.25606229192E+02  0.25741814221E+02  0.51100000000E-03 0.  1.
        -11    1    3    3    0    0 -0.26627700251E+01  0.40861100860E+01 -0.18180362779E+02  0.18823183336E+02  0.51100000000E-03 0. -1.
        -12    1    3    3    0    0  0.29048998393E+01 -0.13399577786E+01  0.38609045278E+00  0.32222656257E+01  0.00000000000E+00 0.  1.
</event>
<event>
 7    1  0.2783785E-010  0.4778721E+02  0.7816164E-02  0.1312668E+00
        -11   -1    0    0    0    0  0.00000000000E+00  0.00000000000E+00  0.45593999997E+02  0.45594000000E+02  0.51100000000E-03 0.  1.
         11   -1    0    0    0    0 -0.00000000000E+00 -0.00000000000E+00 -0.45593999997E+02  0.45594000000E+02  0.51100000000E-03 0. -1.
    9900012    2    1    2    0    0 -0.22237191007E+02  0.32848262252E+02  0.17610442264E+02  0.47787208837E+02  0.19999716368E+02 0.  0.
        -12    1    1    2    0    0  0.22237191007E+02 -0.32848262252E+02 -0.17610442264E+02  0.43400791163E+02  0.00000000000E+00 0.  1.
         11    1    3    3    0    0 -0.86640555431E+01  0.23164285818E+02  0.16306540951E+02  0.29623525684E+02  0.51100000000E-03 0. -1.
        -11    1    3    3    0    0 -0.69222060676E+01  0.31588143840E+01  0.38180918811E+01  0.85130999659E+01  0.51100000000E-03 0.  1.
         12    1    3    3    0    0 -0.66509293968E+01  0.65251620501E+01 -0.25141905689E+01  0.96505831864E+01  0.00000000000E+00 0. -1.
</event>
<event>
 7    1  0.2783785E-010  0.4778727E+02  0.7816164E-02  0.1312668E+00
        -11   -1    0    0    0    0  0.00000000000E+00  0.00000000000E+00  0.45593999997E+02  0.45594000000E+02  0.51100000000E-03 0.  1.
         11   -1    0    0    0    0 -0.00000000000E+00 -0.00000000000E+00 -0.45593999997E+02  0.45594000000E+02  0.51100000000E-03 0. -1.
    9900012    2    1    2    0    0 -0.34311157806E+02 -0.25791015929E+02 -0.64180207556E+01  0.47787273704E+02  0.20000012127E+02 0.  0.
        -12    1    1    2    0    0  0.34311157806E+02  0.25791015929E+02  0.64180207556E+01  0.43400726296E+02  0.00000000000E+00 0.  1.
         11    1    3    3    0    0 -0.29275656456E+02 -0.27093353534E+02 -0.42237284037E+01  0.40111765712E+02  0.51100000000E-03 0. -1.
        -11    1    3    3    0    0 -0.37876783433E+01 -0.12922368691E+01  0.85769651170E-01  0.40029664066E+01  0.51100000000E-03 0.  1.
         12    1    3    3    0    0 -0.12478230059E+01  0.25945744746E+01 -0.22800620031E+01  0.36725415854E+01  0.00000000000E+00 0. -1.
</event>
<event>
 7    1  0.2783785E-010  0.4778727E+02  0.7816164E-02  0.1312668E+00
        -11   -1    0    0    0    0  0.00000000000E+00  0.00000000000E+00  0.45593999997E+02  0.45594000000E+02  0.51100000000E-03 0. -1.
         11   -1    0    0    0    0 -0.00000000000E+00 -0.00000000000E+00 -0.45593999997E+02  0.45594000000E+02  0.51100000000E-03 0.  1.
    9900012    2    1    2    0    0 -0.17483141149E+02  0.17812070073E+02  0.35506237884E+02  0.47787274276E+02  0.20000014733E+02 0.  0.
        -12    1    1    2    0    0  0.17483141149E+02 -0.17812070073E+02 -0.35506237884E+02  0.43400725724E+02  0.00000000000E+00 0.  1.
         11    1    3    3    0    0 -0.84131479017E+01  0.65048109787E+01  0.70405530524E+01  0.12753941000E+02  0.51100000000E-03 0. -1.
        -11    1    3    3    0    0 -0.17099769163E+01  0.12778038544E+02  0.18802405819E+02  0.22797648013E+02  0.51100000000E-03 0.  1.
         12    1    3    3    0    0 -0.73600163309E+01 -0.14707794496E+01  0.96632790121E+01  0.12235685263E+02  0.00000000000E+00 0. -1.
</event>
<event>
 7    1  0.2783785E-010  0.4778727E+02  0.7816164E-02  0.1312668E+00
        -11   -1    0    0    0    0  0.00000000000E+00  0.00000000000E+00  0.45593999997E+02  0.45594000000E+02  0.51100000000E-03 0.  1.
         11   -1    0    0    0    0 -0.00000000000E+00 -0.00000000000E+00 -0.45593999997E+02  0.45594000000E+02  0.51100000000E-03 0. -1.
    9900012    2    1    2    0    0 -0.11935029415E+02  0.37075378214E+02 -0.19146663666E+02  0.47787270440E+02  0.19999997244E+02 0.  0.
        -12    1    1    2    0    0  0.11935029415E+02 -0.37075378214E+02  0.19146663666E+02  0.43400729560E+02  0.00000000000E+00 0.  1.
         11    1    3    3    0    0 -0.41542198375E+01  0.10841044559E+02 -0.12292943906E+02  0.16908644527E+02  0.51100000000E-03 0. -1.
        -11    1    3    3    0    0 -0.81888107277E+01  0.10865448360E+02  0.94689881427E+00  0.13638592553E+02  0.51100000000E-03 0.  1.
         12    1    3    3    0    0  0.40800115048E+00  0.15368885295E+02 -0.78006185742E+01  0.17240033361E+02  0.00000000000E+00 0. -1.
</event>
<event>
 7    1  0.2783785E-010  0.4778728E+02  0.7816164E-02  0.1312668E+00
        -11   -1    0    0    0    0  0.00000000000E+00  0.00000000000E+00  0.45593999997E+02  0.45594000000E+02  0.51100000000E-03 0.  1.
         11   -1    0    0    0    0 -0.00000000000E+00 -0.00000000000E+00 -0.45593999997E+02  0.45594000000E+02  0.51100000000E-03 0. -1.
    9900012    2    1    2    0    0  0.20067236573E+02 -0.12641076029E+02 -0.36347377221E+02  0.47787278604E+02  0.20000034465E+02 0.  0.
        -12    1    1    2    0    0 -0.20067236573E+02  0.12641076029E+02  0.36347377221E+02  0.43400721396E+02  0.00000000000E+00 0.  1.
         11    1    3    3    0    0  0.92665594933E+01 -0.36195481867E+01 -0.26137485747E+02  0.27966737660E+02  0.51100000000E-03 0. -1.
        -11    1    3    3    0    0  0.11109432816E+02 -0.76533382396E+01 -0.11639545607E+02  0.17817746936E+02  0.51100000000E-03 0.  1.
         12    1    3    3    0    0 -0.30875573555E+00 -0.13681896032E+01  0.14296541329E+01  0.20027940070E+01  0.00000000000E+00 0. -1.
</event>
<event>
 7    1  0.2783785E-010  0.4778728E+02  0.7816164E-02  0.1312668E+00
        -11   -1    0    0    0    0  0.00000000000E+00  0.00000000000E+00  0.45593999997E+02  0.45594000000E+02  0.51100000000E-03 0. -1.
         11   -1    0    0    0    0 -0.00000000000E+00 -0.00000000000E+00 -0.45593999997E+02  0.45594000000E+02  0.51100000000E-03 0.  1.
    9900012    2    1    2    0    0  0.12290192708E+02  0.40151157102E+02 -0.10975363126E+02  0.47787275937E+02  0.20000022308E+02 0.  0.
        -12    1    1    2    0    0 -0.12290192708E+02 -0.40151157102E+02  0.10975363126E+02  0.43400724063E+02  0.00000000000E+00 0.  1.
         11    1    3    3    0    0  0.85477576525E+01  0.28564018864E+02 -0.40359381465E+01  0.30087474661E+02  0.51100000000E-03 0. -1.
        -11    1    3    3    0    0  0.48906410602E+01  0.17527244628E+01  0.63460811026E+00  0.52338456929E+01  0.51100000000E-03 0.  1.
        -12    1    3    3    0    0 -0.11482060052E+01  0.98344137759E+01 -0.75740330897E+01  0.12465955583E+02  0.00000000000E+00 0.  1.
</event>
<event>
 7    1  0.2783785E-010  0.4778727E+02  0.7816164E-02  0.1312668E+00
        -11   -1    0    0    0    0  0.00000000000E+00  0.00000000000E+00  0.45593999997E+02  0.45594000000E+02  0.51100000000E-03 0.  1.
         11   -1    0    0    0    0 -0.00000000000E+00 -0.00000000000E+00 -0.45593999997E+02  0.45594000000E+02  0.51100000000E-03 0. -1.
    9900012    2    1    2    0    0  0.27070672351E+02 -0.16852591428E+02 -0.29441338466E+02  0.47787267863E+02  0.19999985494E+02 0.  0.
        -12    1    1    2    0    0 -0.27070672351E+02  0.16852591428E+02  0.29441338466E+02  0.43400732137E+02  0.00000000000E+00 0.  1.
         11    1    3    3    0    0  0.52505832923E+01 -0.76267545750E+01 -0.14011315121E+01  0.93647840355E+01  0.51100000000E-03 0.  1.
        -11    1    3    3    0    0  0.34572692809E+01  0.67635199501E+00 -0.10794430413E+02  0.11354729900E+02  0.51100000000E-03 0. -1.
         12    1    3    3    0    0  0.18362819778E+02 -0.99021888485E+01 -0.17245776541E+02  0.27067753927E+02  0.00000000000E+00 0. -1.
</event>
<event>
 7    1  0.2783785E-010  0.4778727E+02  0.7816164E-02  0.1312668E+00
        -11   -1    0    0    0    0  0.00000000000E+00  0.00000000000E+00  0.45593999997E+02  0.45594000000E+02  0.51100000000E-03 0.  1.
         11   -1    0    0    0    0 -0.00000000000E+00 -0.00000000000E+00 -0.45593999997E+02  0.45594000000E+02  0.51100000000E-03 0. -1.
    9900012    2    1    2    0    0 -0.21166220714E+02  0.36672702374E+02 -0.95250912872E+01  0.47787270021E+02  0.19999995332E+02 0.  0.
        -12    1    1    2    0    0  0.21166220714E+02 -0.36672702374E+02  0.95250912872E+01  0.43400729979E+02  0.00000000000E+00 0.  1.
         11    1    3    3    0    0 -0.24165161098E+01  0.36974481961E+01  0.32802668940E+01  0.55018928041E+01  0.51100000000E-03 0.  1.
        -11    1    3    3    0    0 -0.38352306874E+01  0.20475261590E+02 -0.61871186983E+01  0.21730756307E+02  0.51100000000E-03 0. -1.
         12    1    3    3    0    0 -0.14914473916E+02  0.12499992588E+02 -0.66182394829E+01  0.20554620910E+02  0.00000000000E+00 0. -1.
</event>
<event>
 7    1  0.2783785E-010  0.4778729E+02  0.7816164E-02  0.1312668E+00
        -11   -1    0    0    0    0  0.00000000000E+00  0.00000000000E+00  0.45593999997E+02  0.45594000000E+02  0.51100000000E-03 0.  1.
         11   -1    0    0    0    0 -0.00000000000E+00 -0.00000000000E+00 -0.45593999997E+02  0.45594000000E+02  0.51100000000E-03 0. -1.
    9900012    2    1    2    0    0  0.30070930273E+02  0.28439618506E+02 -0.13059426292E+02  0.47787293055E+02  0.20000100354E+02 0.  0.
        -12    1    1    2    0    0 -0.30070930273E+02 -0.28439618506E+02  0.13059426292E+02  0.43400706945E+02  0.00000000000E+00 0.  1.
         11    1    3    3    0    0  0.77390930776E+01  0.85189726590E+01  0.25963901895E-01  0.11509436616E+02  0.51100000000E-03 0. -1.
        -11    1    3    3    0    0  0.25709523164E+01  0.73011029213E+01  0.24878810938E+01  0.81305259534E+01  0.51100000000E-03 0.  1.
         12    1    3    3    0    0  0.19760884879E+02  0.12619542925E+02 -0.15573271288E+02  0.28147330486E+02  0.00000000000E+00 0. -1.
</event>
<event>
 7    1  0.2783785E-010  0.4778727E+02  0.7816164E-02  0.1312668E+00
        -11   -1    0    0    0    0  0.00000000000E+00  0.00000000000E+00  0.45593999997E+02  0.45594000000E+02  0.51100000000E-03 0.  1.
         11   -1    0    0    0    0 -0.00000000000E+00 -0.00000000000E+00 -0.45593999997E+02  0.45594000000E+02  0.51100000000E-03 0. -1.
    9900012    2    1    2    0    0  0.26665489421E+02 -0.24799379472E+02 -0.23612830354E+02  0.47787270679E+02  0.19999998333E+02 0.  0.
        -12    1    1    2    0    0 -0.26665489421E+02  0.24799379472E+02  0.23612830354E+02  0.43400729321E+02  0.00000000000E+00 0.  1.
         11    1    3    3    0    0  0.97559351436E+01 -0.15531213680E+02 -0.73786411869E+01  0.19769704473E+02  0.51100000000E-03 0. -1.
        -11    1    3    3    0    0  0.48081942107E+01 -0.53988265962E+01 -0.13051552967E+02  0.14920090325E+02  0.51100000000E-03 0.  1.
        -12    1    3    3    0    0  0.12101360067E+02 -0.38693391958E+01 -0.31826362001E+01  0.13097475881E+02  0.00000000000E+00 0.  1.
</event>
<event>
 7    1  0.2783785E-010  0.4778727E+02  0.7816164E-02  0.1312668E+00
        -11   -1    0    0    0    0  0.00000000000E+00  0.00000000000E+00  0.45593999997E+02  0.45594000000E+02  0.51100000000E-03 0.  1.
         11   -1    0    0    0    0 -0.00000000000E+00 -0.00000000000E+00 -0.45593999997E+02  0.45594000000E+02  0.51100000000E-03 0. -1.
    9900012    2    1    2    0    0  0.10594206966E+02 -0.80587152525E+01 -0.41309118993E+02  0.47787269306E+02  0.19999992075E+02 0.  0.
        -12    1    1    2    0    0 -0.10594206966E+02  0.80587152525E+01  0.41309118993E+02  0.43400730694E+02  0.00000000000E+00 0.  1.
         11    1    3    3    0    0  0.10133735324E+02 -0.10191947985E+01 -0.21057428992E+02  0.23391166402E+02  0.51100000000E-03 0. -1.
        -11    1    3    3    0    0 -0.45106798026E+01 -0.46495020503E+00 -0.11560505577E+02  0.12418039315E+02  0.51100000000E-03 0.  1.
         12    1    3    3    0    0  0.49711514449E+01 -0.65745702490E+01 -0.86911844247E+01  0.11978063589E+02  0.00000000000E+00 0. -1.
</event>
<event>
 7    1  0.2783785E-010  0.4778727E+02  0.7816164E-02  0.1312668E+00
        -11   -1    0    0    0    0  0.00000000000E+00  0.00000000000E+00  0.45593999997E+02  0.45594000000E+02  0.51100000000E-03 0.  1.
         11   -1    0    0    0    0 -0.00000000000E+00 -0.00000000000E+00 -0.45593999997E+02  0.45594000000E+02  0.51100000000E-03 0. -1.
    9900012    2    1    2    0    0  0.17622814858E+02  0.39429169032E+02  0.42895711425E+01  0.47787269653E+02  0.19999993658E+02 0.  0.
        -12    1    1    2    0    0 -0.17622814858E+02 -0.39429169032E+02 -0.42895711425E+01  0.43400730347E+02  0.00000000000E+00 0.  1.
         11    1    3    3    0    0  0.17373350792E+02  0.39691291296E+02  0.34188156981E+01  0.43461709855E+02  0.51100000000E-03 0. -1.
        -11    1    3    3    0    0 -0.44842322375E+00  0.67747470179E+00 -0.14863292419E+01  0.16938802306E+01  0.51100000000E-03 0.  1.
        -12    1    3    3    0    0  0.69788728941E+00 -0.93959696654E+00  0.23570846863E+01  0.26316795676E+01  0.00000000000E+00 0.  1.
</event>
<event>
 7    1  0.2783785E-010  0.4778728E+02  0.7816164E-02  0.1312668E+00
        -11   -1    0    0    0    0  0.00000000000E+00  0.00000000000E+00  0.45593999997E+02  0.45594000000E+02  0.51100000000E-03 0.  1.
         11   -1    0    0    0    0 -0.00000000000E+00 -0.00000000000E+00 -0.45593999997E+02  0.45594000000E+02  0.51100000000E-03 0. -1.
    9900012    2    1    2    0    0 -0.29847193674E+01  0.38689078876E+02 -0.19438859912E+02  0.47787278247E+02  0.20000032839E+02 0.  0.
        -12    1    1    2    0    0  0.29847193674E+01 -0.38689078876E+02  0.19438859912E+02  0.43400721753E+02  0.00000000000E+00 0.  1.
         11    1    3    3    0    0  0.10203328695E+01  0.24364468114E+02 -0.15251968109E+02  0.28762665334E+02  0.51100000000E-03 0. -1.
        -11    1    3    3    0    0 -0.17619373329E+01  0.14657256900E+02 -0.59246991922E+00  0.14774661548E+02  0.51100000000E-03 0.  1.
        -12    1    3    3    0    0 -0.22431149039E+01 -0.33264613771E+00 -0.35944218841E+01  0.42499513652E+01  0.00000000000E+00 0.  1.
</event>
<event>
 7    1  0.2783785E-010  0.4778726E+02  0.7816164E-02  0.1312668E+00
        -11   -1    0    0    0    0  0.00000000000E+00  0.00000000000E+00  0.45593999997E+02  0.45594000000E+02  0.51100000000E-03 0.  1.
         11   -1    0    0    0    0 -0.00000000000E+00 -0.00000000000E+00 -0.45593999997E+02  0.45594000000E+02  0.51100000000E-03 0. -1.
    9900012    2    1    2    0    0 -0.26963515278E+02 -0.28335469259E+02 -0.18806749575E+02  0.47787264939E+02  0.19999972164E+02 0.  0.
        -12    1    1    2    0    0  0.26963515278E+02  0.28335469259E+02  0.18806749575E+02  0.43400735061E+02  0.00000000000E+00 0.  1.
         11    1    3    3    0    0 -0.22053166296E+02 -0.23010663659E+02 -0.18403593814E+02  0.36803872774E+02  0.51100000000E-03 0. -1.
        -11    1    3    3    0    0 -0.10325042314E+01  0.96609366310E+00 -0.28642722488E+01  0.31942851673E+01  0.51100000000E-03 0.  1.
        -12    1    3    3    0    0 -0.38778447511E+01 -0.62908992630E+01  0.24611164878E+01  0.77891069974E+01  0.00000000000E+00 0.  1.
</event>
<event>
 7    1  0.2783785E-010  0.4778727E+02  0.7816164E-02  0.1312668E+00
        -11   -1    0    0    0    0  0.00000000000E+00  0.00000000000E+00  0.45593999997E+02  0.45594000000E+02  0.51100000000E-03 0. -1.
         11   -1    0    0    0    0 -0.00000000000E+00 -0.00000000000E+00 -0.45593999997E+02  0.45594000000E+02  0.51100000000E-03 0.  1.
    9900012    2    1    2    0    0  0.19648144337E+02  0.38102125224E+02  0.67677188399E+01  0.47787267970E+02  0.19999985982E+02 0.  0.
        -12    1    1    2    0    0 -0.19648144337E+02 -0.38102125224E+02 -0.67677188399E+01  0.43400732030E+02  0.00000000000E+00 0.  1.
         11    1    3    3    0    0  0.92957504697E+01  0.17894001576E+02  0.18202125980E+01  0.20246467429E+02  0.51100000000E-03 0. -1.
        -11    1    3    3    0    0 -0.36830308952E+01  0.30701690324E+01  0.19940671450E+01  0.51929720298E+01  0.51100000000E-03 0.  1.
         12    1    3    3    0    0  0.14035424763E+02  0.17137954615E+02  0.29534390970E+01  0.22347828511E+02  0.00000000000E+00 0. -1.
</event>
<event>
 7    1  0.2783785E-010  0.4778727E+02  0.7816164E-02  0.1312668E+00
        -11   -1    0    0    0    0  0.00000000000E+00  0.00000000000E+00  0.45593999997E+02  0.45594000000E+02  0.51100000000E-03 0.  1.
         11   -1    0    0    0    0 -0.00000000000E+00 -0.00000000000E+00 -0.45593999997E+02  0.45594000000E+02  0.51100000000E-03 0. -1.
    9900012    2    1    2    0    0 -0.12522307293E+02  0.29073250164E+02 -0.29691097623E+02  0.47787270362E+02  0.19999996888E+02 0.  0.
        -12    1    1    2    0    0  0.12522307293E+02 -0.29073250164E+02  0.29691097623E+02  0.43400729638E+02  0.00000000000E+00 0.  1.
         11    1    3    3    0    0 -0.12424889132E+02  0.22885095638E+02 -0.14383424150E+02  0.29748753971E+02  0.51100000000E-03 0. -1.
        -11    1    3    3    0    0  0.14152739454E+00 -0.12579183445E+01 -0.32661630660E+00  0.13073129073E+01  0.51100000000E-03 0.  1.
         12    1    3    3    0    0 -0.23894555539E+00  0.74460728707E+01 -0.14981057166E+02  0.16731203483E+02  0.00000000000E+00 0. -1.
</event>
<event>
 7    1  0.2783785E-010  0.4778727E+02  0.7816164E-02  0.1312668E+00
        -11   -1    0    0    0    0  0.00000000000E+00  0.00000000000E+00  0.45593999997E+02  0.45594000000E+02  0.51100000000E-03 0. -1.
         11   -1    0    0    0    0 -0.00000000000E+00 -0.00000000000E+00 -0.45593999997E+02  0.45594000000E+02  0.51100000000E-03 0.  1.
    9900012    2    1    2    0    0  0.27073948392E+02 -0.22656254286E+02  0.25245173158E+02  0.47787270656E+02  0.19999998231E+02 0.  0.
        -12    1    1    2    0    0 -0.27073948392E+02  0.22656254286E+02 -0.25245173158E+02  0.43400729344E+02  0.00000000000E+00 0.  1.
         11    1    3    3    0    0  0.13094850660E+02 -0.10112311721E+02  0.63129708746E+01  0.17708403759E+02  0.51100000000E-03 0. -1.
        -11    1    3    3    0    0 -0.21318139771E+01 -0.23981614665E+01 -0.28292570663E-01  0.32088331186E+01  0.51100000000E-03 0.  1.
        -12    1    3    3    0    0  0.16110911709E+02 -0.10145781098E+02  0.18960494854E+02  0.26870033779E+02  0.00000000000E+00 0.  1.
</event>
<event>
 7    1  0.2783785E-010  0.4778728E+02  0.7816164E-02  0.1312668E+00
        -11   -1    0    0    0    0  0.00000000000E+00  0.00000000000E+00  0.45593999997E+02  0.45594000000E+02  0.51100000000E-03 0.  1.
         11   -1    0    0    0    0 -0.00000000000E+00 -0.00000000000E+00 -0.45593999997E+02  0.45594000000E+02  0.51100000000E-03 0. -1.
    9900012    2    1    2    0    0 -0.37898194243E+02 -0.11527835920E+02 -0.17732978140E+02  0.47787278328E+02  0.20000033210E+02 0.  0.
        -12    1    1    2    0    0  0.37898194243E+02  0.11527835920E+02  0.17732978140E+02  0.43400721672E+02  0.00000000000E+00 0.  1.
         11    1    3    3    0    0 -0.30707252767E+02 -0.50172360377E+00 -0.91532748659E+01  0.32046365474E+02  0.51100000000E-03 0. -1.
        -11    1    3    3    0    0 -0.33365051022E+01 -0.42874158260E+01 -0.34237052490E+01  0.64215230791E+01  0.51100000000E-03 0.  1.
         12    1    3    3    0    0 -0.38544363744E+01 -0.67386964900E+01 -0.51559980251E+01  0.93193897752E+01  0.00000000000E+00 0. -1.
</event>
<event>
 7    1  0.2783785E-010  0.4778727E+02  0.7816164E-02  0.1312668E+00
        -11   -1    0    0    0    0  0.00000000000E+00  0.00000000000E+00  0.45593999997E+02  0.45594000000E+02  0.51100000000E-03 0. -1.
         11   -1    0    0    0    0 -0.00000000000E+00 -0.00000000000E+00 -0.45593999997E+02  0.45594000000E+02  0.51100000000E-03 0.  1.
    9900012    2    1    2    0    0  0.31126581513E+02  0.43081240143E+01  0.29936590127E+02  0.47787269158E+02  0.19999991399E+02 0.  0.
        -12    1    1    2    0    0 -0.31126581513E+02 -0.43081240143E+01 -0.29936590127E+02  0.43400730842E+02  0.00000000000E+00 0.  1.
         11    1    3    3    0    0  0.15520661441E+02 -0.44851921919E+01  0.21746109564E+02  0.27090610218E+02  0.51100000000E-03 0. -1.
        -11    1    3    3    0    0  0.67017026957E+01  0.17445239510E+01  0.42315634081E+00  0.69379567876E+01  0.51100000000E-03 0.  1.
         12    1    3    3    0    0  0.89042173760E+01  0.70487922553E+01  0.77673242222E+01  0.13758702152E+02  0.00000000000E+00 0. -1.
</event>
<event>
 7    1  0.2783785E-010  0.4778727E+02  0.7816164E-02  0.1312668E+00
        -11   -1    0    0    0    0  0.00000000000E+00  0.00000000000E+00  0.45593999997E+02  0.45594000000E+02  0.51100000000E-03 0.  1.
         11   -1    0    0    0    0 -0.00000000000E+00 -0.00000000000E+00 -0.45593999997E+02  0.45594000000E+02  0.51100000000E-03 0. -1.
    9900012    2    1    2    0    0 -0.40804601737E+02 -0.25685887405E+01 -0.14560582883E+02  0.47787265617E+02  0.19999975256E+02 0.  0.
        -12    1    1    2    0    0  0.40804601737E+02  0.25685887405E+01  0.14560582883E+02  0.43400734383E+02  0.00000000000E+00 0.  1.
         11    1    3    3    0    0 -0.31990169577E+02  0.28364510964E+01 -0.46949764555E+01  0.32457036349E+02  0.51100000000E-03 0. -1.
        -11    1    3    3    0    0 -0.84342694347E+01 -0.47502499052E+01 -0.59944988620E+01  0.11385771468E+02  0.51100000000E-03 0.  1.
        -12    1    3    3    0    0 -0.38016272585E+00 -0.65478993166E+00 -0.38711075658E+01  0.39444578004E+01  0.00000000000E+00 0.  1.
</event>
<event>
 7    1  0.2783785E-010  0.4778728E+02  0.7816164E-02  0.1312668E+00
        -11   -1    0    0    0    0  0.00000000000E+00  0.00000000000E+00  0.45593999997E+02  0.45594000000E+02  0.51100000000E-03 0.  1.
         11   -1    0    0    0    0 -0.00000000000E+00 -0.00000000000E+00 -0.45593999997E+02  0.45594000000E+02  0.51100000000E-03 0. -1.
    9900012    2    1    2    0    0  0.33328662814E+02  0.24430947320E+02 -0.13264669548E+02  0.47787280996E+02  0.20000045372E+02 0.  0.
        -12    1    1    2    0    0 -0.33328662814E+02 -0.24430947320E+02  0.13264669548E+02  0.43400719004E+02  0.00000000000E+00 0.  1.
         11    1    3    3    0    0  0.94909423152E+01  0.33744467140E+01 -0.57935912747E+01  0.11620265779E+02  0.51100000000E-03 0. -1.
        -11    1    3    3    0    0  0.20026102892E+02  0.17612459047E+02  0.51180071455E+00  0.26674059514E+02  0.51100000000E-03 0.  1.
        -12    1    3    3    0    0  0.38116176060E+01  0.34440415584E+01 -0.79828789878E+01  0.94929557022E+01  0.00000000000E+00 0.  1.
</event>
<event>
 7    1  0.2783785E-010  0.4778728E+02  0.7816164E-02  0.1312668E+00
        -11   -1    0    0    0    0  0.00000000000E+00  0.00000000000E+00  0.45593999997E+02  0.45594000000E+02  0.51100000000E-03 0.  1.
         11   -1    0    0    0    0 -0.00000000000E+00 -0.00000000000E+00 -0.45593999997E+02  0.45594000000E+02  0.51100000000E-03 0. -1.
    9900012    2    1    2    0    0 -0.27966089045E+02 -0.28428627982E+02 -0.17126983299E+02  0.47787279012E+02  0.20000036325E+02 0.  0.
        -12    1    1    2    0    0  0.27966089045E+02  0.28428627982E+02  0.17126983299E+02  0.43400720988E+02  0.00000000000E+00 0.  1.
         11    1    3    3    0    0 -0.14303771752E+01  0.26901637765E+01 -0.16156640490E+01  0.34486708437E+01  0.51100000000E-03 0. -1.
        -11    1    3    3    0    0 -0.13652615199E+02 -0.10895614876E+02 -0.50911163866E+01  0.18194169166E+02  0.51100000000E-03 0.  1.
         12    1    3    3    0    0 -0.12883096670E+02 -0.20223176882E+02 -0.10420202863E+02  0.26144439002E+02  0.00000000000E+00 0. -1.
</event>
<event>
 7    1  0.3795404E-010  0.4778727E+02  0.7816164E-02  0.1312668E+00
        -11   -1    0    0    0    0  0.00000000000E+00  0.00000000000E+00  0.45593999997E+02  0.45594000000E+02  0.51100000000E-03 0. -1.
         11   -1    0    0    0    0 -0.00000000000E+00 -0.00000000000E+00 -0.45593999997E+02  0.45594000000E+02  0.51100000000E-03 0.  1.
    9900012    2    1    2    0    0  0.82272080196E+01  0.45876643914E+01  0.42366138104E+02  0.47787271040E+02  0.19999999980E+02 0.  0.
        -12    1    1    2    0    0 -0.82272080196E+01 -0.45876643914E+01 -0.42366138104E+02  0.43400728960E+02  0.00000000000E+00 0.  1.
         11    1    3    3    0    0  0.45483211541E+01  0.27561997170E+01  0.35448751098E+02  0.35845471358E+02  0.51100000000E-03 0. -1.
        -11    1    3    3    0    0 -0.27135323176E+01  0.18217254740E+01  0.30508413297E+01  0.44709701879E+01  0.51100000000E-03 0.  1.
        -12    1    3    3    0    0  0.63924191830E+01  0.97392004417E-02  0.38665456768E+01  0.74708294944E+01  0.00000000000E+00 0.  1.
</event>
<event>
 7    1  0.2783785E-010  0.4778727E+02  0.7816164E-02  0.1312668E+00
        -11   -1    0    0    0    0  0.00000000000E+00  0.00000000000E+00  0.45593999997E+02  0.45594000000E+02  0.51100000000E-03 0.  1.
         11   -1    0    0    0    0 -0.00000000000E+00 -0.00000000000E+00 -0.45593999997E+02  0.45594000000E+02  0.51100000000E-03 0. -1.
    9900012    2    1    2    0    0 -0.40460763654E+02  0.11091764978E+01 -0.15662694373E+02  0.47787266561E+02  0.19999979560E+02 0.  0.
        -12    1    1    2    0    0  0.40460763654E+02 -0.11091764978E+01  0.15662694373E+02  0.43400733439E+02  0.00000000000E+00 0.  1.
         11    1    3    3    0    0 -0.16800221322E+02  0.50992773395E+01 -0.91687781076E+01  0.19806982559E+02  0.51100000000E-03 0. -1.
        -11    1    3    3    0    0 -0.22225090971E+02 -0.24799808767E+01 -0.13192348629E+01  0.22401905157E+02  0.51100000000E-03 0.  1.
         12    1    3    3    0    0 -0.14354513615E+01 -0.15101199650E+01 -0.51746814022E+01  0.55783788446E+01  0.00000000000E+00 0. -1.
</event>
<event>
 7    1  0.2783785E-010  0.4778727E+02  0.7816164E-02  0.1312668E+00
        -11   -1    0    0    0    0  0.00000000000E+00  0.00000000000E+00  0.45593999997E+02  0.45594000000E+02  0.51100000000E-03 0.  1.
         11   -1    0    0    0    0 -0.00000000000E+00 -0.00000000000E+00 -0.45593999997E+02  0.45594000000E+02  0.51100000000E-03 0. -1.
    9900012    2    1    2    0    0 -0.19393493413E+02 -0.76523611773E+00 -0.38819196625E+02  0.47787271900E+02  0.20000003899E+02 0.  0.
        -12    1    1    2    0    0  0.19393493413E+02  0.76523611773E+00  0.38819196625E+02  0.43400728100E+02  0.00000000000E+00 0.  1.
         11    1    3    3    0    0 -0.39917573564E+01  0.51968257768E+01 -0.14067163199E+01  0.67022366426E+01  0.51100000000E-03 0.  1.
        -11    1    3    3    0    0 -0.27038031289E+01 -0.27953881870E+01 -0.82442970845E+01  0.91155461248E+01  0.51100000000E-03 0. -1.
        -12    1    3    3    0    0 -0.12697932928E+02 -0.31666737076E+01 -0.29168183220E+02  0.31969489132E+02  0.00000000000E+00 0.  1.
</event>
<event>
 7    1  0.2812930E-010  0.4778726E+02  0.7816164E-02  0.1312668E+00
        -11   -1    0    0    0    0  0.00000000000E+00  0.00000000000E+00  0.45593999997E+02  0.45594000000E+02  0.51100000000E-03 0. -1.
         11   -1    0    0    0    0 -0.00000000000E+00 -0.00000000000E+00 -0.45593999997E+02  0.45594000000E+02  0.51100000000E-03 0.  1.
    9900012    2    1    2    0    0  0.34967744077E+02  0.17423197026E+02  0.18902722366E+02  0.47787264600E+02  0.19999970616E+02 0.  0.
        -12    1    1    2    0    0 -0.34967744077E+02 -0.17423197026E+02 -0.18902722366E+02  0.43400735400E+02  0.00000000000E+00 0.  1.
         11    1    3    3    0    0  0.30390931356E+02  0.12997000933E+02  0.18436520562E+02  0.37847536679E+02  0.51100000000E-03 0. -1.
        -11    1    3    3    0    0  0.61349462366E+01  0.47518272350E+01 -0.93878554852E+00  0.78165686823E+01  0.51100000000E-03 0.  1.
        -12    1    3    3    0    0 -0.15581335157E+01 -0.32563114149E+00  0.14049873524E+01  0.21231592388E+01  0.00000000000E+00 0.  1.
</event>
<event>
 7    1  0.2783785E-010  0.4778727E+02  0.7816164E-02  0.1312668E+00
        -11   -1    0    0    0    0  0.00000000000E+00  0.00000000000E+00  0.45593999997E+02  0.45594000000E+02  0.51100000000E-03 0. -1.
         11   -1    0    0    0    0 -0.00000000000E+00 -0.00000000000E+00 -0.45593999997E+02  0.45594000000E+02  0.51100000000E-03 0.  1.
    9900012    2    1    2    0    0  0.39906245373E+02 -0.89610114118E+01  0.14519470498E+02  0.47787272254E+02  0.20000005516E+02 0.  0.
        -12    1    1    2    0    0 -0.39906245373E+02  0.89610114118E+01 -0.14519470498E+02  0.43400727746E+02  0.00000000000E+00 0.  1.
         11    1    3    3    0    0  0.27307013807E+02 -0.58199901089E+01  0.43991036460E+01  0.28264773148E+02  0.51100000000E-03 0. -1.
        -11    1    3    3    0    0  0.94549705673E+01 -0.22239830997E+01  0.91994111396E+00  0.97564779081E+01  0.51100000000E-03 0.  1.
        -12    1    3    3    0    0  0.31442609988E+01 -0.91703820324E+00  0.92004257378E+01  0.97660211986E+01  0.00000000000E+00 0.  1.
</event>
<event>
 7    1  0.2783785E-010  0.4778727E+02  0.7816164E-02  0.1312668E+00
        -11   -1    0    0    0    0  0.00000000000E+00  0.00000000000E+00  0.45593999997E+02  0.45594000000E+02  0.51100000000E-03 0.  1.
         11   -1    0    0    0    0 -0.00000000000E+00 -0.00000000000E+00 -0.45593999997E+02  0.45594000000E+02  0.51100000000E-03 0. -1.
    9900012    2    1    2    0    0 -0.32226886795E+02  0.26708728555E+02 -0.11475835948E+02  0.47787271616E+02  0.20000002606E+02 0.  0.
        -12    1    1    2    0    0  0.32226886795E+02 -0.26708728555E+02  0.11475835948E+02  0.43400728384E+02  0.00000000000E+00 0.  1.
         11    1    3    3    0    0 -0.33328166130E+01  0.21985511457E+01 -0.24774169407E+01  0.46988177955E+01  0.51100000000E-03 0. -1.
        -11    1    3    3    0    0 -0.13424281139E+02  0.22252017957E+02 -0.23302007680E+01  0.26092019146E+02  0.51100000000E-03 0.  1.
        -12    1    3    3    0    0 -0.15469789043E+02  0.22581594530E+01 -0.66682182393E+01  0.16996434674E+02  0.00000000000E+00 0.  1.
</event>
<event>
 7    1  0.2783785E-010  0.4778727E+02  0.7816164E-02  0.1312668E+00
        -11   -1    0    0    0    0  0.00000000000E+00  0.00000000000E+00  0.45593999997E+02  0.45594000000E+02  0.51100000000E-03 0. -1.
         11   -1    0    0    0    0 -0.00000000000E+00 -0.00000000000E+00 -0.45593999997E+02  0.45594000000E+02  0.51100000000E-03 0.  1.
    9900012    2    1    2    0    0  0.42865095541E+00  0.98222934650E+01  0.42272474842E+02  0.47787270515E+02  0.19999997586E+02 0.  0.
        -12    1    1    2    0    0 -0.42865095541E+00 -0.98222934650E+01 -0.42272474842E+02  0.43400729485E+02  0.00000000000E+00 0.  1.
         11    1    3    3    0    0  0.30777054043E+01  0.45613790327E+01  0.15903044287E+02  0.16828109433E+02  0.51100000000E-03 0. -1.
        -11    1    3    3    0    0 -0.35955353851E+01 -0.35104883495E+01  0.27118780963E+01  0.57101388974E+01  0.51100000000E-03 0.  1.
        -12    1    3    3    0    0  0.94648093620E+00  0.87714027818E+01  0.23657552458E+02  0.25249022184E+02  0.00000000000E+00 0.  1.
</event>
<event>
 7    1  0.2783785E-010  0.4778728E+02  0.7816164E-02  0.1312668E+00
        -11   -1    0    0    0    0  0.00000000000E+00  0.00000000000E+00  0.45593999997E+02  0.45594000000E+02  0.51100000000E-03 0. -1.
         11   -1    0    0    0    0 -0.00000000000E+00 -0.00000000000E+00 -0.45593999997E+02  0.45594000000E+02  0.51100000000E-03 0.  1.
    9900012    2    1    2    0    0  0.13031708608E+02  0.20546823782E+02  0.35939190416E+02  0.47787276451E+02  0.20000024652E+02 0.  0.
        -12    1    1    2    0    0 -0.13031708608E+02 -0.20546823782E+02 -0.35939190416E+02  0.43400723549E+02  0.00000000000E+00 0.  1.
         11    1    3    3    0    0  0.37408702000E+01  0.15261693335E+02  0.19515080797E+02  0.25054974996E+02  0.51100000000E-03 0. -1.
        -11    1    3    3    0    0 -0.55373255292E-01 -0.47649185165E+00  0.10000132787E+02  0.10011631571E+02  0.51100000000E-03 0.  1.
         12    1    3    3    0    0  0.93462116630E+01  0.57616222987E+01  0.64239768326E+01  0.12720669884E+02  0.00000000000E+00 0. -1.
</event>
<event>
 7    1  0.2783785E-010  0.4778727E+02  0.7816164E-02  0.1312668E+00
        -11   -1    0    0    0    0  0.00000000000E+00  0.00000000000E+00  0.45593999997E+02  0.45594000000E+02  0.51100000000E-03 0.  1.
         11   -1    0    0    0    0 -0.00000000000E+00 -0.00000000000E+00 -0.45593999997E+02  0.45594000000E+02  0.51100000000E-03 0. -1.
    9900012    2    1    2    0    0 -0.12677166737E+02 -0.27019630292E+02 -0.31509557482E+02  0.47787272007E+02  0.20000004388E+02 0.  0.
        -12    1    1    2    0    0  0.12677166737E+02  0.27019630292E+02  0.31509557482E+02  0.43400727993E+02  0.00000000000E+00 0.  1.
         11    1    3    3    0    0 -0.56903363749E+01 -0.47712349174E+01 -0.62514181722E+01  0.97069480333E+01  0.51100000000E-03 0. -1.
        -11    1    3    3    0    0 -0.70272596552E+01 -0.93788971007E+00 -0.49820321394E+01  0.86650250934E+01  0.51100000000E-03 0.  1.
        -12    1    3    3    0    0  0.40429293131E-01 -0.21310505665E+02 -0.20276107170E+02  0.29415298880E+02  0.00000000000E+00 0.  1.
</event>
<event>
 7    1  0.2783785E-010  0.4778727E+02  0.7816164E-02  0.1312668E+00
        -11   -1    0    0    0    0  0.00000000000E+00  0.00000000000E+00  0.45593999997E+02  0.45594000000E+02  0.51100000000E-03 0. -1.
         11   -1    0    0    0    0 -0.00000000000E+00 -0.00000000000E+00 -0.45593999997E+02  0.45594000000E+02  0.51100000000E-03 0.  1.
    9900012    2    1    2    0    0  0.32578694570E+02  0.24617224800E+02 -0.14705233271E+02  0.47787274403E+02  0.20000015313E+02 0.  0.
        -12    1    1    2    0    0 -0.32578694570E+02 -0.24617224800E+02  0.14705233271E+02  0.43400725597E+02  0.00000000000E+00 0.  1.
         11    1    3    3    0    0  0.27683776826E+00 -0.18089091398E+01  0.20577831891E+00  0.18415038430E+01  0.51100000000E-03 0.  1.
        -11    1    3    3    0    0  0.11916750301E+02  0.13886752121E+02 -0.11890762736E+02  0.21822948034E+02  0.51100000000E-03 0. -1.
        -12    1    3    3    0    0  0.20385106501E+02  0.12539381819E+02 -0.30202488545E+01  0.24122822526E+02  0.00000000000E+00 0.  1.
</event>
<event>
 7    1  0.2783785E-010  0.4778727E+02  0.7816164E-02  0.1312668E+00
        -11   -1    0    0    0    0  0.00000000000E+00  0.00000000000E+00  0.45593999997E+02  0.45594000000E+02  0.51100000000E-03 0.  1.
         11   -1    0    0    0    0 -0.00000000000E+00 -0.00000000000E+00 -0.45593999997E+02  0.45594000000E+02  0.51100000000E-03 0. -1.
    9900012    2    1    2    0    0 -0.11732244347E+02 -0.40759189823E+02  0.92014164865E+01  0.47787272151E+02  0.20000005046E+02 0.  0.
        -12    1    1    2    0    0  0.11732244347E+02  0.40759189823E+02 -0.92014164865E+01  0.43400727849E+02  0.00000000000E+00 0.  1.
         11    1    3    3    0    0 -0.42057851370E+01 -0.19835739604E+02 -0.49690126323E+01  0.20876692292E+02  0.51100000000E-03 0. -1.
        -11    1    3    3    0    0 -0.11696898176E+01 -0.10620160469E+02  0.54789201860E+01  0.12007270685E+02  0.51100000000E-03 0.  1.
         12    1    3    3    0    0 -0.63567693919E+01 -0.10303289750E+02  0.86915089328E+01  0.14903309173E+02  0.00000000000E+00 0. -1.
</event>
<event>
 7    1  0.2783785E-010  0.4778723E+02  0.7816164E-02  0.1312668E+00
        -11   -1    0    0    0    0  0.00000000000E+00  0.00000000000E+00  0.45593999997E+02  0.45594000000E+02  0.51100000000E-03 0.  1.
         11   -1    0    0    0    0 -0.00000000000E+00 -0.00000000000E+00 -0.45593999997E+02  0.45594000000E+02  0.51100000000E-03 0. -1.
    9900012    2    1    2    0    0  0.22752379903E+02  0.12692906456E+00 -0.36958628058E+02  0.47787227078E+02  0.19999799540E+02 0.  0.
        -12    1    1    2    0    0 -0.22752379903E+02 -0.12692906456E+00  0.36958628058E+02  0.43400772922E+02  0.00000000000E+00 0.  1.
         11    1    3    3    0    0  0.16505340408E+01  0.45302171091E+01 -0.15735473980E+01  0.50718025741E+01  0.51100000000E-03 0. -1.
        -11    1    3    3    0    0  0.40046760452E+01 -0.52769634043E+01 -0.76216872588E+01  0.10098212215E+02  0.51100000000E-03 0.  1.
         12    1    3    3    0    0  0.17097169817E+02  0.87367535977E+00 -0.27763393402E+02  0.32617212290E+02  0.00000000000E+00 0. -1.
</event>
<event>
 7    1  0.2783785E-010  0.4778727E+02  0.7816164E-02  0.1312668E+00
        -11   -1    0    0    0    0  0.00000000000E+00  0.00000000000E+00  0.45593999997E+02  0.45594000000E+02  0.51100000000E-03 0.  1.
         11   -1    0    0    0    0 -0.00000000000E+00 -0.00000000000E+00 -0.45593999997E+02  0.45594000000E+02  0.51100000000E-03 0. -1.
    9900012    2    1    2    0    0 -0.19964833682E+02  0.31082985084E+02 -0.22778866858E+02  0.47787270502E+02  0.19999997525E+02 0.  0.
        -12    1    1    2    0    0  0.19964833682E+02 -0.31082985084E+02  0.22778866858E+02  0.43400729498E+02  0.00000000000E+00 0.  1.
         11    1    3    3    0    0 -0.20064274694E+02  0.24978716488E+02 -0.11615090480E+02  0.34079637960E+02  0.51100000000E-03 0.  1.
        -11    1    3    3    0    0 -0.24476617412E+01  0.26052807842E+01 -0.42808577568E+01  0.55771210637E+01  0.51100000000E-03 0. -1.
        -12    1    3    3    0    0  0.25471027539E+01  0.34989878123E+01 -0.68829186203E+01  0.81305114773E+01  0.00000000000E+00 0.  1.
</event>
<event>
 7    1  0.2783785E-010  0.4778727E+02  0.7816164E-02  0.1312668E+00
        -11   -1    0    0    0    0  0.00000000000E+00  0.00000000000E+00  0.45593999997E+02  0.45594000000E+02  0.51100000000E-03 0. -1.
         11   -1    0    0    0    0 -0.00000000000E+00 -0.00000000000E+00 -0.45593999997E+02  0.45594000000E+02  0.51100000000E-03 0.  1.
    9900012    2    1    2    0    0 -0.42597918439E+02  0.76510437824E+01  0.32407127489E+01  0.47787270220E+02  0.19999996240E+02 0.  0.
        -12    1    1    2    0    0  0.42597918439E+02 -0.76510437824E+01 -0.32407127489E+01  0.43400729780E+02  0.00000000000E+00 0.  1.
         11    1    3    3    0    0 -0.17977750450E+02 -0.22419870781E+01 -0.20418849519E+01  0.18231711705E+02  0.51100000000E-03 0. -1.
        -11    1    3    3    0    0  0.12714251254E+01  0.68070441780E+00  0.96885431469E+00  0.17374001548E+01  0.51100000000E-03 0.  1.
         12    1    3    3    0    0 -0.25891593115E+02  0.92123264427E+01  0.43137433861E+01  0.27818158360E+02  0.00000000000E+00 0. -1.
</event>
<event>
 7    1  0.2783785E-010  0.4778727E+02  0.7816164E-02  0.1312668E+00
        -11   -1    0    0    0    0  0.00000000000E+00  0.00000000000E+00  0.45593999997E+02  0.45594000000E+02  0.51100000000E-03 0.  1.
         11   -1    0    0    0    0 -0.00000000000E+00 -0.00000000000E+00 -0.45593999997E+02  0.45594000000E+02  0.51100000000E-03 0. -1.
    9900012    2    1    2    0    0  0.34688726817E+02 -0.22220568517E+02 -0.13658766724E+02  0.47787270261E+02  0.19999996430E+02 0.  0.
        -12    1    1    2    0    0 -0.34688726817E+02  0.22220568517E+02  0.13658766724E+02  0.43400729739E+02  0.00000000000E+00 0.  1.
         11    1    3    3    0    0  0.28703688462E+02 -0.21022456820E+02 -0.14668077405E+02  0.38483735748E+02  0.51100000000E-03 0. -1.
        -11    1    3    3    0    0 -0.66477500818E+00 -0.58072930872E+00 -0.18414838008E+01  0.20421153717E+01  0.51100000000E-03 0.  1.
        -12    1    3    3    0    0  0.66498133627E+01 -0.61738238872E+00  0.28507944821E+01  0.72614191417E+01  0.00000000000E+00 0.  1.
</event>
<event>
 7    1  0.2783785E-010  0.4778727E+02  0.7816164E-02  0.1312668E+00
        -11   -1    0    0    0    0  0.00000000000E+00  0.00000000000E+00  0.45593999997E+02  0.45594000000E+02  0.51100000000E-03 0.  1.
         11   -1    0    0    0    0 -0.00000000000E+00 -0.00000000000E+00 -0.45593999997E+02  0.45594000000E+02  0.51100000000E-03 0. -1.
    9900012    2    1    2    0    0  0.34105470587E+02  0.20157315181E+02  0.17723508377E+02  0.47787271568E+02  0.20000002386E+02 0.  0.
        -12    1    1    2    0    0 -0.34105470587E+02 -0.20157315181E+02 -0.17723508377E+02  0.43400728432E+02  0.00000000000E+00 0.  1.
         11    1    3    3    0    0  0.34573626167E+01 -0.11608633503E+01  0.42917208555E+01  0.56320358792E+01  0.51100000000E-03 0. -1.
        -11    1    3    3    0    0  0.63429199590E+01  0.74694905090E+01 -0.22941106624E+01  0.10064236984E+02  0.51100000000E-03 0.  1.
         12    1    3    3    0    0  0.24305188011E+02  0.13848688022E+02  0.15725898184E+02  0.32090998705E+02  0.00000000000E+00 0. -1.
</event>
<event>
 7    1  0.2783785E-010  0.4778727E+02  0.7816164E-02  0.1312668E+00
        -11   -1    0    0    0    0  0.00000000000E+00  0.00000000000E+00  0.45593999997E+02  0.45594000000E+02  0.51100000000E-03 0.  1.
         11   -1    0    0    0    0 -0.00000000000E+00 -0.00000000000E+00 -0.45593999997E+02  0.45594000000E+02  0.51100000000E-03 0. -1.
    9900012    2    1    2    0    0 -0.30447360436E+02  0.30739188555E+02  0.34181329584E+01  0.47787273007E+02  0.20000008950E+02 0.  0.
        -12    1    1    2    0    0  0.30447360436E+02 -0.30739188555E+02 -0.34181329584E+01  0.43400726993E+02  0.00000000000E+00 0.  1.
         11    1    3    3    0    0 -0.11083068668E+02  0.17347924297E+02 -0.22488312751E+01  0.20708503830E+02  0.51100000000E-03 0. -1.
        -11    1    3    3    0    0 -0.63056764933E+01  0.11289799198E+02  0.70019156853E+00  0.12950343257E+02  0.51100000000E-03 0.  1.
        -12    1    3    3    0    0 -0.13058615275E+02  0.21014650604E+01  0.49667726650E+01  0.14128425921E+02  0.00000000000E+00 0.  1.
</event>
<event>
 7    1  0.2783785E-010  0.4778727E+02  0.7816164E-02  0.1312668E+00
        -11   -1    0    0    0    0  0.00000000000E+00  0.00000000000E+00  0.45593999997E+02  0.45594000000E+02  0.51100000000E-03 0. -1.
         11   -1    0    0    0    0 -0.00000000000E+00 -0.00000000000E+00 -0.45593999997E+02  0.45594000000E+02  0.51100000000E-03 0.  1.
    9900012    2    1    2    0    0  0.29940369864E+01  0.37674712315E+02  0.21337176155E+02  0.47787270838E+02  0.19999999061E+02 0.  0.
        -12    1    1    2    0    0 -0.29940369864E+01 -0.37674712315E+02 -0.21337176155E+02  0.43400729162E+02  0.00000000000E+00 0.  1.
         11    1    3    3    0    0 -0.12451003780E+01  0.31273325929E+01  0.41268641846E+01  0.53255508971E+01  0.51100000000E-03 0. -1.
        -11    1    3    3    0    0  0.10315491380E-01  0.27696544157E+01  0.89329708965E+01  0.93524895772E+01  0.51100000000E-03 0.  1.
         12    1    3    3    0    0  0.42288218730E+01  0.31777725306E+02  0.82773410744E+01  0.33109230364E+02  0.00000000000E+00 0. -1.
</event>
<event>
 7    1  0.2783785E-010  0.4778725E+02  0.7816164E-02  0.1312668E+00
        -11   -1    0    0    0    0  0.00000000000E+00  0.00000000000E+00  0.45593999997E+02  0.45594000000E+02  0.51100000000E-03 0.  1.
         11   -1    0    0    0    0 -0.00000000000E+00 -0.00000000000E+00 -0.45593999997E+02  0.45594000000E+02  0.51100000000E-03 0. -1.
    9900012    2    1    2    0    0  0.30280092637E+02 -0.25624923243E+01 -0.30986690674E+02  0.47787246827E+02  0.19999889583E+02 0.  0.
        -12    1    1    2    0    0 -0.30280092637E+02  0.25624923243E+01  0.30986690674E+02  0.43400753173E+02  0.00000000000E+00 0.  1.
         11    1    3    3    0    0  0.46694909059E+01  0.76882932613E+00 -0.12006005285E+02  0.12905014801E+02  0.51100000000E-03 0. -1.
        -11    1    3    3    0    0  0.13806034522E+02  0.17285281745E+01 -0.27469710710E+01  0.14182392224E+02  0.51100000000E-03 0.  1.
        -12    1    3    3    0    0  0.11804567210E+02 -0.50598498250E+01 -0.16233714319E+02  0.20699839802E+02  0.00000000000E+00 0.  1.
</event>
<event>
 7    1  0.2783785E-010  0.4778727E+02  0.7816164E-02  0.1312668E+00
        -11   -1    0    0    0    0  0.00000000000E+00  0.00000000000E+00  0.45593999997E+02  0.45594000000E+02  0.51100000000E-03 0. -1.
         11   -1    0    0    0    0 -0.00000000000E+00 -0.00000000000E+00 -0.45593999997E+02  0.45594000000E+02  0.51100000000E-03 0.  1.
    9900012    2    1    2    0    0 -0.43589998092E+01 -0.40121981874E+02  0.15963991908E+02  0.47787270208E+02  0.19999996188E+02 0.  0.
        -12    1    1    2    0    0  0.43589998092E+01  0.40121981874E+02 -0.15963991908E+02  0.43400729792E+02  0.00000000000E+00 0.  1.
         11    1    3    3    0    0 -0.70569225183E+01 -0.10425918486E+02  0.74011095416E+01  0.14603984197E+02  0.51100000000E-03 0. -1.
        -11    1    3    3    0    0  0.38815902631E+01 -0.42885568255E+01 -0.12554154531E+01  0.59189974520E+01  0.51100000000E-03 0.  1.
         12    1    3    3    0    0 -0.11836675540E+01 -0.25407506562E+02  0.98182978194E+01  0.27264288560E+02  0.00000000000E+00 0. -1.
</event>
<event>
 7    1  0.2783785E-010  0.4778727E+02  0.7816164E-02  0.1312668E+00
        -11   -1    0    0    0    0  0.00000000000E+00  0.00000000000E+00  0.45593999997E+02  0.45594000000E+02  0.51100000000E-03 0. -1.
         11   -1    0    0    0    0 -0.00000000000E+00 -0.00000000000E+00 -0.45593999997E+02  0.45594000000E+02  0.51100000000E-03 0.  1.
    9900012    2    1    2    0    0 -0.32324620156E+01 -0.30038450368E+02  0.31158719729E+02  0.47787272744E+02  0.20000007751E+02 0.  0.
        -12    1    1    2    0    0  0.32324620156E+01  0.30038450368E+02 -0.31158719729E+02  0.43400727256E+02  0.00000000000E+00 0.  1.
         11    1    3    3    0    0 -0.88761007230E+01 -0.67674861778E+01  0.97181098750E+01  0.14799516648E+02  0.51100000000E-03 0. -1.
        -11    1    3    3    0    0 -0.75399248544E+00  0.61336535290E-01  0.17445030202E+00  0.77633756038E+00  0.51100000000E-03 0.  1.
         12    1    3    3    0    0  0.63976311928E+01 -0.23332300725E+02  0.21266159552E+02  0.32211418536E+02  0.00000000000E+00 0. -1.
</event>
<event>
 7    1  0.2783785E-010  0.4778726E+02  0.7816164E-02  0.1312668E+00
        -11   -1    0    0    0    0  0.00000000000E+00  0.00000000000E+00  0.45593999997E+02  0.45594000000E+02  0.51100000000E-03 0.  1.
         11   -1    0    0    0    0 -0.00000000000E+00 -0.00000000000E+00 -0.45593999997E+02  0.45594000000E+02  0.51100000000E-03 0. -1.
    9900012    2    1    2    0    0  0.34639034874E+02  0.21414755671E+02 -0.15005665100E+02  0.47787257120E+02  0.19999936512E+02 0.  0.
        -12    1    1    2    0    0 -0.34639034874E+02 -0.21414755671E+02  0.15005665100E+02  0.43400742880E+02  0.00000000000E+00 0.  1.
         11    1    3    3    0    0  0.13464172254E+02  0.53302786543E+01 -0.10058268155E+02  0.17631351722E+02  0.51100000000E-03 0.  1.
        -11    1    3    3    0    0  0.17139727570E+02  0.60440103659E+01 -0.63343657958E+01  0.19246415582E+02  0.51100000000E-03 0. -1.
        -12    1    3    3    0    0  0.40351350502E+01  0.10040466650E+02  0.13869688508E+01  0.10909489815E+02  0.00000000000E+00 0.  1.
</event>
<event>
 7    1  0.2783785E-010  0.4778727E+02  0.7816164E-02  0.1312668E+00
        -11   -1    0    0    0    0  0.00000000000E+00  0.00000000000E+00  0.45593999997E+02  0.45594000000E+02  0.51100000000E-03 0. -1.
         11   -1    0    0    0    0 -0.00000000000E+00 -0.00000000000E+00 -0.45593999997E+02  0.45594000000E+02  0.51100000000E-03 0.  1.
    9900012    2    1    2    0    0  0.10018463125E+02  0.66557693333E+01  0.41700774780E+02  0.47787268600E+02  0.19999988853E+02 0.  0.
        -12    1    1    2    0    0 -0.10018463125E+02 -0.66557693333E+01 -0.41700774780E+02  0.43400731400E+02  0.00000000000E+00 0.  1.
         11    1    3    3    0    0  0.58912083239E+01  0.11943691610E+02  0.27310245059E+02  0.30384331328E+02  0.51100000000E-03 0. -1.
        -11    1    3    3    0    0  0.24624840416E+01 -0.26921311942E+00  0.48253508378E+00  0.25237162532E+01  0.51100000000E-03 0.  1.
         12    1    3    3    0    0  0.16647707597E+01 -0.50187091570E+01  0.13907994637E+02  0.14879221019E+02  0.00000000000E+00 0. -1.
</event>
<event>
 7    1  0.2783785E-010  0.4778727E+02  0.7816164E-02  0.1312668E+00
        -11   -1    0    0    0    0  0.00000000000E+00  0.00000000000E+00  0.45593999997E+02  0.45594000000E+02  0.51100000000E-03 0.  1.
         11   -1    0    0    0    0 -0.00000000000E+00 -0.00000000000E+00 -0.45593999997E+02  0.45594000000E+02  0.51100000000E-03 0. -1.
    9900012    2    1    2    0    0 -0.71243657857E+01  0.30406963111E+02 -0.30137736227E+02  0.47787272606E+02  0.20000007119E+02 0.  0.
        -12    1    1    2    0    0  0.71243657857E+01 -0.30406963111E+02  0.30137736227E+02  0.43400727394E+02  0.00000000000E+00 0.  1.
         11    1    3    3    0    0 -0.71345337034E+01  0.96937643113E+01 -0.15554275986E+02  0.19667387711E+02  0.51100000000E-03 0. -1.
        -11    1    3    3    0    0 -0.90669596606E+00 -0.14111650665E+01 -0.21423818221E+01  0.27208977475E+01  0.51100000000E-03 0.  1.
         12    1    3    3    0    0  0.91686388383E+00  0.22124363866E+02 -0.12441078419E+02  0.25398987147E+02  0.00000000000E+00 0. -1.
</event>
<event>
 7    1  0.2783785E-010  0.4778727E+02  0.7816164E-02  0.1312668E+00
        -11   -1    0    0    0    0  0.00000000000E+00  0.00000000000E+00  0.45593999997E+02  0.45594000000E+02  0.51100000000E-03 0.  1.
         11   -1    0    0    0    0 -0.00000000000E+00 -0.00000000000E+00 -0.45593999997E+02  0.45594000000E+02  0.51100000000E-03 0. -1.
    9900012    2    1    2    0    0 -0.11225567306E+02  0.18135161031E+02 -0.37798488838E+02  0.47787272064E+02  0.20000004648E+02 0.  0.
        -12    1    1    2    0    0  0.11225567306E+02 -0.18135161031E+02  0.37798488838E+02  0.43400727936E+02  0.00000000000E+00 0.  1.
         11    1    3    3    0    0 -0.33199568400E+01  0.46824031632E+01 -0.19070576153E+02  0.19915669406E+02  0.51100000000E-03 0. -1.
        -11    1    3    3    0    0 -0.83878577019E+01  0.15579563125E+01 -0.59110709020E+01  0.10379024240E+02  0.51100000000E-03 0.  1.
         12    1    3    3    0    0  0.48224723621E+00  0.11894801555E+02 -0.12816841783E+02  0.17492578418E+02  0.00000000000E+00 0. -1.
</event>
<event>
 7    1  0.2783785E-010  0.4778727E+02  0.7816164E-02  0.1312668E+00
        -11   -1    0    0    0    0  0.00000000000E+00  0.00000000000E+00  0.45593999997E+02  0.45594000000E+02  0.51100000000E-03 0. -1.
         11   -1    0    0    0    0 -0.00000000000E+00 -0.00000000000E+00 -0.45593999997E+02  0.45594000000E+02  0.51100000000E-03 0.  1.
    9900012    2    1    2    0    0  0.22599918110E+02  0.36937193438E+02 -0.29172938309E+01  0.47787272345E+02  0.20000005931E+02 0.  0.
        -12    1    1    2    0    0 -0.22599918110E+02 -0.36937193438E+02  0.29172938309E+01  0.43400727655E+02  0.00000000000E+00 0.  1.
         11    1    3    3    0    0 -0.82369267066E+00  0.78621745001E+01  0.81740760677E-01  0.79056270655E+01  0.51100000000E-03 0. -1.
        -11    1    3    3    0    0  0.56909258662E+01  0.15659746975E+02 -0.54046075729E+01  0.17516395058E+02  0.51100000000E-03 0.  1.
         12    1    3    3    0    0  0.17732684915E+02  0.13415271963E+02  0.24055729813E+01  0.22365250222E+02  0.00000000000E+00 0. -1.
</event>
<event>
 7    1  0.2783785E-010  0.4778726E+02  0.7816164E-02  0.1312668E+00
        -11   -1    0    0    0    0  0.00000000000E+00  0.00000000000E+00  0.45593999997E+02  0.45594000000E+02  0.51100000000E-03 0.  1.
         11   -1    0    0    0    0 -0.00000000000E+00 -0.00000000000E+00 -0.45593999997E+02  0.45594000000E+02  0.51100000000E-03 0. -1.
    9900012    2    1    2    0    0 -0.11861095709E+01 -0.10558829137E+02 -0.42080024205E+02  0.47787260770E+02  0.19999953153E+02 0.  0.
        -12    1    1    2    0    0  0.11861095709E+01  0.10558829137E+02  0.42080024205E+02  0.43400739230E+02  0.00000000000E+00 0.  1.
         11    1    3    3    0    0 -0.64557749342E+00 -0.54588840633E+01 -0.28014852284E+02  0.28549047870E+02  0.51100000000E-03 0. -1.
        -11    1    3    3    0    0 -0.23743507709E+01 -0.83415211987E+01 -0.66102981380E+01  0.10904795240E+02  0.51100000000E-03 0.  1.
         12    1    3    3    0    0  0.18338186934E+01  0.32415761252E+01 -0.74548737826E+01  0.83334176597E+01  0.00000000000E+00 0. -1.
</event>
<event>
 7    1  0.2783785E-010  0.4778729E+02  0.7816164E-02  0.1312668E+00
        -11   -1    0    0    0    0  0.00000000000E+00  0.00000000000E+00  0.45593999997E+02  0.45594000000E+02  0.51100000000E-03 0.  1.
         11   -1    0    0    0    0 -0.00000000000E+00 -0.00000000000E+00 -0.45593999997E+02  0.45594000000E+02  0.51100000000E-03 0. -1.
    9900012    2    1    2    0    0  0.13738411951E+02 -0.13282693188E+02 -0.38967266222E+02  0.47787288738E+02  0.20000080672E+02 0.  0.
        -12    1    1    2    0    0 -0.13738411951E+02  0.13282693188E+02  0.38967266222E+02  0.43400711262E+02  0.00000000000E+00 0.  1.
         11    1    3    3    0    0  0.13494977680E+01 -0.32431460293E+01 -0.99162817113E+01  0.10520065762E+02  0.51100000000E-03 0. -1.
        -11    1    3    3    0    0 -0.28590630871E+01  0.21089049860E+01 -0.68841316008E+01  0.77468051566E+01  0.51100000000E-03 0.  1.
         12    1    3    3    0    0  0.15247977270E+02 -0.12148452144E+02 -0.22166852910E+02  0.29520417820E+02  0.00000000000E+00 0. -1.
</event>
<event>
 7    1  0.3165881E-010  0.4778727E+02  0.7816164E-02  0.1312668E+00
        -11   -1    0    0    0    0  0.00000000000E+00  0.00000000000E+00  0.45593999997E+02  0.45594000000E+02  0.51100000000E-03 0. -1.
         11   -1    0    0    0    0 -0.00000000000E+00 -0.00000000000E+00 -0.45593999997E+02  0.45594000000E+02  0.51100000000E-03 0.  1.
    9900012    2    1    2    0    0 -0.13607372372E+02 -0.86286579974E+01  0.40298995454E+02  0.47787270095E+02  0.19999995671E+02 0.  0.
        -12    1    1    2    0    0  0.13607372372E+02  0.86286579974E+01 -0.40298995454E+02  0.43400729905E+02  0.00000000000E+00 0.  1.
         11    1    3    3    0    0 -0.13160374432E+02 -0.24030621545E+01  0.25620868141E+02  0.28903270533E+02  0.51100000000E-03 0. -1.
        -11    1    3    3    0    0 -0.20058100263E+01 -0.11164091430E+01 -0.86150267008E+00  0.24519034133E+01  0.51100000000E-03 0.  1.
         12    1    3    3    0    0  0.15588120864E+01 -0.51091866999E+01  0.15539629982E+02  0.16432096149E+02  0.00000000000E+00 0. -1.
</event>
<event>
 7    1  0.2783785E-010  0.4778727E+02  0.7816164E-02  0.1312668E+00
        -11   -1    0    0    0    0  0.00000000000E+00  0.00000000000E+00  0.45593999997E+02  0.45594000000E+02  0.51100000000E-03 0.  1.
         11   -1    0    0    0    0 -0.00000000000E+00 -0.00000000000E+00 -0.45593999997E+02  0.45594000000E+02  0.51100000000E-03 0. -1.
    9900012    2    1    2    0    0  0.63588092079E+01  0.29865989732E+02 -0.30841711041E+02  0.47787274924E+02  0.20000017688E+02 0.  0.
        -12    1    1    2    0    0 -0.63588092079E+01 -0.29865989732E+02  0.30841711041E+02  0.43400725076E+02  0.00000000000E+00 0.  1.
         11    1    3    3    0    0  0.41275808890E+01  0.17462035526E+02 -0.16055542391E+02  0.24077791644E+02  0.51100000000E-03 0. -1.
        -11    1    3    3    0    0 -0.31241599029E+01  0.82060221924E+01 -0.16767823139E+01  0.89392826619E+01  0.51100000000E-03 0.  1.
        -12    1    3    3    0    0  0.53553882217E+01  0.41979320132E+01 -0.13109386336E+02  0.14770200618E+02  0.00000000000E+00 0.  1.
</event>
<event>
 7    1  0.2783785E-010  0.4778727E+02  0.7816164E-02  0.1312668E+00
        -11   -1    0    0    0    0  0.00000000000E+00  0.00000000000E+00  0.45593999997E+02  0.45594000000E+02  0.51100000000E-03 0.  1.
         11   -1    0    0    0    0 -0.00000000000E+00 -0.00000000000E+00 -0.45593999997E+02  0.45594000000E+02  0.51100000000E-03 0. -1.
    9900012    2    1    2    0    0  0.25966822137E+01  0.31347746247E+02 -0.29903168055E+02  0.47787269441E+02  0.19999992691E+02 0.  0.
        -12    1    1    2    0    0 -0.25966822137E+01 -0.31347746247E+02  0.29903168055E+02  0.43400730559E+02  0.00000000000E+00 0.  1.
         11    1    3    3    0    0  0.24741214866E+01  0.22925565208E+02 -0.20185051709E+02  0.30645376976E+02  0.51100000000E-03 0. -1.
        -11    1    3    3    0    0  0.41531009332E+01  0.83053745529E+01 -0.92084488197E+01  0.13077577136E+02  0.51100000000E-03 0.  1.
        -12    1    3    3    0    0 -0.40305402061E+01  0.11680648639E+00 -0.50966752552E+00  0.40643153291E+01  0.00000000000E+00 0.  1.
</event>
<event>
 7    1  0.2783785E-010  0.4778728E+02  0.7816164E-02  0.1312668E+00
        -11   -1    0    0    0    0  0.00000000000E+00  0.00000000000E+00  0.45593999997E+02  0.45594000000E+02  0.51100000000E-03 0.  1.
         11   -1    0    0    0    0 -0.00000000000E+00 -0.00000000000E+00 -0.45593999997E+02  0.45594000000E+02  0.51100000000E-03 0. -1.
    9900012    2    1    2    0    0 -0.11246838228E+02  0.60737318030E+00 -0.41913752218E+02  0.47787275383E+02  0.20000019782E+02 0.  0.
        -12    1    1    2    0    0  0.11246838228E+02 -0.60737318030E+00  0.41913752218E+02  0.43400724617E+02  0.00000000000E+00 0.  1.
         11    1    3    3    0    0 -0.31356172081E+01 -0.58911584748E+01 -0.83590821070E+01  0.10696359071E+02  0.51100000000E-03 0. -1.
        -11    1    3    3    0    0  0.27022519440E+01  0.24957152583E+01 -0.13137930977E+02  0.13643166452E+02  0.51100000000E-03 0.  1.
         12    1    3    3    0    0 -0.10813472963E+02  0.40028163969E+01 -0.20416739134E+02  0.23447749860E+02  0.00000000000E+00 0. -1.
</event>
<event>
 7    1  0.2783785E-010  0.4778727E+02  0.7816164E-02  0.1312668E+00
        -11   -1    0    0    0    0  0.00000000000E+00  0.00000000000E+00  0.45593999997E+02  0.45594000000E+02  0.51100000000E-03 0.  1.
         11   -1    0    0    0    0 -0.00000000000E+00 -0.00000000000E+00 -0.45593999997E+02  0.45594000000E+02  0.51100000000E-03 0. -1.
    9900012    2    1    2    0    0 -0.93235131385E+01  0.31006322644E+02 -0.28901618835E+02  0.47787268296E+02  0.19999987468E+02 0.  0.
        -12    1    1    2    0    0  0.93235131385E+01 -0.31006322644E+02  0.28901618835E+02  0.43400731704E+02  0.00000000000E+00 0.  1.
         11    1    3    3    0    0 -0.47917610385E+01  0.21344465784E+02 -0.11352240694E+02  0.24645903564E+02  0.51100000000E-03 0. -1.
        -11    1    3    3    0    0 -0.16713491939E+01 -0.38642835339E+00  0.90154023883E+00  0.19379138432E+01  0.51100000000E-03 0.  1.
        -12    1    3    3    0    0 -0.28604029061E+01  0.10048285214E+02 -0.18450918380E+02  0.21203450888E+02  0.00000000000E+00 0.  1.
</event>
<event>
 7    1  0.2783785E-010  0.4778727E+02  0.7816164E-02  0.1312668E+00
        -11   -1    0    0    0    0  0.00000000000E+00  0.00000000000E+00  0.45593999997E+02  0.45594000000E+02  0.51100000000E-03 0.  1.
         11   -1    0    0    0    0 -0.00000000000E+00 -0.00000000000E+00 -0.45593999997E+02  0.45594000000E+02  0.51100000000E-03 0. -1.
    9900012    2    1    2    0    0  0.32366980608E+02 -0.47608714021E+00  0.28909773444E+02  0.47787273126E+02  0.20000009491E+02 0.  0.
        -12    1    1    2    0    0 -0.32366980608E+02  0.47608714021E+00 -0.28909773444E+02  0.43400726874E+02  0.00000000000E+00 0.  1.
         11    1    3    3    0    0  0.16187268503E+02  0.28323469964E+01  0.62047347776E+01  0.17565551088E+02  0.51100000000E-03 0. -1.
        -11    1    3    3    0    0 -0.47372189595E+00 -0.58341792036E+00 -0.92060470629E+00  0.11884032106E+01  0.51100000000E-03 0.  1.
         12    1    3    3    0    0  0.16653434001E+02 -0.27250162163E+01  0.23625643372E+02  0.29033318828E+02  0.00000000000E+00 0. -1.
</event>
<event>
 7    1  0.2783785E-010  0.4778727E+02  0.7816164E-02  0.1312668E+00
        -11   -1    0    0    0    0  0.00000000000E+00  0.00000000000E+00  0.45593999997E+02  0.45594000000E+02  0.51100000000E-03 0.  1.
         11   -1    0    0    0    0 -0.00000000000E+00 -0.00000000000E+00 -0.45593999997E+02  0.45594000000E+02  0.51100000000E-03 0. -1.
    9900012    2    1    2    0    0  0.44239596235E+01 -0.15412421003E+02 -0.40330006281E+02  0.47787267903E+02  0.19999985677E+02 0.  0.
        -12    1    1    2    0    0 -0.44239596235E+01  0.15412421003E+02  0.40330006281E+02  0.43400732097E+02  0.00000000000E+00 0.  1.
         11    1    3    3    0    0  0.24076258892E+01  0.13847521773E+01 -0.99402480348E+01  0.10320985044E+02  0.51100000000E-03 0. -1.
        -11    1    3    3    0    0  0.49990074473E+01 -0.71211275607E+01 -0.47791829451E+01  0.99267881552E+01  0.51100000000E-03 0.  1.
         12    1    3    3    0    0 -0.29826737129E+01 -0.96760456200E+01 -0.25610575301E+02  0.27539494704E+02  0.00000000000E+00 0. -1.
</event>
<event>
 7    1  0.2783785E-010  0.4778727E+02  0.7816164E-02  0.1312668E+00
        -11   -1    0    0    0    0  0.00000000000E+00  0.00000000000E+00  0.45593999997E+02  0.45594000000E+02  0.51100000000E-03 0.  1.
         11   -1    0    0    0    0 -0.00000000000E+00 -0.00000000000E+00 -0.45593999997E+02  0.45594000000E+02  0.51100000000E-03 0. -1.
    9900012    2    1    2    0    0 -0.39723030750E+02 -0.17484343337E+02  0.45010369500E-01  0.47787268902E+02  0.19999990232E+02 0.  0.
        -12    1    1    2    0    0  0.39723030750E+02  0.17484343337E+02 -0.45010369500E-01  0.43400731098E+02  0.00000000000E+00 0.  1.
         11    1    3    3    0    0  0.13364460578E+01 -0.15099644324E+00 -0.21137425524E+01  0.25053534342E+01  0.51100000000E-03 0. -1.
        -11    1    3    3    0    0 -0.24985992019E+02 -0.77410911267E+01 -0.15355275209E+01  0.26202712342E+02  0.51100000000E-03 0.  1.
        -12    1    3    3    0    0 -0.16073484788E+02 -0.95922557673E+01  0.36942804427E+01  0.19079203126E+02  0.00000000000E+00 0.  1.
</event>
<event>
 7    1  0.2783785E-010  0.4778727E+02  0.7816164E-02  0.1312668E+00
        -11   -1    0    0    0    0  0.00000000000E+00  0.00000000000E+00  0.45593999997E+02  0.45594000000E+02  0.51100000000E-03 0.  1.
         11   -1    0    0    0    0 -0.00000000000E+00 -0.00000000000E+00 -0.45593999997E+02  0.45594000000E+02  0.51100000000E-03 0. -1.
    9900012    2    1    2    0    0 -0.14600943359E+01  0.42788016933E+02  0.71187854333E+01  0.47787269885E+02  0.19999994712E+02 0.  0.
        -12    1    1    2    0    0  0.14600943359E+01 -0.42788016933E+02 -0.71187854333E+01  0.43400730115E+02  0.00000000000E+00 0.  1.
         11    1    3    3    0    0 -0.73642643662E+01  0.19017471536E+02  0.71696270644E+01  0.21617126677E+02  0.51100000000E-03 0. -1.
        -11    1    3    3    0    0  0.57669090363E+00  0.19829353324E+01  0.28864820304E+01  0.35491384453E+01  0.51100000000E-03 0.  1.
        -12    1    3    3    0    0  0.53274791266E+01  0.21787610065E+02 -0.29373236615E+01  0.22621004762E+02  0.00000000000E+00 0.  1.
</event>
<event>
 7    1  0.2783785E-010  0.4778727E+02  0.7816164E-02  0.1312668E+00
        -11   -1    0    0    0    0  0.00000000000E+00  0.00000000000E+00  0.45593999997E+02  0.45594000000E+02  0.51100000000E-03 0.  1.
         11   -1    0    0    0    0 -0.00000000000E+00 -0.00000000000E+00 -0.45593999997E+02  0.45594000000E+02  0.51100000000E-03 0. -1.
    9900012    2    1    2    0    0  0.13023783208E+02 -0.24467460325E+02 -0.33396825161E+02  0.47787268731E+02  0.19999989453E+02 0.  0.
        -12    1    1    2    0    0 -0.13023783208E+02  0.24467460325E+02  0.33396825161E+02  0.43400731269E+02  0.00000000000E+00 0.  1.
         11    1    3    3    0    0  0.17004815488E+01 -0.23435857880E+01 -0.12124867997E+02  0.12465811487E+02  0.51100000000E-03 0. -1.
        -11    1    3    3    0    0  0.13318175009E+02 -0.12166225140E+02 -0.13338783610E+02  0.22434659975E+02  0.51100000000E-03 0.  1.
         12    1    3    3    0    0 -0.19948733505E+01 -0.99576493967E+01 -0.79331735553E+01  0.12886797269E+02  0.00000000000E+00 0. -1.
</event>
<event>
 7    1  0.2783785E-010  0.4778727E+02  0.7816164E-02  0.1312668E+00
        -11   -1    0    0    0    0  0.00000000000E+00  0.00000000000E+00  0.45593999997E+02  0.45594000000E+02  0.51100000000E-03 0.  1.
         11   -1    0    0    0    0 -0.00000000000E+00 -0.00000000000E+00 -0.45593999997E+02  0.45594000000E+02  0.51100000000E-03 0. -1.
    9900012    2    1    2    0    0 -0.37873739269E+02 -0.10331877875E+02 -0.18505544501E+02  0.47787274155E+02  0.20000014180E+02 0.  0.
        -12    1    1    2    0    0  0.37873739269E+02  0.10331877875E+02  0.18505544501E+02  0.43400725845E+02  0.00000000000E+00 0.  1.
         11    1    3    3    0    0 -0.21386308898E+02 -0.94670475516E+01 -0.18728253913E+02  0.29962421340E+02  0.51100000000E-03 0. -1.
        -11    1    3    3    0    0 -0.94402662448E+01  0.15886559818E+01 -0.24789957499E+01  0.98887751916E+01  0.51100000000E-03 0.  1.
        -12    1    3    3    0    0 -0.70471641254E+01 -0.24534863053E+01  0.27017051617E+01  0.79360776232E+01  0.00000000000E+00 0.  1.
</event>
<event>
 7    1  0.2783785E-010  0.4778728E+02  0.7816164E-02  0.1312668E+00
        -11   -1    0    0    0    0  0.00000000000E+00  0.00000000000E+00  0.45593999997E+02  0.45594000000E+02  0.51100000000E-03 0.  1.
         11   -1    0    0    0    0 -0.00000000000E+00 -0.00000000000E+00 -0.45593999997E+02  0.45594000000E+02  0.51100000000E-03 0. -1.
    9900012    2    1    2    0    0  0.18872241160E+01  0.28038006196E+02 -0.33074631843E+02  0.47787277911E+02  0.20000031306E+02 0.  0.
        -12    1    1    2    0    0 -0.18872241160E+01 -0.28038006196E+02  0.33074631843E+02  0.43400722089E+02  0.00000000000E+00 0.  1.
         11    1    3    3    0    0  0.67143818539E+01  0.76622532511E+01 -0.46180377083E+01  0.11185674817E+02  0.51100000000E-03 0.  1.
        -11    1    3    3    0    0  0.39513864450E+00  0.15743610836E+02 -0.16900262527E+02  0.23100569050E+02  0.51100000000E-03 0. -1.
        -12    1    3    3    0    0 -0.52222963824E+01  0.46321421084E+01 -0.11556331608E+02  0.13501034044E+02  0.00000000000E+00 0.  1.
</event>
<event>
 7    1  0.2783785E-010  0.4778727E+02  0.7816164E-02  0.1312668E+00
        -11   -1    0    0    0    0  0.00000000000E+00  0.00000000000E+00  0.45593999997E+02  0.45594000000E+02  0.51100000000E-03 0.  1.
         11   -1    0    0    0    0 -0.00000000000E+00 -0.00000000000E+00 -0.45593999997E+02  0.45594000000E+02  0.51100000000E-03 0. -1.
    9900012    2    1    2    0    0 -0.31975034265E+02 -0.22167503364E+02 -0.19230771953E+02  0.47787267155E+02  0.19999982264E+02 0.  0.
        -12    1    1    2    0    0  0.31975034265E+02  0.22167503364E+02  0.19230771953E+02  0.43400732845E+02  0.00000000000E+00 0.  1.
         11    1    3    3    0    0 -0.11559206814E+02 -0.14007231817E+02 -0.51527373422E+01  0.18877725173E+02  0.51100000000E-03 0. -1.
        -11    1    3    3    0    0 -0.39352086028E+01  0.41235946829E+00  0.19158467475E+01  0.43961774418E+01  0.51100000000E-03 0.  1.
         12    1    3    3    0    0 -0.16480618848E+02 -0.85726310150E+01 -0.15993881358E+02  0.24513364539E+02  0.00000000000E+00 0. -1.
</event>
<event>
 7    1  0.2783785E-010  0.4778727E+02  0.7816164E-02  0.1312668E+00
        -11   -1    0    0    0    0  0.00000000000E+00  0.00000000000E+00  0.45593999997E+02  0.45594000000E+02  0.51100000000E-03 0.  1.
         11   -1    0    0    0    0 -0.00000000000E+00 -0.00000000000E+00 -0.45593999997E+02  0.45594000000E+02  0.51100000000E-03 0. -1.
    9900012    2    1    2    0    0  0.16043551440E+01 -0.24598460873E+02 -0.35720654782E+02  0.47787269467E+02  0.19999992809E+02 0.  0.
        -12    1    1    2    0    0 -0.16043551440E+01  0.24598460873E+02  0.35720654782E+02  0.43400730533E+02  0.00000000000E+00 0.  1.
         11    1    3    3    0    0  0.93332188794E+01 -0.13142475968E+02 -0.19992786891E+02  0.25681611655E+02  0.51100000000E-03 0. -1.
        -11    1    3    3    0    0 -0.19259097051E+01 -0.44430772502E+00  0.88937118367E-01  0.19784963025E+01  0.51100000000E-03 0.  1.
         12    1    3    3    0    0 -0.58029540303E+01 -0.11011677180E+02 -0.15816805009E+02  0.20127161510E+02  0.00000000000E+00 0. -1.
</event>
<event>
 7    1  0.2783785E-010  0.4778727E+02  0.7816164E-02  0.1312668E+00
        -11   -1    0    0    0    0  0.00000000000E+00  0.00000000000E+00  0.45593999997E+02  0.45594000000E+02  0.51100000000E-03 0.  1.
         11   -1    0    0    0    0 -0.00000000000E+00 -0.00000000000E+00 -0.45593999997E+02  0.45594000000E+02  0.51100000000E-03 0. -1.
    9900012    2    1    2    0    0 -0.15309992882E+02 -0.12662412972E+01 -0.40590933537E+02  0.47787272650E+02  0.20000007322E+02 0.  0.
        -12    1    1    2    0    0  0.15309992882E+02  0.12662412972E+01  0.40590933537E+02  0.43400727350E+02  0.00000000000E+00 0.  1.
         11    1    3    3    0    0 -0.37302834037E+01  0.54982616459E+01 -0.53360233572E+01  0.85216806399E+01  0.51100000000E-03 0. -1.
        -11    1    3    3    0    0 -0.10926629367E+02 -0.37374504808E+01 -0.15825627221E+02  0.19591075586E+02  0.51100000000E-03 0.  1.
        -12    1    3    3    0    0 -0.65308011082E+00 -0.30270524623E+01 -0.19429282959E+02  0.19674516424E+02  0.00000000000E+00 0.  1.
</event>
<event>
 7    1  0.3070946E-010  0.4778727E+02  0.7816164E-02  0.1312668E+00
        -11   -1    0    0    0    0  0.00000000000E+00  0.00000000000E+00  0.45593999997E+02  0.45594000000E+02  0.51100000000E-03 0. -1.
         11   -1    0    0    0    0 -0.00000000000E+00 -0.00000000000E+00 -0.45593999997E+02  0.45594000000E+02  0.51100000000E-03 0.  1.
    9900012    2    1    2    0    0 -0.22702538263E+02  0.36171945853E+02  0.77335816207E+01  0.47787271952E+02  0.20000004140E+02 0.  0.
        -12    1    1    2    0    0  0.22702538263E+02 -0.36171945853E+02 -0.77335816207E+01  0.43400728048E+02  0.00000000000E+00 0.  1.
         11    1    3    3    0    0 -0.79798737118E+01  0.16329123225E+02  0.29484904037E+01  0.18412285184E+02  0.51100000000E-03 0. -1.
        -11    1    3    3    0    0  0.88367131258E+00  0.72732988187E-01 -0.29068564679E+01  0.30390754947E+01  0.51100000000E-03 0.  1.
        -12    1    3    3    0    0 -0.15606335864E+02  0.19770089640E+02  0.76919476849E+01  0.26335911274E+02  0.00000000000E+00 0.  1.
</event>
<event>
 7    1  0.2783785E-010  0.4778727E+02  0.7816164E-02  0.1312668E+00
        -11   -1    0    0    0    0  0.00000000000E+00  0.00000000000E+00  0.45593999997E+02  0.45594000000E+02  0.51100000000E-03 0. -1.
         11   -1    0    0    0    0 -0.00000000000E+00 -0.00000000000E+00 -0.45593999997E+02  0.45594000000E+02  0.51100000000E-03 0.  1.
    9900012    2    1    2    0    0  0.42508018365E+02 -0.30220508390E+01 -0.82194030731E+01  0.47787274160E+02  0.20000014205E+02 0.  0.
        -12    1    1    2    0    0 -0.42508018365E+02  0.30220508390E+01  0.82194030731E+01  0.43400725840E+02  0.00000000000E+00 0.  1.
         11    1    3    3    0    0  0.53540575672E+01 -0.38380769972E+01  0.41001579783E+00  0.66003697385E+01  0.51100000000E-03 0. -1.
        -11    1    3    3    0    0  0.17477933770E+02  0.66899240746E+01  0.48522427500E+00  0.18720809167E+02  0.51100000000E-03 0.  1.
        -12    1    3    3    0    0  0.19676027027E+02 -0.58738979164E+01 -0.91146431459E+01  0.22466095255E+02  0.00000000000E+00 0.  1.
</event>
<event>
 7    1  0.2783785E-010  0.4778727E+02  0.7816164E-02  0.1312668E+00
        -11   -1    0    0    0    0  0.00000000000E+00  0.00000000000E+00  0.45593999997E+02  0.45594000000E+02  0.51100000000E-03 0. -1.
         11   -1    0    0    0    0 -0.00000000000E+00 -0.00000000000E+00 -0.45593999997E+02  0.45594000000E+02  0.51100000000E-03 0.  1.
    9900012    2    1    2    0    0 -0.39820670058E+02  0.80750918724E+01 -0.15255502860E+02  0.47787271433E+02  0.20000001773E+02 0.  0.
        -12    1    1    2    0    0  0.39820670058E+02 -0.80750918724E+01  0.15255502860E+02  0.43400728567E+02  0.00000000000E+00 0.  1.
         11    1    3    3    0    0 -0.17260487666E+02 -0.95260572984E+00 -0.45698206598E+01  0.17880580340E+02  0.51100000000E-03 0. -1.
        -11    1    3    3    0    0 -0.17851397316E+02  0.76710517916E+01 -0.14037098012E+02  0.23969929966E+02  0.51100000000E-03 0.  1.
         12    1    3    3    0    0 -0.47087850758E+01  0.13566458106E+01  0.33514158117E+01  0.59367611278E+01  0.00000000000E+00 0. -1.
</event>
<event>
 7    1  0.2783785E-010  0.4778727E+02  0.7816164E-02  0.1312668E+00
        -11   -1    0    0    0    0  0.00000000000E+00  0.00000000000E+00  0.45593999997E+02  0.45594000000E+02  0.51100000000E-03 0.  1.
         11   -1    0    0    0    0 -0.00000000000E+00 -0.00000000000E+00 -0.45593999997E+02  0.45594000000E+02  0.51100000000E-03 0. -1.
    9900012    2    1    2    0    0  0.16902611952E+02 -0.46751470557E+01 -0.39699728044E+02  0.47787266164E+02  0.19999977746E+02 0.  0.
        -12    1    1    2    0    0 -0.16902611952E+02  0.46751470557E+01  0.39699728044E+02  0.43400733836E+02  0.00000000000E+00 0.  1.
         11    1    3    3    0    0  0.95233452277E+01 -0.95227926522E+01 -0.10700183007E+02  0.17200918605E+02  0.51100000000E-03 0.  1.
        -11    1    3    3    0    0  0.40604034684E+01  0.20011462534E+01 -0.85478768786E+01  0.96725209768E+01  0.51100000000E-03 0. -1.
        -12    1    3    3    0    0  0.33188632561E+01  0.28464993431E+01 -0.20451668158E+02  0.20913826582E+02  0.00000000000E+00 0.  1.
</event>
<event>
 7    1  0.2783785E-010  0.4778728E+02  0.7816164E-02  0.1312668E+00
        -11   -1    0    0    0    0  0.00000000000E+00  0.00000000000E+00  0.45593999997E+02  0.45594000000E+02  0.51100000000E-03 0.  1.
         11   -1    0    0    0    0 -0.00000000000E+00 -0.00000000000E+00 -0.45593999997E+02  0.45594000000E+02  0.51100000000E-03 0. -1.
    9900012    2    1    2    0    0  0.11355962811E+02 -0.27412221829E+02 -0.31673882179E+02  0.47787278701E+02  0.20000034910E+02 0.  0.
        -12    1    1    2    0    0 -0.11355962811E+02  0.27412221829E+02  0.31673882179E+02  0.43400721299E+02  0.00000000000E+00 0.  1.
         11    1    3    3    0    0  0.18554259586E+01 -0.22813329193E+02 -0.25572643200E+02  0.34319829179E+02  0.51100000000E-03 0. -1.
        -11    1    3    3    0    0  0.63937863470E+01 -0.55406717827E+01 -0.56883399079E+01  0.10194937902E+02  0.51100000000E-03 0.  1.
        -12    1    3    3    0    0  0.31067505050E+01  0.94177914712E+00 -0.41289907150E+00  0.32725116204E+01  0.00000000000E+00 0.  1.
</event>
<event>
 7    1  0.2783785E-010  0.4778727E+02  0.7816164E-02  0.1312668E+00
        -11   -1    0    0    0    0  0.00000000000E+00  0.00000000000E+00  0.45593999997E+02  0.45594000000E+02  0.51100000000E-03 0. -1.
         11   -1    0    0    0    0 -0.00000000000E+00 -0.00000000000E+00 -0.45593999997E+02  0.45594000000E+02  0.51100000000E-03 0.  1.
    9900012    2    1    2    0    0 -0.91939808964E+01 -0.39415116884E+02 -0.15669788082E+02  0.47787274404E+02  0.20000015318E+02 0.  0.
        -12    1    1    2    0    0  0.91939808964E+01  0.39415116884E+02  0.15669788082E+02  0.43400725596E+02  0.00000000000E+00 0.  1.
         11    1    3    3    0    0 -0.75173511304E+01 -0.14765274915E+02 -0.11793282490E+01  0.16610681104E+02  0.51100000000E-03 0. -1.
        -11    1    3    3    0    0 -0.48620543268E+01 -0.70989776464E+01 -0.91421748864E+01  0.12554458085E+02  0.51100000000E-03 0.  1.
         12    1    3    3    0    0  0.31854245608E+01 -0.17550864322E+02 -0.53482849468E+01  0.18622135215E+02  0.00000000000E+00 0. -1.
</event>
<event>
 7    1  0.2783785E-010  0.4778727E+02  0.7816164E-02  0.1312668E+00
        -11   -1    0    0    0    0  0.00000000000E+00  0.00000000000E+00  0.45593999997E+02  0.45594000000E+02  0.51100000000E-03 0.  1.
         11   -1    0    0    0    0 -0.00000000000E+00 -0.00000000000E+00 -0.45593999997E+02  0.45594000000E+02  0.51100000000E-03 0. -1.
    9900012    2    1    2    0    0  0.13090033641E+02  0.90185326549E+01 -0.40384907200E+02  0.47787266809E+02  0.19999980687E+02 0.  0.
        -12    1    1    2    0    0 -0.13090033641E+02 -0.90185326549E+01  0.40384907200E+02  0.43400733191E+02  0.00000000000E+00 0.  1.
         11    1    3    3    0    0  0.59201029990E+01 -0.13438624611E+01 -0.12922633934E+02  0.14277536689E+02  0.51100000000E-03 0. -1.
        -11    1    3    3    0    0 -0.42743526650E+01  0.32233762460E+01 -0.50969692332E+01  0.73918428523E+01  0.51100000000E-03 0.  1.
         12    1    3    3    0    0  0.11444283307E+02  0.71390188700E+01 -0.22365304033E+02  0.26117887267E+02  0.00000000000E+00 0. -1.
</event>
<event>
 7    1  0.2783785E-010  0.4778727E+02  0.7816164E-02  0.1312668E+00
        -11   -1    0    0    0    0  0.00000000000E+00  0.00000000000E+00  0.45593999997E+02  0.45594000000E+02  0.51100000000E-03 0.  1.
         11   -1    0    0    0    0 -0.00000000000E+00 -0.00000000000E+00 -0.45593999997E+02  0.45594000000E+02  0.51100000000E-03 0. -1.
    9900012    2    1    2    0    0  0.27999860353E+01  0.43225088136E+02 -0.27157463734E+01  0.47787269078E+02  0.19999991035E+02 0.  0.
        -12    1    1    2    0    0 -0.27999860353E+01 -0.43225088136E+02  0.27157463734E+01  0.43400730922E+02  0.00000000000E+00 0.  1.
         11    1    3    3    0    0  0.13596061591E+01  0.78477213850E+01  0.10482196803E+01  0.80333072022E+01  0.51100000000E-03 0. -1.
        -11    1    3    3    0    0  0.50962589145E+01  0.13548252510E+01 -0.13895647144E+01  0.54532831158E+01  0.51100000000E-03 0.  1.
        -12    1    3    3    0    0 -0.36558790383E+01  0.34022541500E+02 -0.23744013393E+01  0.34300678760E+02  0.00000000000E+00 0.  1.
</event>
<event>
 7    1  0.2783785E-010  0.4778727E+02  0.7816164E-02  0.1312668E+00
        -11   -1    0    0    0    0  0.00000000000E+00  0.00000000000E+00  0.45593999997E+02  0.45594000000E+02  0.51100000000E-03 0.  1.
         11   -1    0    0    0    0 -0.00000000000E+00 -0.00000000000E+00 -0.45593999997E+02  0.45594000000E+02  0.51100000000E-03 0. -1.
    9900012    2    1    2    0    0  0.21019881017E+02 -0.19247563942E+02 -0.32731012639E+02  0.47787270697E+02  0.19999998414E+02 0.  0.
        -12    1    1    2    0    0 -0.21019881017E+02  0.19247563942E+02  0.32731012639E+02  0.43400729303E+02  0.00000000000E+00 0.  1.
         11    1    3    3    0    0  0.53003247069E+01 -0.14076533453E+02 -0.19507332513E+02  0.24632869465E+02  0.51100000000E-03 0. -1.
        -11    1    3    3    0    0  0.27742520471E+01  0.23026619548E+01 -0.47779535066E+01  0.59856132912E+01  0.51100000000E-03 0.  1.
        -12    1    3    3    0    0  0.12945304263E+02 -0.74736924441E+01 -0.84457266199E+01  0.17168787941E+02  0.00000000000E+00 0.  1.
</event>
<event>
 7    1  0.2783785E-010  0.4778727E+02  0.7816164E-02  0.1312668E+00
        -11   -1    0    0    0    0  0.00000000000E+00  0.00000000000E+00  0.45593999997E+02  0.45594000000E+02  0.51100000000E-03 0. -1.
         11   -1    0    0    0    0 -0.00000000000E+00 -0.00000000000E+00 -0.45593999997E+02  0.45594000000E+02  0.51100000000E-03 0.  1.
    9900012    2    1    2    0    0  0.40226618112E+02  0.15338385248E+02 -0.54932935355E+01  0.47787272579E+02  0.20000006998E+02 0.  0.
        -12    1    1    2    0    0 -0.40226618112E+02 -0.15338385248E+02  0.54932935355E+01  0.43400727421E+02  0.00000000000E+00 0.  1.
         11    1    3    3    0    0  0.15224626458E+02  0.60701802445E+01  0.15856264484E+01  0.16466649643E+02  0.51100000000E-03 0. -1.
        -11    1    3    3    0    0  0.13699293060E+00  0.53340878326E+01 -0.12245773975E+01  0.54745639217E+01  0.51100000000E-03 0.  1.
        -12    1    3    3    0    0  0.24864998724E+02  0.39341171707E+01 -0.58543425864E+01  0.25846059015E+02  0.00000000000E+00 0.  1.
</event>
<event>
 7    1  0.2783785E-010  0.4778728E+02  0.7816164E-02  0.1312668E+00
        -11   -1    0    0    0    0  0.00000000000E+00  0.00000000000E+00  0.45593999997E+02  0.45594000000E+02  0.51100000000E-03 0.  1.
         11   -1    0    0    0    0 -0.00000000000E+00 -0.00000000000E+00 -0.45593999997E+02  0.45594000000E+02  0.51100000000E-03 0. -1.
    9900012    2    1    2    0    0  0.22828233061E+02 -0.36864854669E+02 -0.18646847941E+01  0.47787276690E+02  0.20000025739E+02 0.  0.
        -12    1    1    2    0    0 -0.22828233061E+02  0.36864854669E+02  0.18646847941E+01  0.43400723310E+02  0.00000000000E+00 0.  1.
         11    1    3    3    0    0  0.90402720894E+01 -0.19587393712E+02 -0.43915994700E+01  0.22015418644E+02  0.51100000000E-03 0. -1.
        -11    1    3    3    0    0  0.99979524790E+01 -0.18934780307E+02  0.12756706022E+01  0.21450228315E+02  0.51100000000E-03 0.  1.
        -12    1    3    3    0    0  0.37900084925E+01  0.16573193493E+01  0.12512440736E+01  0.43216297308E+01  0.00000000000E+00 0.  1.
</event>
<event>
 7    1  0.2783785E-010  0.4778722E+02  0.7816164E-02  0.1312668E+00
        -11   -1    0    0    0    0  0.00000000000E+00  0.00000000000E+00  0.45593999997E+02  0.45594000000E+02  0.51100000000E-03 0.  1.
         11   -1    0    0    0    0 -0.00000000000E+00 -0.00000000000E+00 -0.45593999997E+02  0.45594000000E+02  0.51100000000E-03 0. -1.
    9900012    2    1    2    0    0 -0.28756370220E+00  0.33530361606E+02 -0.27554667516E+02  0.47787221848E+02  0.19999775691E+02 0.  0.
        -12    1    1    2    0    0  0.28756370220E+00 -0.33530361606E+02  0.27554667516E+02  0.43400778152E+02  0.00000000000E+00 0.  1.
         11    1    3    3    0    0 -0.62795537149E+01  0.29726707653E+01 -0.60703223467E+01  0.92259622800E+01  0.51100000000E-03 0.  1.
        -11    1    3    3    0    0  0.21053923780E+01  0.13910395870E+02 -0.14167609741E+02  0.19966295509E+02  0.51100000000E-03 0. -1.
        -12    1    3    3    0    0  0.38865976347E+01  0.16647294971E+02 -0.73167354283E+01  0.18594964059E+02  0.00000000000E+00 0.  1.
</event>
<event>
 7    1  0.2783785E-010  0.4778727E+02  0.7816164E-02  0.1312668E+00
        -11   -1    0    0    0    0  0.00000000000E+00  0.00000000000E+00  0.45593999997E+02  0.45594000000E+02  0.51100000000E-03 0. -1.
         11   -1    0    0    0    0 -0.00000000000E+00 -0.00000000000E+00 -0.45593999997E+02  0.45594000000E+02  0.51100000000E-03 0.  1.
    9900012    2    1    2    0    0  0.31278269664E+02 -0.29684712973E+02  0.49103063332E+01  0.47787269065E+02  0.19999990973E+02 0.  0.
        -12    1    1    2    0    0 -0.31278269664E+02  0.29684712973E+02 -0.49103063332E+01  0.43400730935E+02  0.00000000000E+00 0.  1.
         11    1    3    3    0    0  0.79931606049E+01 -0.29986340122E+01  0.57300262292E+01  0.10281810310E+02  0.51100000000E-03 0. -1.
        -11    1    3    3    0    0  0.21277421719E+02 -0.16386485530E+02 -0.20808055582E+01  0.26936505621E+02  0.51100000000E-03 0.  1.
        -12    1    3    3    0    0  0.20076873395E+01 -0.10299593431E+02  0.12610856621E+01  0.10568953134E+02  0.00000000000E+00 0.  1.
</event>
<event>
 7    1  0.2783785E-010  0.4778727E+02  0.7816164E-02  0.1312668E+00
        -11   -1    0    0    0    0  0.00000000000E+00  0.00000000000E+00  0.45593999997E+02  0.45594000000E+02  0.51100000000E-03 0.  1.
         11   -1    0    0    0    0 -0.00000000000E+00 -0.00000000000E+00 -0.45593999997E+02  0.45594000000E+02  0.51100000000E-03 0. -1.
    9900012    2    1    2    0    0 -0.41471747394E+00 -0.15898345347E+02 -0.40381851159E+02  0.47787270992E+02  0.19999999762E+02 0.  0.
        -12    1    1    2    0    0  0.41471747394E+00  0.15898345347E+02  0.40381851159E+02  0.43400729008E+02  0.00000000000E+00 0.  1.
         11    1    3    3    0    0 -0.20205971637E+01 -0.97344486459E+01 -0.31529950939E+02  0.33060249693E+02  0.51100000000E-03 0. -1.
        -11    1    3    3    0    0 -0.65473567022E+00 -0.84910782120E+01 -0.66663703640E+01  0.10815155204E+02  0.51100000000E-03 0.  1.
         12    1    3    3    0    0  0.22606153600E+01  0.23271815106E+01 -0.21855298565E+01  0.39118660947E+01  0.00000000000E+00 0. -1.
</event>
<event>
 7    1  0.2783785E-010  0.4778727E+02  0.7816164E-02  0.1312668E+00
        -11   -1    0    0    0    0  0.00000000000E+00  0.00000000000E+00  0.45593999997E+02  0.45594000000E+02  0.51100000000E-03 0. -1.
         11   -1    0    0    0    0 -0.00000000000E+00 -0.00000000000E+00 -0.45593999997E+02  0.45594000000E+02  0.51100000000E-03 0.  1.
    9900012    2    1    2    0    0 -0.43673477118E+01 -0.42774121341E+02 -0.59096530350E+01  0.47787272109E+02  0.20000004853E+02 0.  0.
        -12    1    1    2    0    0  0.43673477118E+01  0.42774121341E+02  0.59096530350E+01  0.43400727891E+02  0.00000000000E+00 0.  1.
         11    1    3    3    0    0 -0.24295869665E+00 -0.14996353382E+02 -0.29182206287E+00  0.15001160091E+02  0.51100000000E-03 0. -1.
        -11    1    3    3    0    0 -0.38240910558E+01 -0.36271215848E+01 -0.68014481957E+01  0.86046139492E+01  0.51100000000E-03 0.  1.
        -12    1    3    3    0    0 -0.30029795937E+00 -0.24150646373E+02  0.11836172236E+01  0.24181498069E+02  0.00000000000E+00 0.  1.
</event>
<event>
 7    1  0.2783785E-010  0.4778728E+02  0.7816164E-02  0.1312668E+00
        -11   -1    0    0    0    0  0.00000000000E+00  0.00000000000E+00  0.45593999997E+02  0.45594000000E+02  0.51100000000E-03 0. -1.
         11   -1    0    0    0    0 -0.00000000000E+00 -0.00000000000E+00 -0.45593999997E+02  0.45594000000E+02  0.51100000000E-03 0.  1.
    9900012    2    1    2    0    0  0.42336631098E+02  0.58344520950E+01  0.75625064247E+01  0.47787278032E+02  0.20000031858E+02 0.  0.
        -12    1    1    2    0    0 -0.42336631098E+02 -0.58344520950E+01 -0.75625064247E+01  0.43400721968E+02  0.00000000000E+00 0.  1.
         11    1    3    3    0    0  0.21558970603E+02 -0.24935502250E+00  0.12201431117E+01  0.21594910069E+02  0.51100000000E-03 0. -1.
        -11    1    3    3    0    0 -0.65231318780E+00 -0.13907996375E+01 -0.15315496245E+01  0.21692119860E+01  0.51100000000E-03 0.  1.
        -12    1    3    3    0    0  0.21429973682E+02  0.74746067550E+01  0.78739129375E+01  0.24023155977E+02  0.00000000000E+00 0.  1.
</event>
<event>
 7    1  0.2783785E-010  0.4778729E+02  0.7816164E-02  0.1312668E+00
        -11   -1    0    0    0    0  0.00000000000E+00  0.00000000000E+00  0.45593999997E+02  0.45594000000E+02  0.51100000000E-03 0.  1.
         11   -1    0    0    0    0 -0.00000000000E+00 -0.00000000000E+00 -0.45593999997E+02  0.45594000000E+02  0.51100000000E-03 0. -1.
    9900012    2    1    2    0    0 -0.38426574664E+02  0.18461011219E+02  0.81370281059E+01  0.47787288001E+02  0.20000077312E+02 0.  0.
        -12    1    1    2    0    0  0.38426574664E+02 -0.18461011219E+02 -0.81370281059E+01  0.43400711999E+02  0.00000000000E+00 0.  1.
         11    1    3    3    0    0 -0.26475332837E+02  0.11299075467E+02  0.10220143214E+01  0.28803764836E+02  0.51100000000E-03 0. -1.
        -11    1    3    3    0    0 -0.13598371042E+00  0.18623330140E+01 -0.23078348443E+01  0.29686491464E+01  0.51100000000E-03 0.  1.
         12    1    3    3    0    0 -0.11815258117E+02  0.52996027379E+01  0.94228486288E+01  0.16014874018E+02  0.00000000000E+00 0. -1.
</event>
<event>
 7    1  0.2783785E-010  0.4778727E+02  0.7816164E-02  0.1312668E+00
        -11   -1    0    0    0    0  0.00000000000E+00  0.00000000000E+00  0.45593999997E+02  0.45594000000E+02  0.51100000000E-03 0. -1.
         11   -1    0    0    0    0 -0.00000000000E+00 -0.00000000000E+00 -0.45593999997E+02  0.45594000000E+02  0.51100000000E-03 0.  1.
    9900012    2    1    2    0    0 -0.31529618936E+02 -0.20744458603E+02  0.21428344091E+02  0.47787270012E+02  0.19999995294E+02 0.  0.
        -12    1    1    2    0    0  0.31529618936E+02  0.20744458603E+02 -0.21428344091E+02  0.43400729988E+02  0.00000000000E+00 0.  1.
         11    1    3    3    0    0 -0.26849193245E+02 -0.11298285616E+02  0.15213521910E+02  0.32863074794E+02  0.51100000000E-03 0. -1.
        -11    1    3    3    0    0 -0.37962141018E+01 -0.14484564363E+01  0.55111397375E+01  0.68470379743E+01  0.51100000000E-03 0.  1.
        -12    1    3    3    0    0 -0.88421158959E+00 -0.79977165507E+01  0.70368244387E+00  0.80771572438E+01  0.00000000000E+00 0.  1.
</event>
<event>
 7    1  0.2783785E-010  0.4778727E+02  0.7816164E-02  0.1312668E+00
        -11   -1    0    0    0    0  0.00000000000E+00  0.00000000000E+00  0.45593999997E+02  0.45594000000E+02  0.51100000000E-03 0. -1.
         11   -1    0    0    0    0 -0.00000000000E+00 -0.00000000000E+00 -0.45593999997E+02  0.45594000000E+02  0.51100000000E-03 0.  1.
    9900012    2    1    2    0    0  0.23968549980E+02  0.31206467417E+02  0.18310879276E+02  0.47787270782E+02  0.19999998802E+02 0.  0.
        -12    1    1    2    0    0 -0.23968549980E+02 -0.31206467417E+02 -0.18310879276E+02  0.43400729218E+02  0.00000000000E+00 0.  1.
         11    1    3    3    0    0  0.10332145050E+02  0.27440021843E+02  0.11206703102E+02  0.31389460250E+02  0.51100000000E-03 0. -1.
        -11    1    3    3    0    0  0.78053588849E+01  0.42419183796E+01  0.49049372516E+01  0.10147704596E+02  0.51100000000E-03 0.  1.
         12    1    3    3    0    0  0.58310460458E+01 -0.47547280574E+00  0.21992389215E+01  0.62501059359E+01  0.00000000000E+00 0. -1.
</event>
<event>
 7    1  0.2783785E-010  0.4778727E+02  0.7816164E-02  0.1312668E+00
        -11   -1    0    0    0    0  0.00000000000E+00  0.00000000000E+00  0.45593999997E+02  0.45594000000E+02  0.51100000000E-03 0.  1.
         11   -1    0    0    0    0 -0.00000000000E+00 -0.00000000000E+00 -0.45593999997E+02  0.45594000000E+02  0.51100000000E-03 0. -1.
    9900012    2    1    2    0    0 -0.12554063671E+02 -0.13471142807E+02 -0.39300729272E+02  0.47787268157E+02  0.19999986837E+02 0.  0.
        -12    1    1    2    0    0  0.12554063671E+02  0.13471142807E+02  0.39300729272E+02  0.43400731843E+02  0.00000000000E+00 0.  1.
         11    1    3    3    0    0 -0.23898146619E+01 -0.11872488605E+02 -0.20356492941E+02  0.23686578582E+02  0.51100000000E-03 0. -1.
        -11    1    3    3    0    0 -0.22840592588E+01 -0.10565539149E+01  0.95452517916E+00  0.26915332900E+01  0.51100000000E-03 0.  1.
        -12    1    3    3    0    0 -0.78801897499E+01 -0.54210028629E+00 -0.19898761510E+02  0.21409156285E+02  0.00000000000E+00 0.  1.
</event>
<event>
 7    1  0.2783785E-010  0.4778727E+02  0.7816164E-02  0.1312668E+00
        -11   -1    0    0    0    0  0.00000000000E+00  0.00000000000E+00  0.45593999997E+02  0.45594000000E+02  0.51100000000E-03 0.  1.
         11   -1    0    0    0    0 -0.00000000000E+00 -0.00000000000E+00 -0.45593999997E+02  0.45594000000E+02  0.51100000000E-03 0. -1.
    9900012    2    1    2    0    0  0.29394773464E+02  0.22427807179E+02 -0.22728052881E+02  0.47787266946E+02  0.19999981314E+02 0.  0.
        -12    1    1    2    0    0 -0.29394773464E+02 -0.22427807179E+02  0.22728052881E+02  0.43400733054E+02  0.00000000000E+00 0.  1.
         11    1    3    3    0    0  0.23134923416E+02  0.19550785860E+02 -0.22113539801E+02  0.37502887249E+02  0.51100000000E-03 0. -1.
        -11    1    3    3    0    0  0.35201949798E+01 -0.14854593715E+01 -0.27503682428E+01  0.47077476539E+01  0.51100000000E-03 0.  1.
         12    1    3    3    0    0  0.27396550676E+01  0.43624806910E+01  0.21358551629E+01  0.55766320432E+01  0.00000000000E+00 0. -1.
</event>
<event>
 7    1  0.2783785E-010  0.4778727E+02  0.7816164E-02  0.1312668E+00
        -11   -1    0    0    0    0  0.00000000000E+00  0.00000000000E+00  0.45593999997E+02  0.45594000000E+02  0.51100000000E-03 0.  1.
         11   -1    0    0    0    0 -0.00000000000E+00 -0.00000000000E+00 -0.45593999997E+02  0.45594000000E+02  0.51100000000E-03 0. -1.
    9900012    2    1    2    0    0 -0.40626997203E+02  0.11199189999E+02 -0.10375380786E+02  0.47787270919E+02  0.19999999426E+02 0.  0.
        -12    1    1    2    0    0  0.40626997203E+02 -0.11199189999E+02  0.10375380786E+02  0.43400729081E+02  0.00000000000E+00 0.  1.
         11    1    3    3    0    0 -0.18748209197E+02 -0.10619797488E+01 -0.11964685995E+02  0.22266047254E+02  0.51100000000E-03 0. -1.
        -11    1    3    3    0    0 -0.10449791501E+02  0.33716856753E+01  0.29284447097E+00  0.10984177933E+02  0.51100000000E-03 0.  1.
         12    1    3    3    0    0 -0.11428996504E+02  0.88894840721E+01  0.12964607380E+01  0.14537045732E+02  0.00000000000E+00 0. -1.
</event>
<event>
 7    1  0.2783785E-010  0.4778727E+02  0.7816164E-02  0.1312668E+00
        -11   -1    0    0    0    0  0.00000000000E+00  0.00000000000E+00  0.45593999997E+02  0.45594000000E+02  0.51100000000E-03 0.  1.
         11   -1    0    0    0    0 -0.00000000000E+00 -0.00000000000E+00 -0.45593999997E+02  0.45594000000E+02  0.51100000000E-03 0. -1.
    9900012    2    1    2    0    0 -0.62482999225E+01  0.13654454664E+02 -0.40720241998E+02  0.47787268526E+02  0.19999988520E+02 0.  0.
        -12    1    1    2    0    0  0.62482999225E+01 -0.13654454664E+02  0.40720241998E+02  0.43400731474E+02  0.00000000000E+00 0.  1.
         11    1    3    3    0    0  0.24396801262E+01  0.11757083228E+02 -0.16489625707E+02  0.20398254860E+02  0.51100000000E-03 0. -1.
        -11    1    3    3    0    0  0.80065511341E+00  0.68212972477E+00  0.27097996608E+00  0.10861767698E+01  0.51100000000E-03 0.  1.
        -12    1    3    3    0    0 -0.94886351621E+01  0.12152417118E+01 -0.24501596257E+02  0.26302836896E+02  0.00000000000E+00 0.  1.
</event>
<event>
 7    1  0.2783785E-010  0.4778727E+02  0.7816164E-02  0.1312668E+00
        -11   -1    0    0    0    0  0.00000000000E+00  0.00000000000E+00  0.45593999997E+02  0.45594000000E+02  0.51100000000E-03 0.  1.
         11   -1    0    0    0    0 -0.00000000000E+00 -0.00000000000E+00 -0.45593999997E+02  0.45594000000E+02  0.51100000000E-03 0. -1.
    9900012    2    1    2    0    0 -0.27901056635E+02  0.33128177856E+02  0.27709275474E+01  0.47787272253E+02  0.20000005513E+02 0.  0.
        -12    1    1    2    0    0  0.27901056635E+02 -0.33128177856E+02 -0.27709275474E+01  0.43400727747E+02  0.00000000000E+00 0.  1.
         11    1    3    3    0    0 -0.14766366431E+02  0.16492551827E+02  0.57309749129E+01  0.22866873792E+02  0.51100000000E-03 0. -1.
        -11    1    3    3    0    0  0.63279898042E+00 -0.12069327868E+01  0.14133391795E+01  0.19633260552E+01  0.51100000000E-03 0.  1.
         12    1    3    3    0    0 -0.13767489185E+02  0.17842558817E+02 -0.43733865450E+01  0.22957072406E+02  0.00000000000E+00 0. -1.
</event>
<event>
 7    1  0.2783785E-010  0.4778727E+02  0.7816164E-02  0.1312668E+00
        -11   -1    0    0    0    0  0.00000000000E+00  0.00000000000E+00  0.45593999997E+02  0.45594000000E+02  0.51100000000E-03 0.  1.
         11   -1    0    0    0    0 -0.00000000000E+00 -0.00000000000E+00 -0.45593999997E+02  0.45594000000E+02  0.51100000000E-03 0. -1.
    9900012    2    1    2    0    0 -0.41736547017E+02  0.86668576761E+01 -0.81590053219E+01  0.47787272509E+02  0.20000006677E+02 0.  0.
        -12    1    1    2    0    0  0.41736547017E+02 -0.86668576761E+01  0.81590053219E+01  0.43400727491E+02  0.00000000000E+00 0.  1.
         11    1    3    3    0    0 -0.15652499276E+02  0.26989589696E+01  0.14697825309E+01  0.15951343958E+02  0.51100000000E-03 0. -1.
        -11    1    3    3    0    0 -0.75741501059E+01  0.87879827418E+01 -0.31258112354E+01  0.12015285541E+02  0.51100000000E-03 0.  1.
         12    1    3    3    0    0 -0.18509897635E+02 -0.28200840353E+01 -0.65029766174E+01  0.19820643010E+02  0.00000000000E+00 0. -1.
</event>
<event>
 7    1  0.2783785E-010  0.4778727E+02  0.7816164E-02  0.1312668E+00
        -11   -1    0    0    0    0  0.00000000000E+00  0.00000000000E+00  0.45593999997E+02  0.45594000000E+02  0.51100000000E-03 0.  1.
         11   -1    0    0    0    0 -0.00000000000E+00 -0.00000000000E+00 -0.45593999997E+02  0.45594000000E+02  0.51100000000E-03 0. -1.
    9900012    2    1    2    0    0 -0.15822454589E+02  0.10232002710E+02 -0.39097050765E+02  0.47787270430E+02  0.19999997198E+02 0.  0.
        -12    1    1    2    0    0  0.15822454589E+02 -0.10232002710E+02  0.39097050765E+02  0.43400729570E+02  0.00000000000E+00 0.  1.
         11    1    3    3    0    0 -0.14128552320E+02  0.13169960906E+02 -0.24287529052E+02  0.31031402299E+02  0.51100000000E-03 0. -1.
        -11    1    3    3    0    0 -0.14820704329E+01  0.53674418213E+00 -0.34879460733E-01  0.15766559304E+01  0.51100000000E-03 0.  1.
         12    1    3    3    0    0 -0.21183183624E+00 -0.34747023779E+01 -0.14774642252E+02  0.15179212200E+02  0.00000000000E+00 0. -1.
</event>
<event>
 7    1  0.2783785E-010  0.4778727E+02  0.7816164E-02  0.1312668E+00
        -11   -1    0    0    0    0  0.00000000000E+00  0.00000000000E+00  0.45593999997E+02  0.45594000000E+02  0.51100000000E-03 0. -1.
         11   -1    0    0    0    0 -0.00000000000E+00 -0.00000000000E+00 -0.45593999997E+02  0.45594000000E+02  0.51100000000E-03 0.  1.
    9900012    2    1    2    0    0 -0.25696809484E+02 -0.30669000103E+02  0.16813977233E+02  0.47787269414E+02  0.19999992566E+02 0.  0.
        -12    1    1    2    0    0  0.25696809484E+02  0.30669000103E+02 -0.16813977233E+02  0.43400730586E+02  0.00000000000E+00 0.  1.
         11    1    3    3    0    0  0.28417373038E+00 -0.45668093349E+01  0.23526590010E+01  0.51450468264E+01  0.51100000000E-03 0. -1.
        -11    1    3    3    0    0 -0.22116791062E+02 -0.11718446328E+02  0.11064629632E+02  0.27366045757E+02  0.51100000000E-03 0.  1.
        -12    1    3    3    0    0 -0.38641921530E+01 -0.14383744440E+02  0.33966886002E+01  0.15276176831E+02  0.00000000000E+00 0.  1.
</event>
<event>
 7    1  0.2783785E-010  0.4778732E+02  0.7816164E-02  0.1312668E+00
        -11   -1    0    0    0    0  0.00000000000E+00  0.00000000000E+00  0.45593999997E+02  0.45594000000E+02  0.51100000000E-03 0.  1.
         11   -1    0    0    0    0 -0.00000000000E+00 -0.00000000000E+00 -0.45593999997E+02  0.45594000000E+02  0.51100000000E-03 0. -1.
    9900012    2    1    2    0    0  0.96992944437E+00 -0.24795455117E+02 -0.35607069090E+02  0.47787323429E+02  0.20000238841E+02 0.  0.
        -12    1    1    2    0    0 -0.96992944437E+00  0.24795455117E+02  0.35607069090E+02  0.43400676571E+02  0.00000000000E+00 0.  1.
         11    1    3    3    0    0  0.33587866602E+01 -0.18268758062E+02 -0.15385200663E+02  0.24119149418E+02  0.51100000000E-03 0. -1.
        -11    1    3    3    0    0 -0.51379973304E+01 -0.66730409992E+01 -0.99598030390E+01  0.13043242296E+02  0.51100000000E-03 0.  1.
         12    1    3    3    0    0  0.27491401146E+01  0.14634394375E+00 -0.10262065389E+02  0.10624931716E+02  0.00000000000E+00 0. -1.
</event>
<event>
 7    1  0.2783785E-010  0.4778728E+02  0.7816164E-02  0.1312668E+00
        -11   -1    0    0    0    0  0.00000000000E+00  0.00000000000E+00  0.45593999997E+02  0.45594000000E+02  0.51100000000E-03 0. -1.
         11   -1    0    0    0    0 -0.00000000000E+00 -0.00000000000E+00 -0.45593999997E+02  0.45594000000E+02  0.51100000000E-03 0.  1.
    9900012    2    1    2    0    0  0.25526778964E+02 -0.17723375335E+01  0.35055172790E+02  0.47787276919E+02  0.20000026784E+02 0.  0.
        -12    1    1    2    0    0 -0.25526778964E+02  0.17723375335E+01 -0.35055172790E+02  0.43400723081E+02  0.00000000000E+00 0.  1.
         11    1    3    3    0    0 -0.36493648330E+00 -0.55754988393E+01  0.59135074409E+01  0.81356583298E+01  0.51100000000E-03 0. -1.
        -11    1    3    3    0    0  0.69203731249E+01  0.34944486070E+01  0.65492672188E+01  0.10148676594E+02  0.51100000000E-03 0.  1.
         12    1    3    3    0    0  0.18971342323E+02  0.30871269881E+00  0.22592398130E+02  0.29502941995E+02  0.00000000000E+00 0. -1.
</event>
<event>
 7    1  0.2783785E-010  0.4778727E+02  0.7816164E-02  0.1312668E+00
        -11   -1    0    0    0    0  0.00000000000E+00  0.00000000000E+00  0.45593999997E+02  0.45594000000E+02  0.51100000000E-03 0. -1.
         11   -1    0    0    0    0 -0.00000000000E+00 -0.00000000000E+00 -0.45593999997E+02  0.45594000000E+02  0.51100000000E-03 0.  1.
    9900012    2    1    2    0    0  0.13096784595E+02 -0.40725843280E+02 -0.73145713218E+01  0.47787273840E+02  0.20000012746E+02 0.  0.
        -12    1    1    2    0    0 -0.13096784595E+02  0.40725843280E+02  0.73145713218E+01  0.43400726160E+02  0.00000000000E+00 0.  1.
         11    1    3    3    0    0  0.21296118007E+01 -0.23416677342E+02 -0.10304959010E+02  0.25672323709E+02  0.51100000000E-03 0. -1.
        -11    1    3    3    0    0  0.11467169258E+01  0.51018506529E+00  0.11212821988E+01  0.16830099641E+01  0.51100000000E-03 0.  1.
         12    1    3    3    0    0  0.98204558688E+01 -0.17819351003E+02  0.18691054897E+01  0.20431940166E+02  0.00000000000E+00 0. -1.
</event>
<event>
 7    1  0.2907691E-010  0.4778727E+02  0.7816164E-02  0.1312668E+00
        -11   -1    0    0    0    0  0.00000000000E+00  0.00000000000E+00  0.45593999997E+02  0.45594000000E+02  0.51100000000E-03 0. -1.
         11   -1    0    0    0    0 -0.00000000000E+00 -0.00000000000E+00 -0.45593999997E+02  0.45594000000E+02  0.51100000000E-03 0.  1.
    9900012    2    1    2    0    0 -0.39233146356E+02  0.18125518939E+02  0.39810976383E+01  0.47787270189E+02  0.19999996098E+02 0.  0.
        -12    1    1    2    0    0  0.39233146356E+02 -0.18125518939E+02 -0.39810976383E+01  0.43400729811E+02  0.00000000000E+00 0.  1.
         11    1    3    3    0    0 -0.14961511945E+02  0.32845098812E+01 -0.29862865640E+01  0.15606176743E+02  0.51100000000E-03 0. -1.
        -11    1    3    3    0    0  0.11802112750E+00 -0.24341392950E+00  0.32528666748E+01  0.32640957695E+01  0.51100000000E-03 0.  1.
        -12    1    3    3    0    0 -0.24389655538E+02  0.15084422987E+02  0.37145175276E+01  0.28916997676E+02  0.00000000000E+00 0.  1.
</event>
<event>
 7    1  0.2783785E-010  0.4778726E+02  0.7816164E-02  0.1312668E+00
        -11   -1    0    0    0    0  0.00000000000E+00  0.00000000000E+00  0.45593999997E+02  0.45594000000E+02  0.51100000000E-03 0.  1.
         11   -1    0    0    0    0 -0.00000000000E+00 -0.00000000000E+00 -0.45593999997E+02  0.45594000000E+02  0.51100000000E-03 0. -1.
    9900012    2    1    2    0    0 -0.35667911493E+02 -0.24128018674E+02  0.54095118253E+01  0.47787262523E+02  0.19999961145E+02 0.  0.
        -12    1    1    2    0    0  0.35667911493E+02  0.24128018674E+02 -0.54095118253E+01  0.43400737477E+02  0.00000000000E+00 0.  1.
         11    1    3    3    0    0 -0.12625589387E+02 -0.11711652118E+02 -0.31938509519E+01  0.17514821919E+02  0.51100000000E-03 0. -1.
        -11    1    3    3    0    0  0.48860406150E-01 -0.32339286724E+01 -0.13480412605E+01  0.35039830905E+01  0.51100000000E-03 0.  1.
        -12    1    3    3    0    0 -0.23091182512E+02 -0.91824378836E+01  0.99514040376E+01  0.26768457513E+02  0.00000000000E+00 0.  1.
</event>
<event>
 7    1  0.2783785E-010  0.4778726E+02  0.7816164E-02  0.1312668E+00
        -11   -1    0    0    0    0  0.00000000000E+00  0.00000000000E+00  0.45593999997E+02  0.45594000000E+02  0.51100000000E-03 0.  1.
         11   -1    0    0    0    0 -0.00000000000E+00 -0.00000000000E+00 -0.45593999997E+02  0.45594000000E+02  0.51100000000E-03 0. -1.
    9900012    2    1    2    0    0  0.90273851147E+01  0.11830680909E+02 -0.40769660268E+02  0.47787263934E+02  0.19999967579E+02 0.  0.
        -12    1    1    2    0    0 -0.90273851147E+01 -0.11830680909E+02  0.40769660268E+02  0.43400736066E+02  0.00000000000E+00 0.  1.
         11    1    3    3    0    0  0.11108729288E+02  0.10464025868E+02 -0.40867008780E+02  0.43623527031E+02  0.51100000000E-03 0. -1.
        -11    1    3    3    0    0 -0.20484337235E+01  0.43630251136E+00 -0.13144087497E+01  0.24726728905E+01  0.51100000000E-03 0.  1.
         12    1    3    3    0    0 -0.32910450124E-01  0.93035252903E+00  0.14117572618E+01  0.16910640119E+01  0.00000000000E+00 0. -1.
</event>
<event>
 7    1  0.2783785E-010  0.4778727E+02  0.7816164E-02  0.1312668E+00
        -11   -1    0    0    0    0  0.00000000000E+00  0.00000000000E+00  0.45593999997E+02  0.45594000000E+02  0.51100000000E-03 0.  1.
         11   -1    0    0    0    0 -0.00000000000E+00 -0.00000000000E+00 -0.45593999997E+02  0.45594000000E+02  0.51100000000E-03 0. -1.
    9900012    2    1    2    0    0 -0.37082537980E+02  0.83534386575E+01 -0.20945850983E+02  0.47787271506E+02  0.20000002102E+02 0.  0.
        -12    1    1    2    0    0  0.37082537980E+02 -0.83534386575E+01  0.20945850983E+02  0.43400728494E+02  0.00000000000E+00 0.  1.
         11    1    3    3    0    0 -0.14340553015E+02 -0.47198519655E+01 -0.96930992418E+01  0.17941143679E+02  0.51100000000E-03 0. -1.
        -11    1    3    3    0    0 -0.12243096245E+02  0.58150741700E+01 -0.12147934965E+01  0.13608240767E+02  0.51100000000E-03 0.  1.
        -12    1    3    3    0    0 -0.10498888720E+02  0.72582164530E+01 -0.10037958244E+02  0.16237887059E+02  0.00000000000E+00 0.  1.
</event>
<event>
 7    1  0.2783785E-010  0.4778727E+02  0.7816164E-02  0.1312668E+00
        -11   -1    0    0    0    0  0.00000000000E+00  0.00000000000E+00  0.45593999997E+02  0.45594000000E+02  0.51100000000E-03 0.  1.
         11   -1    0    0    0    0 -0.00000000000E+00 -0.00000000000E+00 -0.45593999997E+02  0.45594000000E+02  0.51100000000E-03 0. -1.
    9900012    2    1    2    0    0  0.41346716016E+02 -0.12524196886E+02  0.41493632478E+01  0.47787266731E+02  0.19999980334E+02 0.  0.
        -12    1    1    2    0    0 -0.41346716016E+02  0.12524196886E+02 -0.41493632478E+01  0.43400733269E+02  0.00000000000E+00 0.  1.
         11    1    3    3    0    0 -0.10374055121E+01 -0.17357453402E+01  0.29744833498E+00  0.20438928190E+01  0.51100000000E-03 0. -1.
        -11    1    3    3    0    0  0.87061310318E+01  0.22705784527E+01 -0.18198171961E+01  0.91795413252E+01  0.51100000000E-03 0.  1.
         12    1    3    3    0    0  0.33677990496E+02 -0.13059029998E+02  0.56717321090E+01  0.36563832587E+02  0.00000000000E+00 0. -1.
</event>
<event>
 7    1  0.2783785E-010  0.4778728E+02  0.7816164E-02  0.1312668E+00
        -11   -1    0    0    0    0  0.00000000000E+00  0.00000000000E+00  0.45593999997E+02  0.45594000000E+02  0.51100000000E-03 0.  1.
         11   -1    0    0    0    0 -0.00000000000E+00 -0.00000000000E+00 -0.45593999997E+02  0.45594000000E+02  0.51100000000E-03 0. -1.
    9900012    2    1    2    0    0 -0.24073953531E+02 -0.51661936164E+01 -0.35740424019E+02  0.47787277608E+02  0.20000029926E+02 0.  0.
        -12    1    1    2    0    0  0.24073953531E+02  0.51661936164E+01  0.35740424019E+02  0.43400722392E+02  0.00000000000E+00 0.  1.
         11    1    3    3    0    0 -0.15879140820E+01 -0.25121810405E+01 -0.44184758460E+01  0.53249839225E+01  0.51100000000E-03 0. -1.
        -11    1    3    3    0    0 -0.17572428894E+00  0.39928973390E+01 -0.10479771794E+02  0.11216047668E+02  0.51100000000E-03 0.  1.
        -12    1    3    3    0    0 -0.22310315160E+02 -0.66469099150E+01 -0.20842176379E+02  0.31246246017E+02  0.00000000000E+00 0.  1.
</event>
<event>
 7    1  0.2783785E-010  0.4778727E+02  0.7816164E-02  0.1312668E+00
        -11   -1    0    0    0    0  0.00000000000E+00  0.00000000000E+00  0.45593999997E+02  0.45594000000E+02  0.51100000000E-03 0. -1.
         11   -1    0    0    0    0 -0.00000000000E+00 -0.00000000000E+00 -0.45593999997E+02  0.45594000000E+02  0.51100000000E-03 0.  1.
    9900012    2    1    2    0    0  0.38314987142E+01  0.26388415285E+02  0.34243173693E+02  0.47787265119E+02  0.19999972984E+02 0.  0.
        -12    1    1    2    0    0 -0.38314987142E+01 -0.26388415285E+02 -0.34243173693E+02  0.43400734881E+02  0.00000000000E+00 0.  1.
         11    1    3    3    0    0  0.40652147807E+01 -0.38710369210E+00  0.55063469441E+01  0.68553393360E+01  0.51100000000E-03 0. -1.
        -11    1    3    3    0    0  0.10616359612E+01  0.81177229076E+01  0.16953606018E+02  0.18826822711E+02  0.51100000000E-03 0.  1.
        -12    1    3    3    0    0 -0.12953520276E+01  0.18657796069E+02  0.11783220731E+02  0.22105103072E+02  0.00000000000E+00 0.  1.
</event>
<event>
 7    1  0.2783785E-010  0.4778727E+02  0.7816164E-02  0.1312668E+00
        -11   -1    0    0    0    0  0.00000000000E+00  0.00000000000E+00  0.45593999997E+02  0.45594000000E+02  0.51100000000E-03 0. -1.
         11   -1    0    0    0    0 -0.00000000000E+00 -0.00000000000E+00 -0.45593999997E+02  0.45594000000E+02  0.51100000000E-03 0.  1.
    9900012    2    1    2    0    0 -0.32259478577E+02  0.16286552315E+02 -0.24035338362E+02  0.47787271497E+02  0.20000002065E+02 0.  0.
        -12    1    1    2    0    0  0.32259478577E+02 -0.16286552315E+02  0.24035338362E+02  0.43400728503E+02  0.00000000000E+00 0.  1.
         11    1    3    3    0    0 -0.79444010335E+01  0.94080704275E+01 -0.24181148861E+01  0.12548807785E+02  0.51100000000E-03 0. -1.
        -11    1    3    3    0    0 -0.21321568474E+02  0.66802073562E+01 -0.12418195755E+02  0.25562590607E+02  0.51100000000E-03 0.  1.
        -12    1    3    3    0    0 -0.29935090702E+01  0.19827453134E+00 -0.91990277208E+01  0.96758731054E+01  0.00000000000E+00 0.  1.
</event>
<event>
 7    1  0.2783785E-010  0.4778726E+02  0.7816164E-02  0.1312668E+00
        -11   -1    0    0    0    0  0.00000000000E+00  0.00000000000E+00  0.45593999997E+02  0.45594000000E+02  0.51100000000E-03 0. -1.
         11   -1    0    0    0    0 -0.00000000000E+00 -0.00000000000E+00 -0.45593999997E+02  0.45594000000E+02  0.51100000000E-03 0.  1.
    9900012    2    1    2    0    0 -0.11177272938E+02 -0.15599744393E+01  0.41907743048E+02  0.47787264085E+02  0.19999968268E+02 0.  0.
        -12    1    1    2    0    0  0.11177272938E+02  0.15599744393E+01 -0.41907743048E+02  0.43400735915E+02  0.00000000000E+00 0.  1.
         11    1    3    3    0    0  0.53555969359E+00 -0.17176516269E+00  0.19656902094E+02  0.19664946673E+02  0.51100000000E-03 0. -1.
        -11    1    3    3    0    0 -0.99072197515E+01 -0.64348295114E+01  0.15987801008E+02  0.19878878624E+02  0.51100000000E-03 0.  1.
         12    1    3    3    0    0 -0.18056128802E+01  0.50466202348E+01  0.62630399464E+01  0.82434387872E+01  0.00000000000E+00 0. -1.
</event>
<event>
 7    1  0.2783785E-010  0.4778727E+02  0.7816164E-02  0.1312668E+00
        -11   -1    0    0    0    0  0.00000000000E+00  0.00000000000E+00  0.45593999997E+02  0.45594000000E+02  0.51100000000E-03 0. -1.
         11   -1    0    0    0    0 -0.00000000000E+00 -0.00000000000E+00 -0.45593999997E+02  0.45594000000E+02  0.51100000000E-03 0.  1.
    9900012    2    1    2    0    0 -0.24193064552E+02  0.34266532202E+02  0.11141075696E+02  0.47787272250E+02  0.20000005498E+02 0.  0.
        -12    1    1    2    0    0  0.24193064552E+02 -0.34266532202E+02 -0.11141075696E+02  0.43400727750E+02  0.00000000000E+00 0.  1.
         11    1    3    3    0    0 -0.55595293076E+01  0.62946490902E+00 -0.73056601789E+00  0.56425454506E+01  0.51100000000E-03 0. -1.
        -11    1    3    3    0    0 -0.53987271993E+01  0.14820101024E+01  0.25030767931E+01  0.61325364254E+01  0.51100000000E-03 0.  1.
         12    1    3    3    0    0 -0.13234808045E+02  0.32155057190E+02  0.93685649211E+01  0.36012190374E+02  0.00000000000E+00 0. -1.
</event>
<event>
 7    1  0.2783785E-010  0.4778727E+02  0.7816164E-02  0.1312668E+00
        -11   -1    0    0    0    0  0.00000000000E+00  0.00000000000E+00  0.45593999997E+02  0.45594000000E+02  0.51100000000E-03 0.  1.
         11   -1    0    0    0    0 -0.00000000000E+00 -0.00000000000E+00 -0.45593999997E+02  0.45594000000E+02  0.51100000000E-03 0. -1.
    9900012    2    1    2    0    0 -0.14701202278E+01 -0.42841160937E+02 -0.67894689121E+01  0.47787271757E+02  0.20000003247E+02 0.  0.
        -12    1    1    2    0    0  0.14701202278E+01  0.42841160937E+02  0.67894689121E+01  0.43400728243E+02  0.00000000000E+00 0.  1.
         11    1    3    3    0    0  0.51864315542E+01 -0.29578035337E+02 -0.98535487922E+01  0.31604614706E+02  0.51100000000E-03 0. -1.
        -11    1    3    3    0    0  0.89925018299E-01 -0.31743862480E+01  0.24847419454E+01  0.40322149443E+01  0.51100000000E-03 0.  1.
         12    1    3    3    0    0 -0.67464768003E+01 -0.10088739353E+02  0.57933793472E+00  0.12150442107E+02  0.00000000000E+00 0. -1.
</event>
<event>
 7    1  0.3669569E-010  0.4778727E+02  0.7816164E-02  0.1312668E+00
        -11   -1    0    0    0    0  0.00000000000E+00  0.00000000000E+00  0.45593999997E+02  0.45594000000E+02  0.51100000000E-03 0. -1.
         11   -1    0    0    0    0 -0.00000000000E+00 -0.00000000000E+00 -0.45593999997E+02  0.45594000000E+02  0.51100000000E-03 0.  1.
    9900012    2    1    2    0    0  0.29659586610E+02 -0.28186630605E+01  0.31559270686E+02  0.47787268375E+02  0.19999987829E+02 0.  0.
        -12    1    1    2    0    0 -0.29659586610E+02  0.28186630605E+01 -0.31559270686E+02  0.43400731625E+02  0.00000000000E+00 0.  1.
         11    1    3    3    0    0  0.17110860539E+02  0.57436998219E+01  0.16619043047E+02  0.24534959305E+02  0.51100000000E-03 0. -1.
        -11    1    3    3    0    0  0.11420390031E+02 -0.52497110088E+01  0.15222904325E+02  0.19741367492E+02  0.51100000000E-03 0.  1.
        -12    1    3    3    0    0  0.11283360405E+01 -0.33126518736E+01 -0.28267668544E+00  0.35109415780E+01  0.00000000000E+00 0.  1.
</event>
<event>
 7    1  0.2783785E-010  0.4778727E+02  0.7816164E-02  0.1312668E+00
        -11   -1    0    0    0    0  0.00000000000E+00  0.00000000000E+00  0.45593999997E+02  0.45594000000E+02  0.51100000000E-03 0.  1.
         11   -1    0    0    0    0 -0.00000000000E+00 -0.00000000000E+00 -0.45593999997E+02  0.45594000000E+02  0.51100000000E-03 0. -1.
    9900012    2    1    2    0    0  0.38569562363E+02 -0.16846030949E+02 -0.10593566503E+02  0.47787267853E+02  0.19999985448E+02 0.  0.
        -12    1    1    2    0    0 -0.38569562363E+02  0.16846030949E+02  0.10593566503E+02  0.43400732147E+02  0.00000000000E+00 0.  1.
         11    1    3    3    0    0  0.12553497621E+02 -0.14558274121E+02 -0.74943087270E+01  0.20632457718E+02  0.51100000000E-03 0.  1.
        -11    1    3    3    0    0  0.11783885491E+02 -0.43609030287E+01 -0.20846430893E+01  0.12736685972E+02  0.51100000000E-03 0. -1.
        -12    1    3    3    0    0  0.14232179252E+02  0.20731462005E+01 -0.10146146867E+01  0.14418124163E+02  0.00000000000E+00 0.  1.
</event>
<event>
 7    1  0.2783785E-010  0.4778727E+02  0.7816164E-02  0.1312668E+00
        -11   -1    0    0    0    0  0.00000000000E+00  0.00000000000E+00  0.45593999997E+02  0.45594000000E+02  0.51100000000E-03 0.  1.
         11   -1    0    0    0    0 -0.00000000000E+00 -0.00000000000E+00 -0.45593999997E+02  0.45594000000E+02  0.51100000000E-03 0. -1.
    9900012    2    1    2    0    0  0.64840353215E+01  0.24994138333E+02 -0.34883715452E+02  0.47787271103E+02  0.20000000267E+02 0.  0.
        -12    1    1    2    0    0 -0.64840353215E+01 -0.24994138333E+02  0.34883715452E+02  0.43400728897E+02  0.00000000000E+00 0.  1.
         11    1    3    3    0    0  0.50612347632E+01  0.42863233703E+01 -0.84464454128E+01  0.10739232083E+02  0.51100000000E-03 0. -1.
        -11    1    3    3    0    0 -0.34540541019E+01  0.15900613754E+02 -0.96499430452E+01  0.18917753792E+02  0.51100000000E-03 0.  1.
        -12    1    3    3    0    0  0.48768546601E+01  0.48072012086E+01 -0.16787326994E+02  0.18130285228E+02  0.00000000000E+00 0.  1.
</event>
<event>
 7    1  0.2783785E-010  0.4778727E+02  0.7816164E-02  0.1312668E+00
        -11   -1    0    0    0    0  0.00000000000E+00  0.00000000000E+00  0.45593999997E+02  0.45594000000E+02  0.51100000000E-03 0. -1.
         11   -1    0    0    0    0 -0.00000000000E+00 -0.00000000000E+00 -0.45593999997E+02  0.45594000000E+02  0.51100000000E-03 0.  1.
    9900012    2    1    2    0    0 -0.29450279426E+01  0.20085156908E+02  0.38360608852E+02  0.47787273865E+02  0.20000012858E+02 0.  0.
        -12    1    1    2    0    0  0.29450279426E+01 -0.20085156908E+02 -0.38360608852E+02  0.43400726135E+02  0.00000000000E+00 0.  1.
         11    1    3    3    0    0 -0.37199437757E+01 -0.22246265931E+01  0.11373271669E+02  0.12171205934E+02  0.51100000000E-03 0. -1.
        -11    1    3    3    0    0  0.87682441434E+00  0.98700453951E+01  0.16939997803E+02  0.19625242495E+02  0.51100000000E-03 0.  1.
        -12    1    3    3    0    0 -0.10190858119E+00  0.12439738106E+02  0.10047339380E+02  0.15990825436E+02  0.00000000000E+00 0.  1.
</event>
<event>
 7    1  0.2783785E-010  0.4778727E+02  0.7816164E-02  0.1312668E+00
        -11   -1    0    0    0    0  0.00000000000E+00  0.00000000000E+00  0.45593999997E+02  0.45594000000E+02  0.51100000000E-03 0.  1.
         11   -1    0    0    0    0 -0.00000000000E+00 -0.00000000000E+00 -0.45593999997E+02  0.45594000000E+02  0.51100000000E-03 0. -1.
    9900012    2    1    2    0    0 -0.34585270915E+02 -0.18038595509E+02 -0.19028696515E+02  0.47787272088E+02  0.20000004760E+02 0.  0.
        -12    1    1    2    0    0  0.34585270915E+02  0.18038595509E+02  0.19028696515E+02  0.43400727912E+02  0.00000000000E+00 0.  1.
         11    1    3    3    0    0 -0.21116009784E+02 -0.12964039364E+02 -0.10137371513E+02  0.26771598519E+02  0.51100000000E-03 0. -1.
        -11    1    3    3    0    0 -0.15591177620E+02 -0.26635815658E+01 -0.70919336759E+01  0.17334215006E+02  0.51100000000E-03 0.  1.
        -12    1    3    3    0    0  0.21219164891E+01 -0.24109745793E+01 -0.17993913268E+01  0.36814585636E+01  0.00000000000E+00 0.  1.
</event>
<event>
 7    1  0.2783785E-010  0.4778728E+02  0.7816164E-02  0.1312668E+00
        -11   -1    0    0    0    0  0.00000000000E+00  0.00000000000E+00  0.45593999997E+02  0.45594000000E+02  0.51100000000E-03 0.  1.
         11   -1    0    0    0    0 -0.00000000000E+00 -0.00000000000E+00 -0.45593999997E+02  0.45594000000E+02  0.51100000000E-03 0. -1.
    9900012    2    1    2    0    0  0.15657398533E+02 -0.71675386619E+01 -0.39838357434E+02  0.47787280394E+02  0.20000042627E+02 0.  0.
        -12    1    1    2    0    0 -0.15657398533E+02  0.71675386619E+01  0.39838357434E+02  0.43400719606E+02  0.00000000000E+00 0.  1.
         11    1    3    3    0    0  0.20976969622E+01 -0.29120598256E+01 -0.13255214525E+02  0.13732484748E+02  0.51100000000E-03 0. -1.
        -11    1    3    3    0    0  0.79186523004E+01 -0.20393550810E+01 -0.26770156875E+02  0.27991165084E+02  0.51100000000E-03 0.  1.
        -12    1    3    3    0    0  0.56410492704E+01 -0.22161237554E+01  0.18701396582E+00  0.60636305621E+01  0.00000000000E+00 0.  1.
</event>
<event>
 7    1  0.2783785E-010  0.4778727E+02  0.7816164E-02  0.1312668E+00
        -11   -1    0    0    0    0  0.00000000000E+00  0.00000000000E+00  0.45593999997E+02  0.45594000000E+02  0.51100000000E-03 0.  1.
         11   -1    0    0    0    0 -0.00000000000E+00 -0.00000000000E+00 -0.45593999997E+02  0.45594000000E+02  0.51100000000E-03 0. -1.
    9900012    2    1    2    0    0  0.25573741193E+02  0.21752179650E+02 -0.27503627883E+02  0.47787272991E+02  0.20000008877E+02 0.  0.
        -12    1    1    2    0    0 -0.25573741193E+02 -0.21752179650E+02  0.27503627883E+02  0.43400727009E+02  0.00000000000E+00 0.  1.
         11    1    3    3    0    0  0.35296681757E+01  0.26784733156E+01  0.49278435276E+00  0.44582074214E+01  0.51100000000E-03 0. -1.
        -11    1    3    3    0    0  0.13389769669E+02  0.34992822096E+01 -0.61669084511E+01  0.15151292614E+02  0.51100000000E-03 0.  1.
         12    1    3    3    0    0  0.86543033483E+01  0.15574424125E+02 -0.21829503785E+02  0.28177772956E+02  0.00000000000E+00 0. -1.
</event>
<event>
 7    1  0.2783785E-010  0.4778727E+02  0.7816164E-02  0.1312668E+00
        -11   -1    0    0    0    0  0.00000000000E+00  0.00000000000E+00  0.45593999997E+02  0.45594000000E+02  0.51100000000E-03 0.  1.
         11   -1    0    0    0    0 -0.00000000000E+00 -0.00000000000E+00 -0.45593999997E+02  0.45594000000E+02  0.51100000000E-03 0. -1.
    9900012    2    1    2    0    0 -0.32916097746E+02 -0.25356004063E+02  0.12538999438E+02  0.47787274893E+02  0.20000017549E+02 0.  0.
        -12    1    1    2    0    0  0.32916097746E+02  0.25356004063E+02 -0.12538999438E+02  0.43400725107E+02  0.00000000000E+00 0.  1.
         11    1    3    3    0    0 -0.25272662438E+02 -0.16495739295E+02  0.73837575178E+00  0.30188774082E+02  0.51100000000E-03 0. -1.
        -11    1    3    3    0    0 -0.49326509952E+01 -0.73047123281E+01  0.50472797068E+01  0.10157012392E+02  0.51100000000E-03 0.  1.
         12    1    3    3    0    0 -0.27107843128E+01 -0.15555524404E+01  0.67533439792E+01  0.74414884188E+01  0.00000000000E+00 0. -1.
</event>
<event>
 7    1  0.2783785E-010  0.4778727E+02  0.7816164E-02  0.1312668E+00
        -11   -1    0    0    0    0  0.00000000000E+00  0.00000000000E+00  0.45593999997E+02  0.45594000000E+02  0.51100000000E-03 0.  1.
         11   -1    0    0    0    0 -0.00000000000E+00 -0.00000000000E+00 -0.45593999997E+02  0.45594000000E+02  0.51100000000E-03 0. -1.
    9900012    2    1    2    0    0 -0.28937355568E+02 -0.15185221841E+02 -0.28559789822E+02  0.47787272998E+02  0.20000008905E+02 0.  0.
        -12    1    1    2    0    0  0.28937355568E+02  0.15185221841E+02  0.28559789822E+02  0.43400727002E+02  0.00000000000E+00 0.  1.
         11    1    3    3    0    0 -0.73602423774E+01 -0.39410289656E+01 -0.82547147664E+00  0.83896531861E+01  0.51100000000E-03 0. -1.
        -11    1    3    3    0    0 -0.68832150491E+01  0.25181482411E+01 -0.42789774958E+01  0.84870117620E+01  0.51100000000E-03 0.  1.
         12    1    3    3    0    0 -0.14693898142E+02 -0.13762341117E+02 -0.23455340850E+02  0.30910608050E+02  0.00000000000E+00 0. -1.
</event>
<event>
 7    1  0.2783785E-010  0.4778730E+02  0.7816164E-02  0.1312668E+00
        -11   -1    0    0    0    0  0.00000000000E+00  0.00000000000E+00  0.45593999997E+02  0.45594000000E+02  0.51100000000E-03 0. -1.
         11   -1    0    0    0    0 -0.00000000000E+00 -0.00000000000E+00 -0.45593999997E+02  0.45594000000E+02  0.51100000000E-03 0.  1.
    9900012    2    1    2    0    0  0.35655699968E+02  0.44096722989E+01  0.24348442275E+02  0.47787299646E+02  0.20000130407E+02 0.  0.
        -12    1    1    2    0    0 -0.35655699968E+02 -0.44096722989E+01 -0.24348442275E+02  0.43400700354E+02  0.00000000000E+00 0.  1.
         11    1    3    3    0    0  0.19903329966E+02 -0.67927427676E+00  0.11614448186E+02  0.23054269978E+02  0.51100000000E-03 0. -1.
        -11    1    3    3    0    0  0.55832808947E+01  0.14719376612E+01  0.12687651562E+02  0.13939732008E+02  0.51100000000E-03 0.  1.
         12    1    3    3    0    0  0.10169089107E+02  0.36170089145E+01  0.46342526307E-01  0.10793297660E+02  0.00000000000E+00 0. -1.
</event>
<event>
 7    1  0.2783785E-010  0.4778727E+02  0.7816164E-02  0.1312668E+00
        -11   -1    0    0    0    0  0.00000000000E+00  0.00000000000E+00  0.45593999997E+02  0.45594000000E+02  0.51100000000E-03 0. -1.
         11   -1    0    0    0    0 -0.00000000000E+00 -0.00000000000E+00 -0.45593999997E+02  0.45594000000E+02  0.51100000000E-03 0.  1.
    9900012    2    1    2    0    0 -0.24159427400E+02 -0.35533219888E+02 -0.61102952797E+01  0.47787270095E+02  0.19999995672E+02 0.  0.
        -12    1    1    2    0    0  0.24159427400E+02  0.35533219888E+02  0.61102952797E+01  0.43400729905E+02  0.00000000000E+00 0.  1.
         11    1    3    3    0    0 -0.11510904857E+02 -0.19226388413E+02 -0.13058459099E+02  0.25936042418E+02  0.51100000000E-03 0. -1.
        -11    1    3    3    0    0 -0.37795137976E+01 -0.47250270466E+01  0.29157968320E+01  0.67165822085E+01  0.51100000000E-03 0.  1.
         12    1    3    3    0    0 -0.88690087457E+01 -0.11581804428E+02  0.40323669870E+01  0.15134645468E+02  0.00000000000E+00 0. -1.
</event>
<event>
 7    1  0.2783785E-010  0.4778729E+02  0.7816164E-02  0.1312668E+00
        -11   -1    0    0    0    0  0.00000000000E+00  0.00000000000E+00  0.45593999997E+02  0.45594000000E+02  0.51100000000E-03 0. -1.
         11   -1    0    0    0    0 -0.00000000000E+00 -0.00000000000E+00 -0.45593999997E+02  0.45594000000E+02  0.51100000000E-03 0.  1.
    9900012    2    1    2    0    0  0.23194440803E+02 -0.23328910170E+02  0.28309039788E+02  0.47787287246E+02  0.20000073868E+02 0.  0.
        -12    1    1    2    0    0 -0.23194440803E+02  0.23328910170E+02 -0.28309039788E+02  0.43400712754E+02  0.00000000000E+00 0.  1.
         11    1    3    3    0    0 -0.23016889367E+01 -0.88836554164E+00  0.49465757008E+01  0.55277098985E+01  0.51100000000E-03 0. -1.
        -11    1    3    3    0    0  0.77376983070E+01 -0.11801056460E+02  0.63954706605E+01  0.15493190565E+02  0.51100000000E-03 0.  1.
         12    1    3    3    0    0  0.17758431433E+02 -0.10639488168E+02  0.16966993426E+02  0.26766386782E+02  0.00000000000E+00 0. -1.
</event>
<event>
 7    1  0.2783785E-010  0.4778727E+02  0.7816164E-02  0.1312668E+00
        -11   -1    0    0    0    0  0.00000000000E+00  0.00000000000E+00  0.45593999997E+02  0.45594000000E+02  0.51100000000E-03 0. -1.
         11   -1    0    0    0    0 -0.00000000000E+00 -0.00000000000E+00 -0.45593999997E+02  0.45594000000E+02  0.51100000000E-03 0.  1.
    9900012    2    1    2    0    0  0.20147604269E+02 -0.27709994173E+02  0.26643076150E+02  0.47787271417E+02  0.20000001697E+02 0.  0.
        -12    1    1    2    0    0 -0.20147604269E+02  0.27709994173E+02 -0.26643076150E+02  0.43400728583E+02  0.00000000000E+00 0.  1.
         11    1    3    3    0    0  0.58480364323E+01 -0.39694676103E+01  0.70170688100E+01  0.99596916703E+01  0.51100000000E-03 0. -1.
        -11    1    3    3    0    0  0.14368335298E+02 -0.21356374209E+02  0.95201508297E+01  0.27444071321E+02  0.51100000000E-03 0.  1.
        -12    1    3    3    0    0 -0.68767461562E-01 -0.23841523537E+01  0.10105856511E+02  0.10383508425E+02  0.00000000000E+00 0.  1.
</event>
<event>
 7    1  0.2783785E-010  0.4778726E+02  0.7816164E-02  0.1312668E+00
        -11   -1    0    0    0    0  0.00000000000E+00  0.00000000000E+00  0.45593999997E+02  0.45594000000E+02  0.51100000000E-03 0.  1.
         11   -1    0    0    0    0 -0.00000000000E+00 -0.00000000000E+00 -0.45593999997E+02  0.45594000000E+02  0.51100000000E-03 0. -1.
    9900012    2    1    2    0    0  0.31805284394E+01 -0.30716253532E+02 -0.30496233634E+02  0.47787259706E+02  0.19999948304E+02 0.  0.
        -12    1    1    2    0    0 -0.31805284394E+01  0.30716253532E+02  0.30496233634E+02  0.43400740294E+02  0.00000000000E+00 0.  1.
         11    1    3    3    0    0  0.73065567440E+00 -0.17785343300E+02 -0.14594017563E+02  0.23018202425E+02  0.51100000000E-03 0. -1.
        -11    1    3    3    0    0 -0.14900125445E+01 -0.32268461158E+01  0.19629119976E+01  0.40602582441E+01  0.51100000000E-03 0.  1.
        -12    1    3    3    0    0  0.39398853094E+01 -0.97040641162E+01 -0.17865128069E+02  0.20708799037E+02  0.00000000000E+00 0.  1.
</event>
<event>
 7    1  0.2783785E-010  0.4778727E+02  0.7816164E-02  0.1312668E+00
        -11   -1    0    0    0    0  0.00000000000E+00  0.00000000000E+00  0.45593999997E+02  0.45594000000E+02  0.51100000000E-03 0.  1.
         11   -1    0    0    0    0 -0.00000000000E+00 -0.00000000000E+00 -0.45593999997E+02  0.45594000000E+02  0.51100000000E-03 0. -1.
    9900012    2    1    2    0    0  0.30767811448E+02 -0.12948977256E+02  0.27736060577E+02  0.47787270863E+02  0.19999999172E+02 0.  0.
        -12    1    1    2    0    0 -0.30767811448E+02  0.12948977256E+02 -0.27736060577E+02  0.43400729137E+02  0.00000000000E+00 0.  1.
         11    1    3    3    0    0 -0.16463526659E+00 -0.51446924305E+00 -0.92657116433E+00  0.10725286741E+01  0.51100000000E-03 0. -1.
        -11    1    3    3    0    0  0.23412397238E+02 -0.53221637667E+01  0.27167608285E+02  0.36256650587E+02  0.51100000000E-03 0.  1.
        -12    1    3    3    0    0  0.75200494772E+01 -0.71123442465E+01  0.14950234563E+01  0.10458091602E+02  0.00000000000E+00 0.  1.
</event>
<event>
 7    1  0.2783785E-010  0.4778727E+02  0.7816164E-02  0.1312668E+00
        -11   -1    0    0    0    0  0.00000000000E+00  0.00000000000E+00  0.45593999997E+02  0.45594000000E+02  0.51100000000E-03 0.  1.
         11   -1    0    0    0    0 -0.00000000000E+00 -0.00000000000E+00 -0.45593999997E+02  0.45594000000E+02  0.51100000000E-03 0. -1.
    9900012    2    1    2    0    0  0.93691761677E+01 -0.25055859622E+02 -0.34176685695E+02  0.47787269493E+02  0.19999992925E+02 0.  0.
        -12    1    1    2    0    0 -0.93691761677E+01  0.25055859622E+02  0.34176685695E+02  0.43400730507E+02  0.00000000000E+00 0.  1.
         11    1    3    3    0    0  0.11450064071E+02 -0.18240841294E+02 -0.30472560528E+02  0.37314999715E+02  0.51100000000E-03 0.  1.
        -11    1    3    3    0    0 -0.84399105718E+00 -0.75678090913E+01 -0.44745679023E+01  0.88320899860E+01  0.51100000000E-03 0. -1.
        -12    1    3    3    0    0 -0.12368968461E+01  0.75279076303E+00  0.77044273533E+00  0.16401797918E+01  0.00000000000E+00 0.  1.
</event>
<event>
 7    1  0.2783785E-010  0.4778727E+02  0.7816164E-02  0.1312668E+00
        -11   -1    0    0    0    0  0.00000000000E+00  0.00000000000E+00  0.45593999997E+02  0.45594000000E+02  0.51100000000E-03 0.  1.
         11   -1    0    0    0    0 -0.00000000000E+00 -0.00000000000E+00 -0.45593999997E+02  0.45594000000E+02  0.51100000000E-03 0. -1.
    9900012    2    1    2    0    0 -0.11606356084E+02  0.90148799348E+01 -0.40836845363E+02  0.47787268428E+02  0.19999988071E+02 0.  0.
        -12    1    1    2    0    0  0.11606356084E+02 -0.90148799348E+01  0.40836845363E+02  0.43400731572E+02  0.00000000000E+00 0.  1.
         11    1    3    3    0    0 -0.61321384639E+01 -0.42192196554E+01 -0.82068495765E+01  0.11079590104E+02  0.51100000000E-03 0. -1.
        -11    1    3    3    0    0  0.69226877499E-01  0.51677575885E+01 -0.42626244632E+01  0.66992893974E+01  0.51100000000E-03 0.  1.
         12    1    3    3    0    0 -0.55434444972E+01  0.80663420017E+01 -0.28367371323E+02  0.30008388927E+02  0.00000000000E+00 0. -1.
</event>
<event>
 7    1  0.2783785E-010  0.4778728E+02  0.7816164E-02  0.1312668E+00
        -11   -1    0    0    0    0  0.00000000000E+00  0.00000000000E+00  0.45593999997E+02  0.45594000000E+02  0.51100000000E-03 0.  1.
         11   -1    0    0    0    0 -0.00000000000E+00 -0.00000000000E+00 -0.45593999997E+02  0.45594000000E+02  0.51100000000E-03 0. -1.
    9900012    2    1    2    0    0 -0.85963126723E+01 -0.36281806132E+02  0.22211635383E+02  0.47787276571E+02  0.20000025198E+02 0.  0.
        -12    1    1    2    0    0  0.85963126723E+01  0.36281806132E+02 -0.22211635383E+02  0.43400723429E+02  0.00000000000E+00 0.  1.
         11    1    3    3    0    0  0.16386343703E+01 -0.66399412935E+01  0.74727734521E+01  0.10129969709E+02  0.51100000000E-03 0. -1.
        -11    1    3    3    0    0  0.23865211150E+01 -0.12849274304E+02  0.90404914107E+01  0.15891186815E+02  0.51100000000E-03 0.  1.
         12    1    3    3    0    0 -0.12621468158E+02 -0.16792590535E+02  0.56983705204E+01  0.21766120047E+02  0.00000000000E+00 0. -1.
</event>
<event>
 7    1  0.2783785E-010  0.4778727E+02  0.7816164E-02  0.1312668E+00
        -11   -1    0    0    0    0  0.00000000000E+00  0.00000000000E+00  0.45593999997E+02  0.45594000000E+02  0.51100000000E-03 0. -1.
         11   -1    0    0    0    0 -0.00000000000E+00 -0.00000000000E+00 -0.45593999997E+02  0.45594000000E+02  0.51100000000E-03 0.  1.
    9900012    2    1    2    0    0  0.30088269195E+02  0.31061995849E+02  0.36703746514E+01  0.47787272133E+02  0.20000004965E+02 0.  0.
        -12    1    1    2    0    0 -0.30088269195E+02 -0.31061995849E+02 -0.36703746514E+01  0.43400727867E+02  0.00000000000E+00 0.  1.
         11    1    3    3    0    0  0.44332160557E-01 -0.19759376347E+01 -0.11639763811E+01  0.22937166681E+01  0.51100000000E-03 0. -1.
        -11    1    3    3    0    0  0.77157415884E+01  0.11916849032E+02  0.39906667345E+01  0.14746843064E+02  0.51100000000E-03 0.  1.
         12    1    3    3    0    0  0.22328195446E+02  0.21121084451E+02  0.84368429795E+00  0.30746712401E+02  0.00000000000E+00 0. -1.
</event>
<event>
 7    1  0.2783785E-010  0.4778727E+02  0.7816164E-02  0.1312668E+00
        -11   -1    0    0    0    0  0.00000000000E+00  0.00000000000E+00  0.45593999997E+02  0.45594000000E+02  0.51100000000E-03 0.  1.
         11   -1    0    0    0    0 -0.00000000000E+00 -0.00000000000E+00 -0.45593999997E+02  0.45594000000E+02  0.51100000000E-03 0. -1.
    9900012    2    1    2    0    0 -0.38971450138E+02  0.30385980170E+01 -0.18857782006E+02  0.47787274822E+02  0.20000017224E+02 0.  0.
        -12    1    1    2    0    0  0.38971450138E+02 -0.30385980170E+01  0.18857782006E+02  0.43400725178E+02  0.00000000000E+00 0.  1.
         11    1    3    3    0    0 -0.27017726446E+02  0.57116376069E+01 -0.90133948059E+01  0.29048608102E+02  0.51100000000E-03 0. -1.
        -11    1    3    3    0    0 -0.10867120444E+02 -0.46941556344E+01 -0.40579618651E+01  0.12513850672E+02  0.51100000000E-03 0.  1.
        -12    1    3    3    0    0 -0.10866032477E+01  0.20211160446E+01 -0.57864253348E+01  0.62248160486E+01  0.00000000000E+00 0.  1.
</event>
<event>
 7    1  0.2783785E-010  0.4778727E+02  0.7816164E-02  0.1312668E+00
        -11   -1    0    0    0    0  0.00000000000E+00  0.00000000000E+00  0.45593999997E+02  0.45594000000E+02  0.51100000000E-03 0. -1.
         11   -1    0    0    0    0 -0.00000000000E+00 -0.00000000000E+00 -0.45593999997E+02  0.45594000000E+02  0.51100000000E-03 0.  1.
    9900012    2    1    2    0    0 -0.21700332894E+02 -0.82399888919E+01  0.36671808206E+02  0.47787269802E+02  0.19999994335E+02 0.  0.
        -12    1    1    2    0    0  0.21700332894E+02  0.82399888919E+01 -0.36671808206E+02  0.43400730198E+02  0.00000000000E+00 0.  1.
         11    1    3    3    0    0 -0.65784824134E+01 -0.64889281085E+01  0.63181712513E+01  0.11193833440E+02  0.51100000000E-03 0. -1.
        -11    1    3    3    0    0 -0.10161488695E+01  0.20535795913E+01  0.15822768742E+02  0.15987800305E+02  0.51100000000E-03 0.  1.
         12    1    3    3    0    0 -0.14105701611E+02 -0.38046403747E+01  0.14530868213E+02  0.20605636057E+02  0.00000000000E+00 0. -1.
</event>
<event>
 7    1  0.2783785E-010  0.4778726E+02  0.7816164E-02  0.1312668E+00
        -11   -1    0    0    0    0  0.00000000000E+00  0.00000000000E+00  0.45593999997E+02  0.45594000000E+02  0.51100000000E-03 0. -1.
         11   -1    0    0    0    0 -0.00000000000E+00 -0.00000000000E+00 -0.45593999997E+02  0.45594000000E+02  0.51100000000E-03 0.  1.
    9900012    2    1    2    0    0  0.64662416776E+01 -0.18759860843E+02  0.38598960413E+02  0.47787258011E+02  0.19999940574E+02 0.  0.
        -12    1    1    2    0    0 -0.64662416776E+01  0.18759860843E+02 -0.38598960413E+02  0.43400741989E+02  0.00000000000E+00 0.  1.
         11    1    3    3    0    0  0.13033794523E+01 -0.40556851464E+01  0.15864343745E+02  0.16426344168E+02  0.51100000000E-03 0. -1.
        -11    1    3    3    0    0 -0.32731338353E+01 -0.10157363474E+02  0.17347760662E+02  0.20367381719E+02  0.51100000000E-03 0.  1.
        -12    1    3    3    0    0  0.84359960606E+01 -0.45468122225E+01  0.53868560053E+01  0.10993532123E+02  0.00000000000E+00 0.  1.
</event>
<event>
 7    1  0.2783785E-010  0.4778727E+02  0.7816164E-02  0.1312668E+00
        -11   -1    0    0    0    0  0.00000000000E+00  0.00000000000E+00  0.45593999997E+02  0.45594000000E+02  0.51100000000E-03 0. -1.
         11   -1    0    0    0    0 -0.00000000000E+00 -0.00000000000E+00 -0.45593999997E+02  0.45594000000E+02  0.51100000000E-03 0.  1.
    9900012    2    1    2    0    0 -0.40376656847E+02 -0.15305138326E+02 -0.43705304519E+01  0.47787271737E+02  0.20000003156E+02 0.  0.
        -12    1    1    2    0    0  0.40376656847E+02  0.15305138326E+02  0.43705304519E+01  0.43400728263E+02  0.00000000000E+00 0.  1.
         11    1    3    3    0    0 -0.35819652078E+01  0.75085123533E-01 -0.13795096789E+01  0.38391613330E+01  0.51100000000E-03 0. -1.
        -11    1    3    3    0    0 -0.11623472067E+02 -0.18269569277E+01 -0.89032607751E+01  0.14755030573E+02  0.51100000000E-03 0.  1.
         12    1    3    3    0    0 -0.25171219573E+02 -0.13553266522E+02  0.59122400020E+01  0.29193079831E+02  0.00000000000E+00 0. -1.
</event>
<event>
 7    1  0.2783785E-010  0.4778729E+02  0.7816164E-02  0.1312668E+00
        -11   -1    0    0    0    0  0.00000000000E+00  0.00000000000E+00  0.45593999997E+02  0.45594000000E+02  0.51100000000E-03 0.  1.
         11   -1    0    0    0    0 -0.00000000000E+00 -0.00000000000E+00 -0.45593999997E+02  0.45594000000E+02  0.51100000000E-03 0. -1.
    9900012    2    1    2    0    0  0.28196649548E+02 -0.30043337888E+01 -0.32856429522E+02  0.47787285396E+02  0.20000065433E+02 0.  0.
        -12    1    1    2    0    0 -0.28196649548E+02  0.30043337888E+01  0.32856429522E+02  0.43400714604E+02  0.00000000000E+00 0.  1.
         11    1    3    3    0    0  0.24939038790E+02  0.19578837200E+01 -0.23451391380E+02  0.34289309155E+02  0.51100000000E-03 0. -1.
        -11    1    3    3    0    0  0.32716722186E+01 -0.35351583038E+01 -0.93263719762E+00  0.49062201074E+01  0.51100000000E-03 0.  1.
        -12    1    3    3    0    0 -0.14061460123E-01 -0.14270592050E+01 -0.84724009440E+01  0.85917561333E+01  0.00000000000E+00 0.  1.
</event>
<event>
 7    1  0.2783785E-010  0.4778728E+02  0.7816164E-02  0.1312668E+00
        -11   -1    0    0    0    0  0.00000000000E+00  0.00000000000E+00  0.45593999997E+02  0.45594000000E+02  0.51100000000E-03 0. -1.
         11   -1    0    0    0    0 -0.00000000000E+00 -0.00000000000E+00 -0.45593999997E+02  0.45594000000E+02  0.51100000000E-03 0.  1.
    9900012    2    1    2    0    0 -0.18120848537E+02 -0.27394961741E+02  0.28368536190E+02  0.47787275051E+02  0.20000018269E+02 0.  0.
        -12    1    1    2    0    0  0.18120848537E+02  0.27394961741E+02 -0.28368536190E+02  0.43400724949E+02  0.00000000000E+00 0.  1.
         11    1    3    3    0    0 -0.90860090583E+01 -0.12520404813E+02  0.15473638008E+02  0.21880346678E+02  0.51100000000E-03 0. -1.
        -11    1    3    3    0    0 -0.11233144450E+01 -0.12182738219E+02  0.23600736108E+01  0.12459971651E+02  0.51100000000E-03 0.  1.
         12    1    3    3    0    0 -0.79115250342E+01 -0.26918187093E+01  0.10534824571E+02  0.13446956721E+02  0.00000000000E+00 0. -1.
</event>
<event>
 7    1  0.2783785E-010  0.4778728E+02  0.7816164E-02  0.1312668E+00
        -11   -1    0    0    0    0  0.00000000000E+00  0.00000000000E+00  0.45593999997E+02  0.45594000000E+02  0.51100000000E-03 0.  1.
         11   -1    0    0    0    0 -0.00000000000E+00 -0.00000000000E+00 -0.45593999997E+02  0.45594000000E+02  0.51100000000E-03 0. -1.
    9900012    2    1    2    0    0 -0.20987328067E+02  0.16375660715E+02 -0.34278155900E+02  0.47787283703E+02  0.20000057715E+02 0.  0.
        -12    1    1    2    0    0  0.20987328067E+02 -0.16375660715E+02  0.34278155900E+02  0.43400716297E+02  0.00000000000E+00 0.  1.
         11    1    3    3    0    0 -0.11217767967E+02 -0.12996420128E+01 -0.66271508184E+01  0.13093758657E+02  0.51100000000E-03 0. -1.
        -11    1    3    3    0    0  0.14119558195E+00  0.59673370485E+00  0.11334772408E+00  0.62359864860E+00  0.51100000000E-03 0.  1.
        -12    1    3    3    0    0 -0.99107556811E+01  0.17078569023E+02 -0.27764352805E+02  0.34069926397E+02  0.00000000000E+00 0.  1.
</event>
<event>
 7    1  0.2783785E-010  0.4778727E+02  0.7816164E-02  0.1312668E+00
        -11   -1    0    0    0    0  0.00000000000E+00  0.00000000000E+00  0.45593999997E+02  0.45594000000E+02  0.51100000000E-03 0.  1.
         11   -1    0    0    0    0 -0.00000000000E+00 -0.00000000000E+00 -0.45593999997E+02  0.45594000000E+02  0.51100000000E-03 0. -1.
    9900012    2    1    2    0    0 -0.31573506287E+02 -0.25645607168E+02 -0.15134056384E+02  0.47787272715E+02  0.20000007616E+02 0.  0.
        -12    1    1    2    0    0  0.31573506287E+02  0.25645607168E+02  0.15134056384E+02  0.43400727285E+02  0.00000000000E+00 0.  1.
         11    1    3    3    0    0 -0.11317917542E+02 -0.14881119425E+01 -0.14160345194E+01  0.11502820900E+02  0.51100000000E-03 0. -1.
        -11    1    3    3    0    0 -0.74330798806E+00 -0.81723650159E+01 -0.49311579600E+01  0.95737336398E+01  0.51100000000E-03 0.  1.
         12    1    3    3    0    0 -0.19512280757E+02 -0.15985130209E+02 -0.87868639048E+01  0.26710718175E+02  0.00000000000E+00 0. -1.
</event>
<event>
 7    1  0.2783785E-010  0.4778727E+02  0.7816164E-02  0.1312668E+00
        -11   -1    0    0    0    0  0.00000000000E+00  0.00000000000E+00  0.45593999997E+02  0.45594000000E+02  0.51100000000E-03 0.  1.
         11   -1    0    0    0    0 -0.00000000000E+00 -0.00000000000E+00 -0.45593999997E+02  0.45594000000E+02  0.51100000000E-03 0. -1.
    9900012    2    1    2    0    0 -0.14826052788E+02 -0.17161434337E+02 -0.37004008918E+02  0.47787270216E+02  0.19999996222E+02 0.  0.
        -12    1    1    2    0    0  0.14826052788E+02  0.17161434337E+02  0.37004008918E+02  0.43400729784E+02  0.00000000000E+00 0.  1.
         11    1    3    3    0    0  0.20337035659E+01 -0.29317347471E+01 -0.44155314271E+01  0.56769654628E+01  0.51100000000E-03 0. -1.
        -11    1    3    3    0    0 -0.12178771257E+02 -0.27147806018E+01 -0.87954144849E+01  0.15266034825E+02  0.51100000000E-03 0.  1.
         12    1    3    3    0    0 -0.46809850974E+01 -0.11514918988E+02 -0.23793063006E+02  0.26844269928E+02  0.00000000000E+00 0. -1.
</event>
<event>
 7    1  0.2783785E-010  0.4778727E+02  0.7816164E-02  0.1312668E+00
        -11   -1    0    0    0    0  0.00000000000E+00  0.00000000000E+00  0.45593999997E+02  0.45594000000E+02  0.51100000000E-03 0.  1.
         11   -1    0    0    0    0 -0.00000000000E+00 -0.00000000000E+00 -0.45593999997E+02  0.45594000000E+02  0.51100000000E-03 0. -1.
    9900012    2    1    2    0    0 -0.12908225267E+02  0.16791894074E+02 -0.37881833455E+02  0.47787270835E+02  0.19999999046E+02 0.  0.
        -12    1    1    2    0    0  0.12908225267E+02 -0.16791894074E+02  0.37881833455E+02  0.43400729165E+02  0.00000000000E+00 0.  1.
         11    1    3    3    0    0 -0.96649769749E+01  0.10825838912E+02 -0.26057028710E+02  0.29825816226E+02  0.51100000000E-03 0. -1.
        -11    1    3    3    0    0  0.26003711083E+01  0.68972675678E+01 -0.81820824814E+01  0.11012751872E+02  0.51100000000E-03 0.  1.
        -12    1    3    3    0    0 -0.58436194001E+01 -0.93121240603E+00 -0.36427222631E+01  0.69487027368E+01  0.00000000000E+00 0.  1.
</event>
<event>
 7    1  0.2783785E-010  0.4778727E+02  0.7816164E-02  0.1312668E+00
        -11   -1    0    0    0    0  0.00000000000E+00  0.00000000000E+00  0.45593999997E+02  0.45594000000E+02  0.51100000000E-03 0.  1.
         11   -1    0    0    0    0 -0.00000000000E+00 -0.00000000000E+00 -0.45593999997E+02  0.45594000000E+02  0.51100000000E-03 0. -1.
    9900012    2    1    2    0    0 -0.43153241933E+02  0.22178787601E+01  0.40622650933E+01  0.47787271052E+02  0.20000000033E+02 0.  0.
        -12    1    1    2    0    0  0.43153241933E+02 -0.22178787601E+01 -0.40622650933E+01  0.43400728948E+02  0.00000000000E+00 0.  1.
         11    1    3    3    0    0 -0.25560074696E+02  0.22902218558E+00  0.36375252531E+01  0.25818626220E+02  0.51100000000E-03 0. -1.
        -11    1    3    3    0    0 -0.56505661352E+01 -0.51761290146E+01 -0.17830477380E+01  0.78676850929E+01  0.51100000000E-03 0.  1.
         12    1    3    3    0    0 -0.11942601102E+02  0.71649855891E+01  0.22077875782E+01  0.14100959739E+02  0.00000000000E+00 0. -1.
</event>
<event>
 7    1  0.2783785E-010  0.4778727E+02  0.7816164E-02  0.1312668E+00
        -11   -1    0    0    0    0  0.00000000000E+00  0.00000000000E+00  0.45593999997E+02  0.45594000000E+02  0.51100000000E-03 0. -1.
         11   -1    0    0    0    0 -0.00000000000E+00 -0.00000000000E+00 -0.45593999997E+02  0.45594000000E+02  0.51100000000E-03 0.  1.
    9900012    2    1    2    0    0 -0.31131924128E+02  0.24046335462E+02 -0.18335763617E+02  0.47787272166E+02  0.20000005116E+02 0.  0.
        -12    1    1    2    0    0  0.31131924128E+02 -0.24046335462E+02  0.18335763617E+02  0.43400727834E+02  0.00000000000E+00 0.  1.
         11    1    3    3    0    0 -0.21154159186E+02  0.11632074005E+02 -0.10168175446E+02  0.26195331429E+02  0.51100000000E-03 0. -1.
        -11    1    3    3    0    0 -0.43362054619E+01  0.54043293614E+01 -0.10234581587E+02  0.12359454445E+02  0.51100000000E-03 0.  1.
        -12    1    3    3    0    0 -0.56415594805E+01  0.70099320955E+01  0.20669934164E+01  0.92324862924E+01  0.00000000000E+00 0.  1.
</event>
<event>
 7    1  0.2783785E-010  0.4778725E+02  0.7816164E-02  0.1312668E+00
        -11   -1    0    0    0    0  0.00000000000E+00  0.00000000000E+00  0.45593999997E+02  0.45594000000E+02  0.51100000000E-03 0. -1.
         11   -1    0    0    0    0 -0.00000000000E+00 -0.00000000000E+00 -0.45593999997E+02  0.45594000000E+02  0.51100000000E-03 0.  1.
    9900012    2    1    2    0    0 -0.25147192746E+02  0.34291505615E+02  0.86796348919E+01  0.47787254359E+02  0.19999923923E+02 0.  0.
        -12    1    1    2    0    0  0.25147192746E+02 -0.34291505615E+02 -0.86796348919E+01  0.43400745641E+02  0.00000000000E+00 0.  1.
         11    1    3    3    0    0 -0.58952176901E+01  0.14477086590E+02  0.89811758785E+01  0.18027788222E+02  0.51100000000E-03 0. -1.
        -11    1    3    3    0    0 -0.57111454077E+01 -0.45988746548E-01  0.23587539285E+00  0.57161992875E+01  0.51100000000E-03 0.  1.
         12    1    3    3    0    0 -0.13540829648E+02  0.19860407772E+02 -0.53741637944E+00  0.24043266850E+02  0.00000000000E+00 0. -1.
</event>
<event>
 7    1  0.2783785E-010  0.4778727E+02  0.7816164E-02  0.1312668E+00
        -11   -1    0    0    0    0  0.00000000000E+00  0.00000000000E+00  0.45593999997E+02  0.45594000000E+02  0.51100000000E-03 0. -1.
         11   -1    0    0    0    0 -0.00000000000E+00 -0.00000000000E+00 -0.45593999997E+02  0.45594000000E+02  0.51100000000E-03 0.  1.
    9900012    2    1    2    0    0  0.32592471473E+02 -0.14271164348E+02  0.24853327372E+02  0.47787271780E+02  0.20000003354E+02 0.  0.
        -12    1    1    2    0    0 -0.32592471473E+02  0.14271164348E+02 -0.24853327372E+02  0.43400728220E+02  0.00000000000E+00 0.  1.
         11    1    3    3    0    0  0.88252476241E+01 -0.98479863341E+01  0.87067470319E+00  0.13252392432E+02  0.51100000000E-03 0. -1.
        -11    1    3    3    0    0  0.83121178945E+01  0.10478664042E+01  0.68526692341E+01  0.10823511620E+02  0.51100000000E-03 0.  1.
         12    1    3    3    0    0  0.15455105954E+02 -0.54710444180E+01  0.17129983435E+02  0.23711367729E+02  0.00000000000E+00 0. -1.
</event>
<event>
 7    1  0.2783785E-010  0.4778729E+02  0.7816164E-02  0.1312668E+00
        -11   -1    0    0    0    0  0.00000000000E+00  0.00000000000E+00  0.45593999997E+02  0.45594000000E+02  0.51100000000E-03 0.  1.
         11   -1    0    0    0    0 -0.00000000000E+00 -0.00000000000E+00 -0.45593999997E+02  0.45594000000E+02  0.51100000000E-03 0. -1.
    9900012    2    1    2    0    0 -0.61781409424E+01  0.35746988822E+02 -0.23824457531E+02  0.47787292495E+02  0.20000097799E+02 0.  0.
        -12    1    1    2    0    0  0.61781409424E+01 -0.35746988822E+02  0.23824457531E+02  0.43400707505E+02  0.00000000000E+00 0.  1.
         11    1    3    3    0    0 -0.76797689397E+00 -0.53311608177E+00  0.61294826470E+00  0.11179029934E+01  0.51100000000E-03 0.  1.
        -11    1    3    3    0    0 -0.81436082059E+01  0.28816131936E+02 -0.24546730425E+02  0.38719888807E+02  0.51100000000E-03 0. -1.
        -12    1    3    3    0    0  0.27334441575E+01  0.74639729671E+01  0.10932462908E+00  0.79495006944E+01  0.00000000000E+00 0.  1.
</event>
<event>
 7    1  0.2783785E-010  0.4778727E+02  0.7816164E-02  0.1312668E+00
        -11   -1    0    0    0    0  0.00000000000E+00  0.00000000000E+00  0.45593999997E+02  0.45594000000E+02  0.51100000000E-03 0. -1.
         11   -1    0    0    0    0 -0.00000000000E+00 -0.00000000000E+00 -0.45593999997E+02  0.45594000000E+02  0.51100000000E-03 0.  1.
    9900012    2    1    2    0    0 -0.89757117985E+01 -0.38878403896E+02  0.17074238040E+02  0.47787270784E+02  0.19999998814E+02 0.  0.
        -12    1    1    2    0    0  0.89757117985E+01  0.38878403896E+02 -0.17074238040E+02  0.43400729216E+02  0.00000000000E+00 0.  1.
         11    1    3    3    0    0 -0.86612312338E+01 -0.34246894277E+02  0.20055807412E+02  0.40621448834E+02  0.51100000000E-03 0. -1.
        -11    1    3    3    0    0  0.17140333142E+01 -0.35154580509E+00 -0.50532124463E+00  0.18212206007E+01  0.51100000000E-03 0.  1.
         12    1    3    3    0    0 -0.20285138789E+01 -0.42799638135E+01 -0.24762481272E+01  0.53446013498E+01  0.00000000000E+00 0. -1.
</event>
<event>
 7    1  0.2783785E-010  0.4778727E+02  0.7816164E-02  0.1312668E+00
        -11   -1    0    0    0    0  0.00000000000E+00  0.00000000000E+00  0.45593999997E+02  0.45594000000E+02  0.51100000000E-03 0.  1.
         11   -1    0    0    0    0 -0.00000000000E+00 -0.00000000000E+00 -0.45593999997E+02  0.45594000000E+02  0.51100000000E-03 0. -1.
    9900012    2    1    2    0    0 -0.34968354091E+02  0.24921514394E+02 -0.63052014567E+01  0.47787271516E+02  0.20000002151E+02 0.  0.
        -12    1    1    2    0    0  0.34968354091E+02 -0.24921514394E+02  0.63052014567E+01  0.43400728484E+02  0.00000000000E+00 0.  1.
         11    1    3    3    0    0 -0.98900613001E+01  0.41141577884E+01 -0.20273903242E+01  0.10901830975E+02  0.51100000000E-03 0. -1.
        -11    1    3    3    0    0 -0.52661988370E+01  0.11093881520E+02  0.45829374938E+01  0.13107645620E+02  0.51100000000E-03 0.  1.
        -12    1    3    3    0    0 -0.19812093954E+02  0.97134750854E+01 -0.88607486264E+01  0.23777794921E+02  0.00000000000E+00 0.  1.
</event>
<event>
 7    1  0.2783785E-010  0.4778727E+02  0.7816164E-02  0.1312668E+00
        -11   -1    0    0    0    0  0.00000000000E+00  0.00000000000E+00  0.45593999997E+02  0.45594000000E+02  0.51100000000E-03 0.  1.
         11   -1    0    0    0    0 -0.00000000000E+00 -0.00000000000E+00 -0.45593999997E+02  0.45594000000E+02  0.51100000000E-03 0. -1.
    9900012    2    1    2    0    0  0.41939481068E+02 -0.91661565357E+01  0.63785010565E+01  0.47787265288E+02  0.19999973752E+02 0.  0.
        -12    1    1    2    0    0 -0.41939481068E+02  0.91661565357E+01 -0.63785010565E+01  0.43400734712E+02  0.00000000000E+00 0.  1.
         11    1    3    3    0    0  0.22143360343E+02 -0.39436871911E+01  0.39939129154E+01  0.22843651560E+02  0.51100000000E-03 0. -1.
        -11    1    3    3    0    0  0.11623022052E+01  0.19392010103E+01 -0.34687412456E+01  0.41404846413E+01  0.51100000000E-03 0.  1.
         12    1    3    3    0    0  0.18633818519E+02 -0.71616703549E+01  0.58533293867E+01  0.20803129086E+02  0.00000000000E+00 0. -1.
</event>
<event>
 7    1  0.2783785E-010  0.4778727E+02  0.7816164E-02  0.1312668E+00
        -11   -1    0    0    0    0  0.00000000000E+00  0.00000000000E+00  0.45593999997E+02  0.45594000000E+02  0.51100000000E-03 0.  1.
         11   -1    0    0    0    0 -0.00000000000E+00 -0.00000000000E+00 -0.45593999997E+02  0.45594000000E+02  0.51100000000E-03 0. -1.
    9900012    2    1    2    0    0  0.67509012201E+01 -0.20101537342E+02 -0.37867890184E+02  0.47787267544E+02  0.19999984038E+02 0.  0.
        -12    1    1    2    0    0 -0.67509012201E+01  0.20101537342E+02  0.37867890184E+02  0.43400732456E+02  0.00000000000E+00 0.  1.
         11    1    3    3    0    0 -0.37250628561E+01 -0.10320266551E+02 -0.12820061785E+02  0.16874180851E+02  0.51100000000E-03 0.  1.
        -11    1    3    3    0    0  0.86419322143E+01 -0.95575804203E+01 -0.11595690902E+02  0.17334658452E+02  0.51100000000E-03 0. -1.
        -12    1    3    3    0    0  0.18340318619E+01 -0.22369037040E+00 -0.13452137496E+02  0.13578428240E+02  0.00000000000E+00 0.  1.
</event>
<event>
 7    1  0.2783785E-010  0.4778727E+02  0.7816164E-02  0.1312668E+00
        -11   -1    0    0    0    0  0.00000000000E+00  0.00000000000E+00  0.45593999997E+02  0.45594000000E+02  0.51100000000E-03 0.  1.
         11   -1    0    0    0    0 -0.00000000000E+00 -0.00000000000E+00 -0.45593999997E+02  0.45594000000E+02  0.51100000000E-03 0. -1.
    9900012    2    1    2    0    0  0.40956936675E+02 -0.11029062610E+02 -0.91930574136E+01  0.47787272028E+02  0.20000004484E+02 0.  0.
        -12    1    1    2    0    0 -0.40956936675E+02  0.11029062610E+02  0.91930574136E+01  0.43400727972E+02  0.00000000000E+00 0.  1.
         11    1    3    3    0    0  0.15809208975E+02 -0.84093917672E+00 -0.45684090697E+01  0.16477518891E+02  0.51100000000E-03 0. -1.
        -11    1    3    3    0    0 -0.15758954236E+01  0.10811408118E+01  0.14925725321E+00  0.19169219676E+01  0.51100000000E-03 0.  1.
        -12    1    3    3    0    0  0.26723623124E+02 -0.11269264245E+02 -0.47739055972E+01  0.29392831169E+02  0.00000000000E+00 0.  1.
</event>
<event>
 7    1  0.2783785E-010  0.4778727E+02  0.7816164E-02  0.1312668E+00
        -11   -1    0    0    0    0  0.00000000000E+00  0.00000000000E+00  0.45593999997E+02  0.45594000000E+02  0.51100000000E-03 0.  1.
         11   -1    0    0    0    0 -0.00000000000E+00 -0.00000000000E+00 -0.45593999997E+02  0.45594000000E+02  0.51100000000E-03 0. -1.
    9900012    2    1    2    0    0 -0.27514390160E+02 -0.14590332321E+02 -0.30227536719E+02  0.47787269140E+02  0.19999991315E+02 0.  0.
        -12    1    1    2    0    0  0.27514390160E+02  0.14590332321E+02  0.30227536719E+02  0.43400730860E+02  0.00000000000E+00 0.  1.
         11    1    3    3    0    0  0.40131055161E-01 -0.42735854537E+01  0.45884748205E-01  0.42740202155E+01  0.51100000000E-03 0. -1.
        -11    1    3    3    0    0 -0.11197912434E+02  0.11785562992E+01 -0.11242031106E+02  0.15911175365E+02  0.51100000000E-03 0.  1.
         12    1    3    3    0    0 -0.16356608781E+02 -0.11495303166E+02 -0.19031390361E+02  0.27602073559E+02  0.00000000000E+00 0. -1.
</event>
<event>
 7    1  0.2783785E-010  0.4778727E+02  0.7816164E-02  0.1312668E+00
        -11   -1    0    0    0    0  0.00000000000E+00  0.00000000000E+00  0.45593999997E+02  0.45594000000E+02  0.51100000000E-03 0.  1.
         11   -1    0    0    0    0 -0.00000000000E+00 -0.00000000000E+00 -0.45593999997E+02  0.45594000000E+02  0.51100000000E-03 0. -1.
    9900012    2    1    2    0    0  0.39536097413E+01 -0.92837525322E+00 -0.43210306380E+02  0.47787268577E+02  0.19999988752E+02 0.  0.
        -12    1    1    2    0    0 -0.39536097413E+01  0.92837525322E+00  0.43210306380E+02  0.43400731423E+02  0.00000000000E+00 0.  1.
         11    1    3    3    0    0  0.22329292598E+01 -0.23174612982E+01 -0.11791630427E+01  0.34273934251E+01  0.51100000000E-03 0. -1.
        -11    1    3    3    0    0 -0.10671908621E+01 -0.43153977361E+01 -0.33126373022E+02  0.33423317366E+02  0.51100000000E-03 0.  1.
        -12    1    3    3    0    0  0.27878713436E+01  0.57044837811E+01 -0.89047703153E+01  0.10936557786E+02  0.00000000000E+00 0.  1.
</event>
<event>
 7    1  0.2783785E-010  0.4778727E+02  0.7816164E-02  0.1312668E+00
        -11   -1    0    0    0    0  0.00000000000E+00  0.00000000000E+00  0.45593999997E+02  0.45594000000E+02  0.51100000000E-03 0.  1.
         11   -1    0    0    0    0 -0.00000000000E+00 -0.00000000000E+00 -0.45593999997E+02  0.45594000000E+02  0.51100000000E-03 0. -1.
    9900012    2    1    2    0    0  0.14052246385E+02 -0.75717870100E+01 -0.40358715899E+02  0.47787268024E+02  0.19999986230E+02 0.  0.
        -12    1    1    2    0    0 -0.14052246385E+02  0.75717870100E+01  0.40358715899E+02  0.43400731976E+02  0.00000000000E+00 0.  1.
         11    1    3    3    0    0 -0.80441025553E+00 -0.64758123854E+00 -0.20613315987E+01  0.23055423528E+01  0.51100000000E-03 0. -1.
        -11    1    3    3    0    0  0.16608059785E+02 -0.10743477076E+02 -0.27328962207E+02  0.33736065643E+02  0.51100000000E-03 0.  1.
         12    1    3    3    0    0 -0.17514031449E+01  0.38192713045E+01 -0.10968422094E+02  0.11745660028E+02  0.00000000000E+00 0. -1.
</event>
<event>
 7    1  0.2783785E-010  0.4778727E+02  0.7816164E-02  0.1312668E+00
        -11   -1    0    0    0    0  0.00000000000E+00  0.00000000000E+00  0.45593999997E+02  0.45594000000E+02  0.51100000000E-03 0. -1.
         11   -1    0    0    0    0 -0.00000000000E+00 -0.00000000000E+00 -0.45593999997E+02  0.45594000000E+02  0.51100000000E-03 0.  1.
    9900012    2    1    2    0    0 -0.14258236589E+02 -0.32929841400E+02  0.24412121495E+02  0.47787269117E+02  0.19999991212E+02 0.  0.
        -12    1    1    2    0    0  0.14258236589E+02  0.32929841400E+02 -0.24412121495E+02  0.43400730883E+02  0.00000000000E+00 0.  1.
         11    1    3    3    0    0  0.25953743833E+00 -0.10461745028E+02  0.10371796581E+01  0.10516235572E+02  0.51100000000E-03 0.  1.
        -11    1    3    3    0    0 -0.24609414405E+01 -0.12341825601E+02  0.14489664383E+02  0.19191854161E+02  0.51100000000E-03 0. -1.
         12    1    3    3    0    0 -0.12056832587E+02 -0.10126270772E+02  0.88852774543E+01  0.18079179384E+02  0.00000000000E+00 0. -1.
</event>
<event>
 7    1  0.2783785E-010  0.4778726E+02  0.7816164E-02  0.1312668E+00
        -11   -1    0    0    0    0  0.00000000000E+00  0.00000000000E+00  0.45593999997E+02  0.45594000000E+02  0.51100000000E-03 0. -1.
         11   -1    0    0    0    0 -0.00000000000E+00 -0.00000000000E+00 -0.45593999997E+02  0.45594000000E+02  0.51100000000E-03 0.  1.
    9900012    2    1    2    0    0  0.32496087859E+02  0.11124859788E+02  0.26530465456E+02  0.47787264652E+02  0.19999970853E+02 0.  0.
        -12    1    1    2    0    0 -0.32496087859E+02 -0.11124859788E+02 -0.26530465456E+02  0.43400735348E+02  0.00000000000E+00 0.  1.
         11    1    3    3    0    0  0.22199530618E+01 -0.39773869418E+01  0.32896406184E+00  0.45668387421E+01  0.51100000000E-03 0. -1.
        -11    1    3    3    0    0  0.20923513739E+02  0.75017547797E+01  0.15446736082E+02  0.27067903647E+02  0.51100000000E-03 0.  1.
        -12    1    3    3    0    0  0.93526210581E+01  0.76004919498E+01  0.10754765312E+02  0.16152522263E+02  0.00000000000E+00 0.  1.
</event>
<event>
 7    1  0.2783785E-010  0.4778727E+02  0.7816164E-02  0.1312668E+00
        -11   -1    0    0    0    0  0.00000000000E+00  0.00000000000E+00  0.45593999997E+02  0.45594000000E+02  0.51100000000E-03 0. -1.
         11   -1    0    0    0    0 -0.00000000000E+00 -0.00000000000E+00 -0.45593999997E+02  0.45594000000E+02  0.51100000000E-03 0.  1.
    9900012    2    1    2    0    0 -0.66984244086E+01 -0.37534192128E+02  0.20734970798E+02  0.47787268644E+02  0.19999989055E+02 0.  0.
        -12    1    1    2    0    0  0.66984244086E+01  0.37534192128E+02 -0.20734970798E+02  0.43400731356E+02  0.00000000000E+00 0.  1.
         11    1    3    3    0    0 -0.82456788087E+01 -0.27322037185E+02  0.10740065336E+02  0.30493178559E+02  0.51100000000E-03 0. -1.
        -11    1    3    3    0    0  0.11188846954E+01 -0.10934906047E+02  0.11285617453E+02  0.15754022812E+02  0.51100000000E-03 0.  1.
        -12    1    3    3    0    0  0.42836970477E+00  0.72275110351E+00 -0.12907119908E+01  0.15400672728E+01  0.00000000000E+00 0.  1.
</event>
<event>
 7    1  0.2783785E-010  0.4778724E+02  0.7816164E-02  0.1312668E+00
        -11   -1    0    0    0    0  0.00000000000E+00  0.00000000000E+00  0.45593999997E+02  0.45594000000E+02  0.51100000000E-03 0. -1.
         11   -1    0    0    0    0 -0.00000000000E+00 -0.00000000000E+00 -0.45593999997E+02  0.45594000000E+02  0.51100000000E-03 0.  1.
    9900012    2    1    2    0    0  0.32540444017E+02 -0.25474281498E+01  0.28605168565E+02  0.47787244758E+02  0.19999880147E+02 0.  0.
        -12    1    1    2    0    0 -0.32540444017E+02  0.25474281498E+01 -0.28605168565E+02  0.43400755242E+02  0.00000000000E+00 0.  1.
         11    1    3    3    0    0  0.17712565290E+02 -0.16233606307E+01  0.21985450680E+02  0.28279503368E+02  0.51100000000E-03 0. -1.
        -11    1    3    3    0    0  0.15004490883E+02 -0.37376424981E+01  0.61905039214E+01  0.16656141725E+02  0.51100000000E-03 0.  1.
         12    1    3    3    0    0 -0.17661215706E+00  0.28135749790E+01  0.42921396407E+00  0.28515996640E+01  0.00000000000E+00 0. -1.
</event>
<event>
 7    1  0.2783785E-010  0.4778727E+02  0.7816164E-02  0.1312668E+00
        -11   -1    0    0    0    0  0.00000000000E+00  0.00000000000E+00  0.45593999997E+02  0.45594000000E+02  0.51100000000E-03 0. -1.
         11   -1    0    0    0    0 -0.00000000000E+00 -0.00000000000E+00 -0.45593999997E+02  0.45594000000E+02  0.51100000000E-03 0.  1.
    9900012    2    1    2    0    0 -0.30347360743E+02 -0.30809665488E+02  0.36641443859E+01  0.47787265610E+02  0.19999975221E+02 0.  0.
        -12    1    1    2    0    0  0.30347360743E+02  0.30809665488E+02 -0.36641443859E+01  0.43400734390E+02  0.00000000000E+00 0.  1.
         11    1    3    3    0    0 -0.30135618631E+02 -0.25917295643E+02  0.62905859601E+01  0.40242181796E+02  0.51100000000E-03 0. -1.
        -11    1    3    3    0    0 -0.22124116909E+01 -0.16986582801E+01 -0.25445590051E+01  0.37755776027E+01  0.51100000000E-03 0.  1.
        -12    1    3    3    0    0  0.20006695786E+01 -0.31937115645E+01 -0.81882569064E-01  0.37695062111E+01  0.00000000000E+00 0.  1.
</event>
<event>
 7    1  0.2783785E-010  0.4778726E+02  0.7816164E-02  0.1312668E+00
        -11   -1    0    0    0    0  0.00000000000E+00  0.00000000000E+00  0.45593999997E+02  0.45594000000E+02  0.51100000000E-03 0. -1.
         11   -1    0    0    0    0 -0.00000000000E+00 -0.00000000000E+00 -0.45593999997E+02  0.45594000000E+02  0.51100000000E-03 0.  1.
    9900012    2    1    2    0    0 -0.33434709243E+02 -0.14082689076E+02  0.23820623015E+02  0.47787262742E+02  0.19999962144E+02 0.  0.
        -12    1    1    2    0    0  0.33434709243E+02  0.14082689076E+02 -0.23820623015E+02  0.43400737258E+02  0.00000000000E+00 0.  1.
         11    1    3    3    0    0 -0.12396415660E+02 -0.25918280254E+01  0.77370462570E+01  0.14840841579E+02  0.51100000000E-03 0. -1.
        -11    1    3    3    0    0 -0.89619949639E+00 -0.20014048912E+01 -0.29351787509E+01  0.36638872304E+01  0.51100000000E-03 0.  1.
        -12    1    3    3    0    0 -0.20142094086E+02 -0.94894561591E+01  0.19018755509E+02  0.29282533932E+02  0.00000000000E+00 0.  1.
</event>
<event>
 7    1  0.2783785E-010  0.4778727E+02  0.7816164E-02  0.1312668E+00
        -11   -1    0    0    0    0  0.00000000000E+00  0.00000000000E+00  0.45593999997E+02  0.45594000000E+02  0.51100000000E-03 0.  1.
         11   -1    0    0    0    0 -0.00000000000E+00 -0.00000000000E+00 -0.45593999997E+02  0.45594000000E+02  0.51100000000E-03 0. -1.
    9900012    2    1    2    0    0 -0.38997609735E+02 -0.10870783642E+02 -0.15640829617E+02  0.47787273588E+02  0.20000011596E+02 0.  0.
        -12    1    1    2    0    0  0.38997609735E+02  0.10870783642E+02  0.15640829617E+02  0.43400726412E+02  0.00000000000E+00 0.  1.
         11    1    3    3    0    0 -0.32246537984E+02 -0.92147641508E+01 -0.81298885992E+01  0.34508639197E+02  0.51100000000E-03 0. -1.
        -11    1    3    3    0    0 -0.76346311383E+01 -0.33082289212E+01 -0.77733767946E+01  0.11386718503E+02  0.51100000000E-03 0.  1.
        -12    1    3    3    0    0  0.88355938754E+00  0.16522094298E+01  0.26243577716E+00  0.18919158883E+01  0.00000000000E+00 0.  1.
</event>
<event>
 7    1  0.2783785E-010  0.4778727E+02  0.7816164E-02  0.1312668E+00
        -11   -1    0    0    0    0  0.00000000000E+00  0.00000000000E+00  0.45593999997E+02  0.45594000000E+02  0.51100000000E-03 0.  1.
         11   -1    0    0    0    0 -0.00000000000E+00 -0.00000000000E+00 -0.45593999997E+02  0.45594000000E+02  0.51100000000E-03 0. -1.
    9900012    2    1    2    0    0  0.18474723787E+02  0.35839309797E+01 -0.39108353465E+02  0.47787270847E+02  0.19999999098E+02 0.  0.
        -12    1    1    2    0    0 -0.18474723787E+02 -0.35839309797E+01  0.39108353465E+02  0.43400729153E+02  0.00000000000E+00 0.  1.
         11    1    3    3    0    0  0.13334881029E+02  0.47755892681E+01 -0.27266170682E+02  0.30725711852E+02  0.51100000000E-03 0. -1.
        -11    1    3    3    0    0  0.74344835290E+01 -0.41537745543E+01 -0.77752694117E+01  0.11531704257E+02  0.51100000000E-03 0.  1.
        -12    1    3    3    0    0 -0.22946407706E+01  0.29621162660E+01 -0.40669133718E+01  0.55298547371E+01  0.00000000000E+00 0.  1.
</event>
<event>
 7    1  0.2783785E-010  0.4778727E+02  0.7816164E-02  0.1312668E+00
        -11   -1    0    0    0    0  0.00000000000E+00  0.00000000000E+00  0.45593999997E+02  0.45594000000E+02  0.51100000000E-03 0. -1.
         11   -1    0    0    0    0 -0.00000000000E+00 -0.00000000000E+00 -0.45593999997E+02  0.45594000000E+02  0.51100000000E-03 0.  1.
    9900012    2    1    2    0    0 -0.20572494355E+02  0.37064477404E+02  0.93070029499E+01  0.47787270592E+02  0.19999997936E+02 0.  0.
        -12    1    1    2    0    0  0.20572494355E+02 -0.37064477404E+02 -0.93070029499E+01  0.43400729408E+02  0.00000000000E+00 0.  1.
         11    1    3    3    0    0 -0.36585595482E+01  0.75942449530E+01  0.10134841249E+02  0.13182284392E+02  0.51100000000E-03 0. -1.
        -11    1    3    3    0    0 -0.88045542744E+01  0.97338046595E+01 -0.17858596770E+01  0.13245996534E+02  0.51100000000E-03 0.  1.
        -12    1    3    3    0    0 -0.81093805328E+01  0.19736427792E+02  0.95802137767E+00  0.21358989666E+02  0.00000000000E+00 0.  1.
</event>
<event>
 7    1  0.2783785E-010  0.4778727E+02  0.7816164E-02  0.1312668E+00
        -11   -1    0    0    0    0  0.00000000000E+00  0.00000000000E+00  0.45593999997E+02  0.45594000000E+02  0.51100000000E-03 0.  1.
         11   -1    0    0    0    0 -0.00000000000E+00 -0.00000000000E+00 -0.45593999997E+02  0.45594000000E+02  0.51100000000E-03 0. -1.
    9900012    2    1    2    0    0  0.24197785696E+01  0.31310683604E+02 -0.29956788668E+02  0.47787269322E+02  0.19999992148E+02 0.  0.
        -12    1    1    2    0    0 -0.24197785696E+01 -0.31310683604E+02  0.29956788668E+02  0.43400730678E+02  0.00000000000E+00 0.  1.
         11    1    3    3    0    0  0.74523466158E+01  0.11065488983E+02 -0.98442034572E+01  0.16579832884E+02  0.51100000000E-03 0. -1.
        -11    1    3    3    0    0 -0.25208566748E+01 -0.78250684230E+00 -0.28627720239E+01  0.38939053989E+01  0.51100000000E-03 0.  1.
        -12    1    3    3    0    0 -0.25117113713E+01  0.21027701464E+02 -0.17249813186E+02  0.27313531039E+02  0.00000000000E+00 0.  1.
</event>
<event>
 7    1  0.2783785E-010  0.4778727E+02  0.7816164E-02  0.1312668E+00
        -11   -1    0    0    0    0  0.00000000000E+00  0.00000000000E+00  0.45593999997E+02  0.45594000000E+02  0.51100000000E-03 0. -1.
         11   -1    0    0    0    0 -0.00000000000E+00 -0.00000000000E+00 -0.45593999997E+02  0.45594000000E+02  0.51100000000E-03 0.  1.
    9900012    2    1    2    0    0 -0.37247507572E+02 -0.16950031213E+02  0.14454853219E+02  0.47787272356E+02  0.20000005980E+02 0.  0.
        -12    1    1    2    0    0  0.37247507572E+02  0.16950031213E+02 -0.14454853219E+02  0.43400727644E+02  0.00000000000E+00 0.  1.
         11    1    3    3    0    0 -0.88533236755E+01 -0.11534769628E+01  0.47623954627E+01  0.10118906068E+02  0.51100000000E-03 0. -1.
        -11    1    3    3    0    0 -0.41472306825E+01 -0.10874789094E+02  0.36828385271E+01  0.12207532922E+02  0.51100000000E-03 0.  1.
        -12    1    3    3    0    0 -0.24246953214E+02 -0.49217651565E+01  0.60096192295E+01  0.25460833366E+02  0.00000000000E+00 0.  1.
</event>
<event>
 7    1  0.2783785E-010  0.4778727E+02  0.7816164E-02  0.1312668E+00
        -11   -1    0    0    0    0  0.00000000000E+00  0.00000000000E+00  0.45593999997E+02  0.45594000000E+02  0.51100000000E-03 0. -1.
         11   -1    0    0    0    0 -0.00000000000E+00 -0.00000000000E+00 -0.45593999997E+02  0.45594000000E+02  0.51100000000E-03 0.  1.
    9900012    2    1    2    0    0 -0.76379392623E+01  0.23057300925E+02  0.35967291945E+02  0.47787270375E+02  0.19999996949E+02 0.  0.
        -12    1    1    2    0    0  0.76379392623E+01 -0.23057300925E+02 -0.35967291945E+02  0.43400729625E+02  0.00000000000E+00 0.  1.
         11    1    3    3    0    0 -0.11735074710E+01  0.81753843745E+00  0.75052241814E-01  0.14321738656E+01  0.51100000000E-03 0. -1.
        -11    1    3    3    0    0 -0.45987287114E+01  0.18642312789E+02  0.13192556288E+02  0.23296516340E+02  0.51100000000E-03 0.  1.
         12    1    3    3    0    0 -0.18657030799E+01  0.35974496978E+01  0.22699683415E+02  0.23058580170E+02  0.00000000000E+00 0. -1.
</event>
<event>
 7    1  0.2783785E-010  0.4778729E+02  0.7816164E-02  0.1312668E+00
        -11   -1    0    0    0    0  0.00000000000E+00  0.00000000000E+00  0.45593999997E+02  0.45594000000E+02  0.51100000000E-03 0. -1.
         11   -1    0    0    0    0 -0.00000000000E+00 -0.00000000000E+00 -0.45593999997E+02  0.45594000000E+02  0.51100000000E-03 0.  1.
    9900012    2    1    2    0    0  0.31275310232E+02  0.29644194010E+02  0.51670430200E+01  0.47787290303E+02  0.20000087806E+02 0.  0.
        -12    1    1    2    0    0 -0.31275310232E+02 -0.29644194010E+02 -0.51670430200E+01  0.43400709697E+02  0.00000000000E+00 0.  1.
         11    1    3    3    0    0  0.29461648191E+02  0.20435650553E+02  0.39157943146E+01  0.36068517755E+02  0.51100000000E-03 0. -1.
        -11    1    3    3    0    0  0.30113730682E+01  0.98359676807E+01  0.92679935533E+00  0.10328290530E+02  0.51100000000E-03 0.  1.
        -12    1    3    3    0    0 -0.11977110269E+01 -0.62742422370E+00  0.32444935005E+00  0.13904820175E+01  0.00000000000E+00 0.  1.
</event>
<event>
 7    1  0.2783785E-010  0.4778727E+02  0.7816164E-02  0.1312668E+00
        -11   -1    0    0    0    0  0.00000000000E+00  0.00000000000E+00  0.45593999997E+02  0.45594000000E+02  0.51100000000E-03 0.  1.
         11   -1    0    0    0    0 -0.00000000000E+00 -0.00000000000E+00 -0.45593999997E+02  0.45594000000E+02  0.51100000000E-03 0. -1.
    9900012    2    1    2    0    0  0.30318377447E+02  0.21851642895E+02 -0.22066377357E+02  0.47787270538E+02  0.19999997689E+02 0.  0.
        -12    1    1    2    0    0 -0.30318377447E+02 -0.21851642895E+02  0.22066377357E+02  0.43400729462E+02  0.00000000000E+00 0.  1.
         11    1    3    3    0    0  0.16968853738E+02  0.11713659213E+02 -0.84124748181E+01  0.22269295952E+02  0.51100000000E-03 0. -1.
        -11    1    3    3    0    0  0.36579296015E+01  0.91473547142E+01 -0.12179282086E+02  0.15664911734E+02  0.51100000000E-03 0.  1.
         12    1    3    3    0    0  0.96915941070E+01  0.99062896787E+00 -0.14746204522E+01  0.98530628520E+01  0.00000000000E+00 0. -1.
</event>
<event>
 7    1  0.2783785E-010  0.4778728E+02  0.7816164E-02  0.1312668E+00
        -11   -1    0    0    0    0  0.00000000000E+00  0.00000000000E+00  0.45593999997E+02  0.45594000000E+02  0.51100000000E-03 0.  1.
         11   -1    0    0    0    0 -0.00000000000E+00 -0.00000000000E+00 -0.45593999997E+02  0.45594000000E+02  0.51100000000E-03 0. -1.
    9900012    2    1    2    0    0 -0.15660900136E+02 -0.28831174928E+02 -0.28409895544E+02  0.47787278743E+02  0.20000035102E+02 0.  0.
        -12    1    1    2    0    0  0.15660900136E+02  0.28831174928E+02  0.28409895544E+02  0.43400721257E+02  0.00000000000E+00 0.  1.
         11    1    3    3    0    0 -0.21536286070E+01 -0.18884038907E+02 -0.18386454917E+02  0.26444408980E+02  0.51100000000E-03 0. -1.
        -11    1    3    3    0    0 -0.94712557407E+01 -0.10907609730E+02 -0.62685463000E+01  0.15747231766E+02  0.51100000000E-03 0.  1.
        -12    1    3    3    0    0 -0.40360157888E+01  0.96047370877E+00 -0.37548943266E+01  0.55956379973E+01  0.00000000000E+00 0.  1.
</event>
<event>
 7    1  0.2783785E-010  0.4778727E+02  0.7816164E-02  0.1312668E+00
        -11   -1    0    0    0    0  0.00000000000E+00  0.00000000000E+00  0.45593999997E+02  0.45594000000E+02  0.51100000000E-03 0.  1.
         11   -1    0    0    0    0 -0.00000000000E+00 -0.00000000000E+00 -0.45593999997E+02  0.45594000000E+02  0.51100000000E-03 0. -1.
    9900012    2    1    2    0    0  0.13126325748E+02 -0.41325395421E+02  0.18800040052E+01  0.47787272479E+02  0.20000006539E+02 0.  0.
        -12    1    1    2    0    0 -0.13126325748E+02  0.41325395421E+02 -0.18800040052E+01  0.43400727521E+02  0.00000000000E+00 0.  1.
         11    1    3    3    0    0  0.50068319587E+01 -0.90425564739E+01  0.73429028582E+01  0.12678896501E+02  0.51100000000E-03 0. -1.
        -11    1    3    3    0    0  0.82782385619E+00 -0.42424650053E+01 -0.43226253645E+01  0.61130100573E+01  0.51100000000E-03 0.  1.
         12    1    3    3    0    0  0.72916699332E+01 -0.28040373942E+02 -0.11402734885E+01  0.28995365920E+02  0.00000000000E+00 0. -1.
</event>
<event>
 7    1  0.2783785E-010  0.4778727E+02  0.7816164E-02  0.1312668E+00
        -11   -1    0    0    0    0  0.00000000000E+00  0.00000000000E+00  0.45593999997E+02  0.45594000000E+02  0.51100000000E-03 0.  1.
         11   -1    0    0    0    0 -0.00000000000E+00 -0.00000000000E+00 -0.45593999997E+02  0.45594000000E+02  0.51100000000E-03 0. -1.
    9900012    2    1    2    0    0 -0.21241312051E+02  0.32794788360E+02 -0.18892640882E+02  0.47787270044E+02  0.19999995438E+02 0.  0.
        -12    1    1    2    0    0  0.21241312051E+02 -0.32794788360E+02  0.18892640882E+02  0.43400729956E+02  0.00000000000E+00 0.  1.
         11    1    3    3    0    0 -0.59180597492E+01  0.12591075755E+02 -0.13244562366E+02  0.19208775401E+02  0.51100000000E-03 0. -1.
        -11    1    3    3    0    0 -0.10801626247E+02  0.20638066095E+02 -0.58987191771E+01  0.24029144593E+02  0.51100000000E-03 0.  1.
        -12    1    3    3    0    0 -0.45216260549E+01 -0.43435348992E+00  0.25064066083E+00  0.45493500497E+01  0.00000000000E+00 0.  1.
</event>
<event>
 7    1  0.2783785E-010  0.4778729E+02  0.7816164E-02  0.1312668E+00
        -11   -1    0    0    0    0  0.00000000000E+00  0.00000000000E+00  0.45593999997E+02  0.45594000000E+02  0.51100000000E-03 0. -1.
         11   -1    0    0    0    0 -0.00000000000E+00 -0.00000000000E+00 -0.45593999997E+02  0.45594000000E+02  0.51100000000E-03 0.  1.
    9900012    2    1    2    0    0  0.15502448547E+01  0.26051656234E+02  0.34677513970E+02  0.47787285411E+02  0.20000065505E+02 0.  0.
        -12    1    1    2    0    0 -0.15502448547E+01 -0.26051656234E+02 -0.34677513970E+02  0.43400714589E+02  0.00000000000E+00 0.  1.
         11    1    3    3    0    0 -0.34189685551E+01  0.85361543366E+00  0.90465719718E+01  0.97086801365E+01  0.51100000000E-03 0. -1.
        -11    1    3    3    0    0  0.43448216097E+01  0.50626158490E+01  0.18726079154E+01  0.69292290134E+01  0.51100000000E-03 0.  1.
         12    1    3    3    0    0  0.62439180012E+00  0.20135424951E+02  0.23758334083E+02  0.31149376262E+02  0.00000000000E+00 0. -1.
</event>
<event>
 7    1  0.2783785E-010  0.4778727E+02  0.7816164E-02  0.1312668E+00
        -11   -1    0    0    0    0  0.00000000000E+00  0.00000000000E+00  0.45593999997E+02  0.45594000000E+02  0.51100000000E-03 0. -1.
         11   -1    0    0    0    0 -0.00000000000E+00 -0.00000000000E+00 -0.45593999997E+02  0.45594000000E+02  0.51100000000E-03 0.  1.
    9900012    2    1    2    0    0  0.28112379616E+02 -0.18004927583E+02  0.27733376245E+02  0.47787268867E+02  0.19999990073E+02 0.  0.
        -12    1    1    2    0    0 -0.28112379616E+02  0.18004927583E+02 -0.27733376245E+02  0.43400731133E+02  0.00000000000E+00 0.  1.
         11    1    3    3    0    0  0.15314776909E+02 -0.82248076718E+01  0.13434642204E+02  0.21969967329E+02  0.51100000000E-03 0. -1.
        -11    1    3    3    0    0  0.18116701029E+01  0.30110473869E+01 -0.28287697690E+00  0.35254183543E+01  0.51100000000E-03 0.  1.
        -12    1    3    3    0    0  0.10985932604E+02 -0.12791167298E+02  0.14581611018E+02  0.22291883184E+02  0.00000000000E+00 0.  1.
</event>
<event>
 7    1  0.2783785E-010  0.4778728E+02  0.7816164E-02  0.1312668E+00
        -11   -1    0    0    0    0  0.00000000000E+00  0.00000000000E+00  0.45593999997E+02  0.45594000000E+02  0.51100000000E-03 0.  1.
         11   -1    0    0    0    0 -0.00000000000E+00 -0.00000000000E+00 -0.45593999997E+02  0.45594000000E+02  0.51100000000E-03 0. -1.
    9900012    2    1    2    0    0 -0.21557366636E+02 -0.33168044718E+02 -0.17854511538E+02  0.47787276171E+02  0.20000023373E+02 0.  0.
        -12    1    1    2    0    0  0.21557366636E+02  0.33168044718E+02  0.17854511538E+02  0.43400723829E+02  0.00000000000E+00 0.  1.
         11    1    3    3    0    0 -0.94148375215E+01 -0.61851320208E+01 -0.26141638559E+01  0.11564120226E+02  0.51100000000E-03 0. -1.
        -11    1    3    3    0    0 -0.62534849534E+01 -0.25983231233E+02 -0.11013248523E+02  0.28905467003E+02  0.51100000000E-03 0.  1.
        -12    1    3    3    0    0 -0.58890441608E+01 -0.99968146427E+00 -0.42270991589E+01  0.73176889423E+01  0.00000000000E+00 0.  1.
</event>
<event>
 7    1  0.2783785E-010  0.4778727E+02  0.7816164E-02  0.1312668E+00
        -11   -1    0    0    0    0  0.00000000000E+00  0.00000000000E+00  0.45593999997E+02  0.45594000000E+02  0.51100000000E-03 0.  1.
         11   -1    0    0    0    0 -0.00000000000E+00 -0.00000000000E+00 -0.45593999997E+02  0.45594000000E+02  0.51100000000E-03 0. -1.
    9900012    2    1    2    0    0 -0.78544178853E+01  0.41510237731E+02 -0.99414074148E+01  0.47787270764E+02  0.19999998722E+02 0.  0.
        -12    1    1    2    0    0  0.78544178853E+01 -0.41510237731E+02  0.99414074148E+01  0.43400729236E+02  0.00000000000E+00 0.  1.
         11    1    3    3    0    0  0.15290025637E+01  0.12558101955E+01 -0.18165559749E+00  0.19869340966E+01  0.51100000000E-03 0. -1.
        -11    1    3    3    0    0 -0.10061801462E+02  0.93010494595E+01 -0.16966078280E+01  0.13806804413E+02  0.51100000000E-03 0.  1.
         12    1    3    3    0    0  0.67838101344E+00  0.30953378076E+02 -0.80631439894E+01  0.31993532255E+02  0.00000000000E+00 0. -1.
</event>
<event>
 7    1  0.2783785E-010  0.4778727E+02  0.7816164E-02  0.1312668E+00
        -11   -1    0    0    0    0  0.00000000000E+00  0.00000000000E+00  0.45593999997E+02  0.45594000000E+02  0.51100000000E-03 0. -1.
         11   -1    0    0    0    0 -0.00000000000E+00 -0.00000000000E+00 -0.45593999997E+02  0.45594000000E+02  0.51100000000E-03 0.  1.
    9900012    2    1    2    0    0  0.42448269837E+02  0.88680139449E+01  0.17679986189E+01  0.47787273018E+02  0.20000008996E+02 0.  0.
        -12    1    1    2    0    0 -0.42448269837E+02 -0.88680139449E+01 -0.17679986189E+01  0.43400726982E+02  0.00000000000E+00 0.  1.
         11    1    3    3    0    0  0.12610584659E+02  0.97538332432E+01 -0.55062504348E+01  0.16866620956E+02  0.51100000000E-03 0. -1.
        -11    1    3    3    0    0  0.63398603455E+01 -0.73668837948E+00  0.29352320435E+01  0.70251068589E+01  0.51100000000E-03 0.  1.
         12    1    3    3    0    0  0.23497824833E+02 -0.14913091876E+00  0.43390170102E+01  0.23895545202E+02  0.00000000000E+00 0. -1.
</event>
<event>
 7    1  0.2783785E-010  0.4778727E+02  0.7816164E-02  0.1312668E+00
        -11   -1    0    0    0    0  0.00000000000E+00  0.00000000000E+00  0.45593999997E+02  0.45594000000E+02  0.51100000000E-03 0.  1.
         11   -1    0    0    0    0 -0.00000000000E+00 -0.00000000000E+00 -0.45593999997E+02  0.45594000000E+02  0.51100000000E-03 0. -1.
    9900012    2    1    2    0    0 -0.57759281826E+01 -0.12986935423E+02 -0.41007331141E+02  0.47787273677E+02  0.20000012003E+02 0.  0.
        -12    1    1    2    0    0  0.57759281826E+01  0.12986935423E+02  0.41007331141E+02  0.43400726323E+02  0.00000000000E+00 0.  1.
         11    1    3    3    0    0 -0.59365951725E+01 -0.48807257385E+00 -0.23346419950E+02  0.24094329246E+02  0.51100000000E-03 0. -1.
        -11    1    3    3    0    0  0.41815713827E+01 -0.22774845211E+01 -0.62152359187E+01  0.78295359223E+01  0.51100000000E-03 0.  1.
        -12    1    3    3    0    0 -0.40209043929E+01 -0.10221378328E+02 -0.11445675272E+02  0.15863408508E+02  0.00000000000E+00 0.  1.
</event>
<event>
 7    1  0.2783785E-010  0.4778727E+02  0.7816164E-02  0.1312668E+00
        -11   -1    0    0    0    0  0.00000000000E+00  0.00000000000E+00  0.45593999997E+02  0.45594000000E+02  0.51100000000E-03 0.  1.
         11   -1    0    0    0    0 -0.00000000000E+00 -0.00000000000E+00 -0.45593999997E+02  0.45594000000E+02  0.51100000000E-03 0. -1.
    9900012    2    1    2    0    0 -0.42300761559E+02 -0.64237449355E+01  0.72804095808E+01  0.47787270846E+02  0.19999999094E+02 0.  0.
        -12    1    1    2    0    0  0.42300761559E+02  0.64237449355E+01 -0.72804095808E+01  0.43400729154E+02  0.00000000000E+00 0.  1.
         11    1    3    3    0    0 -0.17048665230E+02 -0.38923435311E+01  0.10637069615E+02  0.20468379871E+02  0.51100000000E-03 0. -1.
        -11    1    3    3    0    0 -0.14099655817E+02 -0.57374578494E+01  0.59295725658E-01  0.15222425331E+02  0.51100000000E-03 0.  1.
         12    1    3    3    0    0 -0.11152440513E+02  0.32060564451E+01 -0.34159557599E+01  0.12096465644E+02  0.00000000000E+00 0. -1.
</event>
<event>
 7    1  0.2783785E-010  0.4778727E+02  0.7816164E-02  0.1312668E+00
        -11   -1    0    0    0    0  0.00000000000E+00  0.00000000000E+00  0.45593999997E+02  0.45594000000E+02  0.51100000000E-03 0.  1.
         11   -1    0    0    0    0 -0.00000000000E+00 -0.00000000000E+00 -0.45593999997E+02  0.45594000000E+02  0.51100000000E-03 0. -1.
    9900012    2    1    2    0    0 -0.31888084239E+02  0.28898894966E+02 -0.56238508355E+01  0.47787265618E+02  0.19999975258E+02 0.  0.
        -12    1    1    2    0    0  0.31888084239E+02 -0.28898894966E+02  0.56238508355E+01  0.43400734382E+02  0.00000000000E+00 0.  1.
         11    1    3    3    0    0 -0.13670736805E+02  0.19545864478E+02  0.10448911816E+01  0.23875126404E+02  0.51100000000E-03 0. -1.
        -11    1    3    3    0    0 -0.12100240245E+01  0.52326208050E+01 -0.24949887400E+01  0.59219462765E+01  0.51100000000E-03 0.  1.
        -12    1    3    3    0    0 -0.17007323409E+02  0.41204096839E+01 -0.41737532771E+01  0.17990192937E+02  0.00000000000E+00 0.  1.
</event>
<event>
 7    1  0.2783785E-010  0.4778727E+02  0.7816164E-02  0.1312668E+00
        -11   -1    0    0    0    0  0.00000000000E+00  0.00000000000E+00  0.45593999997E+02  0.45594000000E+02  0.51100000000E-03 0.  1.
         11   -1    0    0    0    0 -0.00000000000E+00 -0.00000000000E+00 -0.45593999997E+02  0.45594000000E+02  0.51100000000E-03 0. -1.
    9900012    2    1    2    0    0  0.39399225528E+01 -0.53519703067E+01 -0.42888888480E+02  0.47787270387E+02  0.19999997002E+02 0.  0.
        -12    1    1    2    0    0 -0.39399225528E+01  0.53519703067E+01  0.42888888480E+02  0.43400729613E+02  0.00000000000E+00 0.  1.
         11    1    3    3    0    0  0.56697134242E+01 -0.10825392662E+02 -0.33488796638E+02  0.35648762631E+02  0.51100000000E-03 0. -1.
        -11    1    3    3    0    0 -0.96249244436E-01  0.25199772443E+01 -0.81632823825E+01  0.85439293506E+01  0.51100000000E-03 0.  1.
         12    1    3    3    0    0 -0.16335416269E+01  0.29534451111E+01 -0.12368094596E+01  0.35945784051E+01  0.00000000000E+00 0. -1.
</event>
<event>
 7    1  0.2783785E-010  0.4778728E+02  0.7816164E-02  0.1312668E+00
        -11   -1    0    0    0    0  0.00000000000E+00  0.00000000000E+00  0.45593999997E+02  0.45594000000E+02  0.51100000000E-03 0. -1.
         11   -1    0    0    0    0 -0.00000000000E+00 -0.00000000000E+00 -0.45593999997E+02  0.45594000000E+02  0.51100000000E-03 0.  1.
    9900012    2    1    2    0    0 -0.37851395135E+02 -0.15909408198E+02 -0.14063619517E+02  0.47787276771E+02  0.20000026109E+02 0.  0.
        -12    1    1    2    0    0  0.37851395135E+02  0.15909408198E+02  0.14063619517E+02  0.43400723229E+02  0.00000000000E+00 0.  1.
         11    1    3    3    0    0 -0.16293776695E+02 -0.95127790780E+01 -0.45648716352E+00  0.18872956991E+02  0.51100000000E-03 0. -1.
        -11    1    3    3    0    0 -0.26908205274E+01  0.28801755506E+01 -0.13462024307E+00  0.39438622167E+01  0.51100000000E-03 0.  1.
         12    1    3    3    0    0 -0.18866797913E+02 -0.92768046704E+01 -0.13472512110E+02  0.24970457563E+02  0.00000000000E+00 0. -1.
</event>
<event>
 7    1  0.5044183E-010  0.4778726E+02  0.7816164E-02  0.1312668E+00
        -11   -1    0    0    0    0  0.00000000000E+00  0.00000000000E+00  0.45593999997E+02  0.45594000000E+02  0.51100000000E-03 0.  1.
         11   -1    0    0    0    0 -0.00000000000E+00 -0.00000000000E+00 -0.45593999997E+02  0.45594000000E+02  0.51100000000E-03 0. -1.
    9900012    2    1    2    0    0  0.34429004593E+02 -0.25117298661E+02  0.82090779019E+01  0.47787262572E+02  0.19999961370E+02 0.  0.
        -12    1    1    2    0    0 -0.34429004593E+02  0.25117298661E+02 -0.82090779019E+01  0.43400737428E+02  0.00000000000E+00 0.  1.
         11    1    3    3    0    0  0.21845474925E+02 -0.15090932375E+02  0.56420758746E+01  0.27143950248E+02  0.51100000000E-03 0. -1.
        -11    1    3    3    0    0  0.73972503954E+01 -0.79253605776E+01 -0.44063618416E+01  0.11702421913E+02  0.51100000000E-03 0.  1.
        -12    1    3    3    0    0  0.51862792731E+01 -0.21010057088E+01  0.69733638689E+01  0.89408904106E+01  0.00000000000E+00 0.  1.
</event>
<event>
 7    1  0.2783785E-010  0.4778726E+02  0.7816164E-02  0.1312668E+00
        -11   -1    0    0    0    0  0.00000000000E+00  0.00000000000E+00  0.45593999997E+02  0.45594000000E+02  0.51100000000E-03 0.  1.
         11   -1    0    0    0    0 -0.00000000000E+00 -0.00000000000E+00 -0.45593999997E+02  0.45594000000E+02  0.51100000000E-03 0. -1.
    9900012    2    1    2    0    0  0.10984774395E+02 -0.72832390385E+01 -0.41351095209E+02  0.47787263665E+02  0.19999966355E+02 0.  0.
        -12    1    1    2    0    0 -0.10984774395E+02  0.72832390385E+01  0.41351095209E+02  0.43400736335E+02  0.00000000000E+00 0.  1.
         11    1    3    3    0    0  0.55177800206E+01 -0.32387030188E+01 -0.26330319983E+02  0.27096509817E+02  0.51100000000E-03 0. -1.
        -11    1    3    3    0    0  0.49289754628E+01 -0.84470079082E+01 -0.10761639788E+02  0.14541651656E+02  0.51100000000E-03 0.  1.
        -12    1    3    3    0    0  0.53801891119E+00  0.44024718885E+01 -0.42591354387E+01  0.61491021916E+01  0.00000000000E+00 0.  1.
</event>
<event>
 7    1  0.2783785E-010  0.4778727E+02  0.7816164E-02  0.1312668E+00
        -11   -1    0    0    0    0  0.00000000000E+00  0.00000000000E+00  0.45593999997E+02  0.45594000000E+02  0.51100000000E-03 0.  1.
         11   -1    0    0    0    0 -0.00000000000E+00 -0.00000000000E+00 -0.45593999997E+02  0.45594000000E+02  0.51100000000E-03 0. -1.
    9900012    2    1    2    0    0 -0.65349634668E+01  0.39527154706E+02  0.16688970865E+02  0.47787268956E+02  0.19999990477E+02 0.  0.
        -12    1    1    2    0    0  0.65349634668E+01 -0.39527154706E+02 -0.16688970865E+02  0.43400731044E+02  0.00000000000E+00 0.  1.
         11    1    3    3    0    0 -0.20075970226E+01  0.46418902365E+01  0.10960397942E+01  0.51748327764E+01  0.51100000000E-03 0. -1.
        -11    1    3    3    0    0 -0.22849252186E+01 -0.13562087166E+01 -0.79688611291E+00  0.27740247071E+01  0.51100000000E-03 0.  1.
         12    1    3    3    0    0 -0.22424412255E+01  0.36241473186E+02  0.16389817183E+02  0.39838411472E+02  0.00000000000E+00 0. -1.
</event>
<event>
 7    1  0.2783785E-010  0.4778727E+02  0.7816164E-02  0.1312668E+00
        -11   -1    0    0    0    0  0.00000000000E+00  0.00000000000E+00  0.45593999997E+02  0.45594000000E+02  0.51100000000E-03 0.  1.
         11   -1    0    0    0    0 -0.00000000000E+00 -0.00000000000E+00 -0.45593999997E+02  0.45594000000E+02  0.51100000000E-03 0. -1.
    9900012    2    1    2    0    0 -0.55103218028E+01 -0.42808617083E+02 -0.45477492969E+01  0.47787269977E+02  0.19999995131E+02 0.  0.
        -12    1    1    2    0    0  0.55103218028E+01  0.42808617083E+02  0.45477492969E+01  0.43400730023E+02  0.00000000000E+00 0.  1.
         11    1    3    3    0    0 -0.84328254917E+01 -0.24746918066E+02 -0.78522274440E+00  0.26156052350E+02  0.51100000000E-03 0. -1.
        -11    1    3    3    0    0  0.24623637605E+01 -0.16644785812E+02 -0.68783496140E+01  0.18177563745E+02  0.51100000000E-03 0.  1.
        -12    1    3    3    0    0  0.46013992841E+00 -0.14169132049E+01  0.31158230615E+01  0.34536538817E+01  0.00000000000E+00 0.  1.
</event>
<event>
 7    1  0.2783785E-010  0.4778727E+02  0.7816164E-02  0.1312668E+00
        -11   -1    0    0    0    0  0.00000000000E+00  0.00000000000E+00  0.45593999997E+02  0.45594000000E+02  0.51100000000E-03 0.  1.
         11   -1    0    0    0    0 -0.00000000000E+00 -0.00000000000E+00 -0.45593999997E+02  0.45594000000E+02  0.51100000000E-03 0. -1.
    9900012    2    1    2    0    0  0.46521409258E+01  0.37552809230E+02 -0.21254825538E+02  0.47787268382E+02  0.19999987863E+02 0.  0.
        -12    1    1    2    0    0 -0.46521409258E+01 -0.37552809230E+02  0.21254825538E+02  0.43400731618E+02  0.00000000000E+00 0.  1.
         11    1    3    3    0    0  0.34657887695E+01  0.20454100369E+02 -0.13767481841E+02  0.24898302557E+02  0.51100000000E-03 0. -1.
        -11    1    3    3    0    0  0.35775698997E+01  0.10757074640E+01 -0.53831491547E+01  0.65524383262E+01  0.51100000000E-03 0.  1.
         12    1    3    3    0    0 -0.23912177435E+01  0.16023001397E+02 -0.21041945430E+01  0.16336527500E+02  0.00000000000E+00 0. -1.
</event>
<event>
 7    1  0.2783785E-010  0.4778727E+02  0.7816164E-02  0.1312668E+00
        -11   -1    0    0    0    0  0.00000000000E+00  0.00000000000E+00  0.45593999997E+02  0.45594000000E+02  0.51100000000E-03 0. -1.
         11   -1    0    0    0    0 -0.00000000000E+00 -0.00000000000E+00 -0.45593999997E+02  0.45594000000E+02  0.51100000000E-03 0.  1.
    9900012    2    1    2    0    0 -0.24029092085E+02 -0.31014738233E+02  0.18555640367E+02  0.47787273698E+02  0.20000012098E+02 0.  0.
        -12    1    1    2    0    0  0.24029092085E+02  0.31014738233E+02 -0.18555640367E+02  0.43400726302E+02  0.00000000000E+00 0.  1.
         11    1    3    3    0    0 -0.16835112697E+01 -0.10136113509E+02  0.36278871268E+01  0.10896631246E+02  0.51100000000E-03 0. -1.
        -11    1    3    3    0    0 -0.21653004012E+01 -0.17902268340E+01 -0.27769356885E+01  0.39502923972E+01  0.51100000000E-03 0.  1.
         12    1    3    3    0    0 -0.20180280415E+02 -0.19088397891E+02  0.17704688928E+02  0.32940350054E+02  0.00000000000E+00 0. -1.
</event>
<event>
 7    1  0.2783785E-010  0.4778727E+02  0.7816164E-02  0.1312668E+00
        -11   -1    0    0    0    0  0.00000000000E+00  0.00000000000E+00  0.45593999997E+02  0.45594000000E+02  0.51100000000E-03 0. -1.
         11   -1    0    0    0    0 -0.00000000000E+00 -0.00000000000E+00 -0.45593999997E+02  0.45594000000E+02  0.51100000000E-03 0.  1.
    9900012    2    1    2    0    0 -0.38416770772E+02 -0.18028980148E+02  0.90956647882E+01  0.47787268213E+02  0.19999987089E+02 0.  0.
        -12    1    1    2    0    0  0.38416770772E+02  0.18028980148E+02 -0.90956647882E+01  0.43400731787E+02  0.00000000000E+00 0.  1.
         11    1    3    3    0    0 -0.10011645785E+02 -0.50572721886E+01 -0.20297078790E+01  0.11398630077E+02  0.51100000000E-03 0. -1.
        -11    1    3    3    0    0 -0.32360196642E+01 -0.69260543679E+01  0.66236773019E+01  0.10115095335E+02  0.51100000000E-03 0.  1.
         12    1    3    3    0    0 -0.25169105323E+02 -0.60456535911E+01  0.45016953653E+01  0.26273542800E+02  0.00000000000E+00 0. -1.
</event>
<event>
 7    1  0.2783785E-010  0.4778727E+02  0.7816164E-02  0.1312668E+00
        -11   -1    0    0    0    0  0.00000000000E+00  0.00000000000E+00  0.45593999997E+02  0.45594000000E+02  0.51100000000E-03 0.  1.
         11   -1    0    0    0    0 -0.00000000000E+00 -0.00000000000E+00 -0.45593999997E+02  0.45594000000E+02  0.51100000000E-03 0. -1.
    9900012    2    1    2    0    0 -0.16375169013E+02  0.37600986175E+02 -0.14200107852E+02  0.47787269769E+02  0.19999994187E+02 0.  0.
        -12    1    1    2    0    0  0.16375169013E+02 -0.37600986175E+02  0.14200107852E+02  0.43400730231E+02  0.00000000000E+00 0.  1.
         11    1    3    3    0    0 -0.85646997758E+01  0.18081627629E+02 -0.11987476631E+02  0.23323784774E+02  0.51100000000E-03 0. -1.
        -11    1    3    3    0    0 -0.82107939575E+00 -0.17183337585E+01 -0.78448331192E+00  0.20596739080E+01  0.51100000000E-03 0.  1.
         12    1    3    3    0    0 -0.69893898418E+01  0.21237692304E+02 -0.14281479093E+01  0.22403811087E+02  0.00000000000E+00 0. -1.
</event>
<event>
 7    1  0.2783785E-010  0.4778727E+02  0.7816164E-02  0.1312668E+00
        -11   -1    0    0    0    0  0.00000000000E+00  0.00000000000E+00  0.45593999997E+02  0.45594000000E+02  0.51100000000E-03 0.  1.
         11   -1    0    0    0    0 -0.00000000000E+00 -0.00000000000E+00 -0.45593999997E+02  0.45594000000E+02  0.51100000000E-03 0. -1.
    9900012    2    1    2    0    0  0.13707788922E+02  0.78722536745E+01 -0.40419642511E+02  0.47787270101E+02  0.19999995697E+02 0.  0.
        -12    1    1    2    0    0 -0.13707788922E+02 -0.78722536745E+01  0.40419642511E+02  0.43400729899E+02  0.00000000000E+00 0.  1.
         11    1    3    3    0    0  0.40858982661E+00  0.62709123992E+01 -0.13955290620E+02  0.15304947714E+02  0.51100000000E-03 0. -1.
        -11    1    3    3    0    0  0.23231804956E+01  0.63072969949E+01 -0.11693483041E+02  0.13487650236E+02  0.51100000000E-03 0.  1.
        -12    1    3    3    0    0  0.10976018600E+02 -0.47059557195E+01 -0.14770868851E+02  0.18994672151E+02  0.00000000000E+00 0.  1.
</event>
<event>
 7    1  0.2783785E-010  0.4778727E+02  0.7816164E-02  0.1312668E+00
        -11   -1    0    0    0    0  0.00000000000E+00  0.00000000000E+00  0.45593999997E+02  0.45594000000E+02  0.51100000000E-03 0.  1.
         11   -1    0    0    0    0 -0.00000000000E+00 -0.00000000000E+00 -0.45593999997E+02  0.45594000000E+02  0.51100000000E-03 0. -1.
    9900012    2    1    2    0    0 -0.18396154972E+02  0.16736847229E+02 -0.35567999194E+02  0.47787272592E+02  0.20000007054E+02 0.  0.
        -12    1    1    2    0    0  0.18396154972E+02 -0.16736847229E+02  0.35567999194E+02  0.43400727408E+02  0.00000000000E+00 0.  1.
         11    1    3    3    0    0 -0.13089050787E+02  0.13628635034E+02 -0.25305585295E+02  0.31582203704E+02  0.51100000000E-03 0. -1.
        -11    1    3    3    0    0  0.99154780789E+00  0.21347450888E+01 -0.94987600179E+01  0.97860485278E+01  0.51100000000E-03 0.  1.
         12    1    3    3    0    0 -0.62986519928E+01  0.97346710593E+00 -0.76365388134E+00  0.64190203601E+01  0.00000000000E+00 0. -1.
</event>
<event>
 7    1  0.2783785E-010  0.4778727E+02  0.7816164E-02  0.1312668E+00
        -11   -1    0    0    0    0  0.00000000000E+00  0.00000000000E+00  0.45593999997E+02  0.45594000000E+02  0.51100000000E-03 0.  1.
         11   -1    0    0    0    0 -0.00000000000E+00 -0.00000000000E+00 -0.45593999997E+02  0.45594000000E+02  0.51100000000E-03 0. -1.
    9900012    2    1    2    0    0 -0.27968383474E+02 -0.18520482172E+02 -0.27538786649E+02  0.47787268392E+02  0.19999987905E+02 0.  0.
        -12    1    1    2    0    0  0.27968383474E+02  0.18520482172E+02  0.27538786649E+02  0.43400731608E+02  0.00000000000E+00 0.  1.
         11    1    3    3    0    0 -0.12334261715E+02 -0.91106412631E+01 -0.63503185571E+01  0.16597118494E+02  0.51100000000E-03 0. -1.
        -11    1    3    3    0    0 -0.37520561459E+01  0.25476250616E+01 -0.99367696168E+01  0.10922806849E+02  0.51100000000E-03 0.  1.
         12    1    3    3    0    0 -0.11882065613E+02 -0.11957465971E+02 -0.11251698475E+02  0.20267343049E+02  0.00000000000E+00 0. -1.
</event>
<event>
 7    1  0.2783785E-010  0.4778728E+02  0.7816164E-02  0.1312668E+00
        -11   -1    0    0    0    0  0.00000000000E+00  0.00000000000E+00  0.45593999997E+02  0.45594000000E+02  0.51100000000E-03 0.  1.
         11   -1    0    0    0    0 -0.00000000000E+00 -0.00000000000E+00 -0.45593999997E+02  0.45594000000E+02  0.51100000000E-03 0. -1.
    9900012    2    1    2    0    0  0.20187470538E+02  0.36447043819E+02 -0.12153236042E+02  0.47787284382E+02  0.20000060813E+02 0.  0.
        -12    1    1    2    0    0 -0.20187470538E+02 -0.36447043819E+02  0.12153236042E+02  0.43400715618E+02  0.00000000000E+00 0.  1.
         11    1    3    3    0    0  0.32348503494E+00  0.96546833815E+01 -0.87463636105E+00  0.96996156001E+01  0.51100000000E-03 0. -1.
        -11    1    3    3    0    0  0.14313644399E+02  0.93477039141E+01 -0.10742037970E+01  0.17129328606E+02  0.51100000000E-03 0.  1.
        -12    1    3    3    0    0  0.55503411040E+01  0.17444656523E+02 -0.10204395884E+02  0.20958340176E+02  0.00000000000E+00 0.  1.
</event>
<event>
 7    1  0.2783785E-010  0.4778726E+02  0.7816164E-02  0.1312668E+00
        -11   -1    0    0    0    0  0.00000000000E+00  0.00000000000E+00  0.45593999997E+02  0.45594000000E+02  0.51100000000E-03 0. -1.
         11   -1    0    0    0    0 -0.00000000000E+00 -0.00000000000E+00 -0.45593999997E+02  0.45594000000E+02  0.51100000000E-03 0.  1.
    9900012    2    1    2    0    0 -0.10799644594E+02 -0.12965709310E+01  0.42015599187E+02  0.47787262742E+02  0.19999962144E+02 0.  0.
        -12    1    1    2    0    0  0.10799644594E+02  0.12965709310E+01 -0.42015599187E+02  0.43400737258E+02  0.00000000000E+00 0.  1.
         11    1    3    3    0    0 -0.10411067306E+01 -0.27484998969E+01  0.15847347028E+02  0.16117585520E+02  0.51100000000E-03 0. -1.
        -11    1    3    3    0    0 -0.80991332489E+01 -0.54723480612E+01  0.99043265110E+01  0.13915395668E+02  0.51100000000E-03 0.  1.
        -12    1    3    3    0    0 -0.16594046148E+01  0.69242770271E+01  0.16263925648E+02  0.17754281554E+02  0.00000000000E+00 0.  1.
</event>
<event>
 7    1  0.2783785E-010  0.4778727E+02  0.7816164E-02  0.1312668E+00
        -11   -1    0    0    0    0  0.00000000000E+00  0.00000000000E+00  0.45593999997E+02  0.45594000000E+02  0.51100000000E-03 0.  1.
         11   -1    0    0    0    0 -0.00000000000E+00 -0.00000000000E+00 -0.45593999997E+02  0.45594000000E+02  0.51100000000E-03 0. -1.
    9900012    2    1    2    0    0 -0.17809001488E+02 -0.14800352490E+02 -0.36707114779E+02  0.47787271397E+02  0.20000001608E+02 0.  0.
        -12    1    1    2    0    0  0.17809001488E+02  0.14800352490E+02  0.36707114779E+02  0.43400728603E+02  0.00000000000E+00 0.  1.
         11    1    3    3    0    0  0.17503575989E+01 -0.43961260243E+01 -0.47513951389E+01  0.67056268740E+01  0.51100000000E-03 0. -1.
        -11    1    3    3    0    0 -0.35581392439E+01 -0.73725884847E+01 -0.50129424540E+01  0.95992191428E+01  0.51100000000E-03 0.  1.
        -12    1    3    3    0    0 -0.16001219843E+02 -0.30316379813E+01 -0.26942777186E+02  0.31482425380E+02  0.00000000000E+00 0.  1.
</event>
<event>
 7    1  0.2783785E-010  0.4778727E+02  0.7816164E-02  0.1312668E+00
        -11   -1    0    0    0    0  0.00000000000E+00  0.00000000000E+00  0.45593999997E+02  0.45594000000E+02  0.51100000000E-03 0. -1.
         11   -1    0    0    0    0 -0.00000000000E+00 -0.00000000000E+00 -0.45593999997E+02  0.45594000000E+02  0.51100000000E-03 0.  1.
    9900012    2    1    2    0    0  0.30649403834E+02  0.79163824114E+01  0.29691219298E+02  0.47787267641E+02  0.19999984483E+02 0.  0.
        -12    1    1    2    0    0 -0.30649403834E+02 -0.79163824114E+01 -0.29691219298E+02  0.43400732359E+02  0.00000000000E+00 0.  1.
         11    1    3    3    0    0  0.68518407923E+01  0.20338307118E+00  0.15265991301E+01  0.70227909040E+01  0.51100000000E-03 0. -1.
        -11    1    3    3    0    0  0.23939154396E+02  0.10065618074E+02  0.28292700773E+02  0.38404123446E+02  0.51100000000E-03 0.  1.
        -12    1    3    3    0    0 -0.14159135394E+00 -0.23526187334E+01 -0.12808060487E+00  0.23603532909E+01  0.00000000000E+00 0.  1.
</event>
<event>
 7    1  0.2783785E-010  0.4778727E+02  0.7816164E-02  0.1312668E+00
        -11   -1    0    0    0    0  0.00000000000E+00  0.00000000000E+00  0.45593999997E+02  0.45594000000E+02  0.51100000000E-03 0.  1.
         11   -1    0    0    0    0 -0.00000000000E+00 -0.00000000000E+00 -0.45593999997E+02  0.45594000000E+02  0.51100000000E-03 0. -1.
    9900012    2    1    2    0    0  0.14468506389E+02 -0.29174334814E+02 -0.28690486505E+02  0.47787268384E+02  0.19999987868E+02 0.  0.
        -12    1    1    2    0    0 -0.14468506389E+02  0.29174334814E+02  0.28690486505E+02  0.43400731616E+02  0.00000000000E+00 0.  1.
         11    1    3    3    0    0  0.71207395698E+01 -0.35515081456E+01 -0.10829133248E+02  0.13438313484E+02  0.51100000000E-03 0.  1.
        -11    1    3    3    0    0  0.10313313125E+02 -0.20148095831E+02 -0.11280781551E+02  0.25289646614E+02  0.51100000000E-03 0. -1.
        -12    1    3    3    0    0 -0.29655463055E+01 -0.54747308372E+01 -0.65805717066E+01  0.90593082857E+01  0.00000000000E+00 0.  1.
</event>
<event>
 7    1  0.2783785E-010  0.4778727E+02  0.7816164E-02  0.1312668E+00
        -11   -1    0    0    0    0  0.00000000000E+00  0.00000000000E+00  0.45593999997E+02  0.45594000000E+02  0.51100000000E-03 0.  1.
         11   -1    0    0    0    0 -0.00000000000E+00 -0.00000000000E+00 -0.45593999997E+02  0.45594000000E+02  0.51100000000E-03 0. -1.
    9900012    2    1    2    0    0 -0.38832579000E+02  0.15166197220E+02 -0.12068163035E+02  0.47787270871E+02  0.19999999208E+02 0.  0.
        -12    1    1    2    0    0  0.38832579000E+02 -0.15166197220E+02  0.12068163035E+02  0.43400729129E+02  0.00000000000E+00 0.  1.
         11    1    3    3    0    0 -0.14608631256E+02  0.57620119944E+00 -0.24107755124E+01  0.14817420620E+02  0.51100000000E-03 0.  1.
        -11    1    3    3    0    0 -0.19792856841E+02  0.16926384050E+02 -0.10117070289E+02  0.27939484075E+02  0.51100000000E-03 0. -1.
        -12    1    3    3    0    0 -0.44310909029E+01 -0.23363880286E+01  0.45968276552E+00  0.50303661750E+01  0.00000000000E+00 0.  1.
</event>
<event>
 7    1  0.2783785E-010  0.4778727E+02  0.7816164E-02  0.1312668E+00
        -11   -1    0    0    0    0  0.00000000000E+00  0.00000000000E+00  0.45593999997E+02  0.45594000000E+02  0.51100000000E-03 0.  1.
         11   -1    0    0    0    0 -0.00000000000E+00 -0.00000000000E+00 -0.45593999997E+02  0.45594000000E+02  0.51100000000E-03 0. -1.
    9900012    2    1    2    0    0 -0.30635945119E+01  0.30183121355E+02 -0.31035729512E+02  0.47787274978E+02  0.20000017935E+02 0.  0.
        -12    1    1    2    0    0  0.30635945119E+01 -0.30183121355E+02  0.31035729512E+02  0.43400725022E+02  0.00000000000E+00 0.  1.
         11    1    3    3    0    0 -0.25072300602E+01  0.54074916825E+01  0.13914400376E+01  0.61207249988E+01  0.51100000000E-03 0. -1.
        -11    1    3    3    0    0 -0.42069798545E+01  0.10642067078E+02 -0.12260292549E+02  0.16771018002E+02  0.51100000000E-03 0.  1.
         12    1    3    3    0    0  0.36506154028E+01  0.14133562594E+02 -0.20166877001E+02  0.24895531977E+02  0.00000000000E+00 0. -1.
</event>
<event>
 7    1  0.2783785E-010  0.4778727E+02  0.7816164E-02  0.1312668E+00
        -11   -1    0    0    0    0  0.00000000000E+00  0.00000000000E+00  0.45593999997E+02  0.45594000000E+02  0.51100000000E-03 0. -1.
         11   -1    0    0    0    0 -0.00000000000E+00 -0.00000000000E+00 -0.45593999997E+02  0.45594000000E+02  0.51100000000E-03 0.  1.
    9900012    2    1    2    0    0  0.32544742900E+02  0.14110411161E+02  0.25007184295E+02  0.47787271205E+02  0.20000000732E+02 0.  0.
        -12    1    1    2    0    0 -0.32544742900E+02 -0.14110411161E+02 -0.25007184295E+02  0.43400728795E+02  0.00000000000E+00 0.  1.
         11    1    3    3    0    0  0.12643619655E+02  0.90788749341E+01  0.65549324625E+01  0.16889470919E+02  0.51100000000E-03 0. -1.
        -11    1    3    3    0    0  0.16222436711E+02  0.66277535903E+01  0.20007330577E+02  0.26596763855E+02  0.51100000000E-03 0.  1.
        -12    1    3    3    0    0  0.36786865332E+01 -0.15962173631E+01 -0.15550787443E+01  0.43010364310E+01  0.00000000000E+00 0.  1.
</event>
<event>
 7    1  0.2783785E-010  0.4778727E+02  0.7816164E-02  0.1312668E+00
        -11   -1    0    0    0    0  0.00000000000E+00  0.00000000000E+00  0.45593999997E+02  0.45594000000E+02  0.51100000000E-03 0.  1.
         11   -1    0    0    0    0 -0.00000000000E+00 -0.00000000000E+00 -0.45593999997E+02  0.45594000000E+02  0.51100000000E-03 0. -1.
    9900012    2    1    2    0    0  0.93914345040E+00 -0.30305791329E+02 -0.31053182992E+02  0.47787272444E+02  0.20000006379E+02 0.  0.
        -12    1    1    2    0    0 -0.93914345040E+00  0.30305791329E+02  0.31053182992E+02  0.43400727556E+02  0.00000000000E+00 0.  1.
         11    1    3    3    0    0  0.18780575620E+01 -0.83177783402E+00 -0.15585127653E+00  0.20599137003E+01  0.51100000000E-03 0. -1.
        -11    1    3    3    0    0  0.98051128190E+00  0.13546382556E+01  0.43672670222E+00  0.17283453506E+01  0.51100000000E-03 0.  1.
         12    1    3    3    0    0 -0.19194253935E+01 -0.30828651750E+02 -0.31334058418E+02  0.43999013393E+02  0.00000000000E+00 0. -1.
</event>
<event>
 7    1  0.2783785E-010  0.4778727E+02  0.7816164E-02  0.1312668E+00
        -11   -1    0    0    0    0  0.00000000000E+00  0.00000000000E+00  0.45593999997E+02  0.45594000000E+02  0.51100000000E-03 0. -1.
         11   -1    0    0    0    0 -0.00000000000E+00 -0.00000000000E+00 -0.45593999997E+02  0.45594000000E+02  0.51100000000E-03 0.  1.
    9900012    2    1    2    0    0  0.15883584538E+02 -0.39384588909E+02  0.89548452464E+01  0.47787270113E+02  0.19999995755E+02 0.  0.
        -12    1    1    2    0    0 -0.15883584538E+02  0.39384588909E+02 -0.89548452464E+01  0.43400729887E+02  0.00000000000E+00 0.  1.
         11    1    3    3    0    0  0.17286102409E+02 -0.20218722187E+02  0.13762739344E+01  0.26636444837E+02  0.51100000000E-03 0. -1.
        -11    1    3    3    0    0  0.10163078862E+01 -0.63259090391E+01  0.41808706125E+01  0.76504696738E+01  0.51100000000E-03 0.  1.
         12    1    3    3    0    0 -0.24188257570E+01 -0.12839957683E+02  0.33977006995E+01  0.13500355602E+02  0.00000000000E+00 0. -1.
</event>
<event>
 7    1  0.2783785E-010  0.4778728E+02  0.7816164E-02  0.1312668E+00
        -11   -1    0    0    0    0  0.00000000000E+00  0.00000000000E+00  0.45593999997E+02  0.45594000000E+02  0.51100000000E-03 0. -1.
         11   -1    0    0    0    0 -0.00000000000E+00 -0.00000000000E+00 -0.45593999997E+02  0.45594000000E+02  0.51100000000E-03 0.  1.
    9900012    2    1    2    0    0  0.31219139013E+02  0.14062977684E+02  0.26668718650E+02  0.47787279539E+02  0.20000038730E+02 0.  0.
        -12    1    1    2    0    0 -0.31219139013E+02 -0.14062977684E+02 -0.26668718650E+02  0.43400720461E+02  0.00000000000E+00 0.  1.
         11    1    3    3    0    0  0.52579706761E+01  0.59617710917E+01  0.11443479155E+02  0.13933491509E+02  0.51100000000E-03 0. -1.
        -11    1    3    3    0    0  0.26353011680E+01 -0.13777389483E+01 -0.17847288547E+01  0.34681744768E+01  0.51100000000E-03 0.  1.
         12    1    3    3    0    0  0.23325867169E+02  0.94789455405E+01  0.17009968350E+02  0.30385613554E+02  0.00000000000E+00 0. -1.
</event>
<event>
 7    1  0.2783785E-010  0.4778728E+02  0.7816164E-02  0.1312668E+00
        -11   -1    0    0    0    0  0.00000000000E+00  0.00000000000E+00  0.45593999997E+02  0.45594000000E+02  0.51100000000E-03 0.  1.
         11   -1    0    0    0    0 -0.00000000000E+00 -0.00000000000E+00 -0.45593999997E+02  0.45594000000E+02  0.51100000000E-03 0. -1.
    9900012    2    1    2    0    0  0.44297576550E-01  0.31726901890E+02 -0.29614601182E+02  0.47787275709E+02  0.20000021268E+02 0.  0.
        -12    1    1    2    0    0 -0.44297576550E-01 -0.31726901890E+02  0.29614601182E+02  0.43400724291E+02  0.00000000000E+00 0.  1.
         11    1    3    3    0    0  0.22504656860E+01  0.33226855076E+01 -0.10882443669E+02  0.11598810941E+02  0.51100000000E-03 0.  1.
        -11    1    3    3    0    0  0.11100572461E+01  0.23222941709E+02 -0.19007922622E+02  0.30030623893E+02  0.51100000000E-03 0. -1.
         12    1    3    3    0    0 -0.33162253555E+01  0.51812746735E+01  0.27576510897E+00  0.61578408753E+01  0.00000000000E+00 0. -1.
</event>
<event>
 7    1  0.2783785E-010  0.4778728E+02  0.7816164E-02  0.1312668E+00
        -11   -1    0    0    0    0  0.00000000000E+00  0.00000000000E+00  0.45593999997E+02  0.45594000000E+02  0.51100000000E-03 0. -1.
         11   -1    0    0    0    0 -0.00000000000E+00 -0.00000000000E+00 -0.45593999997E+02  0.45594000000E+02  0.51100000000E-03 0.  1.
    9900012    2    1    2    0    0  0.13566161536E+02 -0.37974017635E+02  0.16048549315E+02  0.47787277780E+02  0.20000030708E+02 0.  0.
        -12    1    1    2    0    0 -0.13566161536E+02  0.37974017635E+02 -0.16048549315E+02  0.43400722220E+02  0.00000000000E+00 0.  1.
         11    1    3    3    0    0  0.94735611371E+01 -0.83347217739E+01  0.23698588978E+01  0.12838698498E+02  0.51100000000E-03 0. -1.
        -11    1    3    3    0    0 -0.31114373409E+01 -0.28444987472E+01  0.54494838460E+00  0.42507863334E+01  0.51100000000E-03 0.  1.
        -12    1    3    3    0    0  0.72040377401E+01 -0.26794797114E+02  0.13133742032E+02  0.30697792948E+02  0.00000000000E+00 0.  1.
</event>
<event>
 7    1  0.2783785E-010  0.4778726E+02  0.7816164E-02  0.1312668E+00
        -11   -1    0    0    0    0  0.00000000000E+00  0.00000000000E+00  0.45593999997E+02  0.45594000000E+02  0.51100000000E-03 0. -1.
         11   -1    0    0    0    0 -0.00000000000E+00 -0.00000000000E+00 -0.45593999997E+02  0.45594000000E+02  0.51100000000E-03 0.  1.
    9900012    2    1    2    0    0 -0.14392852037E+02 -0.35565411194E+02  0.20287218938E+02  0.47787263654E+02  0.19999966304E+02 0.  0.
        -12    1    1    2    0    0  0.14392852037E+02  0.35565411194E+02 -0.20287218938E+02  0.43400736346E+02  0.00000000000E+00 0.  1.
         11    1    3    3    0    0 -0.12477517506E+01 -0.94722260274E+01  0.33893438061E+01  0.10137435674E+02  0.51100000000E-03 0. -1.
        -11    1    3    3    0    0 -0.65031571594E+01 -0.39302681916E+01  0.11676486711E+02  0.13931202506E+02  0.51100000000E-03 0.  1.
         12    1    3    3    0    0 -0.66419431272E+01 -0.22162916975E+02  0.52213884205E+01  0.23718625474E+02  0.00000000000E+00 0. -1.
</event>
<event>
 7    1  0.3498233E-010  0.4778727E+02  0.7816164E-02  0.1312668E+00
        -11   -1    0    0    0    0  0.00000000000E+00  0.00000000000E+00  0.45593999997E+02  0.45594000000E+02  0.51100000000E-03 0.  1.
         11   -1    0    0    0    0 -0.00000000000E+00 -0.00000000000E+00 -0.45593999997E+02  0.45594000000E+02  0.51100000000E-03 0. -1.
    9900012    2    1    2    0    0  0.22846884353E+02 -0.36230439598E+02 -0.69998960173E+01  0.47787269333E+02  0.19999992199E+02 0.  0.
        -12    1    1    2    0    0 -0.22846884353E+02  0.36230439598E+02  0.69998960173E+01  0.43400730667E+02  0.00000000000E+00 0.  1.
         11    1    3    3    0    0  0.50558072639E+01 -0.18120455011E+02  0.10731202127E+01  0.18843133076E+02  0.51100000000E-03 0. -1.
        -11    1    3    3    0    0  0.12150145177E+02 -0.18204044769E+02 -0.79978872670E+01  0.23301919980E+02  0.51100000000E-03 0.  1.
        -12    1    3    3    0    0  0.56409319118E+01  0.94060180880E-01 -0.75128962984E-01  0.56422162766E+01  0.00000000000E+00 0.  1.
</event>
<event>
 7    1  0.2783785E-010  0.4778728E+02  0.7816164E-02  0.1312668E+00
        -11   -1    0    0    0    0  0.00000000000E+00  0.00000000000E+00  0.45593999997E+02  0.45594000000E+02  0.51100000000E-03 0.  1.
         11   -1    0    0    0    0 -0.00000000000E+00 -0.00000000000E+00 -0.45593999997E+02  0.45594000000E+02  0.51100000000E-03 0. -1.
    9900012    2    1    2    0    0  0.10866293608E+02 -0.41840707011E+02 -0.38602769255E+01  0.47787276067E+02  0.20000022898E+02 0.  0.
        -12    1    1    2    0    0 -0.10866293608E+02  0.41840707011E+02  0.38602769255E+01  0.43400723933E+02  0.00000000000E+00 0.  1.
         11    1    3    3    0    0  0.30822717244E+01 -0.80387496943E+01  0.44876673320E+01  0.97088132114E+01  0.51100000000E-03 0.  1.
        -11    1    3    3    0    0  0.11520510419E+02 -0.24938173102E+02 -0.52090515578E+01  0.27960129763E+02  0.51100000000E-03 0. -1.
        -12    1    3    3    0    0 -0.37364885349E+01 -0.88637842147E+01 -0.31388926997E+01  0.10118333092E+02  0.00000000000E+00 0.  1.
</event>
<event>
 7    1  0.2783785E-010  0.4778727E+02  0.7816164E-02  0.1312668E+00
        -11   -1    0    0    0    0  0.00000000000E+00  0.00000000000E+00  0.45593999997E+02  0.45594000000E+02  0.51100000000E-03 0.  1.
         11   -1    0    0    0    0 -0.00000000000E+00 -0.00000000000E+00 -0.45593999997E+02  0.45594000000E+02  0.51100000000E-03 0. -1.
    9900012    2    1    2    0    0 -0.11337951965E+02 -0.17141559851E+02 -0.38226181239E+02  0.47787272345E+02  0.20000005929E+02 0.  0.
        -12    1    1    2    0    0  0.11337951965E+02  0.17141559851E+02  0.38226181239E+02  0.43400727655E+02  0.00000000000E+00 0.  1.
         11    1    3    3    0    0  0.25474071032E+01 -0.79249164895E+01 -0.19119427590E+02  0.20852963721E+02  0.51100000000E-03 0. -1.
        -11    1    3    3    0    0 -0.10153772534E+02 -0.81478273256E+01 -0.19023628761E+02  0.23051781673E+02  0.51100000000E-03 0.  1.
        -12    1    3    3    0    0 -0.37315865342E+01 -0.10688160360E+01 -0.83124888544E-01  0.38825269514E+01  0.00000000000E+00 0.  1.
</event>
<event>
 7    1  0.2783785E-010  0.4778728E+02  0.7816164E-02  0.1312668E+00
        -11   -1    0    0    0    0  0.00000000000E+00  0.00000000000E+00  0.45593999997E+02  0.45594000000E+02  0.51100000000E-03 0. -1.
         11   -1    0    0    0    0 -0.00000000000E+00 -0.00000000000E+00 -0.45593999997E+02  0.45594000000E+02  0.51100000000E-03 0.  1.
    9900012    2    1    2    0    0 -0.31016775620E+02  0.22939368027E+02  0.19883858264E+02  0.47787276564E+02  0.20000025165E+02 0.  0.
        -12    1    1    2    0    0  0.31016775620E+02 -0.22939368027E+02 -0.19883858264E+02  0.43400723436E+02  0.00000000000E+00 0.  1.
         11    1    3    3    0    0 -0.22496163626E+02  0.16255055133E+02  0.12656306687E+02  0.30503873434E+02  0.51100000000E-03 0. -1.
        -11    1    3    3    0    0 -0.52526273031E+01  0.29609242970E+01  0.99470851704E+01  0.11631924601E+02  0.51100000000E-03 0.  1.
         12    1    3    3    0    0 -0.32679846903E+01  0.37233885977E+01 -0.27195335943E+01  0.56514785283E+01  0.00000000000E+00 0. -1.
</event>
<event>
 7    1  0.2783785E-010  0.4778724E+02  0.7816164E-02  0.1312668E+00
        -11   -1    0    0    0    0  0.00000000000E+00  0.00000000000E+00  0.45593999997E+02  0.45594000000E+02  0.51100000000E-03 0. -1.
         11   -1    0    0    0    0 -0.00000000000E+00 -0.00000000000E+00 -0.45593999997E+02  0.45594000000E+02  0.51100000000E-03 0.  1.
    9900012    2    1    2    0    0  0.56322491333E+01 -0.13501336669E+02  0.40860951796E+02  0.47787243051E+02  0.19999872364E+02 0.  0.
        -12    1    1    2    0    0 -0.56322491333E+01  0.13501336669E+02 -0.40860951796E+02  0.43400756949E+02  0.00000000000E+00 0.  1.
         11    1    3    3    0    0  0.45303196995E+01 -0.27031243597E+01  0.32508297313E+00  0.52854855108E+01  0.51100000000E-03 0.  1.
        -11    1    3    3    0    0 -0.18597268813E+01 -0.14169139073E+01  0.14144996182E+02  0.14336915510E+02  0.51100000000E-03 0. -1.
        -12    1    3    3    0    0  0.29616563151E+01 -0.93812984016E+01  0.26390872641E+02  0.28164842030E+02  0.00000000000E+00 0.  1.
</event>
<event>
 7    1  0.2783785E-010  0.4778727E+02  0.7816164E-02  0.1312668E+00
        -11   -1    0    0    0    0  0.00000000000E+00  0.00000000000E+00  0.45593999997E+02  0.45594000000E+02  0.51100000000E-03 0. -1.
         11   -1    0    0    0    0 -0.00000000000E+00 -0.00000000000E+00 -0.45593999997E+02  0.45594000000E+02  0.51100000000E-03 0.  1.
    9900012    2    1    2    0    0  0.12388901488E+02 -0.17661063496E+02  0.37659329701E+02  0.47787272386E+02  0.20000006118E+02 0.  0.
        -12    1    1    2    0    0 -0.12388901488E+02  0.17661063496E+02 -0.37659329701E+02  0.43400727614E+02  0.00000000000E+00 0.  1.
         11    1    3    3    0    0  0.41195073321E+01 -0.22375135863E+01  0.33752510731E+01  0.57766017497E+01  0.51100000000E-03 0. -1.
        -11    1    3    3    0    0  0.19248643100E+01  0.31909673052E+01  0.20558519791E+01  0.42560430655E+01  0.51100000000E-03 0.  1.
         12    1    3    3    0    0  0.63445298459E+01 -0.18614517215E+02  0.32228226648E+02  0.37754627571E+02  0.00000000000E+00 0. -1.
</event>
<event>
 7    1  0.2783785E-010  0.4778727E+02  0.7816164E-02  0.1312668E+00
        -11   -1    0    0    0    0  0.00000000000E+00  0.00000000000E+00  0.45593999997E+02  0.45594000000E+02  0.51100000000E-03 0. -1.
         11   -1    0    0    0    0 -0.00000000000E+00 -0.00000000000E+00 -0.45593999997E+02  0.45594000000E+02  0.51100000000E-03 0.  1.
    9900012    2    1    2    0    0 -0.18232156784E+02 -0.35290944074E+02  0.17486021878E+02  0.47787271483E+02  0.20000002001E+02 0.  0.
        -12    1    1    2    0    0  0.18232156784E+02  0.35290944074E+02 -0.17486021878E+02  0.43400728517E+02  0.00000000000E+00 0.  1.
         11    1    3    3    0    0 -0.11878660949E+02 -0.13365897801E+02  0.36503517977E+01  0.18250339133E+02  0.51100000000E-03 0. -1.
        -11    1    3    3    0    0 -0.66763381409E+01 -0.20313702564E+02  0.69891717518E+01  0.22495966858E+02  0.51100000000E-03 0.  1.
        -12    1    3    3    0    0  0.32284230532E+00 -0.16113437088E+01  0.68464983284E+01  0.70409654923E+01  0.00000000000E+00 0.  1.
</event>
<event>
 7    1  0.2783785E-010  0.4778727E+02  0.7816164E-02  0.1312668E+00
        -11   -1    0    0    0    0  0.00000000000E+00  0.00000000000E+00  0.45593999997E+02  0.45594000000E+02  0.51100000000E-03 0.  1.
         11   -1    0    0    0    0 -0.00000000000E+00 -0.00000000000E+00 -0.45593999997E+02  0.45594000000E+02  0.51100000000E-03 0. -1.
    9900012    2    1    2    0    0  0.37997907809E+02  0.15643578148E+02  0.13966411754E+02  0.47787271983E+02  0.20000004280E+02 0.  0.
        -12    1    1    2    0    0 -0.37997907809E+02 -0.15643578148E+02 -0.13966411754E+02  0.43400728017E+02  0.00000000000E+00 0.  1.
         11    1    3    3    0    0  0.12408385973E+02  0.23282345505E+01 -0.36182967774E+01  0.13133194219E+02  0.51100000000E-03 0. -1.
        -11    1    3    3    0    0  0.12768364601E+02  0.35588606556E+01  0.11092097852E+02  0.17283843866E+02  0.51100000000E-03 0.  1.
        -12    1    3    3    0    0  0.12821157235E+02  0.97564829418E+01  0.64926106791E+01  0.17370233898E+02  0.00000000000E+00 0.  1.
</event>
<event>
 7    1  0.2783785E-010  0.4778727E+02  0.7816164E-02  0.1312668E+00
        -11   -1    0    0    0    0  0.00000000000E+00  0.00000000000E+00  0.45593999997E+02  0.45594000000E+02  0.51100000000E-03 0. -1.
         11   -1    0    0    0    0 -0.00000000000E+00 -0.00000000000E+00 -0.45593999997E+02  0.45594000000E+02  0.51100000000E-03 0.  1.
    9900012    2    1    2    0    0  0.25270949371E+02  0.12626132991E+02  0.32948188897E+02  0.47787271112E+02  0.20000000307E+02 0.  0.
        -12    1    1    2    0    0 -0.25270949371E+02 -0.12626132991E+02 -0.32948188897E+02  0.43400728888E+02  0.00000000000E+00 0.  1.
         11    1    3    3    0    0  0.17702676373E+02  0.69667723912E+01  0.15277204362E+02  0.24399050016E+02  0.51100000000E-03 0. -1.
        -11    1    3    3    0    0  0.40981133854E+01  0.92766472192E+01  0.13384433345E+02  0.16792670222E+02  0.51100000000E-03 0.  1.
         12    1    3    3    0    0  0.34701596128E+01 -0.36172866191E+01  0.42865511899E+01  0.65955508736E+01  0.00000000000E+00 0. -1.
</event>
<event>
 7    1  0.2911704E-010  0.4778727E+02  0.7816164E-02  0.1312668E+00
        -11   -1    0    0    0    0  0.00000000000E+00  0.00000000000E+00  0.45593999997E+02  0.45594000000E+02  0.51100000000E-03 0. -1.
         11   -1    0    0    0    0 -0.00000000000E+00 -0.00000000000E+00 -0.45593999997E+02  0.45594000000E+02  0.51100000000E-03 0.  1.
    9900012    2    1    2    0    0  0.15011812869E+02 -0.38689774548E+02  0.12703165737E+02  0.47787267288E+02  0.19999982874E+02 0.  0.
        -12    1    1    2    0    0 -0.15011812869E+02  0.38689774548E+02 -0.12703165737E+02  0.43400732712E+02  0.00000000000E+00 0.  1.
         11    1    3    3    0    0  0.86153831557E+01 -0.27258325444E+02  0.70016986429E+01  0.29432378719E+02  0.51100000000E-03 0.  1.
        -11    1    3    3    0    0 -0.29849992643E+01 -0.57501497880E+01  0.20468090119E+01  0.67943999430E+01  0.51100000000E-03 0. -1.
        -12    1    3    3    0    0  0.93814289773E+01 -0.56812993160E+01  0.36546580824E+01  0.11560488626E+02  0.00000000000E+00 0.  1.
</event>
<event>
 7    1  0.2783785E-010  0.4778727E+02  0.7816164E-02  0.1312668E+00
        -11   -1    0    0    0    0  0.00000000000E+00  0.00000000000E+00  0.45593999997E+02  0.45594000000E+02  0.51100000000E-03 0.  1.
         11   -1    0    0    0    0 -0.00000000000E+00 -0.00000000000E+00 -0.45593999997E+02  0.45594000000E+02  0.51100000000E-03 0. -1.
    9900012    2    1    2    0    0 -0.35410203476E+02  0.75750198931E+01 -0.23924043010E+02  0.47787271083E+02  0.20000000176E+02 0.  0.
        -12    1    1    2    0    0  0.35410203476E+02 -0.75750198931E+01  0.23924043010E+02  0.43400728917E+02  0.00000000000E+00 0.  1.
         11    1    3    3    0    0 -0.23356142360E+02  0.93706528613E+01 -0.15257081396E+02  0.29429526907E+02  0.51100000000E-03 0. -1.
        -11    1    3    3    0    0 -0.24713872641E+01  0.73320854111E+00 -0.80220265223E+01  0.84260464964E+01  0.51100000000E-03 0.  1.
         12    1    3    3    0    0 -0.95826738515E+01 -0.25288415092E+01 -0.64493509138E+00  0.99316976795E+01  0.00000000000E+00 0. -1.
</event>
<event>
 7    1  0.2783785E-010  0.4778727E+02  0.7816164E-02  0.1312668E+00
        -11   -1    0    0    0    0  0.00000000000E+00  0.00000000000E+00  0.45593999997E+02  0.45594000000E+02  0.51100000000E-03 0.  1.
         11   -1    0    0    0    0 -0.00000000000E+00 -0.00000000000E+00 -0.45593999997E+02  0.45594000000E+02  0.51100000000E-03 0. -1.
    9900012    2    1    2    0    0  0.14460665617E+02  0.23367837432E+02 -0.33592511257E+02  0.47787268567E+02  0.19999988704E+02 0.  0.
        -12    1    1    2    0    0 -0.14460665617E+02 -0.23367837432E+02  0.33592511257E+02  0.43400731433E+02  0.00000000000E+00 0.  1.
         11    1    3    3    0    0  0.78679299851E+01  0.15662578509E+01 -0.94428360741E+01  0.12390506014E+02  0.51100000000E-03 0. -1.
        -11    1    3    3    0    0  0.71954701050E+01  0.15335549776E+02 -0.96172824723E+01  0.19479373690E+02  0.51100000000E-03 0.  1.
        -12    1    3    3    0    0 -0.60273447259E+00  0.64660298057E+01 -0.14532392711E+02  0.15917388862E+02  0.00000000000E+00 0.  1.
</event>
<event>
 7    1  0.2783785E-010  0.4778727E+02  0.7816164E-02  0.1312668E+00
        -11   -1    0    0    0    0  0.00000000000E+00  0.00000000000E+00  0.45593999997E+02  0.45594000000E+02  0.51100000000E-03 0.  1.
         11   -1    0    0    0    0 -0.00000000000E+00 -0.00000000000E+00 -0.45593999997E+02  0.45594000000E+02  0.51100000000E-03 0. -1.
    9900012    2    1    2    0    0  0.22376046807E+02 -0.24624307323E+02 -0.27867169636E+02  0.47787272755E+02  0.20000007801E+02 0.  0.
        -12    1    1    2    0    0 -0.22376046807E+02  0.24624307323E+02  0.27867169636E+02  0.43400727245E+02  0.00000000000E+00 0.  1.
         11    1    3    3    0    0  0.19895759625E+01 -0.27280965319E+01 -0.85619312281E+01  0.92036726264E+01  0.51100000000E-03 0. -1.
        -11    1    3    3    0    0  0.16771071294E+02 -0.73793271969E+01 -0.89713753967E+01  0.20401197979E+02  0.51100000000E-03 0.  1.
        -12    1    3    3    0    0  0.36153995504E+01 -0.14516883594E+02 -0.10333863011E+02  0.18182402150E+02  0.00000000000E+00 0.  1.
</event>
<event>
 7    1  0.2783785E-010  0.4778727E+02  0.7816164E-02  0.1312668E+00
        -11   -1    0    0    0    0  0.00000000000E+00  0.00000000000E+00  0.45593999997E+02  0.45594000000E+02  0.51100000000E-03 0. -1.
         11   -1    0    0    0    0 -0.00000000000E+00 -0.00000000000E+00 -0.45593999997E+02  0.45594000000E+02  0.51100000000E-03 0.  1.
    9900012    2    1    2    0    0  0.39466603502E+02 -0.14445884089E+02  0.10831766201E+02  0.47787268231E+02  0.19999987171E+02 0.  0.
        -12    1    1    2    0    0 -0.39466603502E+02  0.14445884089E+02 -0.10831766201E+02  0.43400731769E+02  0.00000000000E+00 0.  1.
         11    1    3    3    0    0  0.15727966350E+02 -0.39129097222E+01  0.11887241108E+02  0.20099410176E+02  0.51100000000E-03 0. -1.
        -11    1    3    3    0    0  0.13549392005E+02 -0.80148190689E+00 -0.77703796981E+00  0.13595300115E+02  0.51100000000E-03 0.  1.
        -12    1    3    3    0    0  0.10189245147E+02 -0.97314924603E+01 -0.27843693698E+00  0.14092557940E+02  0.00000000000E+00 0.  1.
</event>
<event>
 7    1  0.2783785E-010  0.4778727E+02  0.7816164E-02  0.1312668E+00
        -11   -1    0    0    0    0  0.00000000000E+00  0.00000000000E+00  0.45593999997E+02  0.45594000000E+02  0.51100000000E-03 0.  1.
         11   -1    0    0    0    0 -0.00000000000E+00 -0.00000000000E+00 -0.45593999997E+02  0.45594000000E+02  0.51100000000E-03 0. -1.
    9900012    2    1    2    0    0  0.13359364486E+02  0.66637393115E+01 -0.40752241934E+02  0.47787271162E+02  0.20000000535E+02 0.  0.
        -12    1    1    2    0    0 -0.13359364486E+02 -0.66637393115E+01  0.40752241934E+02  0.43400728838E+02  0.00000000000E+00 0.  1.
         11    1    3    3    0    0 -0.16953373324E+01  0.15507634951E+01 -0.17603559754E+02  0.17752868849E+02  0.51100000000E-03 0. -1.
        -11    1    3    3    0    0  0.40736023057E+01  0.64218067066E+01 -0.62739444898E+01  0.98588141703E+01  0.51100000000E-03 0.  1.
        -12    1    3    3    0    0  0.10981099513E+02 -0.13088308903E+01 -0.16874737690E+02  0.20175588143E+02  0.00000000000E+00 0.  1.
</event>
<event>
 7    1  0.2783785E-010  0.4778727E+02  0.7816164E-02  0.1312668E+00
        -11   -1    0    0    0    0  0.00000000000E+00  0.00000000000E+00  0.45593999997E+02  0.45594000000E+02  0.51100000000E-03 0. -1.
         11   -1    0    0    0    0 -0.00000000000E+00 -0.00000000000E+00 -0.45593999997E+02  0.45594000000E+02  0.51100000000E-03 0.  1.
    9900012    2    1    2    0    0  0.37882480641E+02 -0.14086895645E+02  0.15814557950E+02  0.47787271763E+02  0.20000003275E+02 0.  0.
        -12    1    1    2    0    0 -0.37882480641E+02  0.14086895645E+02 -0.15814557950E+02  0.43400728237E+02  0.00000000000E+00 0.  1.
         11    1    3    3    0    0  0.48131661914E+01  0.13569875198E+01  0.15084402213E+01  0.52233491246E+01  0.51100000000E-03 0. -1.
        -11    1    3    3    0    0  0.77100827472E+01 -0.24386475653E+01 -0.36576531072E+01  0.88752917941E+01  0.51100000000E-03 0.  1.
         12    1    3    3    0    0  0.25359231702E+02 -0.13005235599E+02  0.17963770836E+02  0.33688630844E+02  0.00000000000E+00 0. -1.
</event>
<event>
 7    1  0.2783785E-010  0.4778727E+02  0.7816164E-02  0.1312668E+00
        -11   -1    0    0    0    0  0.00000000000E+00  0.00000000000E+00  0.45593999997E+02  0.45594000000E+02  0.51100000000E-03 0.  1.
         11   -1    0    0    0    0 -0.00000000000E+00 -0.00000000000E+00 -0.45593999997E+02  0.45594000000E+02  0.51100000000E-03 0. -1.
    9900012    2    1    2    0    0 -0.37765023640E+02 -0.21090119210E+02 -0.35543126191E+01  0.47787271009E+02  0.19999999837E+02 0.  0.
        -12    1    1    2    0    0  0.37765023640E+02  0.21090119210E+02  0.35543126191E+01  0.43400728991E+02  0.00000000000E+00 0.  1.
         11    1    3    3    0    0 -0.30001637300E+02 -0.79398131850E+01 -0.13922278225E+01  0.31065691247E+02  0.51100000000E-03 0. -1.
        -11    1    3    3    0    0  0.99189501070E+00 -0.31983460759E+00 -0.27605978423E-01  0.10425508331E+01  0.51100000000E-03 0.  1.
         12    1    3    3    0    0 -0.87552813505E+01 -0.12830471417E+02 -0.21344788182E+01  0.15679028929E+02  0.00000000000E+00 0. -1.
</event>
<event>
 7    1  0.2783785E-010  0.4778727E+02  0.7816164E-02  0.1312668E+00
        -11   -1    0    0    0    0  0.00000000000E+00  0.00000000000E+00  0.45593999997E+02  0.45594000000E+02  0.51100000000E-03 0.  1.
         11   -1    0    0    0    0 -0.00000000000E+00 -0.00000000000E+00 -0.45593999997E+02  0.45594000000E+02  0.51100000000E-03 0. -1.
    9900012    2    1    2    0    0  0.15660764000E+02 -0.33664870231E+02 -0.22473109002E+02  0.47787266770E+02  0.19999980511E+02 0.  0.
        -12    1    1    2    0    0 -0.15660764000E+02  0.33664870231E+02  0.22473109002E+02  0.43400733230E+02  0.00000000000E+00 0.  1.
         11    1    3    3    0    0  0.81162480748E+01 -0.84687541078E+01 -0.33646589845E+01  0.12203040985E+02  0.51100000000E-03 0. -1.
        -11    1    3    3    0    0  0.54173651232E+01 -0.10059680569E+02 -0.40960732468E+00  0.11432969712E+02  0.51100000000E-03 0.  1.
         12    1    3    3    0    0  0.21271508015E+01 -0.15136435554E+02 -0.18698842692E+02  0.24151256072E+02  0.00000000000E+00 0. -1.
</event>
<event>
 7    1  0.2783785E-010  0.4778726E+02  0.7816164E-02  0.1312668E+00
        -11   -1    0    0    0    0  0.00000000000E+00  0.00000000000E+00  0.45593999997E+02  0.45594000000E+02  0.51100000000E-03 0.  1.
         11   -1    0    0    0    0 -0.00000000000E+00 -0.00000000000E+00 -0.45593999997E+02  0.45594000000E+02  0.51100000000E-03 0. -1.
    9900012    2    1    2    0    0 -0.30953210095E+02  0.15054465035E+02 -0.26436448570E+02  0.47787263305E+02  0.19999964713E+02 0.  0.
        -12    1    1    2    0    0  0.30953210095E+02 -0.15054465035E+02  0.26436448570E+02  0.43400736695E+02  0.00000000000E+00 0.  1.
         11    1    3    3    0    0 -0.50224219973E+01 -0.21481942264E-01 -0.66948517737E+01  0.83693622652E+01  0.51100000000E-03 0. -1.
        -11    1    3    3    0    0 -0.99239868475E+01  0.14721501846E+02 -0.75450341373E+01  0.19290818333E+02  0.51100000000E-03 0.  1.
         12    1    3    3    0    0 -0.16006801250E+02  0.35444513143E+00 -0.12196562659E+02  0.20127082707E+02  0.00000000000E+00 0. -1.
</event>
<event>
 7    1  0.2783785E-010  0.4778727E+02  0.7816164E-02  0.1312668E+00
        -11   -1    0    0    0    0  0.00000000000E+00  0.00000000000E+00  0.45593999997E+02  0.45594000000E+02  0.51100000000E-03 0.  1.
         11   -1    0    0    0    0 -0.00000000000E+00 -0.00000000000E+00 -0.45593999997E+02  0.45594000000E+02  0.51100000000E-03 0. -1.
    9900012    2    1    2    0    0  0.21393089502E+02 -0.10427635176E+02 -0.36293575615E+02  0.47787268616E+02  0.19999988926E+02 0.  0.
        -12    1    1    2    0    0 -0.21393089502E+02  0.10427635176E+02  0.36293575615E+02  0.43400731384E+02  0.00000000000E+00 0.  1.
         11    1    3    3    0    0 -0.17491422890E+00  0.17081769920E+01  0.18704009686E-01  0.17172110309E+01  0.51100000000E-03 0.  1.
        -11    1    3    3    0    0  0.22077862204E+02 -0.10007842510E+02 -0.36562030409E+02  0.43867652993E+02  0.51100000000E-03 0. -1.
         12    1    3    3    0    0 -0.50985847342E+00 -0.21279696584E+01  0.24975078511E+00  0.22024045915E+01  0.00000000000E+00 0. -1.
</event>
<event>
 7    1  0.2783785E-010  0.4778727E+02  0.7816164E-02  0.1312668E+00
        -11   -1    0    0    0    0  0.00000000000E+00  0.00000000000E+00  0.45593999997E+02  0.45594000000E+02  0.51100000000E-03 0.  1.
         11   -1    0    0    0    0 -0.00000000000E+00 -0.00000000000E+00 -0.45593999997E+02  0.45594000000E+02  0.51100000000E-03 0. -1.
    9900012    2    1    2    0    0  0.22127948289E+02  0.31612270817E+02 -0.19865594814E+02  0.47787267068E+02  0.19999981870E+02 0.  0.
        -12    1    1    2    0    0 -0.22127948289E+02 -0.31612270817E+02  0.19865594814E+02  0.43400732932E+02  0.00000000000E+00 0.  1.
         11    1    3    3    0    0  0.11535005295E+02  0.69729454075E+01 -0.88955792963E+01  0.16149602041E+02  0.51100000000E-03 0.  1.
        -11    1    3    3    0    0  0.25281929241E+00  0.11140854432E+02 -0.93687384167E+01  0.14558702375E+02  0.51100000000E-03 0. -1.
         12    1    3    3    0    0  0.10340123701E+02  0.13498470978E+02 -0.16012771012E+01  0.17078962652E+02  0.00000000000E+00 0. -1.
</event>
<event>
 7    1  0.2783785E-010  0.4778727E+02  0.7816164E-02  0.1312668E+00
        -11   -1    0    0    0    0  0.00000000000E+00  0.00000000000E+00  0.45593999997E+02  0.45594000000E+02  0.51100000000E-03 0.  1.
         11   -1    0    0    0    0 -0.00000000000E+00 -0.00000000000E+00 -0.45593999997E+02  0.45594000000E+02  0.51100000000E-03 0. -1.
    9900012    2    1    2    0    0 -0.75340736328E+01  0.30492533938E+02 -0.29951066403E+02  0.47787271087E+02  0.20000000194E+02 0.  0.
        -12    1    1    2    0    0  0.75340736328E+01 -0.30492533938E+02  0.29951066403E+02  0.43400728913E+02  0.00000000000E+00 0.  1.
         11    1    3    3    0    0  0.39431790408E+01  0.23229637018E+01 -0.66734823742E+01  0.80919829812E+01  0.51100000000E-03 0. -1.
        -11    1    3    3    0    0 -0.47791870374E+01  0.83126410094E+01 -0.19302912482E+01  0.97809331791E+01  0.51100000000E-03 0.  1.
         12    1    3    3    0    0 -0.66980656362E+01  0.19856929227E+02 -0.21347292781E+02  0.29914354927E+02  0.00000000000E+00 0. -1.
</event>
<event>
 7    1  0.2783785E-010  0.4778728E+02  0.7816164E-02  0.1312668E+00
        -11   -1    0    0    0    0  0.00000000000E+00  0.00000000000E+00  0.45593999997E+02  0.45594000000E+02  0.51100000000E-03 0.  1.
         11   -1    0    0    0    0 -0.00000000000E+00 -0.00000000000E+00 -0.45593999997E+02  0.45594000000E+02  0.51100000000E-03 0. -1.
    9900012    2    1    2    0    0  0.68856350045E+00  0.49664725702E+01 -0.43110118958E+02  0.47787281964E+02  0.20000049785E+02 0.  0.
        -12    1    1    2    0    0 -0.68856350045E+00 -0.49664725702E+01  0.43110118958E+02  0.43400718036E+02  0.00000000000E+00 0.  1.
         11    1    3    3    0    0 -0.61866503342E+01 -0.12926429987E+01 -0.32589725844E+02  0.33196924544E+02  0.51100000000E-03 0.  1.
        -11    1    3    3    0    0  0.21291199666E+01  0.45254322491E+01 -0.59954971268E+01  0.78076036613E+01  0.51100000000E-03 0. -1.
        -12    1    3    3    0    0  0.47460938681E+01  0.17336833198E+01 -0.45248959869E+01  0.67827537586E+01  0.00000000000E+00 0.  1.
</event>
<event>
 7    1  0.2783785E-010  0.4778727E+02  0.7816164E-02  0.1312668E+00
        -11   -1    0    0    0    0  0.00000000000E+00  0.00000000000E+00  0.45593999997E+02  0.45594000000E+02  0.51100000000E-03 0.  1.
         11   -1    0    0    0    0 -0.00000000000E+00 -0.00000000000E+00 -0.45593999997E+02  0.45594000000E+02  0.51100000000E-03 0. -1.
    9900012    2    1    2    0    0  0.11631410138E+02  0.36107396010E+02 -0.21085292928E+02  0.47787270441E+02  0.19999997249E+02 0.  0.
        -12    1    1    2    0    0 -0.11631410138E+02 -0.36107396010E+02  0.21085292928E+02  0.43400729559E+02  0.00000000000E+00 0.  1.
         11    1    3    3    0    0  0.74704490434E+00  0.21517048479E+02 -0.12920505532E+02  0.25109379020E+02  0.51100000000E-03 0. -1.
        -11    1    3    3    0    0 -0.84280134571E+00  0.57857291882E+00  0.16469293153E+01  0.19384109888E+01  0.51100000000E-03 0.  1.
         12    1    3    3    0    0  0.11727166580E+02  0.14011774612E+02 -0.98117167111E+01  0.20739480432E+02  0.00000000000E+00 0. -1.
</event>
<event>
 7    1  0.2783785E-010  0.4778727E+02  0.7816164E-02  0.1312668E+00
        -11   -1    0    0    0    0  0.00000000000E+00  0.00000000000E+00  0.45593999997E+02  0.45594000000E+02  0.51100000000E-03 0.  1.
         11   -1    0    0    0    0 -0.00000000000E+00 -0.00000000000E+00 -0.45593999997E+02  0.45594000000E+02  0.51100000000E-03 0. -1.
    9900012    2    1    2    0    0  0.12638545497E+02 -0.36010306332E+02 -0.20667568511E+02  0.47787269792E+02  0.19999994290E+02 0.  0.
        -12    1    1    2    0    0 -0.12638545497E+02  0.36010306332E+02  0.20667568511E+02  0.43400730208E+02  0.00000000000E+00 0.  1.
         11    1    3    3    0    0  0.91968157933E+01 -0.22985536018E+02 -0.12561196007E+02  0.27761482888E+02  0.51100000000E-03 0. -1.
        -11    1    3    3    0    0 -0.27068093264E+01 -0.82007685869E+01 -0.86096878308E+01  0.12194512985E+02  0.51100000000E-03 0.  1.
         12    1    3    3    0    0  0.61485390302E+01 -0.48240017276E+01  0.50331532614E+00  0.78312739188E+01  0.00000000000E+00 0. -1.
</event>
<event>
 7    1  0.2783785E-010  0.4778727E+02  0.7816164E-02  0.1312668E+00
        -11   -1    0    0    0    0  0.00000000000E+00  0.00000000000E+00  0.45593999997E+02  0.45594000000E+02  0.51100000000E-03 0.  1.
         11   -1    0    0    0    0 -0.00000000000E+00 -0.00000000000E+00 -0.45593999997E+02  0.45594000000E+02  0.51100000000E-03 0. -1.
    9900012    2    1    2    0    0  0.27588576602E+02  0.11669185157E+02 -0.31405791485E+02  0.47787272126E+02  0.20000004933E+02 0.  0.
        -12    1    1    2    0    0 -0.27588576602E+02 -0.11669185157E+02  0.31405791485E+02  0.43400727874E+02  0.00000000000E+00 0.  1.
         11    1    3    3    0    0  0.84760155819E+01  0.19081263878E+01 -0.12031348959E+02  0.14840388960E+02  0.51100000000E-03 0. -1.
        -11    1    3    3    0    0  0.17672072732E+02  0.92028335195E+01 -0.22136054116E+02  0.29782531651E+02  0.51100000000E-03 0.  1.
        -12    1    3    3    0    0  0.14404882879E+01  0.55822525017E+00  0.27616115901E+01  0.31643515152E+01  0.00000000000E+00 0.  1.
</event>
<event>
 7    1  0.2783785E-010  0.4778727E+02  0.7816164E-02  0.1312668E+00
        -11   -1    0    0    0    0  0.00000000000E+00  0.00000000000E+00  0.45593999997E+02  0.45594000000E+02  0.51100000000E-03 0.  1.
         11   -1    0    0    0    0 -0.00000000000E+00 -0.00000000000E+00 -0.45593999997E+02  0.45594000000E+02  0.51100000000E-03 0. -1.
    9900012    2    1    2    0    0 -0.16322677023E+02 -0.69866320180E+01 -0.39602785945E+02  0.47787268822E+02  0.19999989868E+02 0.  0.
        -12    1    1    2    0    0  0.16322677023E+02  0.69866320180E+01  0.39602785945E+02  0.43400731178E+02  0.00000000000E+00 0.  1.
         11    1    3    3    0    0 -0.68408123001E+00  0.16373240136E+01 -0.98001083915E+00  0.20271207563E+01  0.51100000000E-03 0. -1.
        -11    1    3    3    0    0 -0.12838657694E+02 -0.95092229979E+01 -0.39570763356E+02  0.42674368961E+02  0.51100000000E-03 0.  1.
        -12    1    3    3    0    0 -0.27999380991E+01  0.88526696627E+00  0.94798825028E+00  0.30857791047E+01  0.00000000000E+00 0.  1.
</event>
<event>
 7    1  0.2783785E-010  0.4778728E+02  0.7816164E-02  0.1312668E+00
        -11   -1    0    0    0    0  0.00000000000E+00  0.00000000000E+00  0.45593999997E+02  0.45594000000E+02  0.51100000000E-03 0.  1.
         11   -1    0    0    0    0 -0.00000000000E+00 -0.00000000000E+00 -0.45593999997E+02  0.45594000000E+02  0.51100000000E-03 0. -1.
    9900012    2    1    2    0    0  0.21592344731E+02  0.65334245386E+01 -0.37077053470E+02  0.47787275568E+02  0.20000020623E+02 0.  0.
        -12    1    1    2    0    0 -0.21592344731E+02 -0.65334245386E+01  0.37077053470E+02  0.43400724432E+02  0.00000000000E+00 0.  1.
         11    1    3    3    0    0  0.19961450558E+01  0.46913505028E+01 -0.96539856787E+01  0.10917545712E+02  0.51100000000E-03 0. -1.
        -11    1    3    3    0    0  0.21430176458E+02  0.34758615150E+01 -0.21960509359E+02  0.30880382897E+02  0.51100000000E-03 0.  1.
        -12    1    3    3    0    0 -0.18339767823E+01 -0.16337874792E+01 -0.54625584329E+01  0.59893469592E+01  0.00000000000E+00 0.  1.
</event>
<event>
 7    1  0.2783785E-010  0.4778725E+02  0.7816164E-02  0.1312668E+00
        -11   -1    0    0    0    0  0.00000000000E+00  0.00000000000E+00  0.45593999997E+02  0.45594000000E+02  0.51100000000E-03 0. -1.
         11   -1    0    0    0    0 -0.00000000000E+00 -0.00000000000E+00 -0.45593999997E+02  0.45594000000E+02  0.51100000000E-03 0.  1.
    9900012    2    1    2    0    0  0.10510233239E+02  0.37235668624E+02  0.19663793226E+02  0.47787253640E+02  0.19999920645E+02 0.  0.
        -12    1    1    2    0    0 -0.10510233239E+02 -0.37235668624E+02 -0.19663793226E+02  0.43400746360E+02  0.00000000000E+00 0.  1.
         11    1    3    3    0    0 -0.24869643896E+01  0.10486565547E+02  0.92630757263E+01  0.14211179438E+02  0.51100000000E-03 0. -1.
        -11    1    3    3    0    0  0.18844715880E+01  0.10024381140E+02 -0.13837480931E+01  0.10293406115E+02  0.51100000000E-03 0.  1.
         12    1    3    3    0    0  0.11112726040E+02  0.16724721937E+02  0.11784465593E+02  0.23282668086E+02  0.00000000000E+00 0. -1.
</event>
<event>
 7    1  0.2783785E-010  0.4778727E+02  0.7816164E-02  0.1312668E+00
        -11   -1    0    0    0    0  0.00000000000E+00  0.00000000000E+00  0.45593999997E+02  0.45594000000E+02  0.51100000000E-03 0.  1.
         11   -1    0    0    0    0 -0.00000000000E+00 -0.00000000000E+00 -0.45593999997E+02  0.45594000000E+02  0.51100000000E-03 0. -1.
    9900012    2    1    2    0    0  0.37899046098E+02 -0.45622955741E+01 -0.20651169191E+02  0.47787273912E+02  0.20000013072E+02 0.  0.
        -12    1    1    2    0    0 -0.37899046098E+02  0.45622955741E+01  0.20651169191E+02  0.43400726088E+02  0.00000000000E+00 0.  1.
         11    1    3    3    0    0  0.27575158018E+02 -0.82735564004E+01 -0.78563310459E+01  0.29842302407E+02  0.51100000000E-03 0. -1.
        -11    1    3    3    0    0 -0.83019760976E+00  0.16000061541E+00 -0.12072604146E+01  0.14738745665E+01  0.51100000000E-03 0.  1.
         12    1    3    3    0    0  0.11154085690E+02  0.35512602108E+01 -0.11587577730E+02  0.16471096938E+02  0.00000000000E+00 0. -1.
</event>
<event>
 7    1  0.2783785E-010  0.4778727E+02  0.7816164E-02  0.1312668E+00
        -11   -1    0    0    0    0  0.00000000000E+00  0.00000000000E+00  0.45593999997E+02  0.45594000000E+02  0.51100000000E-03 0.  1.
         11   -1    0    0    0    0 -0.00000000000E+00 -0.00000000000E+00 -0.45593999997E+02  0.45594000000E+02  0.51100000000E-03 0. -1.
    9900012    2    1    2    0    0  0.27999292720E+02 -0.16384908465E+02 -0.28830498884E+02  0.47787270927E+02  0.19999999463E+02 0.  0.
        -12    1    1    2    0    0 -0.27999292720E+02  0.16384908465E+02  0.28830498884E+02  0.43400729073E+02  0.00000000000E+00 0.  1.
         11    1    3    3    0    0  0.27574132435E+02 -0.77678305656E+01 -0.19646189928E+02  0.34736792457E+02  0.51100000000E-03 0. -1.
        -11    1    3    3    0    0  0.85758944077E+00 -0.34781711655E+01 -0.17096039759E+01  0.39693677483E+01  0.51100000000E-03 0.  1.
         12    1    3    3    0    0 -0.43242915639E+00 -0.51389067338E+01 -0.74747049798E+01  0.90811107212E+01  0.00000000000E+00 0. -1.
</event>
<event>
 7    1  0.2783785E-010  0.4778727E+02  0.7816164E-02  0.1312668E+00
        -11   -1    0    0    0    0  0.00000000000E+00  0.00000000000E+00  0.45593999997E+02  0.45594000000E+02  0.51100000000E-03 0.  1.
         11   -1    0    0    0    0 -0.00000000000E+00 -0.00000000000E+00 -0.45593999997E+02  0.45594000000E+02  0.51100000000E-03 0. -1.
    9900012    2    1    2    0    0 -0.15329755108E+02  0.11293665931E+02 -0.39000961515E+02  0.47787270963E+02  0.19999999629E+02 0.  0.
        -12    1    1    2    0    0  0.15329755108E+02 -0.11293665931E+02  0.39000961515E+02  0.43400729037E+02  0.00000000000E+00 0.  1.
         11    1    3    3    0    0 -0.56549038399E+01  0.21542365084E+01 -0.15579272604E+02  0.16713240485E+02  0.51100000000E-03 0. -1.
        -11    1    3    3    0    0 -0.70432436183E+01  0.62548128507E+01 -0.24378697945E+01  0.97300140730E+01  0.51100000000E-03 0.  1.
        -12    1    3    3    0    0 -0.26316076493E+01  0.28846165722E+01 -0.20983819117E+02  0.21344016406E+02  0.00000000000E+00 0.  1.
</event>
<event>
 7    1  0.2783785E-010  0.4778727E+02  0.7816164E-02  0.1312668E+00
        -11   -1    0    0    0    0  0.00000000000E+00  0.00000000000E+00  0.45593999997E+02  0.45594000000E+02  0.51100000000E-03 0.  1.
         11   -1    0    0    0    0 -0.00000000000E+00 -0.00000000000E+00 -0.45593999997E+02  0.45594000000E+02  0.51100000000E-03 0. -1.
    9900012    2    1    2    0    0  0.21109803323E+02  0.18914626171E+02 -0.32866946117E+02  0.47787273893E+02  0.20000012990E+02 0.  0.
        -12    1    1    2    0    0 -0.21109803323E+02 -0.18914626171E+02  0.32866946117E+02  0.43400726107E+02  0.00000000000E+00 0.  1.
         11    1    3    3    0    0  0.54743605107E+01  0.43700146081E+01 -0.16251717624E+02  0.17697004737E+02  0.51100000000E-03 0. -1.
        -11    1    3    3    0    0  0.88118090751E+01  0.69334404742E+01 -0.16399137463E+02  0.19865857288E+02  0.51100000000E-03 0.  1.
        -12    1    3    3    0    0  0.68236337373E+01  0.76111710886E+01 -0.21609102985E+00  0.10224411868E+02  0.00000000000E+00 0.  1.
</event>
<event>
 7    1  0.2783785E-010  0.4778727E+02  0.7816164E-02  0.1312668E+00
        -11   -1    0    0    0    0  0.00000000000E+00  0.00000000000E+00  0.45593999997E+02  0.45594000000E+02  0.51100000000E-03 0. -1.
         11   -1    0    0    0    0 -0.00000000000E+00 -0.00000000000E+00 -0.45593999997E+02  0.45594000000E+02  0.51100000000E-03 0.  1.
    9900012    2    1    2    0    0 -0.53679230167E+01  0.41416807314E+02  0.11809186039E+02  0.47787269586E+02  0.19999993349E+02 0.  0.
        -12    1    1    2    0    0  0.53679230167E+01 -0.41416807314E+02 -0.11809186039E+02  0.43400730414E+02  0.00000000000E+00 0.  1.
         11    1    3    3    0    0 -0.42705547992E+01  0.25171701347E+02  0.69134879764E+01  0.26450869613E+02  0.51100000000E-03 0. -1.
        -11    1    3    3    0    0  0.39781939601E+01  0.97165578732E+01 -0.18542630020E+01  0.10661886120E+02  0.51100000000E-03 0.  1.
        -12    1    3    3    0    0 -0.50755621776E+01  0.65285480933E+01  0.67499610647E+01  0.10674513853E+02  0.00000000000E+00 0.  1.
</event>
<event>
 7    1  0.2783785E-010  0.4778727E+02  0.7816164E-02  0.1312668E+00
        -11   -1    0    0    0    0  0.00000000000E+00  0.00000000000E+00  0.45593999997E+02  0.45594000000E+02  0.51100000000E-03 0.  1.
         11   -1    0    0    0    0 -0.00000000000E+00 -0.00000000000E+00 -0.45593999997E+02  0.45594000000E+02  0.51100000000E-03 0. -1.
    9900012    2    1    2    0    0 -0.30455607308E+02  0.15868981766E+02 -0.26537799686E+02  0.47787269465E+02  0.19999992797E+02 0.  0.
        -12    1    1    2    0    0  0.30455607308E+02 -0.15868981766E+02  0.26537799686E+02  0.43400730535E+02  0.00000000000E+00 0.  1.
         11    1    3    3    0    0 -0.56377818836E+00 -0.23675691211E+01 -0.17652368323E+01  0.30065413225E+01  0.51100000000E-03 0. -1.
        -11    1    3    3    0    0 -0.21860140856E+02  0.10259257241E+02 -0.99199548275E+01  0.26106007382E+02  0.51100000000E-03 0.  1.
         12    1    3    3    0    0 -0.80316882644E+01  0.79772936464E+01 -0.14852608026E+02  0.18674720761E+02  0.00000000000E+00 0. -1.
</event>
<event>
 7    1  0.2783785E-010  0.4778728E+02  0.7816164E-02  0.1312668E+00
        -11   -1    0    0    0    0  0.00000000000E+00  0.00000000000E+00  0.45593999997E+02  0.45594000000E+02  0.51100000000E-03 0. -1.
         11   -1    0    0    0    0 -0.00000000000E+00 -0.00000000000E+00 -0.45593999997E+02  0.45594000000E+02  0.51100000000E-03 0.  1.
    9900012    2    1    2    0    0 -0.61144762166E+01 -0.27487812493E+02  0.33025085173E+02  0.47787275285E+02  0.20000019335E+02 0.  0.
        -12    1    1    2    0    0  0.61144762166E+01  0.27487812493E+02 -0.33025085173E+02  0.43400724715E+02  0.00000000000E+00 0.  1.
         11    1    3    3    0    0 -0.30519265121E+00  0.27919570842E+01  0.59835977123E+01  0.66099628409E+01  0.51100000000E-03 0.  1.
        -11    1    3    3    0    0 -0.15850910198E+01 -0.94171758290E+01  0.61916947483E+01  0.11381247658E+02  0.51100000000E-03 0. -1.
        -12    1    3    3    0    0 -0.42241925456E+01 -0.20862593748E+02  0.20849792713E+02  0.29796064786E+02  0.00000000000E+00 0.  1.
</event>
<event>
 7    1  0.2783785E-010  0.4778731E+02  0.7816164E-02  0.1312668E+00
        -11   -1    0    0    0    0  0.00000000000E+00  0.00000000000E+00  0.45593999997E+02  0.45594000000E+02  0.51100000000E-03 0.  1.
         11   -1    0    0    0    0 -0.00000000000E+00 -0.00000000000E+00 -0.45593999997E+02  0.45594000000E+02  0.51100000000E-03 0. -1.
    9900012    2    1    2    0    0  0.38389771966E+02  0.15514290281E+02  0.13005843494E+02  0.47787311531E+02  0.20000184595E+02 0.  0.
        -12    1    1    2    0    0 -0.38389771966E+02 -0.15514290281E+02 -0.13005843494E+02  0.43400688469E+02  0.00000000000E+00 0.  1.
         11    1    3    3    0    0  0.32457602849E+02  0.99450975105E+01  0.34822964970E+01  0.34125171594E+02  0.51100000000E-03 0. -1.
        -11    1    3    3    0    0  0.51778754585E+00 -0.10206559128E+01  0.19242351344E+01  0.22388665767E+01  0.51100000000E-03 0.  1.
         12    1    3    3    0    0  0.54143815718E+01  0.65898486834E+01  0.75993118631E+01  0.11423273360E+02  0.00000000000E+00 0. -1.
</event>
<event>
 7    1  0.2783785E-010  0.4778723E+02  0.7816164E-02  0.1312668E+00
        -11   -1    0    0    0    0  0.00000000000E+00  0.00000000000E+00  0.45593999997E+02  0.45594000000E+02  0.51100000000E-03 0.  1.
         11   -1    0    0    0    0 -0.00000000000E+00 -0.00000000000E+00 -0.45593999997E+02  0.45594000000E+02  0.51100000000E-03 0. -1.
    9900012    2    1    2    0    0 -0.34349702311E+02 -0.26452831947E+02 -0.19930648328E+01  0.47787231869E+02  0.19999821385E+02 0.  0.
        -12    1    1    2    0    0  0.34349702311E+02  0.26452831947E+02  0.19930648328E+01  0.43400768131E+02  0.00000000000E+00 0.  1.
         11    1    3    3    0    0 -0.35190103105E+01 -0.78766314493E+01  0.43670914235E+00  0.86380247563E+01  0.51100000000E-03 0. -1.
        -11    1    3    3    0    0 -0.29573340654E+02 -0.18660132672E+02 -0.58952138192E+01  0.35461762153E+02  0.51100000000E-03 0.  1.
        -12    1    3    3    0    0 -0.12573513466E+01  0.83932174438E-01  0.34654398441E+01  0.36874449598E+01  0.00000000000E+00 0.  1.
</event>
<event>
 7    1  0.2783785E-010  0.4778728E+02  0.7816164E-02  0.1312668E+00
        -11   -1    0    0    0    0  0.00000000000E+00  0.00000000000E+00  0.45593999997E+02  0.45594000000E+02  0.51100000000E-03 0.  1.
         11   -1    0    0    0    0 -0.00000000000E+00 -0.00000000000E+00 -0.45593999997E+02  0.45594000000E+02  0.51100000000E-03 0. -1.
    9900012    2    1    2    0    0  0.35035180797E+02  0.87380562842E+01 -0.24079136754E+02  0.47787281712E+02  0.20000048638E+02 0.  0.
        -12    1    1    2    0    0 -0.35035180797E+02 -0.87380562842E+01  0.24079136754E+02  0.43400718288E+02  0.00000000000E+00 0.  1.
         11    1    3    3    0    0  0.16754337505E+02  0.27846273844E+01 -0.66308101906E+01  0.18232652548E+02  0.51100000000E-03 0. -1.
        -11    1    3    3    0    0 -0.13811659029E+01 -0.14155392459E+01  0.37448669758E+00  0.20128614348E+01  0.51100000000E-03 0.  1.
         12    1    3    3    0    0  0.19662009195E+02  0.73689681457E+01 -0.17822813261E+02  0.27541767729E+02  0.00000000000E+00 0. -1.
</event>
<event>
 7    1  0.2783785E-010  0.4778727E+02  0.7816164E-02  0.1312668E+00
        -11   -1    0    0    0    0  0.00000000000E+00  0.00000000000E+00  0.45593999997E+02  0.45594000000E+02  0.51100000000E-03 0.  1.
         11   -1    0    0    0    0 -0.00000000000E+00 -0.00000000000E+00 -0.45593999997E+02  0.45594000000E+02  0.51100000000E-03 0. -1.
    9900012    2    1    2    0    0 -0.15783089744E+02  0.33120875686E+01 -0.40293268183E+02  0.47787270665E+02  0.19999998269E+02 0.  0.
        -12    1    1    2    0    0  0.15783089744E+02 -0.33120875686E+01  0.40293268183E+02  0.43400729335E+02  0.00000000000E+00 0.  1.
         11    1    3    3    0    0 -0.43612551459E+01  0.73392935863E+01 -0.92515856997E+01  0.12588789259E+02  0.51100000000E-03 0.  1.
        -11    1    3    3    0    0 -0.88414025426E+01  0.10845420925E+01 -0.26288379576E+02  0.27756540337E+02  0.51100000000E-03 0. -1.
         12    1    3    3    0    0 -0.25804320559E+01 -0.51117481101E+01 -0.47533029072E+01  0.74419410683E+01  0.00000000000E+00 0. -1.
</event>
<event>
 7    1  0.2783785E-010  0.4778728E+02  0.7816164E-02  0.1312668E+00
        -11   -1    0    0    0    0  0.00000000000E+00  0.00000000000E+00  0.45593999997E+02  0.45594000000E+02  0.51100000000E-03 0.  1.
         11   -1    0    0    0    0 -0.00000000000E+00 -0.00000000000E+00 -0.45593999997E+02  0.45594000000E+02  0.51100000000E-03 0. -1.
    9900012    2    1    2    0    0 -0.14103589047E+02 -0.10182013128E+02 -0.39762270923E+02  0.47787276454E+02  0.20000024664E+02 0.  0.
        -12    1    1    2    0    0  0.14103589047E+02  0.10182013128E+02  0.39762270923E+02  0.43400723546E+02  0.00000000000E+00 0.  1.
         11    1    3    3    0    0 -0.51231584164E+01  0.56037561540E+00 -0.46195499838E+01  0.69210559385E+01  0.51100000000E-03 0. -1.
        -11    1    3    3    0    0 -0.64136818003E+00 -0.39394994752E+01 -0.27198364358E+02  0.27489671392E+02  0.51100000000E-03 0.  1.
        -12    1    3    3    0    0 -0.83390624503E+01 -0.68028892678E+01 -0.79443565817E+01  0.13376549123E+02  0.00000000000E+00 0.  1.
</event>
<event>
 7    1  0.2783785E-010  0.4778727E+02  0.7816164E-02  0.1312668E+00
        -11   -1    0    0    0    0  0.00000000000E+00  0.00000000000E+00  0.45593999997E+02  0.45594000000E+02  0.51100000000E-03 0.  1.
         11   -1    0    0    0    0 -0.00000000000E+00 -0.00000000000E+00 -0.45593999997E+02  0.45594000000E+02  0.51100000000E-03 0. -1.
    9900012    2    1    2    0    0 -0.20252411982E+02 -0.22326737111E+02 -0.31224668354E+02  0.47787270802E+02  0.19999998894E+02 0.  0.
        -12    1    1    2    0    0  0.20252411982E+02  0.22326737111E+02  0.31224668354E+02  0.43400729198E+02  0.00000000000E+00 0.  1.
         11    1    3    3    0    0 -0.40186801313E+01 -0.15758144790E+02 -0.23013097022E+02  0.28179275222E+02  0.51100000000E-03 0. -1.
        -11    1    3    3    0    0 -0.36882945622E+01 -0.14778023503E+01 -0.44147394775E+00  0.39977888978E+01  0.51100000000E-03 0.  1.
        -12    1    3    3    0    0 -0.12545437289E+02 -0.50907899705E+01 -0.77700973838E+01  0.15610206682E+02  0.00000000000E+00 0.  1.
</event>
<event>
 7    1  0.2783785E-010  0.4778727E+02  0.7816164E-02  0.1312668E+00
        -11   -1    0    0    0    0  0.00000000000E+00  0.00000000000E+00  0.45593999997E+02  0.45594000000E+02  0.51100000000E-03 0.  1.
         11   -1    0    0    0    0 -0.00000000000E+00 -0.00000000000E+00 -0.45593999997E+02  0.45594000000E+02  0.51100000000E-03 0. -1.
    9900012    2    1    2    0    0  0.38551964540E+02 -0.39612526659E+01 -0.19536573741E+02  0.47787271825E+02  0.20000003560E+02 0.  0.
        -12    1    1    2    0    0 -0.38551964540E+02  0.39612526659E+01  0.19536573741E+02  0.43400728175E+02  0.00000000000E+00 0.  1.
         11    1    3    3    0    0  0.14987591643E+01  0.54906150475E+00 -0.46884944212E+01  0.49527495159E+01  0.51100000000E-03 0. -1.
        -11    1    3    3    0    0  0.19777811397E+02  0.49346399544E+00 -0.43881894289E+00  0.19788832525E+02  0.51100000000E-03 0.  1.
         12    1    3    3    0    0  0.17275393979E+02 -0.50037781660E+01 -0.14409260377E+02  0.23045689785E+02  0.00000000000E+00 0. -1.
</event>
<event>
 7    1  0.2783785E-010  0.4778729E+02  0.7816164E-02  0.1312668E+00
        -11   -1    0    0    0    0  0.00000000000E+00  0.00000000000E+00  0.45593999997E+02  0.45594000000E+02  0.51100000000E-03 0.  1.
         11   -1    0    0    0    0 -0.00000000000E+00 -0.00000000000E+00 -0.45593999997E+02  0.45594000000E+02  0.51100000000E-03 0. -1.
    9900012    2    1    2    0    0  0.35532883097E+01 -0.84119758623E+01 -0.42429174202E+02  0.47787285499E+02  0.20000065906E+02 0.  0.
        -12    1    1    2    0    0 -0.35532883097E+01  0.84119758623E+01  0.42429174202E+02  0.43400714501E+02  0.00000000000E+00 0.  1.
         11    1    3    3    0    0 -0.34679632049E+01 -0.50965983110E+01 -0.39156383374E+01  0.73030340944E+01  0.51100000000E-03 0.  1.
        -11    1    3    3    0    0 -0.12800052754E+01 -0.40615814928E+00 -0.19370259528E+02  0.19416753909E+02  0.51100000000E-03 0. -1.
        -12    1    3    3    0    0  0.83012567900E+01 -0.29092194020E+01 -0.19143276337E+02  0.21067497495E+02  0.00000000000E+00 0.  1.
</event>
<event>
 7    1  0.2783785E-010  0.4778727E+02  0.7816164E-02  0.1312668E+00
        -11   -1    0    0    0    0  0.00000000000E+00  0.00000000000E+00  0.45593999997E+02  0.45594000000E+02  0.51100000000E-03 0.  1.
         11   -1    0    0    0    0 -0.00000000000E+00 -0.00000000000E+00 -0.45593999997E+02  0.45594000000E+02  0.51100000000E-03 0. -1.
    9900012    2    1    2    0    0 -0.60180264294E+01 -0.29787650290E+02 -0.30985518316E+02  0.47787273079E+02  0.20000009278E+02 0.  0.
        -12    1    1    2    0    0  0.60180264294E+01  0.29787650290E+02  0.30985518316E+02  0.43400726921E+02  0.00000000000E+00 0.  1.
         11    1    3    3    0    0 -0.46427368350E+01 -0.40352266133E+01 -0.34215991484E+01  0.70388493472E+01  0.51100000000E-03 0. -1.
        -11    1    3    3    0    0 -0.24682341195E+01  0.13683428319E+01 -0.32920587195E+01  0.43361495186E+01  0.51100000000E-03 0.  1.
         12    1    3    3    0    0  0.10929445251E+01 -0.27120766509E+02 -0.24271860449E+02  0.36412274213E+02  0.00000000000E+00 0. -1.
</event>
<event>
 7    1  0.2783785E-010  0.4778727E+02  0.7816164E-02  0.1312668E+00
        -11   -1    0    0    0    0  0.00000000000E+00  0.00000000000E+00  0.45593999997E+02  0.45594000000E+02  0.51100000000E-03 0. -1.
         11   -1    0    0    0    0 -0.00000000000E+00 -0.00000000000E+00 -0.45593999997E+02  0.45594000000E+02  0.51100000000E-03 0.  1.
    9900012    2    1    2    0    0  0.28964714577E+02  0.30608572767E+02  0.10381907532E+02  0.47787269346E+02  0.19999992254E+02 0.  0.
        -12    1    1    2    0    0 -0.28964714577E+02 -0.30608572767E+02 -0.10381907532E+02  0.43400730654E+02  0.00000000000E+00 0.  1.
         11    1    3    3    0    0  0.34811058257E+01  0.85035448279E+00 -0.36644260388E+01  0.51253506193E+01  0.51100000000E-03 0.  1.
        -11    1    3    3    0    0  0.64225307852E+01  0.10017714223E+02  0.86089751550E+01  0.14687339903E+02  0.51100000000E-03 0. -1.
        -12    1    3    3    0    0  0.19061077966E+02  0.19740504061E+02  0.54373584161E+01  0.27974578823E+02  0.00000000000E+00 0.  1.
</event>
<event>
 7    1  0.2783785E-010  0.4778727E+02  0.7816164E-02  0.1312668E+00
        -11   -1    0    0    0    0  0.00000000000E+00  0.00000000000E+00  0.45593999997E+02  0.45594000000E+02  0.51100000000E-03 0.  1.
         11   -1    0    0    0    0 -0.00000000000E+00 -0.00000000000E+00 -0.45593999997E+02  0.45594000000E+02  0.51100000000E-03 0. -1.
    9900012    2    1    2    0    0  0.29169948330E+02 -0.19671864075E+02 -0.25411707979E+02  0.47787273921E+02  0.20000013116E+02 0.  0.
        -12    1    1    2    0    0 -0.29169948330E+02  0.19671864075E+02  0.25411707979E+02  0.43400726079E+02  0.00000000000E+00 0.  1.
         11    1    3    3    0    0  0.37568652767E+01 -0.73217759664E+01 -0.90361086493E+01  0.12221853370E+02  0.51100000000E-03 0. -1.
        -11    1    3    3    0    0  0.81106058782E+01  0.26862570875E+01 -0.31856896312E+01  0.91184715572E+01  0.51100000000E-03 0.  1.
         12    1    3    3    0    0  0.17302477175E+02 -0.15036345196E+02 -0.13189909699E+02  0.26446948994E+02  0.00000000000E+00 0. -1.
</event>
<event>
 7    1  0.2783785E-010  0.4778727E+02  0.7816164E-02  0.1312668E+00
        -11   -1    0    0    0    0  0.00000000000E+00  0.00000000000E+00  0.45593999997E+02  0.45594000000E+02  0.51100000000E-03 0.  1.
         11   -1    0    0    0    0 -0.00000000000E+00 -0.00000000000E+00 -0.45593999997E+02  0.45594000000E+02  0.51100000000E-03 0. -1.
    9900012    2    1    2    0    0  0.14707590980E+02 -0.54442723545E+01 -0.40468139277E+02  0.47787266936E+02  0.19999981268E+02 0.  0.
        -12    1    1    2    0    0 -0.14707590980E+02  0.54442723545E+01  0.40468139277E+02  0.43400733064E+02  0.00000000000E+00 0.  1.
         11    1    3    3    0    0  0.95531320176E+01  0.18266094763E+00 -0.21773216387E+02  0.23777481962E+02  0.51100000000E-03 0.  1.
        -11    1    3    3    0    0  0.18484687676E+01  0.95140055114E+00  0.14678386017E+01  0.25449067203E+01  0.51100000000E-03 0. -1.
         12    1    3    3    0    0  0.33059901951E+01 -0.65783338533E+01 -0.20162761492E+02  0.21464878254E+02  0.00000000000E+00 0. -1.
</event>
<event>
 7    1  0.2783785E-010  0.4778728E+02  0.7816164E-02  0.1312668E+00
        -11   -1    0    0    0    0  0.00000000000E+00  0.00000000000E+00  0.45593999997E+02  0.45594000000E+02  0.51100000000E-03 0. -1.
         11   -1    0    0    0    0 -0.00000000000E+00 -0.00000000000E+00 -0.45593999997E+02  0.45594000000E+02  0.51100000000E-03 0.  1.
    9900012    2    1    2    0    0  0.28782885463E+01 -0.41946561987E+02 -0.10762158093E+02  0.47787278182E+02  0.20000032545E+02 0.  0.
        -12    1    1    2    0    0 -0.28782885463E+01  0.41946561987E+02  0.10762158093E+02  0.43400721818E+02  0.00000000000E+00 0.  1.
         11    1    3    3    0    0  0.41162201815E+01 -0.31632703055E+02 -0.46953463611E+01  0.32243099244E+02  0.51100000000E-03 0. -1.
        -11    1    3    3    0    0  0.36851551653E+01 -0.10990088516E+01 -0.12869812115E+01  0.40551830968E+01  0.51100000000E-03 0.  1.
        -12    1    3    3    0    0 -0.49230868005E+01 -0.92148500801E+01 -0.47798305201E+01  0.11488995841E+02  0.00000000000E+00 0.  1.
</event>
<event>
 7    1  0.2783785E-010  0.4778727E+02  0.7816164E-02  0.1312668E+00
        -11   -1    0    0    0    0  0.00000000000E+00  0.00000000000E+00  0.45593999997E+02  0.45594000000E+02  0.51100000000E-03 0.  1.
         11   -1    0    0    0    0 -0.00000000000E+00 -0.00000000000E+00 -0.45593999997E+02  0.45594000000E+02  0.51100000000E-03 0. -1.
    9900012    2    1    2    0    0  0.15512638743E+02 -0.11427333810E+02 -0.38889550648E+02  0.47787273412E+02  0.20000010796E+02 0.  0.
        -12    1    1    2    0    0 -0.15512638743E+02  0.11427333810E+02  0.38889550648E+02  0.43400726588E+02  0.00000000000E+00 0.  1.
         11    1    3    3    0    0  0.84565450334E+01 -0.69059609768E+01 -0.28839099897E+02  0.30836652445E+02  0.51100000000E-03 0. -1.
        -11    1    3    3    0    0  0.45636970612E+01 -0.73859084925E+00 -0.11335352907E+02  0.12241857420E+02  0.51100000000E-03 0.  1.
        -12    1    3    3    0    0  0.24923966481E+01 -0.37827819838E+01  0.12849021562E+01  0.47087635468E+01  0.00000000000E+00 0.  1.
</event>
<event>
 7    1  0.2783785E-010  0.4778727E+02  0.7816164E-02  0.1312668E+00
        -11   -1    0    0    0    0  0.00000000000E+00  0.00000000000E+00  0.45593999997E+02  0.45594000000E+02  0.51100000000E-03 0. -1.
         11   -1    0    0    0    0 -0.00000000000E+00 -0.00000000000E+00 -0.45593999997E+02  0.45594000000E+02  0.51100000000E-03 0.  1.
    9900012    2    1    2    0    0 -0.32637936205E+02 -0.93592372727E+01  0.27033185093E+02  0.47787270763E+02  0.19999998718E+02 0.  0.
        -12    1    1    2    0    0  0.32637936205E+02  0.93592372727E+01 -0.27033185093E+02  0.43400729237E+02  0.00000000000E+00 0.  1.
         11    1    3    3    0    0 -0.12526975449E+02 -0.29126411724E+01  0.17830375501E+02  0.21984787542E+02  0.51100000000E-03 0. -1.
        -11    1    3    3    0    0 -0.12909491593E+02 -0.50152603343E+01  0.11613712492E+02  0.18074460642E+02  0.51100000000E-03 0.  1.
         12    1    3    3    0    0 -0.72014691636E+01 -0.14313357660E+01 -0.24109029004E+01  0.77280225791E+01  0.00000000000E+00 0. -1.
</event>
<event>
 7    1  0.2783785E-010  0.4778734E+02  0.7816164E-02  0.1312667E+00
        -11   -1    0    0    0    0  0.00000000000E+00  0.00000000000E+00  0.45593999997E+02  0.45594000000E+02  0.51100000000E-03 0. -1.
         11   -1    0    0    0    0 -0.00000000000E+00 -0.00000000000E+00 -0.45593999997E+02  0.45594000000E+02  0.51100000000E-03 0.  1.
    9900012    2    1    2    0    0  0.27651811753E+02  0.19743741365E+02  0.27003327505E+02  0.47787335113E+02  0.20000292112E+02 0.  0.
        -12    1    1    2    0    0 -0.27651811753E+02 -0.19743741365E+02 -0.27003327505E+02  0.43400664887E+02  0.00000000000E+00 0.  1.
         11    1    3    3    0    0  0.11249133886E+02 -0.12901080346E+01  0.11893398984E+02  0.16421337691E+02  0.51100000000E-03 0.  1.
        -11    1    3    3    0    0  0.66925681587E+01  0.11521729364E+02  0.10657967733E+02  0.17062619744E+02  0.51100000000E-03 0. -1.
        -12    1    3    3    0    0  0.97101097088E+01  0.95121200358E+01  0.44519607885E+01  0.14303377678E+02  0.00000000000E+00 0.  1.
</event>
<event>
 7    1  0.2783785E-010  0.4778728E+02  0.7816164E-02  0.1312668E+00
        -11   -1    0    0    0    0  0.00000000000E+00  0.00000000000E+00  0.45593999997E+02  0.45594000000E+02  0.51100000000E-03 0.  1.
         11   -1    0    0    0    0 -0.00000000000E+00 -0.00000000000E+00 -0.45593999997E+02  0.45594000000E+02  0.51100000000E-03 0. -1.
    9900012    2    1    2    0    0 -0.30705049567E+02  0.10457955115E+01  0.30655001279E+02  0.47787275806E+02  0.20000021708E+02 0.  0.
        -12    1    1    2    0    0  0.30705049567E+02 -0.10457955115E+01 -0.30655001279E+02  0.43400724194E+02  0.00000000000E+00 0.  1.
         11    1    3    3    0    0 -0.83504869180E+01  0.60459148742E+01  0.71340185146E+01  0.12537062609E+02  0.51100000000E-03 0. -1.
        -11    1    3    3    0    0 -0.27470006385E+01 -0.40806159087E+01  0.42160082316E+00  0.49371232735E+01  0.51100000000E-03 0.  1.
        -12    1    3    3    0    0 -0.19607562010E+02 -0.91950345399E+00  0.23099381942E+02  0.30313089923E+02  0.00000000000E+00 0.  1.
</event>
