<event>
 8    1  0.9870402E-014  0.9118800E+02  0.7816164E-02  0.1184000E+00
        -11   -1    0    0    0    0  0.00000000000E+00  0.00000000000E+00  0.45593999997E+02  0.45594000000E+02  0.51100000000E-03 0. -1.
         11   -1    0    0    0    0 -0.00000000000E+00 -0.00000000000E+00 -0.45593999997E+02  0.45594000000E+02  0.51100000000E-03 0.  1.
         23    2    1    2    0    0  0.17763568394E-14  0.00000000000E+00  0.00000000000E+00  0.91188000000E+02  0.91188000000E+02 0.  0.
    9900012    2    3    3    0    0  0.11176993189E+01 -0.11030035371E+02 -0.39118471662E+02  0.50528858873E+02  0.29999997030E+02 0.  0.
         12    1    3    3    0    0 -0.11176993189E+01  0.11030035371E+02  0.39118471662E+02  0.40659141127E+02  0.00000000000E+00 0. -1.
         11    1    4    4    0    0 -0.75041467425E+01  0.10574875283E+01 -0.33274184234E+01  0.82766062992E+01  0.51100000000E-03 0. -1.
        -11    1    4    4    0    0 -0.32850851330E+01 -0.35479054859E+01 -0.20545800986E+02  0.21107092554E+02  0.51100000000E-03 0.  1.
         12    1    4    4    0    0  0.11906931194E+02 -0.85396174130E+01 -0.15245252253E+02  0.21145160020E+02  0.00000000000E+00 0. -1.
</event>
<event>
 8    1  0.1309735E-013  0.9118800E+02  0.7816164E-02  0.1184000E+00
        -11   -1    0    0    0    0  0.00000000000E+00  0.00000000000E+00  0.45593999997E+02  0.45594000000E+02  0.51100000000E-03 0. -1.
         11   -1    0    0    0    0 -0.00000000000E+00 -0.00000000000E+00 -0.45593999997E+02  0.45594000000E+02  0.51100000000E-03 0.  1.
         23    2    1    2    0    0  0.00000000000E+00 -0.17763568394E-14 -0.71054273576E-14  0.91188000000E+02  0.91188000000E+02 0.  0.
    9900012    2    3    3    0    0  0.88696185016E+01  0.12278194919E+02 -0.37732472584E+02  0.50528884293E+02  0.30000074296E+02 0.  0.
         12    1    3    3    0    0 -0.88696185016E+01 -0.12278194919E+02  0.37732472584E+02  0.40659115707E+02  0.00000000000E+00 0. -1.
         11    1    4    4    0    0  0.15615747096E+00  0.45201517366E+01 -0.17795082701E+02  0.18360858517E+02  0.51100000000E-03 0.  1.
        -11    1    4    4    0    0  0.13963837121E+02 -0.18259661024E+00 -0.17409877916E+02  0.22318735134E+02  0.51100000000E-03 0. -1.
         12    1    4    4    0    0 -0.52503760905E+01  0.79406397926E+01 -0.25275119664E+01  0.98492906418E+01  0.00000000000E+00 0. -1.
</event>
<event>
 8    1  0.9870402E-014  0.9118800E+02  0.7816164E-02  0.1184000E+00
        -11   -1    0    0    0    0  0.00000000000E+00  0.00000000000E+00  0.45593999997E+02  0.45594000000E+02  0.51100000000E-03 0. -1.
         11   -1    0    0    0    0 -0.00000000000E+00 -0.00000000000E+00 -0.45593999997E+02  0.45594000000E+02  0.51100000000E-03 0.  1.
         23    2    1    2    0    0  0.00000000000E+00  0.00000000000E+00  0.00000000000E+00  0.91188000000E+02  0.91188000000E+02 0.  0.
    9900012    2    3    3    0    0  0.16912139792E+02 -0.28950547230E+02  0.23000255314E+02  0.50528850946E+02  0.29999972935E+02 0.  0.
        -12    1    3    3    0    0 -0.16912139792E+02  0.28950547230E+02 -0.23000255314E+02  0.40659149054E+02  0.00000000000E+00 0.  1.
         11    1    4    4    0    0  0.13984729534E+02 -0.10403356084E+02  0.78173965519E+01  0.19102726692E+02  0.51100000000E-03 0. -1.
        -11    1    4    4    0    0  0.18301779636E+01 -0.12749600927E+02 -0.22020554387E+01  0.13067169686E+02  0.51100000000E-03 0.  1.
        -12    1    4    4    0    0  0.10972322944E+01 -0.57975902196E+01  0.17384914201E+02  0.18358954568E+02  0.00000000000E+00 0.  1.
</event>
<event>
 8    1  0.9870402E-014  0.9118800E+02  0.7816164E-02  0.1184000E+00
        -11   -1    0    0    0    0  0.00000000000E+00  0.00000000000E+00  0.45593999997E+02  0.45594000000E+02  0.51100000000E-03 0. -1.
         11   -1    0    0    0    0 -0.00000000000E+00 -0.00000000000E+00 -0.45593999997E+02  0.45594000000E+02  0.51100000000E-03 0.  1.
         23    2    1    2    0    0 -0.44408920985E-15  0.00000000000E+00  0.00000000000E+00  0.91188000000E+02  0.91188000000E+02 0.  0.
    9900012    2    3    3    0    0 -0.34846272756E+01 -0.19598637021E+02 -0.35453018678E+02  0.50528859162E+02  0.29999997909E+02 0.  0.
         12    1    3    3    0    0  0.34846272756E+01  0.19598637021E+02  0.35453018678E+02  0.40659140838E+02  0.00000000000E+00 0. -1.
         11    1    4    4    0    0 -0.14459159620E+01 -0.84306802721E+01 -0.16649914424E+02  0.18718618897E+02  0.51100000000E-03 0. -1.
        -11    1    4    4    0    0  0.10010755903E+02 -0.52138833927E+01 -0.12871005987E+02  0.17119071504E+02  0.51100000000E-03 0.  1.
         12    1    4    4    0    0 -0.12049467216E+02 -0.59540733557E+01 -0.59320982664E+01  0.14691168761E+02  0.00000000000E+00 0. -1.
</event>
<event>
 8    1  0.9870402E-014  0.9118800E+02  0.7816164E-02  0.1184000E+00
        -11   -1    0    0    0    0  0.00000000000E+00  0.00000000000E+00  0.45593999997E+02  0.45594000000E+02  0.51100000000E-03 0. -1.
         11   -1    0    0    0    0 -0.00000000000E+00 -0.00000000000E+00 -0.45593999997E+02  0.45594000000E+02  0.51100000000E-03 0.  1.
         23    2    1    2    0    0  0.00000000000E+00  0.00000000000E+00  0.00000000000E+00  0.91188000000E+02  0.91188000000E+02 0.  0.
    9900012    2    3    3    0    0  0.67441540561E+01 -0.17797151410E+02 -0.35929707953E+02  0.50528854339E+02  0.29999983249E+02 0.  0.
         12    1    3    3    0    0 -0.67441540561E+01  0.17797151410E+02  0.35929707953E+02  0.40659145661E+02  0.00000000000E+00 0. -1.
         11    1    4    4    0    0 -0.91749021503E+01 -0.10953629702E+02 -0.10434210419E+02  0.17692755027E+02  0.51100000000E-03 0. -1.
        -11    1    4    4    0    0  0.44104870784E+00  0.96167062421E+00 -0.84803158962E+01  0.85460571209E+01  0.51100000000E-03 0.  1.
         12    1    4    4    0    0  0.15478007499E+02 -0.78051923325E+01 -0.17015181638E+02  0.24290042191E+02  0.00000000000E+00 0. -1.
</event>
<event>
 8    1  0.9870402E-014  0.9118800E+02  0.7816164E-02  0.1184000E+00
        -11   -1    0    0    0    0  0.00000000000E+00  0.00000000000E+00  0.45593999997E+02  0.45594000000E+02  0.51100000000E-03 0. -1.
         11   -1    0    0    0    0 -0.00000000000E+00 -0.00000000000E+00 -0.45593999997E+02  0.45594000000E+02  0.51100000000E-03 0.  1.
         23    2    1    2    0    0 -0.88817841970E-15  0.00000000000E+00  0.35527136788E-14  0.91188000000E+02  0.91188000000E+02 0.  0.
    9900012    2    3    3    0    0  0.79988892281E+01  0.25727368527E+02 -0.30451377131E+02  0.50528854787E+02  0.29999984612E+02 0.  0.
         12    1    3    3    0    0 -0.79988892281E+01 -0.25727368527E+02  0.30451377131E+02  0.40659145213E+02  0.00000000000E+00 0. -1.
         11    1    4    4    0    0  0.26661363832E+01 -0.39726023485E+01  0.18898811290E+01  0.51440746083E+01  0.51100000000E-03 0. -1.
        -11    1    4    4    0    0  0.35934830196E+01  0.62644795857E+01 -0.30699706455E+01  0.78473909497E+01  0.51100000000E-03 0.  1.
        -12    1    4    4    0    0  0.17392698253E+01  0.23435491290E+02 -0.29271287615E+02  0.37537389229E+02  0.00000000000E+00 0.  1.
</event>
<event>
 8    1  0.9870402E-014  0.9118800E+02  0.7816164E-02  0.1184000E+00
        -11   -1    0    0    0    0  0.00000000000E+00  0.00000000000E+00  0.45593999997E+02  0.45594000000E+02  0.51100000000E-03 0. -1.
         11   -1    0    0    0    0 -0.00000000000E+00 -0.00000000000E+00 -0.45593999997E+02  0.45594000000E+02  0.51100000000E-03 0.  1.
         23    2    1    2    0    0  0.35527136788E-14  0.35527136788E-14 -0.35527136788E-14  0.91188000000E+02  0.91188000000E+02 0.  0.
    9900012    2    3    3    0    0 -0.22520375852E+02  0.31471466083E+02  0.12471777674E+02  0.50528859031E+02  0.29999997512E+02 0.  0.
        -12    1    3    3    0    0  0.22520375852E+02 -0.31471466083E+02 -0.12471777674E+02  0.40659140969E+02  0.00000000000E+00 0.  1.
         11    1    4    4    0    0 -0.65522519726E+01  0.19596650902E+02 -0.11124894584E+00  0.20663327638E+02  0.51100000000E-03 0. -1.
        -11    1    4    4    0    0 -0.12587791418E+01  0.85373732573E+01  0.11987420371E+02  0.14770562429E+02  0.51100000000E-03 0.  1.
        -12    1    4    4    0    0 -0.14709344738E+02  0.33374419241E+01  0.59560624807E+00  0.15094968964E+02  0.00000000000E+00 0.  1.
</event>
<event>
 8    1  0.9870402E-014  0.9118800E+02  0.7816164E-02  0.1184000E+00
        -11   -1    0    0    0    0  0.00000000000E+00  0.00000000000E+00  0.45593999997E+02  0.45594000000E+02  0.51100000000E-03 0. -1.
         11   -1    0    0    0    0 -0.00000000000E+00 -0.00000000000E+00 -0.45593999997E+02  0.45594000000E+02  0.51100000000E-03 0.  1.
         23    2    1    2    0    0 -0.61062266354E-15 -0.35527136788E-14  0.00000000000E+00  0.91188000000E+02  0.91188000000E+02 0.  0.
    9900012    2    3    3    0    0  0.38472734435E+00  0.26908133098E+02 -0.30479007619E+02  0.50528861453E+02  0.30000004871E+02 0.  0.
         12    1    3    3    0    0 -0.38472734435E+00 -0.26908133098E+02  0.30479007619E+02  0.40659138547E+02  0.00000000000E+00 0. -1.
         11    1    4    4    0    0 -0.32764672933E+00  0.89552676746E+01 -0.10627511803E+02  0.13901373273E+02  0.51100000000E-03 0. -1.
        -11    1    4    4    0    0 -0.10208972977E+02  0.15875377391E+01 -0.10879323068E+02  0.15003435473E+02  0.51100000000E-03 0.  1.
         12    1    4    4    0    0  0.10921347050E+02  0.16365327685E+02 -0.89721727480E+01  0.21624052706E+02  0.00000000000E+00 0. -1.
</event>
<event>
 8    1  0.9870402E-014  0.9118800E+02  0.7816164E-02  0.1184000E+00
        -11   -1    0    0    0    0  0.00000000000E+00  0.00000000000E+00  0.45593999997E+02  0.45594000000E+02  0.51100000000E-03 0. -1.
         11   -1    0    0    0    0 -0.00000000000E+00 -0.00000000000E+00 -0.45593999997E+02  0.45594000000E+02  0.51100000000E-03 0.  1.
         23    2    1    2    0    0  0.00000000000E+00  0.00000000000E+00  0.00000000000E+00  0.91188000000E+02  0.91188000000E+02 0.  0.
    9900012    2    3    3    0    0  0.14309281051E+02  0.20300191818E+02  0.32191815538E+02  0.50528852202E+02  0.29999976752E+02 0.  0.
        -12    1    3    3    0    0 -0.14309281051E+02 -0.20300191818E+02 -0.32191815538E+02  0.40659147798E+02  0.00000000000E+00 0.  1.
         11    1    4    4    0    0  0.86739594869E+01  0.81791655508E+01  0.19138503366E+02  0.22548140359E+02  0.51100000000E-03 0. -1.
        -11    1    4    4    0    0 -0.43136251459E+01  0.27391254855E+01  0.13358518002E+02  0.14302453419E+02  0.51100000000E-03 0.  1.
         12    1    4    4    0    0  0.99489467096E+01  0.93819007815E+01 -0.30520583029E+00  0.13678258424E+02  0.00000000000E+00 0. -1.
</event>
<event>
 8    1  0.9870402E-014  0.9118800E+02  0.7816164E-02  0.1184000E+00
        -11   -1    0    0    0    0  0.00000000000E+00  0.00000000000E+00  0.45593999997E+02  0.45594000000E+02  0.51100000000E-03 0. -1.
         11   -1    0    0    0    0 -0.00000000000E+00 -0.00000000000E+00 -0.45593999997E+02  0.45594000000E+02  0.51100000000E-03 0.  1.
         23    2    1    2    0    0 -0.35527136788E-14 -0.26645352591E-14  0.71054273576E-14  0.91188000000E+02  0.91188000000E+02 0.  0.
    9900012    2    3    3    0    0 -0.20877574697E+02  0.16060563995E+01  0.34852743577E+02  0.50528852478E+02  0.29999977593E+02 0.  0.
        -12    1    3    3    0    0  0.20877574697E+02 -0.16060563995E+01 -0.34852743577E+02  0.40659147522E+02  0.00000000000E+00 0.  1.
         11    1    4    4    0    0 -0.71220084000E+01 -0.48550464237E+01  0.12250828757E+02  0.14979228448E+02  0.51100000000E-03 0. -1.
        -11    1    4    4    0    0 -0.95632182534E+00 -0.41971572469E+01 -0.28280401345E+01  0.51505816809E+01  0.51100000000E-03 0.  1.
        -12    1    4    4    0    0 -0.12799244471E+02  0.10658260070E+02  0.25429954954E+02  0.30399042349E+02  0.00000000000E+00 0.  1.
</event>
<event>
 8    1  0.9870402E-014  0.9118800E+02  0.7816164E-02  0.1184000E+00
        -11   -1    0    0    0    0  0.00000000000E+00  0.00000000000E+00  0.45593999997E+02  0.45594000000E+02  0.51100000000E-03 0. -1.
         11   -1    0    0    0    0 -0.00000000000E+00 -0.00000000000E+00 -0.45593999997E+02  0.45594000000E+02  0.51100000000E-03 0.  1.
         23    2    1    2    0    0  0.35527136788E-14  0.00000000000E+00  0.00000000000E+00  0.91188000000E+02  0.91188000000E+02 0.  0.
    9900012    2    3    3    0    0 -0.26904689309E+02 -0.64201507234E+01  0.29800766819E+02  0.50528851643E+02  0.29999975055E+02 0.  0.
        -12    1    3    3    0    0  0.26904689309E+02  0.64201507234E+01 -0.29800766819E+02  0.40659148357E+02  0.00000000000E+00 0.  1.
         11    1    4    4    0    0  0.21893702842E+01 -0.64762431026E+01  0.11660609001E+02  0.13516836520E+02  0.51100000000E-03 0. -1.
        -11    1    4    4    0    0 -0.57645583288E+01 -0.56630910891E+01  0.30076722178E+01  0.86224605445E+01  0.51100000000E-03 0.  1.
        -12    1    4    4    0    0 -0.23329501264E+02  0.57191834683E+01  0.15132485600E+02  0.28389554579E+02  0.00000000000E+00 0.  1.
</event>
<event>
 8    1  0.9870402E-014  0.9118800E+02  0.7816164E-02  0.1184000E+00
        -11   -1    0    0    0    0  0.00000000000E+00  0.00000000000E+00  0.45593999997E+02  0.45594000000E+02  0.51100000000E-03 0. -1.
         11   -1    0    0    0    0 -0.00000000000E+00 -0.00000000000E+00 -0.45593999997E+02  0.45594000000E+02  0.51100000000E-03 0.  1.
         23    2    1    2    0    0 -0.35527136788E-14  0.00000000000E+00 -0.35527136788E-14  0.91188000000E+02  0.91188000000E+02 0.  0.
    9900012    2    3    3    0    0  0.26569573353E+02 -0.22452284216E+02 -0.21050370438E+02  0.50528863386E+02  0.30000010747E+02 0.  0.
         12    1    3    3    0    0 -0.26569573353E+02  0.22452284216E+02  0.21050370438E+02  0.40659136614E+02  0.00000000000E+00 0. -1.
         11    1    4    4    0    0  0.20005567731E+02 -0.15811732137E+02 -0.10958907442E+02  0.27754842208E+02  0.51100000000E-03 0. -1.
        -11    1    4    4    0    0  0.43059344470E+01 -0.98690167709E+01 -0.13704430526E+02  0.17428424478E+02  0.51100000000E-03 0.  1.
         12    1    4    4    0    0  0.22580711748E+01  0.32284646924E+01  0.36129675299E+01  0.53455966994E+01  0.00000000000E+00 0. -1.
</event>
<event>
 8    1  0.9870402E-014  0.9118800E+02  0.7816164E-02  0.1184000E+00
        -11   -1    0    0    0    0  0.00000000000E+00  0.00000000000E+00  0.45593999997E+02  0.45594000000E+02  0.51100000000E-03 0. -1.
         11   -1    0    0    0    0 -0.00000000000E+00 -0.00000000000E+00 -0.45593999997E+02  0.45594000000E+02  0.51100000000E-03 0.  1.
         23    2    1    2    0    0  0.35527136788E-14 -0.17763568394E-14  0.71054273576E-14  0.91188000000E+02  0.91188000000E+02 0.  0.
    9900012    2    3    3    0    0 -0.15800796210E+02  0.13149034140E+02 -0.35079950427E+02  0.50528865950E+02  0.30000018543E+02 0.  0.
         12    1    3    3    0    0  0.15800796210E+02 -0.13149034140E+02  0.35079950427E+02  0.40659134050E+02  0.00000000000E+00 0. -1.
         11    1    4    4    0    0 -0.10566001248E+01  0.10834974406E+02 -0.26115698891E+02  0.28293865113E+02  0.51100000000E-03 0.  1.
        -11    1    4    4    0    0 -0.11735676458E+02 -0.21258163856E+00 -0.12357708519E+02  0.17043598593E+02  0.51100000000E-03 0. -1.
         12    1    4    4    0    0 -0.30085196277E+01  0.25266413724E+01  0.33934569831E+01  0.51914022451E+01  0.00000000000E+00 0. -1.
</event>
<event>
 8    1  0.9870402E-014  0.9118800E+02  0.7816164E-02  0.1184000E+00
        -11   -1    0    0    0    0  0.00000000000E+00  0.00000000000E+00  0.45593999997E+02  0.45594000000E+02  0.51100000000E-03 0. -1.
         11   -1    0    0    0    0 -0.00000000000E+00 -0.00000000000E+00 -0.45593999997E+02  0.45594000000E+02  0.51100000000E-03 0.  1.
         23    2    1    2    0    0  0.66613381478E-15  0.35527136788E-14  0.00000000000E+00  0.91188000000E+02  0.91188000000E+02 0.  0.
    9900012    2    3    3    0    0  0.16714860626E+01 -0.13470908286E+02  0.38326322622E+02  0.50528852918E+02  0.29999978930E+02 0.  0.
        -12    1    3    3    0    0 -0.16714860626E+01  0.13470908286E+02 -0.38326322622E+02  0.40659147082E+02  0.00000000000E+00 0.  1.
         11    1    4    4    0    0  0.20283496018E+01 -0.13433719204E+02  0.10226658303E+02  0.17004809733E+02  0.51100000000E-03 0. -1.
        -11    1    4    4    0    0 -0.92331762287E+01 -0.48367999758E+00  0.12182793774E+02  0.15293984242E+02  0.51100000000E-03 0.  1.
         12    1    4    4    0    0  0.88763126895E+01  0.44649091525E+00  0.15916870546E+02  0.18230058943E+02  0.00000000000E+00 0. -1.
</event>
<event>
 8    1  0.9870402E-014  0.9118800E+02  0.7816164E-02  0.1184000E+00
        -11   -1    0    0    0    0  0.00000000000E+00  0.00000000000E+00  0.45593999997E+02  0.45594000000E+02  0.51100000000E-03 0. -1.
         11   -1    0    0    0    0 -0.00000000000E+00 -0.00000000000E+00 -0.45593999997E+02  0.45594000000E+02  0.51100000000E-03 0.  1.
         23    2    1    2    0    0 -0.17763568394E-14  0.00000000000E+00  0.00000000000E+00  0.91188000000E+02  0.91188000000E+02 0.  0.
    9900012    2    3    3    0    0  0.13685141990E+02  0.64191768805E+01 -0.37744888392E+02  0.50528861509E+02  0.30000005042E+02 0.  0.
         12    1    3    3    0    0 -0.13685141990E+02 -0.64191768805E+01  0.37744888392E+02  0.40659138491E+02  0.00000000000E+00 0. -1.
         11    1    4    4    0    0 -0.28421843877E+01 -0.47650284306E+00  0.29511551887E+01  0.41248496047E+01  0.51100000000E-03 0. -1.
        -11    1    4    4    0    0  0.10821949325E+02 -0.37524556657E+00 -0.11569956395E+02  0.15846743756E+02  0.51100000000E-03 0.  1.
        -12    1    4    4    0    0  0.57053770524E+01  0.72709252902E+01 -0.29126087186E+02  0.30557268148E+02  0.00000000000E+00 0.  1.
</event>
<event>
 8    1  0.9870402E-014  0.9118800E+02  0.7816164E-02  0.1184000E+00
        -11   -1    0    0    0    0  0.00000000000E+00  0.00000000000E+00  0.45593999997E+02  0.45594000000E+02  0.51100000000E-03 0.  1.
         11   -1    0    0    0    0 -0.00000000000E+00 -0.00000000000E+00 -0.45593999997E+02  0.45594000000E+02  0.51100000000E-03 0. -1.
         23    2    1    2    0    0  0.17763568394E-14 -0.35527136788E-14  0.00000000000E+00  0.91188000000E+02  0.91188000000E+02 0.  0.
    9900012    2    3    3    0    0  0.19369219249E+01  0.31009189645E+02  0.26226786018E+02  0.50528858177E+02  0.29999994915E+02 0.  0.
        -12    1    3    3    0    0 -0.19369219249E+01 -0.31009189645E+02 -0.26226786018E+02  0.40659141823E+02  0.00000000000E+00 0.  1.
         11    1    4    4    0    0 -0.13480778816E+01  0.22042728590E+01  0.55364893137E+01  0.61097337907E+01  0.51100000000E-03 0.  1.
        -11    1    4    4    0    0 -0.78995685494E+01  0.25082148100E+01 -0.12626399306E+01  0.83838287587E+01  0.51100000000E-03 0. -1.
         12    1    4    4    0    0  0.11184568356E+02  0.26296701976E+02  0.21952936635E+02  0.36035295628E+02  0.00000000000E+00 0. -1.
</event>
<event>
 8    1  0.9870402E-014  0.9118800E+02  0.7816164E-02  0.1184000E+00
        -11   -1    0    0    0    0  0.00000000000E+00  0.00000000000E+00  0.45593999997E+02  0.45594000000E+02  0.51100000000E-03 0. -1.
         11   -1    0    0    0    0 -0.00000000000E+00 -0.00000000000E+00 -0.45593999997E+02  0.45594000000E+02  0.51100000000E-03 0.  1.
         23    2    1    2    0    0 -0.17763568394E-14  0.00000000000E+00 -0.35527136788E-14  0.91188000000E+02  0.91188000000E+02 0.  0.
    9900012    2    3    3    0    0 -0.12371811452E+02  0.28666249859E+02 -0.26045169276E+02  0.50528850449E+02  0.29999971425E+02 0.  0.
         12    1    3    3    0    0  0.12371811452E+02 -0.28666249859E+02  0.26045169276E+02  0.40659149551E+02  0.00000000000E+00 0. -1.
         11    1    4    4    0    0 -0.21086721959E+01  0.63595108546E+01  0.55399370052E+01  0.86937206663E+01  0.51100000000E-03 0. -1.
        -11    1    4    4    0    0  0.23859975662E+01  0.24102958457E+01 -0.69643238487E+01  0.77462453731E+01  0.51100000000E-03 0.  1.
        -12    1    4    4    0    0 -0.12649136822E+02  0.19896443159E+02 -0.24620782432E+02  0.34088884410E+02  0.00000000000E+00 0.  1.
</event>
<event>
 8    1  0.9870402E-014  0.9118800E+02  0.7816164E-02  0.1184000E+00
        -11   -1    0    0    0    0  0.00000000000E+00  0.00000000000E+00  0.45593999997E+02  0.45594000000E+02  0.51100000000E-03 0. -1.
         11   -1    0    0    0    0 -0.00000000000E+00 -0.00000000000E+00 -0.45593999997E+02  0.45594000000E+02  0.51100000000E-03 0.  1.
         23    2    1    2    0    0  0.00000000000E+00  0.00000000000E+00  0.00000000000E+00  0.91188000000E+02  0.91188000000E+02 0.  0.
    9900012    2    3    3    0    0  0.10573518155E+02  0.86486701939E+01  0.38295785029E+02  0.50528856708E+02  0.29999990448E+02 0.  0.
        -12    1    3    3    0    0 -0.10573518155E+02 -0.86486701939E+01 -0.38295785029E+02  0.40659143292E+02  0.00000000000E+00 0.  1.
         11    1    4    4    0    0 -0.19763076515E+01  0.73714870151E+01  0.25603471852E+02  0.26716706083E+02  0.51100000000E-03 0. -1.
        -11    1    4    4    0    0 -0.20857096038E+00 -0.38124353335E+01  0.87104680095E+01  0.95105424779E+01  0.51100000000E-03 0.  1.
        -12    1    4    4    0    0  0.12758396767E+02  0.50896185123E+01  0.39818451670E+01  0.14301608147E+02  0.00000000000E+00 0.  1.
</event>
<event>
 8    1  0.9870402E-014  0.9118800E+02  0.7816164E-02  0.1184000E+00
        -11   -1    0    0    0    0  0.00000000000E+00  0.00000000000E+00  0.45593999997E+02  0.45594000000E+02  0.51100000000E-03 0. -1.
         11   -1    0    0    0    0 -0.00000000000E+00 -0.00000000000E+00 -0.45593999997E+02  0.45594000000E+02  0.51100000000E-03 0.  1.
         23    2    1    2    0    0  0.88817841970E-15 -0.88817841970E-15 -0.71054273576E-14  0.91188000000E+02  0.91188000000E+02 0.  0.
    9900012    2    3    3    0    0 -0.74487914276E+01  0.66257083992E+01  0.39418030590E+02  0.50528860301E+02  0.30000001370E+02 0.  0.
        -12    1    3    3    0    0  0.74487914276E+01 -0.66257083992E+01 -0.39418030590E+02  0.40659139699E+02  0.00000000000E+00 0.  1.
         11    1    4    4    0    0  0.24649088901E+01  0.55408425440E+01  0.32850239358E+01  0.68969626977E+01  0.51100000000E-03 0. -1.
        -11    1    4    4    0    0  0.35413571878E+01 -0.76369482107E+01  0.12833371316E+02  0.15347951273E+02  0.51100000000E-03 0.  1.
        -12    1    4    4    0    0 -0.13455057506E+02  0.87218140659E+01  0.23299635338E+02  0.28283946330E+02  0.00000000000E+00 0.  1.
</event>
<event>
 8    1  0.9870402E-014  0.9118800E+02  0.7816164E-02  0.1184000E+00
        -11   -1    0    0    0    0  0.00000000000E+00  0.00000000000E+00  0.45593999997E+02  0.45594000000E+02  0.51100000000E-03 0. -1.
         11   -1    0    0    0    0 -0.00000000000E+00 -0.00000000000E+00 -0.45593999997E+02  0.45594000000E+02  0.51100000000E-03 0.  1.
         23    2    1    2    0    0  0.00000000000E+00  0.00000000000E+00  0.00000000000E+00  0.91188000000E+02  0.91188000000E+02 0.  0.
    9900012    2    3    3    0    0  0.21379167467E+02 -0.22322087015E+02 -0.26416305277E+02  0.50528861362E+02  0.30000004597E+02 0.  0.
         12    1    3    3    0    0 -0.21379167467E+02  0.22322087015E+02  0.26416305277E+02  0.40659138638E+02  0.00000000000E+00 0. -1.
         11    1    4    4    0    0  0.47698806324E+01  0.61510256231E+01 -0.21193247680E+01  0.80671193866E+01  0.51100000000E-03 0. -1.
        -11    1    4    4    0    0 -0.15945223308E+01 -0.40554237879E+01 -0.27260468283E+01  0.51400676197E+01  0.51100000000E-03 0.  1.
        -12    1    4    4    0    0  0.18203809166E+02 -0.24417688850E+02 -0.21570933680E+02  0.37321674356E+02  0.00000000000E+00 0.  1.
</event>
<event>
 8    1  0.9870402E-014  0.9118800E+02  0.7816164E-02  0.1184000E+00
        -11   -1    0    0    0    0  0.00000000000E+00  0.00000000000E+00  0.45593999997E+02  0.45594000000E+02  0.51100000000E-03 0. -1.
         11   -1    0    0    0    0 -0.00000000000E+00 -0.00000000000E+00 -0.45593999997E+02  0.45594000000E+02  0.51100000000E-03 0.  1.
         23    2    1    2    0    0  0.35527136788E-14  0.71054273576E-14  0.35527136788E-14  0.91188000000E+02  0.91188000000E+02 0.  0.
    9900012    2    3    3    0    0  0.21480591883E+02  0.30942808111E+02 -0.15306615589E+02  0.50528859795E+02  0.29999999833E+02 0.  0.
         12    1    3    3    0    0 -0.21480591883E+02 -0.30942808111E+02  0.15306615589E+02  0.40659140205E+02  0.00000000000E+00 0. -1.
         11    1    4    4    0    0  0.84169211798E+01  0.95336698334E+01  0.14335430311E+01  0.12798065030E+02  0.51100000000E-03 0. -1.
        -11    1    4    4    0    0  0.14571791712E+02  0.25170042099E+02 -0.11914806021E+02  0.31429774669E+02  0.51100000000E-03 0.  1.
        -12    1    4    4    0    0 -0.15081210087E+01 -0.37609038220E+01 -0.48253525993E+01  0.63010200954E+01  0.00000000000E+00 0.  1.
</event>
<event>
 8    1  0.9870402E-014  0.9118800E+02  0.7816164E-02  0.1184000E+00
        -11   -1    0    0    0    0  0.00000000000E+00  0.00000000000E+00  0.45593999997E+02  0.45594000000E+02  0.51100000000E-03 0. -1.
         11   -1    0    0    0    0 -0.00000000000E+00 -0.00000000000E+00 -0.45593999997E+02  0.45594000000E+02  0.51100000000E-03 0.  1.
         23    2    1    2    0    0 -0.35527136788E-14  0.00000000000E+00  0.17763568394E-14  0.91188000000E+02  0.91188000000E+02 0.  0.
    9900012    2    3    3    0    0 -0.26269833884E+02 -0.27049363467E+02  0.15211606816E+02  0.50528865501E+02  0.30000017176E+02 0.  0.
        -12    1    3    3    0    0  0.26269833884E+02  0.27049363467E+02 -0.15211606816E+02  0.40659134499E+02  0.00000000000E+00 0.  1.
         11    1    4    4    0    0  0.39548357998E+00 -0.16649263558E+01  0.62252509860E+01  0.64561704696E+01  0.51100000000E-03 0. -1.
        -11    1    4    4    0    0  0.34450594446E+01  0.37687004440E+00  0.12846995348E+00  0.34679922718E+01  0.51100000000E-03 0.  1.
         12    1    4    4    0    0 -0.30110376909E+02 -0.25761307156E+02  0.88578858768E+01  0.40604702759E+02  0.00000000000E+00 0. -1.
</event>
<event>
 8    1  0.9870402E-014  0.9118800E+02  0.7816164E-02  0.1184000E+00
        -11   -1    0    0    0    0  0.00000000000E+00  0.00000000000E+00  0.45593999997E+02  0.45594000000E+02  0.51100000000E-03 0. -1.
         11   -1    0    0    0    0 -0.00000000000E+00 -0.00000000000E+00 -0.45593999997E+02  0.45594000000E+02  0.51100000000E-03 0.  1.
         23    2    1    2    0    0  0.35527136788E-14 -0.35527136788E-14  0.00000000000E+00  0.91188000000E+02  0.91188000000E+02 0.  0.
    9900012    2    3    3    0    0  0.31112603233E+02  0.22992443746E+02  0.12510785652E+02  0.50528852112E+02  0.29999976480E+02 0.  0.
        -12    1    3    3    0    0 -0.31112603233E+02 -0.22992443746E+02 -0.12510785652E+02  0.40659147888E+02  0.00000000000E+00 0.  1.
         11    1    4    4    0    0  0.26314738034E+01  0.12645076913E+02  0.27546630201E+01  0.13206467852E+02  0.51100000000E-03 0. -1.
        -11    1    4    4    0    0  0.21180122491E+02  0.10422362115E+02 -0.17769893424E+01  0.23672366003E+02  0.51100000000E-03 0.  1.
        -12    1    4    4    0    0  0.73010069378E+01 -0.74995281966E-01  0.11533111974E+02  0.13650018257E+02  0.00000000000E+00 0.  1.
</event>
<event>
 8    1  0.9870402E-014  0.9118800E+02  0.7816164E-02  0.1184000E+00
        -11   -1    0    0    0    0  0.00000000000E+00  0.00000000000E+00  0.45593999997E+02  0.45594000000E+02  0.51100000000E-03 0. -1.
         11   -1    0    0    0    0 -0.00000000000E+00 -0.00000000000E+00 -0.45593999997E+02  0.45594000000E+02  0.51100000000E-03 0.  1.
         23    2    1    2    0    0  0.00000000000E+00  0.00000000000E+00  0.00000000000E+00  0.91188000000E+02  0.91188000000E+02 0.  0.
    9900012    2    3    3    0    0  0.20405390248E+02  0.24448570871E+02 -0.25279495129E+02  0.50528862739E+02  0.30000008783E+02 0.  0.
         12    1    3    3    0    0 -0.20405390248E+02 -0.24448570871E+02  0.25279495129E+02  0.40659137261E+02  0.00000000000E+00 0. -1.
         11    1    4    4    0    0 -0.57215297418E+00 -0.20018598505E+01  0.26681330276E+01  0.33843368628E+01  0.51100000000E-03 0. -1.
        -11    1    4    4    0    0  0.12528409017E+02  0.51616273935E+01 -0.42825241172E+01  0.14210680593E+02  0.51100000000E-03 0.  1.
        -12    1    4    4    0    0  0.84491342048E+01  0.21288803328E+02 -0.23665104039E+02  0.32933845283E+02  0.00000000000E+00 0.  1.
</event>
<event>
 8    1  0.9870402E-014  0.9118800E+02  0.7816164E-02  0.1184000E+00
        -11   -1    0    0    0    0  0.00000000000E+00  0.00000000000E+00  0.45593999997E+02  0.45594000000E+02  0.51100000000E-03 0. -1.
         11   -1    0    0    0    0 -0.00000000000E+00 -0.00000000000E+00 -0.45593999997E+02  0.45594000000E+02  0.51100000000E-03 0.  1.
         23    2    1    2    0    0 -0.71054273576E-14  0.00000000000E+00 -0.66613381478E-15  0.91188000000E+02  0.91188000000E+02 0.  0.
    9900012    2    3    3    0    0 -0.38788314141E+02 -0.12178116615E+02  0.56723837249E+00  0.50528910025E+02  0.30000152513E+02 0.  0.
        -12    1    3    3    0    0  0.38788314141E+02  0.12178116615E+02 -0.56723837249E+00  0.40659089975E+02  0.00000000000E+00 0.  1.
         11    1    4    4    0    0 -0.23011504788E+02 -0.14554349585E+02  0.14215187338E+01  0.27264980474E+02  0.51100000000E-03 0. -1.
        -11    1    4    4    0    0 -0.93879979015E+01 -0.40413685027E+00  0.77584689182E+01  0.12185715876E+02  0.51100000000E-03 0.  1.
        -12    1    4    4    0    0 -0.63888114514E+01  0.27803698203E+01 -0.86127492795E+01  0.11078213676E+02  0.00000000000E+00 0.  1.
</event>
<event>
 8    1  0.9870402E-014  0.9118800E+02  0.7816164E-02  0.1184000E+00
        -11   -1    0    0    0    0  0.00000000000E+00  0.00000000000E+00  0.45593999997E+02  0.45594000000E+02  0.51100000000E-03 0. -1.
         11   -1    0    0    0    0 -0.00000000000E+00 -0.00000000000E+00 -0.45593999997E+02  0.45594000000E+02  0.51100000000E-03 0.  1.
         23    2    1    2    0    0  0.00000000000E+00  0.00000000000E+00  0.94368957093E-15  0.91188000000E+02  0.91188000000E+02 0.  0.
    9900012    2    3    3    0    0  0.18113388100E+02  0.36398338415E+02 -0.48103956761E+00  0.50528864902E+02  0.30000015357E+02 0.  0.
         12    1    3    3    0    0 -0.18113388100E+02 -0.36398338415E+02  0.48103956761E+00  0.40659135098E+02  0.00000000000E+00 0. -1.
         11    1    4    4    0    0  0.10708936132E+01  0.25452352791E+01  0.54897973778E+01  0.61451534779E+01  0.51100000000E-03 0. -1.
        -11    1    4    4    0    0  0.17306807681E+02  0.12004014351E+02  0.19251490993E+01  0.21150133616E+02  0.51100000000E-03 0.  1.
        -12    1    4    4    0    0 -0.26431319348E+00  0.21849088784E+02 -0.78959860447E+01  0.23233577809E+02  0.00000000000E+00 0.  1.
</event>
<event>
 8    1  0.9870402E-014  0.9118800E+02  0.7816164E-02  0.1184000E+00
        -11   -1    0    0    0    0  0.00000000000E+00  0.00000000000E+00  0.45593999997E+02  0.45594000000E+02  0.51100000000E-03 0. -1.
         11   -1    0    0    0    0 -0.00000000000E+00 -0.00000000000E+00 -0.45593999997E+02  0.45594000000E+02  0.51100000000E-03 0.  1.
         23    2    1    2    0    0  0.00000000000E+00  0.00000000000E+00  0.71054273576E-14  0.91188000000E+02  0.91188000000E+02 0.  0.
    9900012    2    3    3    0    0  0.30813978285E+02  0.64301489077E+01  0.25735501001E+02  0.50528879442E+02  0.30000059553E+02 0.  0.
        -12    1    3    3    0    0 -0.30813978285E+02 -0.64301489077E+01 -0.25735501001E+02  0.40659120558E+02  0.00000000000E+00 0.  1.
         11    1    4    4    0    0  0.67478050852E+01  0.37956751339E+01  0.14034121743E+02  0.16027994152E+02  0.51100000000E-03 0.  1.
        -11    1    4    4    0    0  0.10447274460E+02  0.11768383901E+02  0.33125484604E+01  0.16081460781E+02  0.51100000000E-03 0. -1.
         12    1    4    4    0    0  0.13618898740E+02 -0.91339101273E+01  0.83888307982E+01  0.18419424510E+02  0.00000000000E+00 0. -1.
</event>
<event>
 8    1  0.9870402E-014  0.9118800E+02  0.7816164E-02  0.1184000E+00
        -11   -1    0    0    0    0  0.00000000000E+00  0.00000000000E+00  0.45593999997E+02  0.45594000000E+02  0.51100000000E-03 0. -1.
         11   -1    0    0    0    0 -0.00000000000E+00 -0.00000000000E+00 -0.45593999997E+02  0.45594000000E+02  0.51100000000E-03 0.  1.
         23    2    1    2    0    0  0.17763568394E-14  0.88817841970E-15  0.00000000000E+00  0.91188000000E+02  0.91188000000E+02 0.  0.
    9900012    2    3    3    0    0  0.13030053741E+02 -0.39937314073E+01 -0.38307090553E+02  0.50528863540E+02  0.30000011215E+02 0.  0.
         12    1    3    3    0    0 -0.13030053741E+02  0.39937314073E+01  0.38307090553E+02  0.40659136460E+02  0.00000000000E+00 0. -1.
         11    1    4    4    0    0  0.37515082109E+00 -0.15337035392E+01  0.61723664483E+00  0.16952775647E+01  0.51100000000E-03 0. -1.
        -11    1    4    4    0    0  0.22167701945E+01  0.11693266849E+02 -0.15458836419E+02  0.19509540830E+02  0.51100000000E-03 0.  1.
        -12    1    4    4    0    0  0.10438132725E+02 -0.14153294718E+02 -0.23465490779E+02  0.29324045145E+02  0.00000000000E+00 0.  1.
</event>
<event>
 8    1  0.9870402E-014  0.9118800E+02  0.7816164E-02  0.1184000E+00
        -11   -1    0    0    0    0  0.00000000000E+00  0.00000000000E+00  0.45593999997E+02  0.45594000000E+02  0.51100000000E-03 0. -1.
         11   -1    0    0    0    0 -0.00000000000E+00 -0.00000000000E+00 -0.45593999997E+02  0.45594000000E+02  0.51100000000E-03 0.  1.
         23    2    1    2    0    0  0.00000000000E+00  0.22204460493E-15  0.00000000000E+00  0.91188000000E+02  0.91188000000E+02 0.  0.
    9900012    2    3    3    0    0 -0.20720825100E+02 -0.15782611948E+01  0.34947422520E+02  0.50528857830E+02  0.29999993861E+02 0.  0.
        -12    1    3    3    0    0  0.20720825100E+02  0.15782611948E+01 -0.34947422520E+02  0.40659142170E+02  0.00000000000E+00 0.  1.
         11    1    4    4    0    0 -0.10815644490E+02  0.42955097609E+01 -0.25756027732E+00  0.11640270934E+02  0.51100000000E-03 0. -1.
        -11    1    4    4    0    0 -0.56557345253E+01  0.25084176837E-01  0.42054475461E+01  0.70479608087E+01  0.51100000000E-03 0.  1.
         12    1    4    4    0    0 -0.42494460840E+01 -0.58988551325E+01  0.30999535251E+02  0.31840626088E+02  0.00000000000E+00 0. -1.
</event>
<event>
 8    1  0.9870402E-014  0.9118800E+02  0.7816164E-02  0.1184000E+00
        -11   -1    0    0    0    0  0.00000000000E+00  0.00000000000E+00  0.45593999997E+02  0.45594000000E+02  0.51100000000E-03 0. -1.
         11   -1    0    0    0    0 -0.00000000000E+00 -0.00000000000E+00 -0.45593999997E+02  0.45594000000E+02  0.51100000000E-03 0.  1.
         23    2    1    2    0    0 -0.44408920985E-15  0.00000000000E+00  0.00000000000E+00  0.91188000000E+02  0.91188000000E+02 0.  0.
    9900012    2    3    3    0    0  0.23548653099E+01 -0.64072472000E+01 -0.40081992502E+02  0.50528876421E+02  0.30000050369E+02 0.  0.
         12    1    3    3    0    0 -0.23548653099E+01  0.64072472000E+01  0.40081992502E+02  0.40659123579E+02  0.00000000000E+00 0. -1.
         11    1    4    4    0    0  0.65041273264E+01  0.15767325205E+01 -0.51951407856E+01  0.84722633200E+01  0.51100000000E-03 0. -1.
        -11    1    4    4    0    0  0.23586001398E+01 -0.12004316277E+02 -0.93472419048E+01  0.15396023363E+02  0.51100000000E-03 0.  1.
        -12    1    4    4    0    0 -0.65078621564E+01  0.40203365566E+01 -0.25539609811E+02  0.26660589738E+02  0.00000000000E+00 0.  1.
</event>
<event>
 8    1  0.9870402E-014  0.9118800E+02  0.7816164E-02  0.1184000E+00
        -11   -1    0    0    0    0  0.00000000000E+00  0.00000000000E+00  0.45593999997E+02  0.45594000000E+02  0.51100000000E-03 0. -1.
         11   -1    0    0    0    0 -0.00000000000E+00 -0.00000000000E+00 -0.45593999997E+02  0.45594000000E+02  0.51100000000E-03 0.  1.
         23    2    1    2    0    0 -0.35527136788E-14 -0.13322676296E-14  0.00000000000E+00  0.91188000000E+02  0.91188000000E+02 0.  0.
    9900012    2    3    3    0    0  0.16463416262E+02  0.96587775271E+00  0.37164345442E+02  0.50528861212E+02  0.30000004139E+02 0.  0.
        -12    1    3    3    0    0 -0.16463416262E+02 -0.96587775271E+00 -0.37164345442E+02  0.40659138788E+02  0.00000000000E+00 0.  1.
         11    1    4    4    0    0  0.91956067461E+01  0.53966105377E+01  0.26532570450E+01  0.10987372840E+02  0.51100000000E-03 0. -1.
        -11    1    4    4    0    0 -0.39856315868E+01  0.36821034361E+01  0.99293184702E+01  0.11315233555E+02  0.51100000000E-03 0.  1.
        -12    1    4    4    0    0  0.11253441103E+02 -0.81128362211E+01  0.24581769927E+02  0.28226254816E+02  0.00000000000E+00 0.  1.
</event>
<event>
 8    1  0.1338703E-013  0.9118800E+02  0.7816164E-02  0.1184000E+00
        -11   -1    0    0    0    0  0.00000000000E+00  0.00000000000E+00  0.45593999997E+02  0.45594000000E+02  0.51100000000E-03 0. -1.
         11   -1    0    0    0    0 -0.00000000000E+00 -0.00000000000E+00 -0.45593999997E+02  0.45594000000E+02  0.51100000000E-03 0.  1.
         23    2    1    2    0    0 -0.35527136788E-14  0.88817841970E-15 -0.35527136788E-14  0.91188000000E+02  0.91188000000E+02 0.  0.
    9900012    2    3    3    0    0 -0.28637120128E+02  0.66563993172E+01 -0.28085100843E+02  0.50528865842E+02  0.30000018214E+02 0.  0.
         12    1    3    3    0    0  0.28637120128E+02 -0.66563993172E+01  0.28085100843E+02  0.40659134158E+02  0.00000000000E+00 0. -1.
         11    1    4    4    0    0 -0.37915148155E+01  0.14690793380E+01  0.28595823958E+01  0.49710150309E+01  0.51100000000E-03 0. -1.
        -11    1    4    4    0    0 -0.21671854724E+02 -0.54340154556E+01 -0.20224158089E+02  0.30136595392E+02  0.51100000000E-03 0.  1.
         12    1    4    4    0    0 -0.31737505885E+01  0.10621335435E+02 -0.10720525150E+02  0.15421255419E+02  0.00000000000E+00 0. -1.
</event>
<event>
 8    1  0.9870402E-014  0.9118800E+02  0.7816164E-02  0.1184000E+00
        -11   -1    0    0    0    0  0.00000000000E+00  0.00000000000E+00  0.45593999997E+02  0.45594000000E+02  0.51100000000E-03 0. -1.
         11   -1    0    0    0    0 -0.00000000000E+00 -0.00000000000E+00 -0.45593999997E+02  0.45594000000E+02  0.51100000000E-03 0.  1.
         23    2    1    2    0    0 -0.88817841970E-15 -0.71054273576E-14  0.35527136788E-14  0.91188000000E+02  0.91188000000E+02 0.  0.
    9900012    2    3    3    0    0  0.60629111547E+01  0.36256794804E+02 -0.17373863158E+02  0.50528865944E+02  0.30000018524E+02 0.  0.
         12    1    3    3    0    0 -0.60629111547E+01 -0.36256794804E+02  0.17373863158E+02  0.40659134056E+02  0.00000000000E+00 0. -1.
         11    1    4    4    0    0 -0.43135801843E+01  0.10959053224E+02 -0.14254206452E+02  0.18490273752E+02  0.51100000000E-03 0. -1.
        -11    1    4    4    0    0  0.58659841403E+01  0.13501298927E+02 -0.98653343082E+01  0.17720599988E+02  0.51100000000E-03 0.  1.
         12    1    4    4    0    0  0.45105071987E+01  0.11796442653E+02  0.67456776025E+01  0.14317992205E+02  0.00000000000E+00 0. -1.
</event>
<event>
 8    1  0.9870402E-014  0.9118800E+02  0.7816164E-02  0.1184000E+00
        -11   -1    0    0    0    0  0.00000000000E+00  0.00000000000E+00  0.45593999997E+02  0.45594000000E+02  0.51100000000E-03 0. -1.
         11   -1    0    0    0    0 -0.00000000000E+00 -0.00000000000E+00 -0.45593999997E+02  0.45594000000E+02  0.51100000000E-03 0.  1.
         23    2    1    2    0    0  0.35527136788E-14 -0.17763568394E-14  0.00000000000E+00  0.91188000000E+02  0.91188000000E+02 0.  0.
    9900012    2    3    3    0    0 -0.26150875729E+02  0.13496208770E+02  0.28056182409E+02  0.50528864201E+02  0.30000013225E+02 0.  0.
        -12    1    3    3    0    0  0.26150875729E+02 -0.13496208770E+02 -0.28056182409E+02  0.40659135799E+02  0.00000000000E+00 0.  1.
         11    1    4    4    0    0 -0.10285971763E+02 -0.18023318027E+01  0.86473674628E+01  0.13558266088E+02  0.51100000000E-03 0. -1.
        -11    1    4    4    0    0 -0.17608578168E+02  0.19104528931E+02  0.19939071380E+02  0.32750749893E+02  0.51100000000E-03 0.  1.
        -12    1    4    4    0    0  0.17436742013E+01 -0.38059883588E+01 -0.53025643402E+00  0.42198482192E+01  0.00000000000E+00 0.  1.
</event>
<event>
 8    1  0.9870402E-014  0.9118800E+02  0.7816164E-02  0.1184000E+00
        -11   -1    0    0    0    0  0.00000000000E+00  0.00000000000E+00  0.45593999997E+02  0.45594000000E+02  0.51100000000E-03 0. -1.
         11   -1    0    0    0    0 -0.00000000000E+00 -0.00000000000E+00 -0.45593999997E+02  0.45594000000E+02  0.51100000000E-03 0.  1.
         23    2    1    2    0    0  0.00000000000E+00 -0.88817841970E-15  0.00000000000E+00  0.91188000000E+02  0.91188000000E+02 0.  0.
    9900012    2    3    3    0    0  0.13938711398E+02 -0.52617421105E+01 -0.37831100967E+02  0.50528858275E+02  0.29999995211E+02 0.  0.
         12    1    3    3    0    0 -0.13938711398E+02  0.52617421105E+01  0.37831100967E+02  0.40659141725E+02  0.00000000000E+00 0. -1.
         11    1    4    4    0    0 -0.12450016231E+01 -0.28281865219E+01  0.29311036954E+01  0.42591122523E+01  0.51100000000E-03 0. -1.
        -11    1    4    4    0    0  0.15156922361E+01 -0.64096069606E+01 -0.20312196391E+02  0.21353353526E+02  0.51100000000E-03 0.  1.
        -12    1    4    4    0    0  0.13668020785E+02  0.39760513719E+01 -0.20450008271E+02  0.24916392496E+02  0.00000000000E+00 0.  1.
</event>
<event>
 8    1  0.9870402E-014  0.9118800E+02  0.7816164E-02  0.1184000E+00
        -11   -1    0    0    0    0  0.00000000000E+00  0.00000000000E+00  0.45593999997E+02  0.45594000000E+02  0.51100000000E-03 0. -1.
         11   -1    0    0    0    0 -0.00000000000E+00 -0.00000000000E+00 -0.45593999997E+02  0.45594000000E+02  0.51100000000E-03 0.  1.
         23    2    1    2    0    0 -0.88817841970E-15 -0.17763568394E-14  0.71054273576E-14  0.91188000000E+02  0.91188000000E+02 0.  0.
    9900012    2    3    3    0    0 -0.70444927574E+01 -0.12830516846E+02  0.37933079644E+02  0.50528861151E+02  0.30000003953E+02 0.  0.
        -12    1    3    3    0    0  0.70444927574E+01  0.12830516846E+02 -0.37933079644E+02  0.40659138849E+02  0.00000000000E+00 0.  1.
         11    1    4    4    0    0 -0.10016374868E+01  0.35128641265E+01  0.99976550246E+01  0.10644087480E+02  0.51100000000E-03 0. -1.
        -11    1    4    4    0    0  0.23291365746E+01 -0.14262460112E+01 -0.32930271148E+01  0.42782102225E+01  0.51100000000E-03 0.  1.
         12    1    4    4    0    0 -0.83719918452E+01 -0.14917134961E+02  0.31228451734E+02  0.35606563448E+02  0.00000000000E+00 0. -1.
</event>
<event>
 8    1  0.9870402E-014  0.9118800E+02  0.7816164E-02  0.1184000E+00
        -11   -1    0    0    0    0  0.00000000000E+00  0.00000000000E+00  0.45593999997E+02  0.45594000000E+02  0.51100000000E-03 0. -1.
         11   -1    0    0    0    0 -0.00000000000E+00 -0.00000000000E+00 -0.45593999997E+02  0.45594000000E+02  0.51100000000E-03 0.  1.
         23    2    1    2    0    0  0.00000000000E+00  0.44408920985E-15  0.00000000000E+00  0.91188000000E+02  0.91188000000E+02 0.  0.
    9900012    2    3    3    0    0  0.90248697588E+01  0.20681825409E+01  0.39590906379E+02  0.50528861776E+02  0.30000005855E+02 0.  0.
        -12    1    3    3    0    0 -0.90248697588E+01 -0.20681825409E+01 -0.39590906379E+02  0.40659138224E+02  0.00000000000E+00 0.  1.
         11    1    4    4    0    0 -0.23294881864E+01  0.18432526910E+01 -0.13259478458E+00  0.29734958099E+01  0.51100000000E-03 0.  1.
        -11    1    4    4    0    0  0.18393483133E+02  0.27597975720E+01  0.29790763365E+02  0.35120169227E+02  0.51100000000E-03 0. -1.
         12    1    4    4    0    0 -0.70391251877E+01 -0.25348677220E+01  0.99327377987E+01  0.12435196740E+02  0.00000000000E+00 0. -1.
</event>
<event>
 8    1  0.9870402E-014  0.9118800E+02  0.7816164E-02  0.1184000E+00
        -11   -1    0    0    0    0  0.00000000000E+00  0.00000000000E+00  0.45593999997E+02  0.45594000000E+02  0.51100000000E-03 0. -1.
         11   -1    0    0    0    0 -0.00000000000E+00 -0.00000000000E+00 -0.45593999997E+02  0.45594000000E+02  0.51100000000E-03 0.  1.
         23    2    1    2    0    0  0.00000000000E+00 -0.88817841970E-15  0.35527136788E-14  0.91188000000E+02  0.91188000000E+02 0.  0.
    9900012    2    3    3    0    0 -0.31093260650E+02 -0.69423035328E+01  0.25262232760E+02  0.50528845555E+02  0.29999956548E+02 0.  0.
        -12    1    3    3    0    0  0.31093260650E+02  0.69423035328E+01 -0.25262232760E+02  0.40659154445E+02  0.00000000000E+00 0.  1.
         11    1    4    4    0    0 -0.75364822338E+01 -0.48455516056E+01  0.18579664549E+02  0.20627211878E+02  0.51100000000E-03 0. -1.
        -11    1    4    4    0    0  0.23506907179E+01 -0.42438815931E+00 -0.13272981732E+01  0.27326860161E+01  0.51100000000E-03 0.  1.
        -12    1    4    4    0    0 -0.25907469134E+02 -0.16723637678E+01  0.80098663837E+01  0.27168947661E+02  0.00000000000E+00 0.  1.
</event>
<event>
 8    1  0.9870402E-014  0.9118800E+02  0.7816164E-02  0.1184000E+00
        -11   -1    0    0    0    0  0.00000000000E+00  0.00000000000E+00  0.45593999997E+02  0.45594000000E+02  0.51100000000E-03 0. -1.
         11   -1    0    0    0    0 -0.00000000000E+00 -0.00000000000E+00 -0.45593999997E+02  0.45594000000E+02  0.51100000000E-03 0.  1.
         23    2    1    2    0    0 -0.17763568394E-14 -0.35527136788E-14  0.71054273576E-14  0.91188000000E+02  0.91188000000E+02 0.  0.
    9900012    2    3    3    0    0  0.10534077576E+02 -0.11424396423E+02  0.37572328159E+02  0.50528887033E+02  0.30000082624E+02 0.  0.
        -12    1    3    3    0    0 -0.10534077576E+02  0.11424396423E+02 -0.37572328159E+02  0.40659112967E+02  0.00000000000E+00 0.  1.
         11    1    4    4    0    0  0.11308976104E+02 -0.60027551244E+01  0.25548174473E+02  0.28576830278E+02  0.51100000000E-03 0. -1.
        -11    1    4    4    0    0  0.74123550233E+01 -0.67300236835E+01  0.56681413531E+01  0.11504957733E+02  0.51100000000E-03 0.  1.
         12    1    4    4    0    0 -0.81872535518E+01  0.13083823851E+01  0.63560123335E+01  0.10447099022E+02  0.00000000000E+00 0. -1.
</event>
<event>
 8    1  0.9870402E-014  0.9118800E+02  0.7816164E-02  0.1184000E+00
        -11   -1    0    0    0    0  0.00000000000E+00  0.00000000000E+00  0.45593999997E+02  0.45594000000E+02  0.51100000000E-03 0. -1.
         11   -1    0    0    0    0 -0.00000000000E+00 -0.00000000000E+00 -0.45593999997E+02  0.45594000000E+02  0.51100000000E-03 0.  1.
         23    2    1    2    0    0  0.00000000000E+00  0.00000000000E+00  0.00000000000E+00  0.91188000000E+02  0.91188000000E+02 0.  0.
    9900012    2    3    3    0    0  0.16351059401E+02  0.19165903522E+02  0.31913576091E+02  0.50528864000E+02  0.30000012615E+02 0.  0.
        -12    1    3    3    0    0 -0.16351059401E+02 -0.19165903522E+02 -0.31913576091E+02  0.40659136000E+02  0.00000000000E+00 0.  1.
         11    1    4    4    0    0 -0.21487650156E+01  0.14185018134E+02  0.19402305243E+02  0.24130507238E+02  0.51100000000E-03 0. -1.
        -11    1    4    4    0    0  0.15068726215E+01 -0.29653302721E+01  0.53887233119E+01  0.63326288311E+01  0.51100000000E-03 0.  1.
        -12    1    4    4    0    0  0.16992951795E+02  0.79462156601E+01  0.71225475363E+01  0.20065727931E+02  0.00000000000E+00 0.  1.
</event>
<event>
 8    1  0.9870402E-014  0.9118800E+02  0.7816164E-02  0.1184000E+00
        -11   -1    0    0    0    0  0.00000000000E+00  0.00000000000E+00  0.45593999997E+02  0.45594000000E+02  0.51100000000E-03 0. -1.
         11   -1    0    0    0    0 -0.00000000000E+00 -0.00000000000E+00 -0.45593999997E+02  0.45594000000E+02  0.51100000000E-03 0.  1.
         23    2    1    2    0    0 -0.44408920985E-15 -0.88817841970E-15  0.00000000000E+00  0.91188000000E+02  0.91188000000E+02 0.  0.
    9900012    2    3    3    0    0  0.21347670509E+01 -0.61635697005E+01 -0.40132514824E+02  0.50528861200E+02  0.30000004104E+02 0.  0.
         12    1    3    3    0    0 -0.21347670509E+01  0.61635697005E+01  0.40132514824E+02  0.40659138800E+02  0.00000000000E+00 0. -1.
         11    1    4    4    0    0 -0.49560944243E+00 -0.13861517842E+02 -0.22400555053E+02  0.26347147332E+02  0.51100000000E-03 0. -1.
        -11    1    4    4    0    0  0.34748789442E+01  0.16452377614E+00 -0.16042202864E+02  0.16415057866E+02  0.51100000000E-03 0.  1.
         12    1    4    4    0    0 -0.84450245087E+00  0.75334243650E+01 -0.16897569074E+01  0.77666560023E+01  0.00000000000E+00 0. -1.
</event>
<event>
 8    1  0.9870402E-014  0.9118800E+02  0.7816164E-02  0.1184000E+00
        -11   -1    0    0    0    0  0.00000000000E+00  0.00000000000E+00  0.45593999997E+02  0.45594000000E+02  0.51100000000E-03 0.  1.
         11   -1    0    0    0    0 -0.00000000000E+00 -0.00000000000E+00 -0.45593999997E+02  0.45594000000E+02  0.51100000000E-03 0. -1.
         23    2    1    2    0    0 -0.88817841970E-15  0.35527136788E-14  0.00000000000E+00  0.91188000000E+02  0.91188000000E+02 0.  0.
    9900012    2    3    3    0    0  0.53796932387E+01 -0.30542035411E+02  0.26294667168E+02  0.50528849149E+02  0.29999967474E+02 0.  0.
        -12    1    3    3    0    0 -0.53796932387E+01  0.30542035411E+02 -0.26294667168E+02  0.40659150851E+02  0.00000000000E+00 0.  1.
         11    1    4    4    0    0  0.54632119606E+01 -0.16320305103E+02  0.22913060778E+02  0.28656716456E+02  0.51100000000E-03 0. -1.
        -11    1    4    4    0    0  0.18274280933E+01 -0.27000635755E+01  0.85126429354E+01  0.91156418729E+01  0.51100000000E-03 0.  1.
         12    1    4    4    0    0 -0.19109468152E+01 -0.11521666732E+02 -0.51310365447E+01  0.12756490820E+02  0.00000000000E+00 0. -1.
</event>
<event>
 8    1  0.9870402E-014  0.9118800E+02  0.7816164E-02  0.1184000E+00
        -11   -1    0    0    0    0  0.00000000000E+00  0.00000000000E+00  0.45593999997E+02  0.45594000000E+02  0.51100000000E-03 0. -1.
         11   -1    0    0    0    0 -0.00000000000E+00 -0.00000000000E+00 -0.45593999997E+02  0.45594000000E+02  0.51100000000E-03 0.  1.
         23    2    1    2    0    0  0.00000000000E+00  0.00000000000E+00  0.35527136788E-14  0.91188000000E+02  0.91188000000E+02 0.  0.
    9900012    2    3    3    0    0  0.23879779097E+02 -0.17188635117E+02  0.28061951179E+02  0.50528854278E+02  0.29999983062E+02 0.  0.
        -12    1    3    3    0    0 -0.23879779097E+02  0.17188635117E+02 -0.28061951179E+02  0.40659145722E+02  0.00000000000E+00 0.  1.
         11    1    4    4    0    0  0.60371527227E+01 -0.12958502672E+02  0.11709413703E+02  0.18479187591E+02  0.51100000000E-03 0. -1.
        -11    1    4    4    0    0  0.74474954260E+01 -0.81308688721E+01 -0.13962321200E+01  0.11114210774E+02  0.51100000000E-03 0.  1.
         12    1    4    4    0    0  0.10395130948E+02  0.39007364266E+01  0.17748769596E+02  0.20935455913E+02  0.00000000000E+00 0. -1.
</event>
<event>
 8    1  0.9870402E-014  0.9118800E+02  0.7816164E-02  0.1184000E+00
        -11   -1    0    0    0    0  0.00000000000E+00  0.00000000000E+00  0.45593999997E+02  0.45594000000E+02  0.51100000000E-03 0. -1.
         11   -1    0    0    0    0 -0.00000000000E+00 -0.00000000000E+00 -0.45593999997E+02  0.45594000000E+02  0.51100000000E-03 0.  1.
         23    2    1    2    0    0 -0.17763568394E-14  0.88817841970E-15  0.00000000000E+00  0.91188000000E+02  0.91188000000E+02 0.  0.
    9900012    2    3    3    0    0 -0.14906175021E+02  0.56810327782E+01  0.37399143097E+02  0.50528879355E+02  0.30000059289E+02 0.  0.
        -12    1    3    3    0    0  0.14906175021E+02 -0.56810327782E+01 -0.37399143097E+02  0.40659120645E+02  0.00000000000E+00 0.  1.
         11    1    4    4    0    0 -0.69853496511E+01  0.60925103515E+01  0.15149251811E+02  0.17759888030E+02  0.51100000000E-03 0. -1.
        -11    1    4    4    0    0 -0.15128268856E+02 -0.12432197112E+01  0.89567529726E+01  0.17624798946E+02  0.51100000000E-03 0.  1.
        -12    1    4    4    0    0  0.72074434865E+01  0.83174213782E+00  0.13293138314E+02  0.15144192379E+02  0.00000000000E+00 0.  1.
</event>
<event>
 8    1  0.9870402E-014  0.9118800E+02  0.7816164E-02  0.1184000E+00
        -11   -1    0    0    0    0  0.00000000000E+00  0.00000000000E+00  0.45593999997E+02  0.45594000000E+02  0.51100000000E-03 0. -1.
         11   -1    0    0    0    0 -0.00000000000E+00 -0.00000000000E+00 -0.45593999997E+02  0.45594000000E+02  0.51100000000E-03 0.  1.
         23    2    1    2    0    0  0.35527136788E-14  0.00000000000E+00  0.00000000000E+00  0.91188000000E+02  0.91188000000E+02 0.  0.
    9900012    2    3    3    0    0 -0.20013196671E+02  0.14846581638E+02  0.32128128588E+02  0.50528859898E+02  0.30000000145E+02 0.  0.
        -12    1    3    3    0    0  0.20013196671E+02 -0.14846581638E+02 -0.32128128588E+02  0.40659140102E+02  0.00000000000E+00 0.  1.
         11    1    4    4    0    0 -0.10051370084E+02  0.17304069889E+02  0.11527369618E+02  0.23094179480E+02  0.51100000000E-03 0.  1.
        -11    1    4    4    0    0 -0.12796697376E+02  0.17040608561E+01  0.13030045513E+02  0.18342338277E+02  0.51100000000E-03 0. -1.
        -12    1    4    4    0    0  0.28348707895E+01 -0.41615491066E+01  0.75707134565E+01  0.90923421405E+01  0.00000000000E+00 0.  1.
</event>
<event>
 8    1  0.9870402E-014  0.9118800E+02  0.7816164E-02  0.1184000E+00
        -11   -1    0    0    0    0  0.00000000000E+00  0.00000000000E+00  0.45593999997E+02  0.45594000000E+02  0.51100000000E-03 0. -1.
         11   -1    0    0    0    0 -0.00000000000E+00 -0.00000000000E+00 -0.45593999997E+02  0.45594000000E+02  0.51100000000E-03 0.  1.
         23    2    1    2    0    0 -0.17763568394E-14 -0.35527136788E-14  0.00000000000E+00  0.91188000000E+02  0.91188000000E+02 0.  0.
    9900012    2    3    3    0    0 -0.13295984460E+02 -0.30831833210E+02 -0.22929895103E+02  0.50528865340E+02  0.30000016688E+02 0.  0.
         12    1    3    3    0    0  0.13295984460E+02  0.30831833210E+02  0.22929895103E+02  0.40659134660E+02  0.00000000000E+00 0. -1.
         11    1    4    4    0    0 -0.46766502455E+01 -0.52482679843E+01  0.18519076897E+01  0.72694522975E+01  0.51100000000E-03 0. -1.
        -11    1    4    4    0    0 -0.11603951005E+02 -0.25155067340E+02 -0.12109926570E+02  0.30233746271E+02  0.51100000000E-03 0.  1.
         12    1    4    4    0    0  0.29846167907E+01 -0.42849788560E+00 -0.12671876223E+02  0.13025666771E+02  0.00000000000E+00 0. -1.
</event>
<event>
 8    1  0.9870402E-014  0.9118800E+02  0.7816164E-02  0.1184000E+00
        -11   -1    0    0    0    0  0.00000000000E+00  0.00000000000E+00  0.45593999997E+02  0.45594000000E+02  0.51100000000E-03 0. -1.
         11   -1    0    0    0    0 -0.00000000000E+00 -0.00000000000E+00 -0.45593999997E+02  0.45594000000E+02  0.51100000000E-03 0.  1.
         23    2    1    2    0    0  0.00000000000E+00  0.35527136788E-14  0.00000000000E+00  0.91188000000E+02  0.91188000000E+02 0.  0.
    9900012    2    3    3    0    0 -0.15477733082E+02 -0.27215729660E+02  0.25940488589E+02  0.50528866825E+02  0.30000021202E+02 0.  0.
        -12    1    3    3    0    0  0.15477733082E+02  0.27215729660E+02 -0.25940488589E+02  0.40659133175E+02  0.00000000000E+00 0.  1.
         11    1    4    4    0    0  0.31162976769E+01 -0.15517467531E+00 -0.85799627011E+00  0.32359771711E+01  0.51100000000E-03 0. -1.
        -11    1    4    4    0    0 -0.71574997603E+01 -0.25155158168E+02  0.12804321562E+02  0.29119794577E+02  0.51100000000E-03 0.  1.
         12    1    4    4    0    0 -0.11436530999E+02 -0.19053968173E+01  0.13994163297E+02  0.18173095077E+02  0.00000000000E+00 0. -1.
</event>
<event>
 8    1  0.9870402E-014  0.9118800E+02  0.7816164E-02  0.1184000E+00
        -11   -1    0    0    0    0  0.00000000000E+00  0.00000000000E+00  0.45593999997E+02  0.45594000000E+02  0.51100000000E-03 0. -1.
         11   -1    0    0    0    0 -0.00000000000E+00 -0.00000000000E+00 -0.45593999997E+02  0.45594000000E+02  0.51100000000E-03 0.  1.
         23    2    1    2    0    0  0.00000000000E+00  0.00000000000E+00  0.00000000000E+00  0.91188000000E+02  0.91188000000E+02 0.  0.
    9900012    2    3    3    0    0 -0.34302975507E+02  0.90371551249E+01 -0.19869612417E+02  0.50528858359E+02  0.29999995469E+02 0.  0.
         12    1    3    3    0    0  0.34302975507E+02 -0.90371551249E+01  0.19869612417E+02  0.40659141641E+02  0.00000000000E+00 0. -1.
         11    1    4    4    0    0 -0.10348908090E+02  0.53743494028E+01 -0.16359020964E+02  0.20089825717E+02  0.51100000000E-03 0. -1.
        -11    1    4    4    0    0 -0.92364288679E+01  0.10271761945E+02 -0.37139240761E+01  0.14304333049E+02  0.51100000000E-03 0.  1.
        -12    1    4    4    0    0 -0.14717638549E+02 -0.66089562228E+01  0.20333262322E+00  0.16134699593E+02  0.00000000000E+00 0.  1.
</event>
<event>
 8    1  0.9870402E-014  0.9118800E+02  0.7816164E-02  0.1184000E+00
        -11   -1    0    0    0    0  0.00000000000E+00  0.00000000000E+00  0.45593999997E+02  0.45594000000E+02  0.51100000000E-03 0. -1.
         11   -1    0    0    0    0 -0.00000000000E+00 -0.00000000000E+00 -0.45593999997E+02  0.45594000000E+02  0.51100000000E-03 0.  1.
         23    2    1    2    0    0  0.00000000000E+00 -0.35527136788E-14  0.00000000000E+00  0.91188000000E+02  0.91188000000E+02 0.  0.
    9900012    2    3    3    0    0  0.12009824413E+02  0.15038620397E+02 -0.35815754694E+02  0.50528877159E+02  0.30000052614E+02 0.  0.
         12    1    3    3    0    0 -0.12009824413E+02 -0.15038620397E+02  0.35815754694E+02  0.40659122841E+02  0.00000000000E+00 0. -1.
         11    1    4    4    0    0 -0.48744803180E+00 -0.49369960664E+01 -0.10401874351E+02  0.11524344928E+02  0.51100000000E-03 0.  1.
        -11    1    4    4    0    0  0.10720789841E+02  0.18677212871E+02 -0.10553786344E+02  0.23982410678E+02  0.51100000000E-03 0. -1.
         12    1    4    4    0    0  0.17764826036E+01  0.12984035927E+01 -0.14860093999E+02  0.15022121554E+02  0.00000000000E+00 0. -1.
</event>
<event>
 8    1  0.9870402E-014  0.9118800E+02  0.7816164E-02  0.1184000E+00
        -11   -1    0    0    0    0  0.00000000000E+00  0.00000000000E+00  0.45593999997E+02  0.45594000000E+02  0.51100000000E-03 0. -1.
         11   -1    0    0    0    0 -0.00000000000E+00 -0.00000000000E+00 -0.45593999997E+02  0.45594000000E+02  0.51100000000E-03 0.  1.
         23    2    1    2    0    0  0.00000000000E+00  0.00000000000E+00 -0.35527136788E-14  0.91188000000E+02  0.91188000000E+02 0.  0.
    9900012    2    3    3    0    0 -0.47349940996E+01  0.28898236143E+02  0.28207049895E+02  0.50528857301E+02  0.29999992251E+02 0.  0.
        -12    1    3    3    0    0  0.47349940996E+01 -0.28898236143E+02 -0.28207049895E+02  0.40659142699E+02  0.00000000000E+00 0.  1.
         11    1    4    4    0    0  0.29623057148E+01  0.62616001512E+01  0.14999733000E+02  0.16521951517E+02  0.51100000000E-03 0. -1.
        -11    1    4    4    0    0  0.42423201111E+01  0.20730178607E+01  0.85638324237E+01  0.97792591242E+01  0.51100000000E-03 0.  1.
         12    1    4    4    0    0 -0.11939619926E+02  0.20563618131E+02  0.46434844706E+01  0.24227646659E+02  0.00000000000E+00 0. -1.
</event>
<event>
 8    1  0.1265022E-013  0.9118800E+02  0.7816164E-02  0.1184000E+00
        -11   -1    0    0    0    0  0.00000000000E+00  0.00000000000E+00  0.45593999997E+02  0.45594000000E+02  0.51100000000E-03 0. -1.
         11   -1    0    0    0    0 -0.00000000000E+00 -0.00000000000E+00 -0.45593999997E+02  0.45594000000E+02  0.51100000000E-03 0.  1.
         23    2    1    2    0    0  0.00000000000E+00  0.35527136788E-14  0.00000000000E+00  0.91188000000E+02  0.91188000000E+02 0.  0.
    9900012    2    3    3    0    0 -0.83066738335E+01  0.21719890754E+02 -0.33352827371E+02  0.50528861075E+02  0.30000003722E+02 0.  0.
         12    1    3    3    0    0  0.83066738335E+01 -0.21719890754E+02  0.33352827371E+02  0.40659138925E+02  0.00000000000E+00 0. -1.
         11    1    4    4    0    0 -0.89171018798E+01  0.11189666564E+02 -0.15129207001E+02  0.20823454288E+02  0.51100000000E-03 0. -1.
        -11    1    4    4    0    0  0.16562467446E+01  0.16640607357E+02 -0.15928928772E+02  0.23095102047E+02  0.51100000000E-03 0.  1.
         12    1    4    4    0    0 -0.10458186983E+01 -0.61103831682E+01 -0.22946915987E+01  0.66103047392E+01  0.00000000000E+00 0. -1.
</event>
<event>
 8    1  0.9870402E-014  0.9118800E+02  0.7816164E-02  0.1184000E+00
        -11   -1    0    0    0    0  0.00000000000E+00  0.00000000000E+00  0.45593999997E+02  0.45594000000E+02  0.51100000000E-03 0.  1.
         11   -1    0    0    0    0 -0.00000000000E+00 -0.00000000000E+00 -0.45593999997E+02  0.45594000000E+02  0.51100000000E-03 0. -1.
         23    2    1    2    0    0  0.00000000000E+00  0.00000000000E+00  0.88817841970E-15  0.91188000000E+02  0.91188000000E+02 0.  0.
    9900012    2    3    3    0    0  0.29628893696E+02 -0.27822239557E+02 -0.11033027348E+01  0.50528860406E+02  0.30000001691E+02 0.  0.
        -12    1    3    3    0    0 -0.29628893696E+02  0.27822239557E+02  0.11033027348E+01  0.40659139594E+02  0.00000000000E+00 0.  1.
         11    1    4    4    0    0  0.59814639922E+00 -0.14996782131E+01 -0.56713555055E+00  0.17112734590E+01  0.51100000000E-03 0. -1.
        -11    1    4    4    0    0 -0.17835054234E+01 -0.36541534898E+01  0.85778356892E+01  0.94927864557E+01  0.51100000000E-03 0.  1.
         12    1    4    4    0    0  0.30814252720E+02 -0.22668407854E+02 -0.91140028734E+01  0.39324800491E+02  0.00000000000E+00 0. -1.
</event>
<event>
 8    1  0.9870402E-014  0.9118800E+02  0.7816164E-02  0.1184000E+00
        -11   -1    0    0    0    0  0.00000000000E+00  0.00000000000E+00  0.45593999997E+02  0.45594000000E+02  0.51100000000E-03 0. -1.
         11   -1    0    0    0    0 -0.00000000000E+00 -0.00000000000E+00 -0.45593999997E+02  0.45594000000E+02  0.51100000000E-03 0.  1.
         23    2    1    2    0    0  0.17763568394E-14  0.96450625264E-15  0.00000000000E+00  0.91188000000E+02  0.91188000000E+02 0.  0.
    9900012    2    3    3    0    0 -0.11929466589E+02 -0.40062230339E-01  0.38869677148E+02  0.50528861056E+02  0.30000003666E+02 0.  0.
        -12    1    3    3    0    0  0.11929466589E+02  0.40062230339E-01 -0.38869677148E+02  0.40659138944E+02  0.00000000000E+00 0.  1.
         11    1    4    4    0    0 -0.72291749197E+01 -0.13934074316E+01  0.13112500296E+02  0.15037959255E+02  0.51100000000E-03 0. -1.
        -11    1    4    4    0    0 -0.13316174694E+02  0.57342852511E+01  0.12905857822E+02  0.19410401908E+02  0.51100000000E-03 0.  1.
         12    1    4    4    0    0  0.86158830245E+01 -0.43809400499E+01  0.12851319030E+02  0.16080499893E+02  0.00000000000E+00 0. -1.
</event>
<event>
 8    1  0.9870402E-014  0.9118800E+02  0.7816164E-02  0.1184000E+00
        -11   -1    0    0    0    0  0.00000000000E+00  0.00000000000E+00  0.45593999997E+02  0.45594000000E+02  0.51100000000E-03 0. -1.
         11   -1    0    0    0    0 -0.00000000000E+00 -0.00000000000E+00 -0.45593999997E+02  0.45594000000E+02  0.51100000000E-03 0.  1.
         23    2    1    2    0    0  0.44408920985E-15  0.17763568394E-14 -0.71054273576E-14  0.91188000000E+02  0.91188000000E+02 0.  0.
    9900012    2    3    3    0    0 -0.15230709859E+01 -0.13702481766E+02  0.38250339050E+02  0.50528853560E+02  0.29999980882E+02 0.  0.
        -12    1    3    3    0    0  0.15230709859E+01  0.13702481766E+02 -0.38250339050E+02  0.40659146440E+02  0.00000000000E+00 0.  1.
         11    1    4    4    0    0 -0.16485488076E+01 -0.64520569782E+01  0.22718641782E+02  0.23674531402E+02  0.51100000000E-03 0. -1.
        -11    1    4    4    0    0 -0.10719600654E+01  0.45723532053E+01  0.14128395336E+02  0.14888487742E+02  0.51100000000E-03 0.  1.
         12    1    4    4    0    0  0.11974378871E+01 -0.11822777993E+02  0.14033019316E+01  0.11965834416E+02  0.00000000000E+00 0. -1.
</event>
<event>
 8    1  0.9870402E-014  0.9118800E+02  0.7816164E-02  0.1184000E+00
        -11   -1    0    0    0    0  0.00000000000E+00  0.00000000000E+00  0.45593999997E+02  0.45594000000E+02  0.51100000000E-03 0. -1.
         11   -1    0    0    0    0 -0.00000000000E+00 -0.00000000000E+00 -0.45593999997E+02  0.45594000000E+02  0.51100000000E-03 0.  1.
         23    2    1    2    0    0  0.17763568394E-14  0.17763568394E-14  0.71054273576E-14  0.91188000000E+02  0.91188000000E+02 0.  0.
    9900012    2    3    3    0    0 -0.90789685188E+01 -0.11223976414E+02 -0.38010005688E+02  0.50528857753E+02  0.29999993625E+02 0.  0.
         12    1    3    3    0    0  0.90789685188E+01  0.11223976414E+02  0.38010005688E+02  0.40659142247E+02  0.00000000000E+00 0. -1.
         11    1    4    4    0    0  0.78900130184E+01 -0.97613194460E-01 -0.79477448584E+01  0.11199485808E+02  0.51100000000E-03 0. -1.
        -11    1    4    4    0    0 -0.44610826819E+01  0.23160210254E+01 -0.12763983995E+01  0.51859816062E+01  0.51100000000E-03 0.  1.
        -12    1    4    4    0    0 -0.12507898855E+02 -0.13442384245E+02 -0.28785862430E+02  0.34143390338E+02  0.00000000000E+00 0.  1.
</event>
<event>
 8    1  0.9870402E-014  0.9118800E+02  0.7816164E-02  0.1184000E+00
        -11   -1    0    0    0    0  0.00000000000E+00  0.00000000000E+00  0.45593999997E+02  0.45594000000E+02  0.51100000000E-03 0. -1.
         11   -1    0    0    0    0 -0.00000000000E+00 -0.00000000000E+00 -0.45593999997E+02  0.45594000000E+02  0.51100000000E-03 0.  1.
         23    2    1    2    0    0  0.00000000000E+00 -0.35527136788E-14  0.00000000000E+00  0.91188000000E+02  0.91188000000E+02 0.  0.
    9900012    2    3    3    0    0  0.10739887165E+02 -0.21109536426E+02 -0.33048581101E+02  0.50528850756E+02  0.29999972359E+02 0.  0.
         12    1    3    3    0    0 -0.10739887165E+02  0.21109536426E+02  0.33048581101E+02  0.40659149244E+02  0.00000000000E+00 0. -1.
         11    1    4    4    0    0  0.33646139084E+01 -0.20125155343E+01 -0.15735725031E+02  0.16216777979E+02  0.51100000000E-03 0. -1.
        -11    1    4    4    0    0 -0.31628029530E+01  0.29372344538E+01  0.97467446259E-01  0.43174261917E+01  0.51100000000E-03 0.  1.
        -12    1    4    4    0    0  0.10538076210E+02 -0.22034255345E+02 -0.17410323516E+02  0.29994646585E+02  0.00000000000E+00 0.  1.
</event>
<event>
 8    1  0.9870402E-014  0.9118800E+02  0.7816164E-02  0.1184000E+00
        -11   -1    0    0    0    0  0.00000000000E+00  0.00000000000E+00  0.45593999997E+02  0.45594000000E+02  0.51100000000E-03 0. -1.
         11   -1    0    0    0    0 -0.00000000000E+00 -0.00000000000E+00 -0.45593999997E+02  0.45594000000E+02  0.51100000000E-03 0.  1.
         23    2    1    2    0    0  0.00000000000E+00 -0.35527136788E-14  0.00000000000E+00  0.91188000000E+02  0.91188000000E+02 0.  0.
    9900012    2    3    3    0    0  0.12229719856E+02  0.30740989432E+02  0.23634553954E+02  0.50528848267E+02  0.29999964793E+02 0.  0.
        -12    1    3    3    0    0 -0.12229719856E+02 -0.30740989432E+02 -0.23634553954E+02  0.40659151733E+02  0.00000000000E+00 0.  1.
         11    1    4    4    0    0  0.67895984181E+01  0.41753516537E+01  0.13869381013E+01  0.80904762325E+01  0.51100000000E-03 0. -1.
        -11    1    4    4    0    0 -0.70433751489E+01  0.54614990950E+00  0.63021997185E+01  0.94670552320E+01  0.51100000000E-03 0.  1.
         12    1    4    4    0    0  0.12483496587E+02  0.26019487869E+02  0.15945416134E+02  0.32971316803E+02  0.00000000000E+00 0. -1.
</event>
<event>
 8    1  0.9870402E-014  0.9118800E+02  0.7816164E-02  0.1184000E+00
        -11   -1    0    0    0    0  0.00000000000E+00  0.00000000000E+00  0.45593999997E+02  0.45594000000E+02  0.51100000000E-03 0. -1.
         11   -1    0    0    0    0 -0.00000000000E+00 -0.00000000000E+00 -0.45593999997E+02  0.45594000000E+02  0.51100000000E-03 0.  1.
         23    2    1    2    0    0  0.00000000000E+00  0.00000000000E+00  0.17763568394E-14  0.91188000000E+02  0.91188000000E+02 0.  0.
    9900012    2    3    3    0    0 -0.30457531067E+02 -0.21933581280E+02 -0.15633993095E+02  0.50528869088E+02  0.30000028078E+02 0.  0.
         12    1    3    3    0    0  0.30457531067E+02  0.21933581280E+02  0.15633993095E+02  0.40659130912E+02  0.00000000000E+00 0. -1.
         11    1    4    4    0    0  0.40786676841E+01  0.21527428499E+01 -0.34262345510E+01  0.57453385727E+01  0.51100000000E-03 0. -1.
        -11    1    4    4    0    0 -0.12498895315E+02 -0.52030982614E+01 -0.71984329783E+01  0.15333364054E+02  0.51100000000E-03 0.  1.
        -12    1    4    4    0    0 -0.22037303436E+02 -0.18883225869E+02 -0.50093255659E+01  0.29450166461E+02  0.00000000000E+00 0.  1.
</event>
<event>
 8    1  0.9870402E-014  0.9118800E+02  0.7816164E-02  0.1184000E+00
        -11   -1    0    0    0    0  0.00000000000E+00  0.00000000000E+00  0.45593999997E+02  0.45594000000E+02  0.51100000000E-03 0. -1.
         11   -1    0    0    0    0 -0.00000000000E+00 -0.00000000000E+00 -0.45593999997E+02  0.45594000000E+02  0.51100000000E-03 0.  1.
         23    2    1    2    0    0  0.88817841970E-15  0.71054273576E-14  0.17763568394E-14  0.91188000000E+02  0.91188000000E+02 0.  0.
    9900012    2    3    3    0    0 -0.26719005695E+01 -0.39383387642E+02 -0.97455224278E+01  0.50528862255E+02  0.30000007310E+02 0.  0.
         12    1    3    3    0    0  0.26719005695E+01  0.39383387642E+02  0.97455224278E+01  0.40659137745E+02  0.00000000000E+00 0. -1.
         11    1    4    4    0    0  0.66610182250E+01 -0.56012638976E+01  0.24153204299E+01  0.90320038798E+01  0.51100000000E-03 0. -1.
        -11    1    4    4    0    0 -0.13354736272E+02 -0.16659522431E+02 -0.26895572023E+01  0.21520278500E+02  0.51100000000E-03 0.  1.
        -12    1    4    4    0    0  0.40218174770E+01 -0.17122601313E+02 -0.94712856554E+01  0.19976579875E+02  0.00000000000E+00 0.  1.
</event>
<event>
 8    1  0.9870402E-014  0.9118800E+02  0.7816164E-02  0.1184000E+00
        -11   -1    0    0    0    0  0.00000000000E+00  0.00000000000E+00  0.45593999997E+02  0.45594000000E+02  0.51100000000E-03 0. -1.
         11   -1    0    0    0    0 -0.00000000000E+00 -0.00000000000E+00 -0.45593999997E+02  0.45594000000E+02  0.51100000000E-03 0.  1.
         23    2    1    2    0    0  0.00000000000E+00  0.00000000000E+00  0.35527136788E-14  0.91188000000E+02  0.91188000000E+02 0.  0.
    9900012    2    3    3    0    0 -0.22076793915E+02 -0.22330173397E+02 -0.25829184903E+02  0.50528828018E+02  0.29999903243E+02 0.  0.
         12    1    3    3    0    0  0.22076793915E+02  0.22330173397E+02  0.25829184903E+02  0.40659171982E+02  0.00000000000E+00 0. -1.
         11    1    4    4    0    0 -0.27861549727E+01  0.23971377268E+01 -0.14275980837E+02  0.14741524953E+02  0.51100000000E-03 0. -1.
        -11    1    4    4    0    0 -0.84009222633E+01 -0.15253725013E+02 -0.12322563168E+02  0.21333006936E+02  0.51100000000E-03 0.  1.
         12    1    4    4    0    0 -0.10889716679E+02 -0.94735861116E+01  0.76935910184E+00  0.14454296129E+02  0.00000000000E+00 0. -1.
</event>
<event>
 8    1  0.9870402E-014  0.9118800E+02  0.7816164E-02  0.1184000E+00
        -11   -1    0    0    0    0  0.00000000000E+00  0.00000000000E+00  0.45593999997E+02  0.45594000000E+02  0.51100000000E-03 0. -1.
         11   -1    0    0    0    0 -0.00000000000E+00 -0.00000000000E+00 -0.45593999997E+02  0.45594000000E+02  0.51100000000E-03 0.  1.
         23    2    1    2    0    0  0.00000000000E+00 -0.19984014443E-14  0.00000000000E+00  0.91188000000E+02  0.91188000000E+02 0.  0.
    9900012    2    3    3    0    0 -0.29972992979E+02 -0.17395215411E+01  0.27418228594E+02  0.50528862005E+02  0.30000006550E+02 0.  0.
        -12    1    3    3    0    0  0.29972992979E+02  0.17395215411E+01 -0.27418228594E+02  0.40659137995E+02  0.00000000000E+00 0.  1.
         11    1    4    4    0    0 -0.20130979865E+02  0.46216001529E+01  0.99498291735E+01  0.22926287077E+02  0.51100000000E-03 0. -1.
        -11    1    4    4    0    0  0.33303057608E+01  0.35633577776E+01  0.41444195927E+01  0.64003647656E+01  0.51100000000E-03 0.  1.
         12    1    4    4    0    0 -0.13172318874E+02 -0.99244794716E+01  0.13323979828E+02  0.21202210162E+02  0.00000000000E+00 0. -1.
</event>
<event>
 8    1  0.9870402E-014  0.9118800E+02  0.7816164E-02  0.1184000E+00
        -11   -1    0    0    0    0  0.00000000000E+00  0.00000000000E+00  0.45593999997E+02  0.45594000000E+02  0.51100000000E-03 0. -1.
         11   -1    0    0    0    0 -0.00000000000E+00 -0.00000000000E+00 -0.45593999997E+02  0.45594000000E+02  0.51100000000E-03 0.  1.
         23    2    1    2    0    0  0.35527136788E-14  0.00000000000E+00 -0.35527136788E-14  0.91188000000E+02  0.91188000000E+02 0.  0.
    9900012    2    3    3    0    0  0.20011999123E+02 -0.20628889938E+02 -0.28759948205E+02  0.50528857981E+02  0.29999994319E+02 0.  0.
         12    1    3    3    0    0 -0.20011999123E+02  0.20628889938E+02  0.28759948205E+02  0.40659142019E+02  0.00000000000E+00 0. -1.
         11    1    4    4    0    0  0.42796840995E+01 -0.15318248187E+01 -0.10388340143E+02  0.11339303085E+02  0.51100000000E-03 0. -1.
        -11    1    4    4    0    0  0.14650351317E+02 -0.15605547650E+02 -0.24201115716E+02  0.32308820983E+02  0.51100000000E-03 0.  1.
         12    1    4    4    0    0  0.10819637066E+01 -0.34915174693E+01  0.58295076534E+01  0.68807339130E+01  0.00000000000E+00 0. -1.
</event>
<event>
 8    1  0.9870402E-014  0.9118800E+02  0.7816164E-02  0.1184000E+00
        -11   -1    0    0    0    0  0.00000000000E+00  0.00000000000E+00  0.45593999997E+02  0.45594000000E+02  0.51100000000E-03 0.  1.
         11   -1    0    0    0    0 -0.00000000000E+00 -0.00000000000E+00 -0.45593999997E+02  0.45594000000E+02  0.51100000000E-03 0. -1.
         23    2    1    2    0    0  0.88817841970E-15  0.71054273576E-14  0.00000000000E+00  0.91188000000E+02  0.91188000000E+02 0.  0.
    9900012    2    3    3    0    0 -0.80336446757E+00 -0.36748844847E+02  0.17379382507E+02  0.50528856767E+02  0.29999990630E+02 0.  0.
        -12    1    3    3    0    0  0.80336446757E+00  0.36748844847E+02 -0.17379382507E+02  0.40659143233E+02  0.00000000000E+00 0.  1.
         11    1    4    4    0    0 -0.51335207641E+01 -0.18155447242E+02  0.90256242299E+01  0.20914951422E+02  0.51100000000E-03 0. -1.
        -11    1    4    4    0    0 -0.26335232446E+01 -0.52780630309E+01  0.12673520130E+02  0.13978966585E+02  0.51100000000E-03 0.  1.
         12    1    4    4    0    0  0.69636795411E+01 -0.13315334575E+02 -0.43197618525E+01  0.15634938761E+02  0.00000000000E+00 0. -1.
</event>
<event>
 8    1  0.9870402E-014  0.9118800E+02  0.7816164E-02  0.1184000E+00
        -11   -1    0    0    0    0  0.00000000000E+00  0.00000000000E+00  0.45593999997E+02  0.45594000000E+02  0.51100000000E-03 0. -1.
         11   -1    0    0    0    0 -0.00000000000E+00 -0.00000000000E+00 -0.45593999997E+02  0.45594000000E+02  0.51100000000E-03 0.  1.
         23    2    1    2    0    0  0.71054273576E-14 -0.35527136788E-14  0.00000000000E+00  0.91188000000E+02  0.91188000000E+02 0.  0.
    9900012    2    3    3    0    0 -0.32686412614E+02 -0.23459685307E+02  0.58657083701E+01  0.50528868935E+02  0.30000027614E+02 0.  0.
        -12    1    3    3    0    0  0.32686412614E+02  0.23459685307E+02 -0.58657083701E+01  0.40659131065E+02  0.00000000000E+00 0.  1.
         11    1    4    4    0    0 -0.14111230024E+02 -0.20456308838E+02 -0.46335831908E+01  0.25279586181E+02  0.51100000000E-03 0. -1.
        -11    1    4    4    0    0 -0.63860697161E+01 -0.57903618696E+01  0.93117889882E+01  0.12689349527E+02  0.51100000000E-03 0.  1.
        -12    1    4    4    0    0 -0.12189112875E+02  0.27869854005E+01  0.11875025727E+01  0.12559933226E+02  0.00000000000E+00 0.  1.
</event>
<event>
 8    1  0.9870402E-014  0.9118800E+02  0.7816164E-02  0.1184000E+00
        -11   -1    0    0    0    0  0.00000000000E+00  0.00000000000E+00  0.45593999997E+02  0.45594000000E+02  0.51100000000E-03 0. -1.
         11   -1    0    0    0    0 -0.00000000000E+00 -0.00000000000E+00 -0.45593999997E+02  0.45594000000E+02  0.51100000000E-03 0.  1.
         23    2    1    2    0    0  0.88817841970E-15  0.00000000000E+00 -0.35527136788E-14  0.91188000000E+02  0.91188000000E+02 0.  0.
    9900012    2    3    3    0    0  0.58365654825E+00  0.35340783483E+02  0.20096110413E+02  0.50528864668E+02  0.30000014645E+02 0.  0.
        -12    1    3    3    0    0 -0.58365654825E+00 -0.35340783483E+02 -0.20096110413E+02  0.40659135332E+02  0.00000000000E+00 0.  1.
         11    1    4    4    0    0  0.54705108188E+00  0.33227507838E+01  0.71582914798E+01  0.79108201110E+01  0.51100000000E-03 0. -1.
        -11    1    4    4    0    0 -0.91958176919E+01  0.25997551377E+01  0.12213189095E+01  0.96339716597E+01  0.51100000000E-03 0.  1.
         12    1    4    4    0    0  0.92324231583E+01  0.29418277562E+02  0.11716500024E+02  0.32984072897E+02  0.00000000000E+00 0. -1.
</event>
<event>
 8    1  0.9870402E-014  0.9118800E+02  0.7816164E-02  0.1184000E+00
        -11   -1    0    0    0    0  0.00000000000E+00  0.00000000000E+00  0.45593999997E+02  0.45594000000E+02  0.51100000000E-03 0. -1.
         11   -1    0    0    0    0 -0.00000000000E+00 -0.00000000000E+00 -0.45593999997E+02  0.45594000000E+02  0.51100000000E-03 0.  1.
         23    2    1    2    0    0 -0.35527136788E-14  0.19428902931E-15  0.00000000000E+00  0.91188000000E+02  0.91188000000E+02 0.  0.
    9900012    2    3    3    0    0  0.17561810821E+02 -0.12830796569E+00  0.36670608775E+02  0.50528841005E+02  0.29999942718E+02 0.  0.
        -12    1    3    3    0    0 -0.17561810821E+02  0.12830796569E+00 -0.36670608775E+02  0.40659158995E+02  0.00000000000E+00 0.  1.
         11    1    4    4    0    0  0.12346527690E+02 -0.57409136514E+01  0.12125623378E+02  0.18232541735E+02  0.51100000000E-03 0. -1.
        -11    1    4    4    0    0 -0.46422195533E+01 -0.45088569048E+01  0.49926554374E+01  0.81735305435E+01  0.51100000000E-03 0.  1.
        -12    1    4    4    0    0  0.98575026845E+01  0.10121462590E+02  0.19552329960E+02  0.24122768726E+02  0.00000000000E+00 0.  1.
</event>
<event>
 8    1  0.9870402E-014  0.9118800E+02  0.7816164E-02  0.1184000E+00
        -11   -1    0    0    0    0  0.00000000000E+00  0.00000000000E+00  0.45593999997E+02  0.45594000000E+02  0.51100000000E-03 0. -1.
         11   -1    0    0    0    0 -0.00000000000E+00 -0.00000000000E+00 -0.45593999997E+02  0.45594000000E+02  0.51100000000E-03 0.  1.
         23    2    1    2    0    0  0.00000000000E+00  0.35527136788E-14  0.00000000000E+00  0.91188000000E+02  0.91188000000E+02 0.  0.
    9900012    2    3    3    0    0  0.68177664136E+01 -0.80309959032E+01 -0.39270686008E+02  0.50528860638E+02  0.30000002396E+02 0.  0.
         12    1    3    3    0    0 -0.68177664136E+01  0.80309959032E+01  0.39270686008E+02  0.40659139362E+02  0.00000000000E+00 0. -1.
         11    1    4    4    0    0  0.37025646037E+01 -0.53648924808E+01  0.20329225319E+01  0.68281644867E+01  0.51100000000E-03 0. -1.
        -11    1    4    4    0    0 -0.18064606840E+01 -0.70801781438E+01 -0.16786816469E+02  0.18308179324E+02  0.51100000000E-03 0.  1.
         12    1    4    4    0    0  0.49216624939E+01  0.44140747214E+01 -0.24516792072E+02  0.25392516828E+02  0.00000000000E+00 0. -1.
</event>
<event>
 8    1  0.9870402E-014  0.9118800E+02  0.7816164E-02  0.1184000E+00
        -11   -1    0    0    0    0  0.00000000000E+00  0.00000000000E+00  0.45593999997E+02  0.45594000000E+02  0.51100000000E-03 0. -1.
         11   -1    0    0    0    0 -0.00000000000E+00 -0.00000000000E+00 -0.45593999997E+02  0.45594000000E+02  0.51100000000E-03 0.  1.
         23    2    1    2    0    0 -0.35527136788E-14  0.22204460493E-15  0.00000000000E+00  0.91188000000E+02  0.91188000000E+02 0.  0.
    9900012    2    3    3    0    0 -0.29475568390E+02 -0.16052033843E+01 -0.27960370928E+02  0.50528829420E+02  0.29999907505E+02 0.  0.
         12    1    3    3    0    0  0.29475568390E+02  0.16052033843E+01  0.27960370928E+02  0.40659170580E+02  0.00000000000E+00 0. -1.
         11    1    4    4    0    0 -0.16375683236E+02 -0.19935844712E+01 -0.47689495428E+01  0.17172077932E+02  0.51100000000E-03 0. -1.
        -11    1    4    4    0    0  0.40549267265E+01  0.47645265810E+01 -0.65807386252E+01  0.90801577856E+01  0.51100000000E-03 0.  1.
         12    1    4    4    0    0 -0.17154811880E+02 -0.43761454940E+01 -0.16610682760E+02  0.24276593702E+02  0.00000000000E+00 0. -1.
</event>
<event>
 8    1  0.9870402E-014  0.9118800E+02  0.7816164E-02  0.1184000E+00
        -11   -1    0    0    0    0  0.00000000000E+00  0.00000000000E+00  0.45593999997E+02  0.45594000000E+02  0.51100000000E-03 0. -1.
         11   -1    0    0    0    0 -0.00000000000E+00 -0.00000000000E+00 -0.45593999997E+02  0.45594000000E+02  0.51100000000E-03 0.  1.
         23    2    1    2    0    0  0.00000000000E+00  0.00000000000E+00  0.00000000000E+00  0.91188000000E+02  0.91188000000E+02 0.  0.
    9900012    2    3    3    0    0  0.45167936826E+01  0.50538590780E+01  0.40090176318E+02  0.50528866292E+02  0.30000019580E+02 0.  0.
        -12    1    3    3    0    0 -0.45167936826E+01 -0.50538590780E+01 -0.40090176318E+02  0.40659133708E+02  0.00000000000E+00 0.  1.
         11    1    4    4    0    0 -0.29780535166E+01  0.66279612306E+01  0.11175128377E+02  0.13329747459E+02  0.51100000000E-03 0. -1.
        -11    1    4    4    0    0  0.88319874655E+01 -0.21388315742E+01  0.88362062642E+00  0.91301362951E+01  0.51100000000E-03 0.  1.
         12    1    4    4    0    0 -0.13371402663E+01  0.56472942159E+00  0.28031427314E+02  0.28068982538E+02  0.00000000000E+00 0. -1.
</event>
<event>
 8    1  0.9870402E-014  0.9118800E+02  0.7816164E-02  0.1184000E+00
        -11   -1    0    0    0    0  0.00000000000E+00  0.00000000000E+00  0.45593999997E+02  0.45594000000E+02  0.51100000000E-03 0. -1.
         11   -1    0    0    0    0 -0.00000000000E+00 -0.00000000000E+00 -0.45593999997E+02  0.45594000000E+02  0.51100000000E-03 0.  1.
         23    2    1    2    0    0 -0.35527136788E-14  0.00000000000E+00  0.00000000000E+00  0.91188000000E+02  0.91188000000E+02 0.  0.
    9900012    2    3    3    0    0  0.31312205199E+02 -0.87494871076E+01 -0.24416355695E+02  0.50528854110E+02  0.29999982553E+02 0.  0.
         12    1    3    3    0    0 -0.31312205199E+02  0.87494871076E+01  0.24416355695E+02  0.40659145890E+02  0.00000000000E+00 0. -1.
         11    1    4    4    0    0 -0.96890899654E+00 -0.27713521701E+01  0.13099850418E+01  0.32148465850E+01  0.51100000000E-03 0. -1.
        -11    1    4    4    0    0  0.18572621873E+02 -0.12103287704E+02 -0.68666058512E+01  0.23207372378E+02  0.51100000000E-03 0.  1.
        -12    1    4    4    0    0  0.13708492323E+02  0.61251527669E+01 -0.18859734886E+02  0.24106635147E+02  0.00000000000E+00 0.  1.
</event>
<event>
 8    1  0.9870402E-014  0.9118800E+02  0.7816164E-02  0.1184000E+00
        -11   -1    0    0    0    0  0.00000000000E+00  0.00000000000E+00  0.45593999997E+02  0.45594000000E+02  0.51100000000E-03 0. -1.
         11   -1    0    0    0    0 -0.00000000000E+00 -0.00000000000E+00 -0.45593999997E+02  0.45594000000E+02  0.51100000000E-03 0.  1.
         23    2    1    2    0    0 -0.17763568394E-14  0.71054273576E-14  0.35527136788E-14  0.91188000000E+02  0.91188000000E+02 0.  0.
    9900012    2    3    3    0    0  0.80304936288E+01 -0.33809721575E+02 -0.21108737600E+02  0.50528869365E+02  0.30000028922E+02 0.  0.
         12    1    3    3    0    0 -0.80304936288E+01  0.33809721575E+02  0.21108737600E+02  0.40659130635E+02  0.00000000000E+00 0. -1.
         11    1    4    4    0    0 -0.29635657645E+01 -0.72203002794E+01 -0.33163999724E+01  0.84802103278E+01  0.51100000000E-03 0. -1.
        -11    1    4    4    0    0  0.93301212012E+01 -0.29136095870E+02 -0.77559096923E+01  0.31561327279E+02  0.51100000000E-03 0.  1.
        -12    1    4    4    0    0  0.16639381921E+01  0.25466745748E+01 -0.10036427936E+02  0.10487331758E+02  0.00000000000E+00 0.  1.
</event>
<event>
 8    1  0.9870402E-014  0.9118800E+02  0.7816164E-02  0.1184000E+00
        -11   -1    0    0    0    0  0.00000000000E+00  0.00000000000E+00  0.45593999997E+02  0.45594000000E+02  0.51100000000E-03 0. -1.
         11   -1    0    0    0    0 -0.00000000000E+00 -0.00000000000E+00 -0.45593999997E+02  0.45594000000E+02  0.51100000000E-03 0.  1.
         23    2    1    2    0    0  0.00000000000E+00  0.00000000000E+00  0.00000000000E+00  0.91188000000E+02  0.91188000000E+02 0.  0.
    9900012    2    3    3    0    0 -0.32938339950E+02  0.18556676401E+02  0.14962648686E+02  0.50528864085E+02  0.30000012873E+02 0.  0.
        -12    1    3    3    0    0  0.32938339950E+02 -0.18556676401E+02 -0.14962648686E+02  0.40659135915E+02  0.00000000000E+00 0.  1.
         11    1    4    4    0    0 -0.60914332605E+01  0.27287973117E+01  0.25337211800E+01  0.71394423602E+01  0.51100000000E-03 0. -1.
        -11    1    4    4    0    0  0.16835237004E+01  0.98230871499E+00  0.11026167092E+02  0.11197122106E+02  0.51100000000E-03 0.  1.
         12    1    4    4    0    0 -0.28530430389E+02  0.14845570374E+02  0.14027604135E+01  0.32192299618E+02  0.00000000000E+00 0. -1.
</event>
<event>
 8    1  0.9870402E-014  0.9118800E+02  0.7816164E-02  0.1184000E+00
        -11   -1    0    0    0    0  0.00000000000E+00  0.00000000000E+00  0.45593999997E+02  0.45594000000E+02  0.51100000000E-03 0. -1.
         11   -1    0    0    0    0 -0.00000000000E+00 -0.00000000000E+00 -0.45593999997E+02  0.45594000000E+02  0.51100000000E-03 0.  1.
         23    2    1    2    0    0  0.00000000000E+00 -0.17763568394E-14  0.35527136788E-14  0.91188000000E+02  0.91188000000E+02 0.  0.
    9900012    2    3    3    0    0  0.28490917133E+02  0.10915959367E+02 -0.26875164691E+02  0.50528868121E+02  0.30000025141E+02 0.  0.
         12    1    3    3    0    0 -0.28490917133E+02 -0.10915959367E+02  0.26875164691E+02  0.40659131879E+02  0.00000000000E+00 0. -1.
         11    1    4    4    0    0  0.49259450872E+00 -0.13407854866E+01 -0.25891319783E+01  0.29570187239E+01  0.51100000000E-03 0.  1.
        -11    1    4    4    0    0  0.21370167472E+02  0.77072420304E+01 -0.30056488642E+02  0.37675962459E+02  0.51100000000E-03 0. -1.
         12    1    4    4    0    0  0.66281551523E+01  0.45495028234E+01  0.57704559293E+01  0.98958869383E+01  0.00000000000E+00 0. -1.
</event>
<event>
 8    1  0.9870402E-014  0.9118800E+02  0.7816164E-02  0.1184000E+00
        -11   -1    0    0    0    0  0.00000000000E+00  0.00000000000E+00  0.45593999997E+02  0.45594000000E+02  0.51100000000E-03 0. -1.
         11   -1    0    0    0    0 -0.00000000000E+00 -0.00000000000E+00 -0.45593999997E+02  0.45594000000E+02  0.51100000000E-03 0.  1.
         23    2    1    2    0    0  0.00000000000E+00 -0.71054273576E-14  0.00000000000E+00  0.91188000000E+02  0.91188000000E+02 0.  0.
    9900012    2    3    3    0    0 -0.20353412691E+01 -0.38828844288E+02 -0.11888815910E+02  0.50528859496E+02  0.29999998923E+02 0.  0.
         12    1    3    3    0    0  0.20353412691E+01  0.38828844288E+02  0.11888815910E+02  0.40659140504E+02  0.00000000000E+00 0. -1.
         11    1    4    4    0    0  0.68614793942E+01 -0.31537706709E+02 -0.42651472844E+01  0.32556079702E+02  0.51100000000E-03 0. -1.
        -11    1    4    4    0    0 -0.31773346736E+01 -0.95885479037E+01 -0.50515852362E+01  0.11293990446E+02  0.51100000000E-03 0.  1.
         12    1    4    4    0    0 -0.57194859896E+01  0.22974103250E+01 -0.25720833895E+01  0.66787893476E+01  0.00000000000E+00 0. -1.
</event>
<event>
 8    1  0.9870402E-014  0.9118800E+02  0.7816164E-02  0.1184000E+00
        -11   -1    0    0    0    0  0.00000000000E+00  0.00000000000E+00  0.45593999997E+02  0.45594000000E+02  0.51100000000E-03 0. -1.
         11   -1    0    0    0    0 -0.00000000000E+00 -0.00000000000E+00 -0.45593999997E+02  0.45594000000E+02  0.51100000000E-03 0.  1.
         23    2    1    2    0    0 -0.88817841970E-15  0.00000000000E+00  0.00000000000E+00  0.91188000000E+02  0.91188000000E+02 0.  0.
    9900012    2    3    3    0    0  0.27892003468E+01 -0.20300452564E+02  0.35118066047E+02  0.50528848807E+02  0.29999966433E+02 0.  0.
        -12    1    3    3    0    0 -0.27892003468E+01  0.20300452564E+02 -0.35118066047E+02  0.40659151193E+02  0.00000000000E+00 0.  1.
         11    1    4    4    0    0 -0.97640970790E+01 -0.10541325945E+02  0.69829388797E+01  0.15975561965E+02  0.51100000000E-03 0. -1.
        -11    1    4    4    0    0  0.40205632348E+01  0.24196787796E+01  0.38171921963E+01  0.60490272480E+01  0.51100000000E-03 0.  1.
         12    1    4    4    0    0  0.85327341909E+01 -0.12178805399E+02  0.24317934971E+02  0.28504259593E+02  0.00000000000E+00 0. -1.
</event>
<event>
 8    1  0.9870402E-014  0.9118800E+02  0.7816164E-02  0.1184000E+00
        -11   -1    0    0    0    0  0.00000000000E+00  0.00000000000E+00  0.45593999997E+02  0.45594000000E+02  0.51100000000E-03 0. -1.
         11   -1    0    0    0    0 -0.00000000000E+00 -0.00000000000E+00 -0.45593999997E+02  0.45594000000E+02  0.51100000000E-03 0.  1.
         23    2    1    2    0    0  0.22204460493E-15  0.88817841970E-15  0.00000000000E+00  0.91188000000E+02  0.91188000000E+02 0.  0.
    9900012    2    3    3    0    0  0.19493200550E+01  0.79191383266E+01  0.39832783404E+02  0.50528889899E+02  0.30000091336E+02 0.  0.
        -12    1    3    3    0    0 -0.19493200550E+01 -0.79191383266E+01 -0.39832783404E+02  0.40659110101E+02  0.00000000000E+00 0.  1.
         11    1    4    4    0    0 -0.31188553653E+01  0.26283041170E+01  0.26771628812E+01  0.48787747104E+01  0.51100000000E-03 0. -1.
        -11    1    4    4    0    0  0.10531375205E+02  0.83836866072E+01  0.76475993419E+01  0.15481661435E+02  0.51100000000E-03 0.  1.
        -12    1    4    4    0    0 -0.54631997848E+01 -0.30928523976E+01  0.29508021181E+02  0.30168453753E+02  0.00000000000E+00 0.  1.
</event>
<event>
 8    1  0.9870402E-014  0.9118800E+02  0.7816164E-02  0.1184000E+00
        -11   -1    0    0    0    0  0.00000000000E+00  0.00000000000E+00  0.45593999997E+02  0.45594000000E+02  0.51100000000E-03 0. -1.
         11   -1    0    0    0    0 -0.00000000000E+00 -0.00000000000E+00 -0.45593999997E+02  0.45594000000E+02  0.51100000000E-03 0.  1.
         23    2    1    2    0    0  0.00000000000E+00  0.00000000000E+00  0.00000000000E+00  0.91188000000E+02  0.91188000000E+02 0.  0.
    9900012    2    3    3    0    0  0.32675082988E+02  0.22886721893E+02 -0.78551633525E+01  0.50528847542E+02  0.29999962590E+02 0.  0.
         12    1    3    3    0    0 -0.32675082988E+02 -0.22886721893E+02  0.78551633525E+01  0.40659152458E+02  0.00000000000E+00 0. -1.
         11    1    4    4    0    0  0.29158436241E+02  0.59240949382E+01 -0.30917357838E+01  0.29914346647E+02  0.51100000000E-03 0. -1.
        -11    1    4    4    0    0  0.66767107495E+01  0.74367503331E+01 -0.29020754438E+01  0.10407005530E+02  0.51100000000E-03 0.  1.
        -12    1    4    4    0    0 -0.31600640032E+01  0.95258766219E+01 -0.18613521249E+01  0.10207495366E+02  0.00000000000E+00 0.  1.
</event>
<event>
 8    1  0.9870402E-014  0.9118800E+02  0.7816164E-02  0.1184000E+00
        -11   -1    0    0    0    0  0.00000000000E+00  0.00000000000E+00  0.45593999997E+02  0.45594000000E+02  0.51100000000E-03 0. -1.
         11   -1    0    0    0    0 -0.00000000000E+00 -0.00000000000E+00 -0.45593999997E+02  0.45594000000E+02  0.51100000000E-03 0.  1.
         23    2    1    2    0    0  0.00000000000E+00  0.55511151231E-15  0.71054273576E-14  0.91188000000E+02  0.91188000000E+02 0.  0.
    9900012    2    3    3    0    0 -0.19749949720E+02  0.63032069571E+00  0.35534596826E+02  0.50528863392E+02  0.30000010767E+02 0.  0.
        -12    1    3    3    0    0  0.19749949720E+02 -0.63032069571E+00 -0.35534596826E+02  0.40659136608E+02  0.00000000000E+00 0.  1.
         11    1    4    4    0    0  0.20789802633E+01  0.13810104904E+01  0.20895548975E+01  0.32550866103E+01  0.51100000000E-03 0. -1.
        -11    1    4    4    0    0  0.14586429533E+01  0.57670197200E+01 -0.65356327104E-01  0.59489854116E+01  0.51100000000E-03 0.  1.
         12    1    4    4    0    0 -0.23287572936E+02 -0.65177095147E+01  0.33510398255E+02  0.41324791370E+02  0.00000000000E+00 0. -1.
</event>
<event>
 8    1  0.9870402E-014  0.9118800E+02  0.7816164E-02  0.1184000E+00
        -11   -1    0    0    0    0  0.00000000000E+00  0.00000000000E+00  0.45593999997E+02  0.45594000000E+02  0.51100000000E-03 0. -1.
         11   -1    0    0    0    0 -0.00000000000E+00 -0.00000000000E+00 -0.45593999997E+02  0.45594000000E+02  0.51100000000E-03 0.  1.
         23    2    1    2    0    0  0.00000000000E+00  0.35527136788E-14 -0.17763568394E-14  0.91188000000E+02  0.91188000000E+02 0.  0.
    9900012    2    3    3    0    0 -0.33663213288E+02  0.17722166310E+02 -0.14348476198E+02  0.50528857402E+02  0.29999992560E+02 0.  0.
         12    1    3    3    0    0  0.33663213288E+02 -0.17722166310E+02  0.14348476198E+02  0.40659142598E+02  0.00000000000E+00 0. -1.
         11    1    4    4    0    0 -0.99296490847E+01  0.51454365264E+01  0.81940939977E+00  0.11213602455E+02  0.51100000000E-03 0. -1.
        -11    1    4    4    0    0 -0.27560058680E+02  0.90439729294E+01 -0.17203045545E+02  0.33723805495E+02  0.51100000000E-03 0.  1.
        -12    1    4    4    0    0  0.38264944763E+01  0.35327568540E+01  0.20351599473E+01  0.55914494523E+01  0.00000000000E+00 0.  1.
</event>
<event>
 8    1  0.9870402E-014  0.9118800E+02  0.7816164E-02  0.1184000E+00
        -11   -1    0    0    0    0  0.00000000000E+00  0.00000000000E+00  0.45593999997E+02  0.45594000000E+02  0.51100000000E-03 0.  1.
         11   -1    0    0    0    0 -0.00000000000E+00 -0.00000000000E+00 -0.45593999997E+02  0.45594000000E+02  0.51100000000E-03 0. -1.
         23    2    1    2    0    0  0.00000000000E+00  0.00000000000E+00  0.00000000000E+00  0.91188000000E+02  0.91188000000E+02 0.  0.
    9900012    2    3    3    0    0 -0.40291296654E+02  0.52506860394E+01  0.14861456762E+01  0.50528844587E+02  0.29999953605E+02 0.  0.
         12    1    3    3    0    0  0.40291296654E+02 -0.52506860394E+01 -0.14861456762E+01  0.40659155413E+02  0.00000000000E+00 0. -1.
         11    1    4    4    0    0 -0.40155905326E+01  0.10898633017E+02 -0.19078867985E+01  0.11770522557E+02  0.51100000000E-03 0. -1.
        -11    1    4    4    0    0 -0.13176651389E+02  0.36647099880E+01  0.51061823817E+00  0.13686306016E+02  0.51100000000E-03 0.  1.
        -12    1    4    4    0    0 -0.23099054733E+02 -0.93126569658E+01  0.28834142365E+01  0.25072016013E+02  0.00000000000E+00 0.  1.
</event>
<event>
 8    1  0.9870402E-014  0.9118800E+02  0.7816164E-02  0.1184000E+00
        -11   -1    0    0    0    0  0.00000000000E+00  0.00000000000E+00  0.45593999997E+02  0.45594000000E+02  0.51100000000E-03 0. -1.
         11   -1    0    0    0    0 -0.00000000000E+00 -0.00000000000E+00 -0.45593999997E+02  0.45594000000E+02  0.51100000000E-03 0.  1.
         23    2    1    2    0    0 -0.35527136788E-14  0.35527136788E-14 -0.17763568394E-14  0.91188000000E+02  0.91188000000E+02 0.  0.
    9900012    2    3    3    0    0  0.30107773049E+02 -0.25587440155E+02  0.95901153229E+01  0.50528863222E+02  0.30000010248E+02 0.  0.
         12    1    3    3    0    0 -0.30107773049E+02  0.25587440155E+02 -0.95901153229E+01  0.40659136778E+02  0.00000000000E+00 0. -1.
         11    1    4    4    0    0  0.27736385294E+02 -0.30781900609E+02  0.65869587028E+01  0.41954981820E+02  0.51100000000E-03 0.  1.
        -11    1    4    4    0    0 -0.95692161306E+00 -0.28308707796E+00 -0.65526923826E+00  0.11938238157E+01  0.51100000000E-03 0. -1.
        -12    1    4    4    0    0  0.33283093679E+01  0.54775475318E+01  0.36584258584E+01  0.73800575860E+01  0.00000000000E+00 0.  1.
</event>
<event>
 8    1  0.9870402E-014  0.9118800E+02  0.7816164E-02  0.1184000E+00
        -11   -1    0    0    0    0  0.00000000000E+00  0.00000000000E+00  0.45593999997E+02  0.45594000000E+02  0.51100000000E-03 0. -1.
         11   -1    0    0    0    0 -0.00000000000E+00 -0.00000000000E+00 -0.45593999997E+02  0.45594000000E+02  0.51100000000E-03 0.  1.
         23    2    1    2    0    0  0.00000000000E+00  0.00000000000E+00 -0.35527136788E-14  0.91188000000E+02  0.91188000000E+02 0.  0.
    9900012    2    3    3    0    0 -0.22306267111E+02 -0.16305670764E+02 -0.29828193913E+02  0.50528860762E+02  0.30000002772E+02 0.  0.
         12    1    3    3    0    0  0.22306267111E+02  0.16305670764E+02  0.29828193913E+02  0.40659139238E+02  0.00000000000E+00 0. -1.
         11    1    4    4    0    0 -0.19342095063E+02 -0.79347825780E+01 -0.10332452732E+02  0.23320312942E+02  0.51100000000E-03 0. -1.
        -11    1    4    4    0    0 -0.36306685605E+01  0.46694918627E+01 -0.64280813893E+01  0.87353385201E+01  0.51100000000E-03 0.  1.
        -12    1    4    4    0    0  0.66649651268E+00 -0.13040380049E+02 -0.13067659792E+02  0.18473209300E+02  0.00000000000E+00 0.  1.
</event>
<event>
 8    1  0.9870402E-014  0.9118800E+02  0.7816164E-02  0.1184000E+00
        -11   -1    0    0    0    0  0.00000000000E+00  0.00000000000E+00  0.45593999997E+02  0.45594000000E+02  0.51100000000E-03 0. -1.
         11   -1    0    0    0    0 -0.00000000000E+00 -0.00000000000E+00 -0.45593999997E+02  0.45594000000E+02  0.51100000000E-03 0.  1.
         23    2    1    2    0    0  0.00000000000E+00 -0.35527136788E-14 -0.35527136788E-14  0.91188000000E+02  0.91188000000E+02 0.  0.
    9900012    2    3    3    0    0  0.21263662464E+02  0.13384207882E+02  0.31966951544E+02  0.50528851546E+02  0.29999974758E+02 0.  0.
        -12    1    3    3    0    0 -0.21263662464E+02 -0.13384207882E+02 -0.31966951544E+02  0.40659148454E+02  0.00000000000E+00 0.  1.
         11    1    4    4    0    0  0.19129641629E+02  0.14250137680E+02  0.13020314465E+02  0.27176059350E+02  0.51100000000E-03 0. -1.
        -11    1    4    4    0    0  0.16119335462E+01  0.62798494806E+01  0.87264704035E+01  0.10871344223E+02  0.51100000000E-03 0.  1.
        -12    1    4    4    0    0  0.52208728895E+00 -0.71457792781E+01  0.10220166675E+02  0.12481447973E+02  0.00000000000E+00 0.  1.
</event>
<event>
 8    1  0.1612927E-013  0.9118800E+02  0.7816164E-02  0.1184000E+00
        -11   -1    0    0    0    0  0.00000000000E+00  0.00000000000E+00  0.45593999997E+02  0.45594000000E+02  0.51100000000E-03 0. -1.
         11   -1    0    0    0    0 -0.00000000000E+00 -0.00000000000E+00 -0.45593999997E+02  0.45594000000E+02  0.51100000000E-03 0.  1.
         23    2    1    2    0    0 -0.35527136788E-14  0.00000000000E+00  0.35527136788E-14  0.91188000000E+02  0.91188000000E+02 0.  0.
    9900012    2    3    3    0    0 -0.27227790189E+02 -0.84757490716E+01 -0.28982333204E+02  0.50528849506E+02  0.29999968559E+02 0.  0.
         12    1    3    3    0    0  0.27227790189E+02  0.84757490716E+01  0.28982333204E+02  0.40659150494E+02  0.00000000000E+00 0. -1.
         11    1    4    4    0    0 -0.10947003976E+01  0.53374760937E+01 -0.54306506222E+01  0.76927879506E+01  0.51100000000E-03 0. -1.
        -11    1    4    4    0    0 -0.26133606000E+02 -0.11056664489E+02 -0.26481396824E+02  0.38813394211E+02  0.51100000000E-03 0.  1.
         12    1    4    4    0    0  0.51620835578E-03 -0.27565606762E+01  0.29297142414E+01  0.40226673445E+01  0.00000000000E+00 0. -1.
</event>
<event>
 8    1  0.9870402E-014  0.9118800E+02  0.7816164E-02  0.1184000E+00
        -11   -1    0    0    0    0  0.00000000000E+00  0.00000000000E+00  0.45593999997E+02  0.45594000000E+02  0.51100000000E-03 0. -1.
         11   -1    0    0    0    0 -0.00000000000E+00 -0.00000000000E+00 -0.45593999997E+02  0.45594000000E+02  0.51100000000E-03 0.  1.
         23    2    1    2    0    0  0.00000000000E+00 -0.71054273576E-14 -0.13322676296E-14  0.91188000000E+02  0.91188000000E+02 0.  0.
    9900012    2    3    3    0    0  0.12745399622E+02 -0.38525905373E+02  0.25445854685E+01  0.50528861893E+02  0.30000006211E+02 0.  0.
        -12    1    3    3    0    0 -0.12745399622E+02  0.38525905373E+02 -0.25445854685E+01  0.40659138107E+02  0.00000000000E+00 0.  1.
         11    1    4    4    0    0 -0.51407426392E+01 -0.54869114362E+01  0.84790517495E+01  0.11332596826E+02  0.51100000000E-03 0. -1.
        -11    1    4    4    0    0  0.10188098727E+02 -0.12972789912E+02  0.12311643904E+01  0.16541051955E+02  0.51100000000E-03 0.  1.
        -12    1    4    4    0    0  0.76980435341E+01 -0.20066204025E+02 -0.71656306714E+01  0.22655213112E+02  0.00000000000E+00 0.  1.
</event>
<event>
 8    1  0.9870402E-014  0.9118800E+02  0.7816164E-02  0.1184000E+00
        -11   -1    0    0    0    0  0.00000000000E+00  0.00000000000E+00  0.45593999997E+02  0.45594000000E+02  0.51100000000E-03 0. -1.
         11   -1    0    0    0    0 -0.00000000000E+00 -0.00000000000E+00 -0.45593999997E+02  0.45594000000E+02  0.51100000000E-03 0.  1.
         23    2    1    2    0    0  0.17763568394E-14 -0.35527136788E-14  0.00000000000E+00  0.91188000000E+02  0.91188000000E+02 0.  0.
    9900012    2    3    3    0    0  0.14866253875E+02  0.18240330234E+02  0.33157972917E+02  0.50528851960E+02  0.29999976019E+02 0.  0.
        -12    1    3    3    0    0 -0.14866253875E+02 -0.18240330234E+02 -0.33157972917E+02  0.40659148040E+02  0.00000000000E+00 0.  1.
         11    1    4    4    0    0 -0.17813915605E+01  0.82854837410E+01  0.22095235405E+02  0.23664784482E+02  0.51100000000E-03 0. -1.
        -11    1    4    4    0    0 -0.12859258538E+01  0.49315289387E+01 -0.19848862136E+00  0.51002922434E+01  0.51100000000E-03 0.  1.
         12    1    4    4    0    0  0.17933571290E+02  0.50233175542E+01  0.11261226133E+02  0.21763775235E+02  0.00000000000E+00 0. -1.
</event>
<event>
 8    1  0.9870402E-014  0.9118800E+02  0.7816164E-02  0.1184000E+00
        -11   -1    0    0    0    0  0.00000000000E+00  0.00000000000E+00  0.45593999997E+02  0.45594000000E+02  0.51100000000E-03 0. -1.
         11   -1    0    0    0    0 -0.00000000000E+00 -0.00000000000E+00 -0.45593999997E+02  0.45594000000E+02  0.51100000000E-03 0.  1.
         23    2    1    2    0    0  0.35527136788E-14 -0.44408920985E-15  0.00000000000E+00  0.91188000000E+02  0.91188000000E+02 0.  0.
    9900012    2    3    3    0    0 -0.20248412230E+02  0.32792712045E+01  0.35105737730E+02  0.50528872623E+02  0.30000038825E+02 0.  0.
        -12    1    3    3    0    0  0.20248412230E+02 -0.32792712045E+01 -0.35105737730E+02  0.40659127377E+02  0.00000000000E+00 0.  1.
         11    1    4    4    0    0 -0.17565703161E+02  0.70088754993E+01  0.36768603889E+02  0.41347412199E+02  0.51100000000E-03 0. -1.
        -11    1    4    4    0    0  0.19408794904E+01  0.99252601169E+00  0.48341224110E+00  0.22328924596E+01  0.51100000000E-03 0.  1.
        -12    1    4    4    0    0 -0.46235885587E+01 -0.47221303066E+01 -0.21462783999E+01  0.69485679648E+01  0.00000000000E+00 0.  1.
</event>
<event>
 8    1  0.9870402E-014  0.9118800E+02  0.7816164E-02  0.1184000E+00
        -11   -1    0    0    0    0  0.00000000000E+00  0.00000000000E+00  0.45593999997E+02  0.45594000000E+02  0.51100000000E-03 0. -1.
         11   -1    0    0    0    0 -0.00000000000E+00 -0.00000000000E+00 -0.45593999997E+02  0.45594000000E+02  0.51100000000E-03 0.  1.
         23    2    1    2    0    0  0.00000000000E+00  0.00000000000E+00 -0.71054273576E-14  0.91188000000E+02  0.91188000000E+02 0.  0.
    9900012    2    3    3    0    0  0.10486888190E+02  0.83325663994E+01  0.38389565997E+02  0.50528864936E+02  0.30000015460E+02 0.  0.
        -12    1    3    3    0    0 -0.10486888190E+02 -0.83325663994E+01 -0.38389565997E+02  0.40659135064E+02  0.00000000000E+00 0.  1.
         11    1    4    4    0    0  0.89296803342E+00 -0.19776211388E+00  0.21775368202E+02  0.21794567267E+02  0.51100000000E-03 0. -1.
        -11    1    4    4    0    0 -0.38464271441E+01 -0.36516329841E+01  0.36543944583E+01  0.64408092926E+01  0.51100000000E-03 0.  1.
         12    1    4    4    0    0  0.13440347301E+02  0.12181961497E+02  0.12959803337E+02  0.22293488377E+02  0.00000000000E+00 0. -1.
</event>
<event>
 8    1  0.9870402E-014  0.9118800E+02  0.7816164E-02  0.1184000E+00
        -11   -1    0    0    0    0  0.00000000000E+00  0.00000000000E+00  0.45593999997E+02  0.45594000000E+02  0.51100000000E-03 0. -1.
         11   -1    0    0    0    0 -0.00000000000E+00 -0.00000000000E+00 -0.45593999997E+02  0.45594000000E+02  0.51100000000E-03 0.  1.
         23    2    1    2    0    0  0.35527136788E-14  0.35527136788E-14 -0.35527136788E-14  0.91188000000E+02  0.91188000000E+02 0.  0.
    9900012    2    3    3    0    0 -0.16785924049E+02  0.23693647873E+02  0.28460660004E+02  0.50528863713E+02  0.30000011743E+02 0.  0.
        -12    1    3    3    0    0  0.16785924049E+02 -0.23693647873E+02 -0.28460660004E+02  0.40659136287E+02  0.00000000000E+00 0.  1.
         11    1    4    4    0    0 -0.39185365047E+01  0.69563180549E+01  0.13249463486E+02  0.15469116721E+02  0.51100000000E-03 0. -1.
        -11    1    4    4    0    0 -0.17315849235E+02  0.19605625920E+02  0.13833941080E+02  0.29590490508E+02  0.51100000000E-03 0.  1.
        -12    1    4    4    0    0  0.44484616907E+01 -0.28682961020E+01  0.13772554383E+01  0.54692564837E+01  0.00000000000E+00 0.  1.
</event>
<event>
 8    1  0.9870402E-014  0.9118800E+02  0.7816164E-02  0.1184000E+00
        -11   -1    0    0    0    0  0.00000000000E+00  0.00000000000E+00  0.45593999997E+02  0.45594000000E+02  0.51100000000E-03 0. -1.
         11   -1    0    0    0    0 -0.00000000000E+00 -0.00000000000E+00 -0.45593999997E+02  0.45594000000E+02  0.51100000000E-03 0.  1.
         23    2    1    2    0    0  0.00000000000E+00  0.17763568394E-14  0.00000000000E+00  0.91188000000E+02  0.91188000000E+02 0.  0.
    9900012    2    3    3    0    0  0.36407519116E+02 -0.80165269935E+01  0.16229404945E+02  0.50528859108E+02  0.29999997743E+02 0.  0.
        -12    1    3    3    0    0 -0.36407519116E+02  0.80165269935E+01 -0.16229404945E+02  0.40659140892E+02  0.00000000000E+00 0.  1.
         11    1    4    4    0    0  0.82548199700E+01  0.32499338559E+01 -0.28136819012E+01  0.93070365266E+01  0.51100000000E-03 0.  1.
        -11    1    4    4    0    0  0.20199617761E+02 -0.16019128936E+02  0.18881591636E+02  0.31955462014E+02  0.51100000000E-03 0. -1.
         12    1    4    4    0    0  0.79530813856E+01  0.47526680862E+01  0.16149521027E+00  0.92663605674E+01  0.00000000000E+00 0. -1.
</event>
<event>
 8    1  0.9870402E-014  0.9118800E+02  0.7816164E-02  0.1184000E+00
        -11   -1    0    0    0    0  0.00000000000E+00  0.00000000000E+00  0.45593999997E+02  0.45594000000E+02  0.51100000000E-03 0. -1.
         11   -1    0    0    0    0 -0.00000000000E+00 -0.00000000000E+00 -0.45593999997E+02  0.45594000000E+02  0.51100000000E-03 0.  1.
         23    2    1    2    0    0  0.00000000000E+00  0.00000000000E+00  0.00000000000E+00  0.91188000000E+02  0.91188000000E+02 0.  0.
    9900012    2    3    3    0    0  0.27915991479E+02  0.20296165311E+01  0.29491411135E+02  0.50528865058E+02  0.30000015829E+02 0.  0.
        -12    1    3    3    0    0 -0.27915991479E+02 -0.20296165311E+01 -0.29491411135E+02  0.40659134942E+02  0.00000000000E+00 0.  1.
         11    1    4    4    0    0  0.24407208694E+01 -0.31807006052E+01  0.20794093455E+02  0.21177070089E+02  0.51100000000E-03 0. -1.
        -11    1    4    4    0    0  0.16285116030E+02  0.46280756853E+01  0.10564571070E+02  0.19955807446E+02  0.51100000000E-03 0.  1.
        -12    1    4    4    0    0  0.91901545797E+01  0.58224145093E+00 -0.18672533896E+01  0.93959875227E+01  0.00000000000E+00 0.  1.
</event>
<event>
 8    1  0.9870402E-014  0.9118800E+02  0.7816164E-02  0.1184000E+00
        -11   -1    0    0    0    0  0.00000000000E+00  0.00000000000E+00  0.45593999997E+02  0.45594000000E+02  0.51100000000E-03 0. -1.
         11   -1    0    0    0    0 -0.00000000000E+00 -0.00000000000E+00 -0.45593999997E+02  0.45594000000E+02  0.51100000000E-03 0.  1.
         23    2    1    2    0    0  0.35527136788E-14  0.35527136788E-14  0.00000000000E+00  0.91188000000E+02  0.91188000000E+02 0.  0.
    9900012    2    3    3    0    0 -0.23329459728E+02  0.25645229609E+02  0.21242009583E+02  0.50528874775E+02  0.30000045367E+02 0.  0.
        -12    1    3    3    0    0  0.23329459728E+02 -0.25645229609E+02 -0.21242009583E+02  0.40659125225E+02  0.00000000000E+00 0.  1.
         11    1    4    4    0    0 -0.87118527177E+01  0.76982345986E+01  0.11527359189E+02  0.16371902878E+02  0.51100000000E-03 0. -1.
        -11    1    4    4    0    0 -0.20305382544E+02  0.11154429267E+02  0.37304854742E+01  0.23465855507E+02  0.51100000000E-03 0.  1.
         12    1    4    4    0    0  0.56877755334E+01  0.67925657431E+01  0.59841649201E+01  0.10691116391E+02  0.00000000000E+00 0. -1.
</event>
<event>
 8    1  0.9870402E-014  0.9118800E+02  0.7816164E-02  0.1184000E+00
        -11   -1    0    0    0    0  0.00000000000E+00  0.00000000000E+00  0.45593999997E+02  0.45594000000E+02  0.51100000000E-03 0. -1.
         11   -1    0    0    0    0 -0.00000000000E+00 -0.00000000000E+00 -0.45593999997E+02  0.45594000000E+02  0.51100000000E-03 0.  1.
         23    2    1    2    0    0  0.44408920985E-15  0.71054273576E-14 -0.22204460493E-15  0.91188000000E+02  0.91188000000E+02 0.  0.
    9900012    2    3    3    0    0 -0.21595435330E+01 -0.40566995714E+02  0.16792527360E+01  0.50528872374E+02  0.30000038067E+02 0.  0.
        -12    1    3    3    0    0  0.21595435330E+01  0.40566995714E+02 -0.16792527360E+01  0.40659127626E+02  0.00000000000E+00 0.  1.
         11    1    4    4    0    0 -0.12279914449E+02 -0.25382955591E+02  0.84139280006E+01  0.29425922553E+02  0.51100000000E-03 0. -1.
        -11    1    4    4    0    0  0.11539634478E+01 -0.36376100602E+01  0.17518822468E+01  0.41991582795E+01  0.51100000000E-03 0.  1.
        -12    1    4    4    0    0  0.89664074681E+01 -0.11546430063E+02 -0.84865575114E+01  0.16903791541E+02  0.00000000000E+00 0.  1.
</event>
<event>
 8    1  0.9870402E-014  0.9118800E+02  0.7816164E-02  0.1184000E+00
        -11   -1    0    0    0    0  0.00000000000E+00  0.00000000000E+00  0.45593999997E+02  0.45594000000E+02  0.51100000000E-03 0. -1.
         11   -1    0    0    0    0 -0.00000000000E+00 -0.00000000000E+00 -0.45593999997E+02  0.45594000000E+02  0.51100000000E-03 0.  1.
         23    2    1    2    0    0  0.88817841970E-15  0.00000000000E+00  0.00000000000E+00  0.91188000000E+02  0.91188000000E+02 0.  0.
    9900012    2    3    3    0    0 -0.67206780417E+01  0.20983410647E+02  0.34171548435E+02  0.50528858861E+02  0.29999996994E+02 0.  0.
        -12    1    3    3    0    0  0.67206780417E+01 -0.20983410647E+02 -0.34171548435E+02  0.40659141139E+02  0.00000000000E+00 0.  1.
         11    1    4    4    0    0 -0.94671121889E+01  0.20760794434E+02  0.10461061469E+02  0.25101207263E+02  0.51100000000E-03 0.  1.
        -11    1    4    4    0    0 -0.28122097243E+01  0.18101013428E+01  0.10135796216E+02  0.10673301064E+02  0.51100000000E-03 0. -1.
        -12    1    4    4    0    0  0.55586438715E+01 -0.15874851303E+01  0.13574690750E+02  0.14754350534E+02  0.00000000000E+00 0.  1.
</event>
<event>
 8    1  0.9870402E-014  0.9118800E+02  0.7816164E-02  0.1184000E+00
        -11   -1    0    0    0    0  0.00000000000E+00  0.00000000000E+00  0.45593999997E+02  0.45594000000E+02  0.51100000000E-03 0.  1.
         11   -1    0    0    0    0 -0.00000000000E+00 -0.00000000000E+00 -0.45593999997E+02  0.45594000000E+02  0.51100000000E-03 0. -1.
         23    2    1    2    0    0 -0.35527136788E-14  0.35527136788E-14  0.00000000000E+00  0.91188000000E+02  0.91188000000E+02 0.  0.
    9900012    2    3    3    0    0 -0.30067146677E+02 -0.24288466005E+02 -0.12617430107E+02  0.50528899756E+02  0.30000121297E+02 0.  0.
        -12    1    3    3    0    0  0.30067146677E+02  0.24288466005E+02  0.12617430107E+02  0.40659100244E+02  0.00000000000E+00 0.  1.
         11    1    4    4    0    0 -0.11675460438E+02 -0.19723402112E+02 -0.12304514392E+02  0.26014035480E+02  0.51100000000E-03 0. -1.
        -11    1    4    4    0    0  0.22815089221E+01  0.17614533589E+01  0.19913472474E+00  0.28892310044E+01  0.51100000000E-03 0.  1.
         12    1    4    4    0    0 -0.20673195161E+02 -0.63265172522E+01 -0.51205043990E+00  0.21625633271E+02  0.00000000000E+00 0. -1.
</event>
<event>
 8    1  0.9870402E-014  0.9118800E+02  0.7816164E-02  0.1184000E+00
        -11   -1    0    0    0    0  0.00000000000E+00  0.00000000000E+00  0.45593999997E+02  0.45594000000E+02  0.51100000000E-03 0. -1.
         11   -1    0    0    0    0 -0.00000000000E+00 -0.00000000000E+00 -0.45593999997E+02  0.45594000000E+02  0.51100000000E-03 0.  1.
         23    2    1    2    0    0 -0.88817841970E-15 -0.88817841970E-15  0.00000000000E+00  0.91188000000E+02  0.91188000000E+02 0.  0.
    9900012    2    3    3    0    0 -0.63533716077E+01  0.52407412343E+01  0.39816283233E+02  0.50528842238E+02  0.29999946466E+02 0.  0.
        -12    1    3    3    0    0  0.63533716077E+01 -0.52407412343E+01 -0.39816283233E+02  0.40659157762E+02  0.00000000000E+00 0.  1.
         11    1    4    4    0    0 -0.13387131020E+02 -0.86451578896E+00  0.10534087777E+02  0.17056660578E+02  0.51100000000E-03 0. -1.
        -11    1    4    4    0    0  0.58531927968E+01  0.52096417966E+01  0.53359171043E+01  0.94800973187E+01  0.51100000000E-03 0.  1.
         12    1    4    4    0    0  0.11805666157E+01  0.89561522663E+00  0.23946278351E+02  0.23992084341E+02  0.00000000000E+00 0. -1.
</event>
<event>
 8    1  0.9870402E-014  0.9118800E+02  0.7816164E-02  0.1184000E+00
        -11   -1    0    0    0    0  0.00000000000E+00  0.00000000000E+00  0.45593999997E+02  0.45594000000E+02  0.51100000000E-03 0.  1.
         11   -1    0    0    0    0 -0.00000000000E+00 -0.00000000000E+00 -0.45593999997E+02  0.45594000000E+02  0.51100000000E-03 0. -1.
         23    2    1    2    0    0 -0.35527136788E-14  0.71054273576E-14  0.17763568394E-14  0.91188000000E+02  0.91188000000E+02 0.  0.
    9900012    2    3    3    0    0 -0.82174236770E+01  0.37869111145E+02  0.12311374462E+02  0.50528861151E+02  0.30000003954E+02 0.  0.
        -12    1    3    3    0    0  0.82174236770E+01 -0.37869111145E+02 -0.12311374462E+02  0.40659138849E+02  0.00000000000E+00 0.  1.
         11    1    4    4    0    0  0.10326207467E+01  0.98226733113E+01 -0.44372625336E+01  0.10827765958E+02  0.51100000000E-03 0. -1.
        -11    1    4    4    0    0 -0.10749110547E+02  0.25396085742E+02  0.55947344281E+01  0.28139040534E+02  0.51100000000E-03 0.  1.
        -12    1    4    4    0    0  0.14990661238E+01  0.26503520918E+01  0.11153902568E+02  0.11562054659E+02  0.00000000000E+00 0.  1.
</event>
<event>
 8    1  0.9870402E-014  0.9118800E+02  0.7816164E-02  0.1184000E+00
        -11   -1    0    0    0    0  0.00000000000E+00  0.00000000000E+00  0.45593999997E+02  0.45594000000E+02  0.51100000000E-03 0. -1.
         11   -1    0    0    0    0 -0.00000000000E+00 -0.00000000000E+00 -0.45593999997E+02  0.45594000000E+02  0.51100000000E-03 0.  1.
         23    2    1    2    0    0  0.00000000000E+00 -0.35527136788E-14 -0.35527136788E-14  0.91188000000E+02  0.91188000000E+02 0.  0.
    9900012    2    3    3    0    0 -0.15746819054E+02 -0.27197679708E+02 -0.25797081240E+02  0.50528862131E+02  0.30000006932E+02 0.  0.
         12    1    3    3    0    0  0.15746819054E+02  0.27197679708E+02  0.25797081240E+02  0.40659137869E+02  0.00000000000E+00 0. -1.
         11    1    4    4    0    0  0.40161675108E+01 -0.81968954849E+01 -0.18292039310E+02  0.20443028138E+02  0.51100000000E-03 0. -1.
        -11    1    4    4    0    0 -0.19063968218E+01 -0.28613230697E+01 -0.47433932234E+01  0.58584381949E+01  0.51100000000E-03 0.  1.
        -12    1    4    4    0    0 -0.17856589743E+02 -0.16139461153E+02 -0.27616487063E+01  0.24227395798E+02  0.00000000000E+00 0.  1.
</event>
<event>
 8    1  0.9870402E-014  0.9118800E+02  0.7816164E-02  0.1184000E+00
        -11   -1    0    0    0    0  0.00000000000E+00  0.00000000000E+00  0.45593999997E+02  0.45594000000E+02  0.51100000000E-03 0.  1.
         11   -1    0    0    0    0 -0.00000000000E+00 -0.00000000000E+00 -0.45593999997E+02  0.45594000000E+02  0.51100000000E-03 0. -1.
         23    2    1    2    0    0  0.35527136788E-14  0.44408920985E-15  0.00000000000E+00  0.91188000000E+02  0.91188000000E+02 0.  0.
    9900012    2    3    3    0    0 -0.27741163389E+02  0.20572261151E+01 -0.29654018165E+02  0.50528866724E+02  0.30000020893E+02 0.  0.
         12    1    3    3    0    0  0.27741163389E+02 -0.20572261151E+01  0.29654018165E+02  0.40659133276E+02  0.00000000000E+00 0. -1.
         11    1    4    4    0    0 -0.15702358336E+02  0.10415430673E+02 -0.37799224225E+01  0.19218040149E+02  0.51100000000E-03 0.  1.
        -11    1    4    4    0    0 -0.16214107999E+01 -0.22971001237E+01 -0.14393697569E+02  0.14665748257E+02  0.51100000000E-03 0. -1.
        -12    1    4    4    0    0 -0.10417394253E+02 -0.60611044338E+01 -0.11480398173E+02  0.16645078318E+02  0.00000000000E+00 0.  1.
</event>
<event>
 8    1  0.9870402E-014  0.9118800E+02  0.7816164E-02  0.1184000E+00
        -11   -1    0    0    0    0  0.00000000000E+00  0.00000000000E+00  0.45593999997E+02  0.45594000000E+02  0.51100000000E-03 0. -1.
         11   -1    0    0    0    0 -0.00000000000E+00 -0.00000000000E+00 -0.45593999997E+02  0.45594000000E+02  0.51100000000E-03 0.  1.
         23    2    1    2    0    0  0.55511151231E-15 -0.35527136788E-14  0.00000000000E+00  0.91188000000E+02  0.91188000000E+02 0.  0.
    9900012    2    3    3    0    0 -0.61910013499E+00 -0.24185829287E+02 -0.32677632671E+02  0.50528864492E+02  0.30000014111E+02 0.  0.
         12    1    3    3    0    0  0.61910013499E+00  0.24185829287E+02  0.32677632671E+02  0.40659135508E+02  0.00000000000E+00 0. -1.
         11    1    4    4    0    0  0.12216774421E+01 -0.16613363633E+02 -0.19777114882E+02  0.25857892805E+02  0.51100000000E-03 0. -1.
        -11    1    4    4    0    0 -0.73519415134E+01 -0.65852072578E+01 -0.15596217473E+02  0.18456922777E+02  0.51100000000E-03 0.  1.
         12    1    4    4    0    0  0.55111639364E+01 -0.98725839636E+00  0.26956996851E+01  0.62140489109E+01  0.00000000000E+00 0. -1.
</event>
<event>
 8    1  0.9870402E-014  0.9118800E+02  0.7816164E-02  0.1184000E+00
        -11   -1    0    0    0    0  0.00000000000E+00  0.00000000000E+00  0.45593999997E+02  0.45594000000E+02  0.51100000000E-03 0. -1.
         11   -1    0    0    0    0 -0.00000000000E+00 -0.00000000000E+00 -0.45593999997E+02  0.45594000000E+02  0.51100000000E-03 0.  1.
         23    2    1    2    0    0  0.00000000000E+00 -0.33306690739E-15  0.00000000000E+00  0.91188000000E+02  0.91188000000E+02 0.  0.
    9900012    2    3    3    0    0  0.81037889817E+01  0.50903247674E+00 -0.39840125426E+02  0.50528854610E+02  0.29999984072E+02 0.  0.
         12    1    3    3    0    0 -0.81037889817E+01 -0.50903247674E+00  0.39840125426E+02  0.40659145390E+02  0.00000000000E+00 0. -1.
         11    1    4    4    0    0 -0.39251216102E+01 -0.86623873690E+01 -0.17934579371E+02  0.20300065814E+02  0.51100000000E-03 0. -1.
        -11    1    4    4    0    0  0.51507667958E+00  0.52986811438E+01 -0.15719908581E+02  0.16596892839E+02  0.51100000000E-03 0.  1.
         12    1    4    4    0    0  0.11513833912E+02  0.38727387019E+01 -0.61856374739E+01  0.13631895957E+02  0.00000000000E+00 0. -1.
</event>
<event>
 8    1  0.9870402E-014  0.9118800E+02  0.7816164E-02  0.1184000E+00
        -11   -1    0    0    0    0  0.00000000000E+00  0.00000000000E+00  0.45593999997E+02  0.45594000000E+02  0.51100000000E-03 0. -1.
         11   -1    0    0    0    0 -0.00000000000E+00 -0.00000000000E+00 -0.45593999997E+02  0.45594000000E+02  0.51100000000E-03 0.  1.
         23    2    1    2    0    0  0.00000000000E+00  0.00000000000E+00  0.00000000000E+00  0.91188000000E+02  0.91188000000E+02 0.  0.
    9900012    2    3    3    0    0 -0.33728501614E+01 -0.18559179467E+02  0.36018613323E+02  0.50528932544E+02  0.30000220960E+02 0.  0.
        -12    1    3    3    0    0  0.33728501614E+01  0.18559179467E+02 -0.36018613323E+02  0.40659067456E+02  0.00000000000E+00 0.  1.
         11    1    4    4    0    0 -0.46681016846E+01 -0.91200134013E+01  0.14479048519E+02  0.17737211282E+02  0.51100000000E-03 0. -1.
        -11    1    4    4    0    0  0.29245407245E+00 -0.99086338615E+01 -0.12355993306E+01  0.99896576694E+01  0.51100000000E-03 0.  1.
         12    1    4    4    0    0  0.10027974508E+01  0.46946779556E+00  0.22775164135E+02  0.22802063593E+02  0.00000000000E+00 0. -1.
</event>
<event>
 8    1  0.9870402E-014  0.9118800E+02  0.7816164E-02  0.1184000E+00
        -11   -1    0    0    0    0  0.00000000000E+00  0.00000000000E+00  0.45593999997E+02  0.45594000000E+02  0.51100000000E-03 0. -1.
         11   -1    0    0    0    0 -0.00000000000E+00 -0.00000000000E+00 -0.45593999997E+02  0.45594000000E+02  0.51100000000E-03 0.  1.
         23    2    1    2    0    0 -0.88817841970E-15  0.35527136788E-14 -0.35527136788E-14  0.91188000000E+02  0.91188000000E+02 0.  0.
    9900012    2    3    3    0    0 -0.73087502676E+01 -0.26306028272E+02 -0.30128736730E+02  0.50528859196E+02  0.29999998013E+02 0.  0.
         12    1    3    3    0    0  0.73087502676E+01  0.26306028272E+02  0.30128736730E+02  0.40659140804E+02  0.00000000000E+00 0. -1.
         11    1    4    4    0    0  0.13455446504E+01 -0.21910419363E+02 -0.14139799333E+02  0.26111508813E+02  0.51100000000E-03 0. -1.
        -11    1    4    4    0    0 -0.85165556699E+01 -0.83771106549E+01 -0.54115628242E+01  0.13114599341E+02  0.51100000000E-03 0.  1.
         12    1    4    4    0    0 -0.13773924809E+00  0.39815017462E+01 -0.10577374573E+02  0.11302751042E+02  0.00000000000E+00 0. -1.
</event>
<event>
 8    1  0.9870402E-014  0.9118800E+02  0.7816164E-02  0.1184000E+00
        -11   -1    0    0    0    0  0.00000000000E+00  0.00000000000E+00  0.45593999997E+02  0.45594000000E+02  0.51100000000E-03 0. -1.
         11   -1    0    0    0    0 -0.00000000000E+00 -0.00000000000E+00 -0.45593999997E+02  0.45594000000E+02  0.51100000000E-03 0.  1.
         23    2    1    2    0    0  0.17763568394E-14  0.00000000000E+00 -0.71054273576E-14  0.91188000000E+02  0.91188000000E+02 0.  0.
    9900012    2    3    3    0    0 -0.74477450383E+01  0.93194605695E+01  0.38869576379E+02  0.50528865487E+02  0.30000017134E+02 0.  0.
        -12    1    3    3    0    0  0.74477450383E+01 -0.93194605695E+01 -0.38869576379E+02  0.40659134513E+02  0.00000000000E+00 0.  1.
         11    1    4    4    0    0  0.10814301897E+01  0.77270768144E+01  0.33641275231E+02  0.34534223703E+02  0.51100000000E-03 0. -1.
        -11    1    4    4    0    0 -0.11585628803E+01 -0.48964584294E+01  0.38797224084E+00  0.50465924958E+01  0.51100000000E-03 0.  1.
        -12    1    4    4    0    0 -0.73706123477E+01  0.64888421845E+01  0.48403289072E+01  0.10948049288E+02  0.00000000000E+00 0.  1.
</event>
<event>
 8    1  0.9870402E-014  0.9118800E+02  0.7816164E-02  0.1184000E+00
        -11   -1    0    0    0    0  0.00000000000E+00  0.00000000000E+00  0.45593999997E+02  0.45594000000E+02  0.51100000000E-03 0. -1.
         11   -1    0    0    0    0 -0.00000000000E+00 -0.00000000000E+00 -0.45593999997E+02  0.45594000000E+02  0.51100000000E-03 0.  1.
         23    2    1    2    0    0 -0.35527136788E-14  0.35527136788E-14  0.00000000000E+00  0.91188000000E+02  0.91188000000E+02 0.  0.
    9900012    2    3    3    0    0  0.23324668141E+02 -0.18648526074E+02 -0.27592717508E+02  0.50528859230E+02  0.29999998116E+02 0.  0.
         12    1    3    3    0    0 -0.23324668141E+02  0.18648526074E+02  0.27592717508E+02  0.40659140770E+02  0.00000000000E+00 0. -1.
         11    1    4    4    0    0  0.41645910553E+01 -0.29906313710E+01  0.12359258563E+01  0.52740124799E+01  0.51100000000E-03 0. -1.
        -11    1    4    4    0    0  0.17583028577E+02  0.12210604086E+01 -0.11698059755E+02  0.21154159987E+02  0.51100000000E-03 0.  1.
        -12    1    4    4    0    0  0.15770485088E+01 -0.16878955112E+02 -0.17130583609E+02  0.24100686763E+02  0.00000000000E+00 0.  1.
</event>
<event>
 8    1  0.9870402E-014  0.9118800E+02  0.7816164E-02  0.1184000E+00
        -11   -1    0    0    0    0  0.00000000000E+00  0.00000000000E+00  0.45593999997E+02  0.45594000000E+02  0.51100000000E-03 0.  1.
         11   -1    0    0    0    0 -0.00000000000E+00 -0.00000000000E+00 -0.45593999997E+02  0.45594000000E+02  0.51100000000E-03 0. -1.
         23    2    1    2    0    0  0.00000000000E+00 -0.71054273576E-14 -0.17763568394E-14  0.91188000000E+02  0.91188000000E+02 0.  0.
    9900012    2    3    3    0    0 -0.91555496825E+01 -0.36989732374E+02 -0.14181010598E+02  0.50528862618E+02  0.30000008414E+02 0.  0.
         12    1    3    3    0    0  0.91555496825E+01  0.36989732374E+02  0.14181010598E+02  0.40659137382E+02  0.00000000000E+00 0. -1.
         11    1    4    4    0    0  0.55964359246E+01 -0.11165973144E+02  0.15485866946E+01  0.12585593840E+02  0.51100000000E-03 0. -1.
        -11    1    4    4    0    0 -0.24020962575E+01 -0.20468758889E+02 -0.64545291950E+01  0.21596321545E+02  0.51100000000E-03 0.  1.
         12    1    4    4    0    0 -0.12349889350E+02 -0.53550003409E+01 -0.92750680980E+01  0.16346947232E+02  0.00000000000E+00 0. -1.
</event>
<event>
 8    1  0.9870402E-014  0.9118800E+02  0.7816164E-02  0.1184000E+00
        -11   -1    0    0    0    0  0.00000000000E+00  0.00000000000E+00  0.45593999997E+02  0.45594000000E+02  0.51100000000E-03 0. -1.
         11   -1    0    0    0    0 -0.00000000000E+00 -0.00000000000E+00 -0.45593999997E+02  0.45594000000E+02  0.51100000000E-03 0.  1.
         23    2    1    2    0    0  0.00000000000E+00 -0.17763568394E-14 -0.88817841970E-15  0.91188000000E+02  0.91188000000E+02 0.  0.
    9900012    2    3    3    0    0  0.37620849972E+02 -0.13415520238E+02 -0.76066835448E+01  0.50528853791E+02  0.29999981584E+02 0.  0.
         12    1    3    3    0    0 -0.37620849972E+02  0.13415520238E+02  0.76066835448E+01  0.40659146209E+02  0.00000000000E+00 0. -1.
         11    1    4    4    0    0  0.22605330695E+02 -0.54193124303E+01  0.12401242550E+01  0.23278913881E+02  0.51100000000E-03 0. -1.
        -11    1    4    4    0    0  0.16445612937E+02 -0.12706406840E+02 -0.63532630309E+01  0.21731886965E+02  0.51100000000E-03 0.  1.
         12    1    4    4    0    0 -0.14300936600E+01  0.47101990318E+01 -0.24935447689E+01  0.55180529456E+01  0.00000000000E+00 0. -1.
</event>
<event>
 8    1  0.9870402E-014  0.9118800E+02  0.7816164E-02  0.1184000E+00
        -11   -1    0    0    0    0  0.00000000000E+00  0.00000000000E+00  0.45593999997E+02  0.45594000000E+02  0.51100000000E-03 0. -1.
         11   -1    0    0    0    0 -0.00000000000E+00 -0.00000000000E+00 -0.45593999997E+02  0.45594000000E+02  0.51100000000E-03 0.  1.
         23    2    1    2    0    0  0.00000000000E+00  0.00000000000E+00  0.00000000000E+00  0.91188000000E+02  0.91188000000E+02 0.  0.
    9900012    2    3    3    0    0 -0.70567234664E+01 -0.22965766047E+02 -0.32801566646E+02  0.50528849362E+02  0.29999968119E+02 0.  0.
         12    1    3    3    0    0  0.70567234664E+01  0.22965766047E+02  0.32801566646E+02  0.40659150638E+02  0.00000000000E+00 0. -1.
         11    1    4    4    0    0 -0.70531309844E+01 -0.14876602883E+01  0.26553815009E+01  0.76818514040E+01  0.51100000000E-03 0. -1.
        -11    1    4    4    0    0 -0.58231657767E+00 -0.79231972819E+01 -0.47002207406E+01  0.92308300297E+01  0.51100000000E-03 0.  1.
        -12    1    4    4    0    0  0.57872409574E+00 -0.13554908476E+02 -0.30756727407E+02  0.33616167928E+02  0.00000000000E+00 0.  1.
</event>
<event>
 8    1  0.9870402E-014  0.9118800E+02  0.7816164E-02  0.1184000E+00
        -11   -1    0    0    0    0  0.00000000000E+00  0.00000000000E+00  0.45593999997E+02  0.45594000000E+02  0.51100000000E-03 0.  1.
         11   -1    0    0    0    0 -0.00000000000E+00 -0.00000000000E+00 -0.45593999997E+02  0.45594000000E+02  0.51100000000E-03 0. -1.
         23    2    1    2    0    0 -0.35527136788E-14 -0.71054273576E-14  0.17763568394E-14  0.91188000000E+02  0.91188000000E+02 0.  0.
    9900012    2    3    3    0    0  0.16634517980E+02  0.33624656352E+02 -0.15679322463E+02  0.50528857656E+02  0.29999993332E+02 0.  0.
         12    1    3    3    0    0 -0.16634517980E+02 -0.33624656352E+02  0.15679322463E+02  0.40659142344E+02  0.00000000000E+00 0. -1.
         11    1    4    4    0    0  0.16362775476E+01  0.19378570949E+02 -0.10834982216E+02  0.22262148506E+02  0.51100000000E-03 0.  1.
        -11    1    4    4    0    0  0.17031935468E+02  0.16685705975E+02 -0.64605910951E+01  0.24703012918E+02  0.51100000000E-03 0. -1.
        -12    1    4    4    0    0 -0.20336950352E+01 -0.24396205716E+01  0.16162508485E+01  0.35636962321E+01  0.00000000000E+00 0.  1.
</event>
<event>
 8    1  0.9870402E-014  0.9118800E+02  0.7816164E-02  0.1184000E+00
        -11   -1    0    0    0    0  0.00000000000E+00  0.00000000000E+00  0.45593999997E+02  0.45594000000E+02  0.51100000000E-03 0. -1.
         11   -1    0    0    0    0 -0.00000000000E+00 -0.00000000000E+00 -0.45593999997E+02  0.45594000000E+02  0.51100000000E-03 0.  1.
         23    2    1    2    0    0  0.00000000000E+00  0.17763568394E-14  0.00000000000E+00  0.91188000000E+02  0.91188000000E+02 0.  0.
    9900012    2    3    3    0    0 -0.97309864095E+01 -0.12285564979E+02  0.37517143076E+02  0.50528889976E+02  0.30000091570E+02 0.  0.
        -12    1    3    3    0    0  0.97309864095E+01  0.12285564979E+02 -0.37517143076E+02  0.40659110024E+02  0.00000000000E+00 0.  1.
         11    1    4    4    0    0 -0.14225148259E+01 -0.96784437292E+01  0.13253890988E+02  0.16473052177E+02  0.51100000000E-03 0. -1.
        -11    1    4    4    0    0  0.68140549290E+01  0.33884870885E+01  0.83863819689E+01  0.11324512886E+02  0.51100000000E-03 0.  1.
        -12    1    4    4    0    0 -0.15122526513E+02 -0.59956083382E+01  0.15876870120E+02  0.22731324912E+02  0.00000000000E+00 0.  1.
</event>
<event>
 8    1  0.9870402E-014  0.9118800E+02  0.7816164E-02  0.1184000E+00
        -11   -1    0    0    0    0  0.00000000000E+00  0.00000000000E+00  0.45593999997E+02  0.45594000000E+02  0.51100000000E-03 0. -1.
         11   -1    0    0    0    0 -0.00000000000E+00 -0.00000000000E+00 -0.45593999997E+02  0.45594000000E+02  0.51100000000E-03 0.  1.
         23    2    1    2    0    0  0.00000000000E+00  0.88817841970E-15 -0.17763568394E-14  0.91188000000E+02  0.91188000000E+02 0.  0.
    9900012    2    3    3    0    0 -0.38088002264E+02 -0.79986759270E+01 -0.11768212211E+02  0.50528861400E+02  0.30000004713E+02 0.  0.
         12    1    3    3    0    0  0.38088002264E+02  0.79986759270E+01  0.11768212211E+02  0.40659138600E+02  0.00000000000E+00 0. -1.
         11    1    4    4    0    0 -0.14030336940E+02 -0.77010349667E+01 -0.16564544891E+02  0.23033463524E+02  0.51100000000E-03 0. -1.
        -11    1    4    4    0    0 -0.14102696590E+02 -0.45323567649E+01 -0.16458931060E+01  0.14904270305E+02  0.51100000000E-03 0.  1.
         12    1    4    4    0    0 -0.99549687339E+01  0.42347158046E+01  0.64422257860E+01  0.12591127571E+02  0.00000000000E+00 0. -1.
</event>
<event>
 8    1  0.1515594E-013  0.9118800E+02  0.7816164E-02  0.1184000E+00
        -11   -1    0    0    0    0  0.00000000000E+00  0.00000000000E+00  0.45593999997E+02  0.45594000000E+02  0.51100000000E-03 0. -1.
         11   -1    0    0    0    0 -0.00000000000E+00 -0.00000000000E+00 -0.45593999997E+02  0.45594000000E+02  0.51100000000E-03 0.  1.
         23    2    1    2    0    0  0.00000000000E+00  0.00000000000E+00  0.35527136788E-14  0.91188000000E+02  0.91188000000E+02 0.  0.
    9900012    2    3    3    0    0  0.80648077385E+01 -0.30718405588E+02 -0.25387075809E+02  0.50528865924E+02  0.30000018462E+02 0.  0.
         12    1    3    3    0    0 -0.80648077385E+01  0.30718405588E+02  0.25387075809E+02  0.40659134076E+02  0.00000000000E+00 0. -1.
         11    1    4    4    0    0  0.10829328390E+02 -0.48986215122E+01 -0.89363241889E+01  0.14870397989E+02  0.51100000000E-03 0. -1.
        -11    1    4    4    0    0  0.34860568867E+01 -0.20640860411E+02 -0.17740344347E+02  0.27439342721E+02  0.51100000000E-03 0.  1.
         12    1    4    4    0    0 -0.62505775377E+01 -0.51789236641E+01  0.12895927274E+01  0.82191252136E+01  0.00000000000E+00 0. -1.
</event>
<event>
 8    1  0.9870402E-014  0.9118800E+02  0.7816164E-02  0.1184000E+00
        -11   -1    0    0    0    0  0.00000000000E+00  0.00000000000E+00  0.45593999997E+02  0.45594000000E+02  0.51100000000E-03 0. -1.
         11   -1    0    0    0    0 -0.00000000000E+00 -0.00000000000E+00 -0.45593999997E+02  0.45594000000E+02  0.51100000000E-03 0.  1.
         23    2    1    2    0    0  0.00000000000E+00 -0.35527136788E-14  0.00000000000E+00  0.91188000000E+02  0.91188000000E+02 0.  0.
    9900012    2    3    3    0    0 -0.20788713247E+02 -0.27844728705E+02 -0.21110789542E+02  0.50528868797E+02  0.30000027195E+02 0.  0.
         12    1    3    3    0    0  0.20788713247E+02  0.27844728705E+02  0.21110789542E+02  0.40659131203E+02  0.00000000000E+00 0. -1.
         11    1    4    4    0    0 -0.12924143814E+02 -0.61851086256E+01  0.12151150969E+01  0.14379345152E+02  0.51100000000E-03 0. -1.
        -11    1    4    4    0    0  0.16319522383E+01 -0.13073856533E+02 -0.39518652128E+01  0.13755225613E+02  0.51100000000E-03 0.  1.
        -12    1    4    4    0    0 -0.94965216714E+01 -0.85857635470E+01 -0.18374039426E+02  0.22394298032E+02  0.00000000000E+00 0.  1.
</event>
<event>
 8    1  0.9870402E-014  0.9118800E+02  0.7816164E-02  0.1184000E+00
        -11   -1    0    0    0    0  0.00000000000E+00  0.00000000000E+00  0.45593999997E+02  0.45594000000E+02  0.51100000000E-03 0. -1.
         11   -1    0    0    0    0 -0.00000000000E+00 -0.00000000000E+00 -0.45593999997E+02  0.45594000000E+02  0.51100000000E-03 0.  1.
         23    2    1    2    0    0  0.00000000000E+00  0.00000000000E+00  0.00000000000E+00  0.91188000000E+02  0.91188000000E+02 0.  0.
    9900012    2    3    3    0    0  0.21578518792E+02  0.33682508682E+02  0.72816073769E+01  0.50528859941E+02  0.30000000275E+02 0.  0.
        -12    1    3    3    0    0 -0.21578518792E+02 -0.33682508682E+02 -0.72816073769E+01  0.40659140059E+02  0.00000000000E+00 0.  1.
         11    1    4    4    0    0  0.26253429790E+01  0.27708331636E+01 -0.37409667232E+01  0.53446023672E+01  0.51100000000E-03 0. -1.
        -11    1    4    4    0    0 -0.54994188871E+01  0.10807991757E+02  0.38850198034E+01  0.12733800416E+02  0.51100000000E-03 0.  1.
         12    1    4    4    0    0  0.24452594700E+02  0.20103683762E+02  0.71375542967E+01  0.32450457157E+02  0.00000000000E+00 0. -1.
</event>
<event>
 8    1  0.9870402E-014  0.9118800E+02  0.7816164E-02  0.1184000E+00
        -11   -1    0    0    0    0  0.00000000000E+00  0.00000000000E+00  0.45593999997E+02  0.45594000000E+02  0.51100000000E-03 0. -1.
         11   -1    0    0    0    0 -0.00000000000E+00 -0.00000000000E+00 -0.45593999997E+02  0.45594000000E+02  0.51100000000E-03 0.  1.
         23    2    1    2    0    0  0.88817841970E-15  0.00000000000E+00  0.00000000000E+00  0.91188000000E+02  0.91188000000E+02 0.  0.
    9900012    2    3    3    0    0  0.49186941272E+01  0.27538884530E+02 -0.29505629912E+02  0.50528856999E+02  0.29999991333E+02 0.  0.
         12    1    3    3    0    0 -0.49186941272E+01 -0.27538884530E+02  0.29505629912E+02  0.40659143001E+02  0.00000000000E+00 0. -1.
         11    1    4    4    0    0  0.11982980529E+02  0.10536553027E+02 -0.80440296759E+01  0.17869448390E+02  0.51100000000E-03 0. -1.
        -11    1    4    4    0    0 -0.59084855435E+01  0.11883975196E+02 -0.31906145272E+01  0.13649875061E+02  0.51100000000E-03 0.  1.
         12    1    4    4    0    0 -0.11558008584E+01  0.51183563072E+01 -0.18270985709E+02  0.19009533548E+02  0.00000000000E+00 0. -1.
</event>
<event>
 8    1  0.9870402E-014  0.9118800E+02  0.7816164E-02  0.1184000E+00
        -11   -1    0    0    0    0  0.00000000000E+00  0.00000000000E+00  0.45593999997E+02  0.45594000000E+02  0.51100000000E-03 0.  1.
         11   -1    0    0    0    0 -0.00000000000E+00 -0.00000000000E+00 -0.45593999997E+02  0.45594000000E+02  0.51100000000E-03 0. -1.
         23    2    1    2    0    0  0.00000000000E+00  0.00000000000E+00 -0.44408920985E-14  0.91188000000E+02  0.91188000000E+02 0.  0.
    9900012    2    3    3    0    0  0.11667765107E+02  0.38471061872E+02 -0.60832830700E+01  0.50528859858E+02  0.30000000025E+02 0.  0.
         12    1    3    3    0    0 -0.11667765107E+02 -0.38471061872E+02  0.60832830700E+01  0.40659140142E+02  0.00000000000E+00 0. -1.
         11    1    4    4    0    0 -0.15204979617E+01 -0.23478702353E+00 -0.12498181240E+01  0.19821918681E+01  0.51100000000E-03 0. -1.
        -11    1    4    4    0    0  0.10219665866E+02  0.22690118316E+02 -0.15274330675E+02  0.29199113299E+02  0.51100000000E-03 0.  1.
        -12    1    4    4    0    0  0.29685972028E+01  0.16015730580E+02  0.10440865729E+02  0.19347554691E+02  0.00000000000E+00 0.  1.
</event>
<event>
 8    1  0.9870402E-014  0.9118800E+02  0.7816164E-02  0.1184000E+00
        -11   -1    0    0    0    0  0.00000000000E+00  0.00000000000E+00  0.45593999997E+02  0.45594000000E+02  0.51100000000E-03 0. -1.
         11   -1    0    0    0    0 -0.00000000000E+00 -0.00000000000E+00 -0.45593999997E+02  0.45594000000E+02  0.51100000000E-03 0.  1.
         23    2    1    2    0    0 -0.88817841970E-15  0.00000000000E+00 -0.71054273576E-14  0.91188000000E+02  0.91188000000E+02 0.  0.
    9900012    2    3    3    0    0  0.54505983468E+01 -0.13148424570E+02  0.38086422426E+02  0.50528860016E+02  0.30000000505E+02 0.  0.
        -12    1    3    3    0    0 -0.54505983468E+01  0.13148424570E+02 -0.38086422426E+02  0.40659139984E+02  0.00000000000E+00 0.  1.
         11    1    4    4    0    0  0.67769851256E+01  0.20663531700E+01  0.12195489339E+02  0.14104159078E+02  0.51100000000E-03 0. -1.
        -11    1    4    4    0    0 -0.14664875462E+01  0.19367535938E+01 -0.23520521670E+01  0.33813828331E+01  0.51100000000E-03 0.  1.
         12    1    4    4    0    0  0.14010076734E+00 -0.17151531334E+02  0.28242985254E+02  0.33043318105E+02  0.00000000000E+00 0. -1.
</event>
<event>
 8    1  0.9870402E-014  0.9118800E+02  0.7816164E-02  0.1184000E+00
        -11   -1    0    0    0    0  0.00000000000E+00  0.00000000000E+00  0.45593999997E+02  0.45594000000E+02  0.51100000000E-03 0. -1.
         11   -1    0    0    0    0 -0.00000000000E+00 -0.00000000000E+00 -0.45593999997E+02  0.45594000000E+02  0.51100000000E-03 0.  1.
         23    2    1    2    0    0  0.88817841970E-15  0.00000000000E+00  0.00000000000E+00  0.91188000000E+02  0.91188000000E+02 0.  0.
    9900012    2    3    3    0    0 -0.34808571841E+01 -0.36494303344E+02 -0.17584525956E+02  0.50528854701E+02  0.29999984350E+02 0.  0.
         12    1    3    3    0    0  0.34808571841E+01  0.36494303344E+02  0.17584525956E+02  0.40659145299E+02  0.00000000000E+00 0. -1.
         11    1    4    4    0    0  0.29927867194E+01  0.43959965398E-01  0.31088204126E+01  0.43154917965E+01  0.51100000000E-03 0. -1.
        -11    1    4    4    0    0  0.62621708382E+01 -0.13794484370E+02 -0.92094537268E+01  0.17728976870E+02  0.51100000000E-03 0.  1.
        -12    1    4    4    0    0 -0.12735814742E+02 -0.22743778939E+02 -0.11483892642E+02  0.28484386035E+02  0.00000000000E+00 0.  1.
</event>
<event>
 8    1  0.9870402E-014  0.9118800E+02  0.7816164E-02  0.1184000E+00
        -11   -1    0    0    0    0  0.00000000000E+00  0.00000000000E+00  0.45593999997E+02  0.45594000000E+02  0.51100000000E-03 0. -1.
         11   -1    0    0    0    0 -0.00000000000E+00 -0.00000000000E+00 -0.45593999997E+02  0.45594000000E+02  0.51100000000E-03 0.  1.
         23    2    1    2    0    0  0.35527136788E-14  0.17763568394E-14  0.00000000000E+00  0.91188000000E+02  0.91188000000E+02 0.  0.
    9900012    2    3    3    0    0 -0.22798820905E+02  0.43755137686E+01 -0.33380133353E+02  0.50528872389E+02  0.30000038113E+02 0.  0.
         12    1    3    3    0    0  0.22798820905E+02 -0.43755137686E+01  0.33380133353E+02  0.40659127611E+02  0.00000000000E+00 0. -1.
         11    1    4    4    0    0 -0.29453547819E+01 -0.33052525436E+01 -0.34556775468E+00  0.44406335699E+01  0.51100000000E-03 0. -1.
        -11    1    4    4    0    0 -0.13384754611E+02 -0.65745154868E+01 -0.23270066196E+02  0.27638232413E+02  0.51100000000E-03 0.  1.
        -12    1    4    4    0    0 -0.64687115121E+01  0.14255281799E+02 -0.97644994025E+01  0.18450006406E+02  0.00000000000E+00 0.  1.
</event>
<event>
 8    1  0.9870402E-014  0.9118800E+02  0.7816164E-02  0.1184000E+00
        -11   -1    0    0    0    0  0.00000000000E+00  0.00000000000E+00  0.45593999997E+02  0.45594000000E+02  0.51100000000E-03 0. -1.
         11   -1    0    0    0    0 -0.00000000000E+00 -0.00000000000E+00 -0.45593999997E+02  0.45594000000E+02  0.51100000000E-03 0.  1.
         23    2    1    2    0    0  0.00000000000E+00  0.88817841970E-15  0.00000000000E+00  0.91188000000E+02  0.91188000000E+02 0.  0.
    9900012    2    3    3    0    0  0.14293462100E+02  0.73188978038E+01  0.37353663123E+02  0.50528862373E+02  0.30000007670E+02 0.  0.
        -12    1    3    3    0    0 -0.14293462100E+02 -0.73188978038E+01 -0.37353663123E+02  0.40659137627E+02  0.00000000000E+00 0.  1.
         11    1    4    4    0    0 -0.30398336455E+01  0.75016779217E+01  0.62765188001E+01  0.10242580180E+02  0.51100000000E-03 0. -1.
        -11    1    4    4    0    0  0.98308053020E+01  0.71472440735E+01  0.70055398841E+01  0.14028735512E+02  0.51100000000E-03 0.  1.
         12    1    4    4    0    0  0.75024904432E+01 -0.73300241914E+01  0.24071604439E+02  0.26257546682E+02  0.00000000000E+00 0. -1.
</event>
<event>
 8    1  0.9870402E-014  0.9118800E+02  0.7816164E-02  0.1184000E+00
        -11   -1    0    0    0    0  0.00000000000E+00  0.00000000000E+00  0.45593999997E+02  0.45594000000E+02  0.51100000000E-03 0. -1.
         11   -1    0    0    0    0 -0.00000000000E+00 -0.00000000000E+00 -0.45593999997E+02  0.45594000000E+02  0.51100000000E-03 0.  1.
         23    2    1    2    0    0  0.00000000000E+00  0.17763568394E-14  0.00000000000E+00  0.91188000000E+02  0.91188000000E+02 0.  0.
    9900012    2    3    3    0    0 -0.59731252481E+01  0.10779255962E+02  0.38746547554E+02  0.50528861646E+02  0.30000005458E+02 0.  0.
        -12    1    3    3    0    0  0.59731252481E+01 -0.10779255962E+02 -0.38746547554E+02  0.40659138354E+02  0.00000000000E+00 0.  1.
         11    1    4    4    0    0 -0.15730797822E+01 -0.57368481184E-01  0.58145779730E+01  0.60238848270E+01  0.51100000000E-03 0. -1.
        -11    1    4    4    0    0  0.42118920992E+01  0.16644608203E+02  0.11431374136E+02  0.20626665562E+02  0.51100000000E-03 0.  1.
         12    1    4    4    0    0 -0.86119375651E+01 -0.58079837601E+01  0.21500595446E+02  0.23878311257E+02  0.00000000000E+00 0. -1.
</event>
<event>
 8    1  0.9870402E-014  0.9118800E+02  0.7816164E-02  0.1184000E+00
        -11   -1    0    0    0    0  0.00000000000E+00  0.00000000000E+00  0.45593999997E+02  0.45594000000E+02  0.51100000000E-03 0. -1.
         11   -1    0    0    0    0 -0.00000000000E+00 -0.00000000000E+00 -0.45593999997E+02  0.45594000000E+02  0.51100000000E-03 0.  1.
         23    2    1    2    0    0  0.00000000000E+00 -0.88817841970E-15  0.00000000000E+00  0.91188000000E+02  0.91188000000E+02 0.  0.
    9900012    2    3    3    0    0  0.11014586838E+02  0.18383007598E+01 -0.39095591036E+02  0.50528859436E+02  0.29999998743E+02 0.  0.
         12    1    3    3    0    0 -0.11014586838E+02 -0.18383007598E+01  0.39095591036E+02  0.40659140564E+02  0.00000000000E+00 0. -1.
         11    1    4    4    0    0  0.47754649925E+01  0.78956975791E+01 -0.26996285185E+02  0.28529747987E+02  0.51100000000E-03 0.  1.
        -11    1    4    4    0    0  0.49802680025E+01 -0.33926129767E+01 -0.16007534959E+02  0.17104211993E+02  0.51100000000E-03 0. -1.
         12    1    4    4    0    0  0.12588538430E+01 -0.26647838425E+01  0.39082291077E+01  0.48948994560E+01  0.00000000000E+00 0. -1.
</event>
<event>
 8    1  0.9870402E-014  0.9118800E+02  0.7816164E-02  0.1184000E+00
        -11   -1    0    0    0    0  0.00000000000E+00  0.00000000000E+00  0.45593999997E+02  0.45594000000E+02  0.51100000000E-03 0. -1.
         11   -1    0    0    0    0 -0.00000000000E+00 -0.00000000000E+00 -0.45593999997E+02  0.45594000000E+02  0.51100000000E-03 0.  1.
         23    2    1    2    0    0  0.66613381478E-15  0.17763568394E-14  0.00000000000E+00  0.91188000000E+02  0.91188000000E+02 0.  0.
    9900012    2    3    3    0    0 -0.12674363670E+01 -0.56002304971E+01  0.40251665365E+02  0.50528861529E+02  0.30000005103E+02 0.  0.
        -12    1    3    3    0    0  0.12674363670E+01  0.56002304971E+01 -0.40251665365E+02  0.40659138471E+02  0.00000000000E+00 0.  1.
         11    1    4    4    0    0  0.11637976942E+02 -0.69039555631E+01  0.15403064146E+02  0.20502719212E+02  0.51100000000E-03 0. -1.
        -11    1    4    4    0    0 -0.21671805954E+01  0.21087562653E+01  0.15418935334E+02  0.15712641147E+02  0.51100000000E-03 0.  1.
        -12    1    4    4    0    0 -0.10738232714E+02 -0.80503119933E+00  0.94296658846E+01  0.14313501170E+02  0.00000000000E+00 0.  1.
</event>
<event>
 8    1  0.9870402E-014  0.9118800E+02  0.7816164E-02  0.1184000E+00
        -11   -1    0    0    0    0  0.00000000000E+00  0.00000000000E+00  0.45593999997E+02  0.45594000000E+02  0.51100000000E-03 0. -1.
         11   -1    0    0    0    0 -0.00000000000E+00 -0.00000000000E+00 -0.45593999997E+02  0.45594000000E+02  0.51100000000E-03 0.  1.
         23    2    1    2    0    0  0.00000000000E+00  0.00000000000E+00  0.17763568394E-14  0.91188000000E+02  0.91188000000E+02 0.  0.
    9900012    2    3    3    0    0  0.18267550118E+02 -0.34964959044E+02  0.98442921154E+01  0.50528907099E+02  0.30000143618E+02 0.  0.
        -12    1    3    3    0    0 -0.18267550118E+02  0.34964959044E+02 -0.98442921154E+01  0.40659092901E+02  0.00000000000E+00 0.  1.
         11    1    4    4    0    0  0.11882363278E+02 -0.24079057814E+02  0.12849804089E+02  0.29767583840E+02  0.51100000000E-03 0. -1.
        -11    1    4    4    0    0 -0.54073541430E+01 -0.19894797255E+01 -0.56852909593E+00  0.57897093192E+01  0.51100000000E-03 0.  1.
        -12    1    4    4    0    0  0.11792540983E+02 -0.88964215038E+01 -0.24369828774E+01  0.14971613940E+02  0.00000000000E+00 0.  1.
</event>
<event>
 8    1  0.9870402E-014  0.9118800E+02  0.7816164E-02  0.1184000E+00
        -11   -1    0    0    0    0  0.00000000000E+00  0.00000000000E+00  0.45593999997E+02  0.45594000000E+02  0.51100000000E-03 0. -1.
         11   -1    0    0    0    0 -0.00000000000E+00 -0.00000000000E+00 -0.45593999997E+02  0.45594000000E+02  0.51100000000E-03 0.  1.
         23    2    1    2    0    0 -0.88817841970E-15  0.00000000000E+00  0.00000000000E+00  0.91188000000E+02  0.91188000000E+02 0.  0.
    9900012    2    3    3    0    0  0.73690405715E+01 -0.18722411397E+02 -0.35331767763E+02  0.50528864978E+02  0.30000015589E+02 0.  0.
         12    1    3    3    0    0 -0.73690405715E+01  0.18722411397E+02  0.35331767763E+02  0.40659135022E+02  0.00000000000E+00 0. -1.
         11    1    4    4    0    0 -0.31181730439E+01  0.68237797949E+01 -0.62488232284E+01  0.97639523669E+01  0.51100000000E-03 0. -1.
        -11    1    4    4    0    0 -0.34117896290E+00 -0.51088354089E+01 -0.78223995630E+01  0.93491463516E+01  0.51100000000E-03 0.  1.
        -12    1    4    4    0    0  0.10828392578E+02 -0.20437355783E+02 -0.21260544972E+02  0.31415766260E+02  0.00000000000E+00 0.  1.
</event>
<event>
 8    1  0.9870402E-014  0.9118800E+02  0.7816164E-02  0.1184000E+00
        -11   -1    0    0    0    0  0.00000000000E+00  0.00000000000E+00  0.45593999997E+02  0.45594000000E+02  0.51100000000E-03 0. -1.
         11   -1    0    0    0    0 -0.00000000000E+00 -0.00000000000E+00 -0.45593999997E+02  0.45594000000E+02  0.51100000000E-03 0.  1.
         23    2    1    2    0    0  0.00000000000E+00 -0.22204460493E-15  0.00000000000E+00  0.91188000000E+02  0.91188000000E+02 0.  0.
    9900012    2    3    3    0    0  0.16721833098E+02  0.17757889742E+01  0.37018814759E+02  0.50528858656E+02  0.29999996371E+02 0.  0.
        -12    1    3    3    0    0 -0.16721833098E+02 -0.17757889742E+01 -0.37018814759E+02  0.40659141344E+02  0.00000000000E+00 0.  1.
         11    1    4    4    0    0  0.21673480387E+02  0.23491191478E+01  0.35858129106E+02  0.41965027536E+02  0.51100000000E-03 0.  1.
        -11    1    4    4    0    0 -0.35957456518E+01 -0.33719932491E+01  0.20356696244E+01  0.53332613235E+01  0.51100000000E-03 0. -1.
        -12    1    4    4    0    0 -0.13559016364E+01  0.27986630755E+01 -0.87498397177E+00  0.32305697963E+01  0.00000000000E+00 0.  1.
</event>
<event>
 8    1  0.9870402E-014  0.9118800E+02  0.7816164E-02  0.1184000E+00
        -11   -1    0    0    0    0  0.00000000000E+00  0.00000000000E+00  0.45593999997E+02  0.45594000000E+02  0.51100000000E-03 0. -1.
         11   -1    0    0    0    0 -0.00000000000E+00 -0.00000000000E+00 -0.45593999997E+02  0.45594000000E+02  0.51100000000E-03 0.  1.
         23    2    1    2    0    0  0.00000000000E+00  0.35527136788E-14 -0.13322676296E-14  0.91188000000E+02  0.91188000000E+02 0.  0.
    9900012    2    3    3    0    0 -0.25504367054E+02 -0.31469084023E+02 -0.35199106684E+01  0.50528858848E+02  0.29999996956E+02 0.  0.
         12    1    3    3    0    0  0.25504367054E+02  0.31469084023E+02  0.35199106684E+01  0.40659141152E+02  0.00000000000E+00 0. -1.
         11    1    4    4    0    0  0.10612494890E+01 -0.95301959461E+00  0.26515416813E+01  0.30108421371E+01  0.51100000000E-03 0. -1.
        -11    1    4    4    0    0 -0.21243548354E+02 -0.23641135458E+02  0.62143815665E+01  0.32385338827E+02  0.51100000000E-03 0.  1.
         12    1    4    4    0    0 -0.53220681892E+01 -0.68749289701E+01 -0.12385833916E+02  0.15132677884E+02  0.00000000000E+00 0. -1.
</event>
<event>
 8    1  0.9870402E-014  0.9118800E+02  0.7816164E-02  0.1184000E+00
        -11   -1    0    0    0    0  0.00000000000E+00  0.00000000000E+00  0.45593999997E+02  0.45594000000E+02  0.51100000000E-03 0. -1.
         11   -1    0    0    0    0 -0.00000000000E+00 -0.00000000000E+00 -0.45593999997E+02  0.45594000000E+02  0.51100000000E-03 0.  1.
         23    2    1    2    0    0  0.00000000000E+00  0.22204460493E-15 -0.17763568394E-14  0.91188000000E+02  0.91188000000E+02 0.  0.
    9900012    2    3    3    0    0 -0.37627838660E+02 -0.15574556339E+01  0.15325961977E+02  0.50528867929E+02  0.30000024556E+02 0.  0.
        -12    1    3    3    0    0  0.37627838660E+02  0.15574556339E+01 -0.15325961977E+02  0.40659132071E+02  0.00000000000E+00 0.  1.
         11    1    4    4    0    0 -0.48073746793E+01 -0.68011949741E+00  0.80218351500E+01  0.93767400131E+01  0.51100000000E-03 0. -1.
        -11    1    4    4    0    0  0.23760351779E+01  0.20220145679E+00 -0.35745389754E+01  0.42969474914E+01  0.51100000000E-03 0.  1.
         12    1    4    4    0    0 -0.35196499159E+02 -0.10795375933E+01  0.10878665802E+02  0.36855180424E+02  0.00000000000E+00 0. -1.
</event>
<event>
 8    1  0.9870402E-014  0.9118800E+02  0.7816164E-02  0.1184000E+00
        -11   -1    0    0    0    0  0.00000000000E+00  0.00000000000E+00  0.45593999997E+02  0.45594000000E+02  0.51100000000E-03 0. -1.
         11   -1    0    0    0    0 -0.00000000000E+00 -0.00000000000E+00 -0.45593999997E+02  0.45594000000E+02  0.51100000000E-03 0.  1.
         23    2    1    2    0    0 -0.44408920985E-15  0.00000000000E+00  0.00000000000E+00  0.91188000000E+02  0.91188000000E+02 0.  0.
    9900012    2    3    3    0    0  0.33763279022E+01 -0.39037830036E+02  0.10854208881E+02  0.50528860628E+02  0.30000002366E+02 0.  0.
        -12    1    3    3    0    0 -0.33763279022E+01  0.39037830036E+02 -0.10854208881E+02  0.40659139372E+02  0.00000000000E+00 0.  1.
         11    1    4    4    0    0  0.40927316533E+01 -0.18456100320E+01  0.36581123072E+01  0.57912446580E+01  0.51100000000E-03 0. -1.
        -11    1    4    4    0    0  0.39032662306E+01 -0.31351714249E+02  0.14086789466E+02  0.34591951540E+02  0.51100000000E-03 0.  1.
        -12    1    4    4    0    0 -0.46196699817E+01 -0.58405057550E+01 -0.68906928917E+01  0.10145664431E+02  0.00000000000E+00 0.  1.
</event>
<event>
 8    1  0.9870402E-014  0.9118800E+02  0.7816164E-02  0.1184000E+00
        -11   -1    0    0    0    0  0.00000000000E+00  0.00000000000E+00  0.45593999997E+02  0.45594000000E+02  0.51100000000E-03 0. -1.
         11   -1    0    0    0    0 -0.00000000000E+00 -0.00000000000E+00 -0.45593999997E+02  0.45594000000E+02  0.51100000000E-03 0.  1.
         23    2    1    2    0    0  0.00000000000E+00  0.17763568394E-14  0.00000000000E+00  0.91188000000E+02  0.91188000000E+02 0.  0.
    9900012    2    3    3    0    0  0.18220133266E+02  0.13160907562E+02 -0.33881874880E+02  0.50528878152E+02  0.30000055630E+02 0.  0.
         12    1    3    3    0    0 -0.18220133266E+02 -0.13160907562E+02  0.33881874880E+02  0.40659121848E+02  0.00000000000E+00 0. -1.
         11    1    4    4    0    0 -0.43773679739E+01  0.50540309467E+01 -0.80579366326E+01  0.10470669617E+02  0.51100000000E-03 0. -1.
        -11    1    4    4    0    0  0.10783893930E+02  0.13473829746E+02 -0.17848661957E+02  0.24827629574E+02  0.51100000000E-03 0.  1.
        -12    1    4    4    0    0  0.11813607309E+02 -0.53669531314E+01 -0.79752762905E+01  0.15230578961E+02  0.00000000000E+00 0.  1.
</event>
<event>
 8    1  0.9870402E-014  0.9118800E+02  0.7816164E-02  0.1184000E+00
        -11   -1    0    0    0    0  0.00000000000E+00  0.00000000000E+00  0.45593999997E+02  0.45594000000E+02  0.51100000000E-03 0. -1.
         11   -1    0    0    0    0 -0.00000000000E+00 -0.00000000000E+00 -0.45593999997E+02  0.45594000000E+02  0.51100000000E-03 0.  1.
         23    2    1    2    0    0  0.00000000000E+00 -0.35527136788E-14  0.00000000000E+00  0.91188000000E+02  0.91188000000E+02 0.  0.
    9900012    2    3    3    0    0  0.29164758129E+02 -0.19616333803E+02 -0.20439752707E+02  0.50528841630E+02  0.29999944620E+02 0.  0.
         12    1    3    3    0    0 -0.29164758129E+02  0.19616333803E+02  0.20439752707E+02  0.40659158370E+02  0.00000000000E+00 0. -1.
         11    1    4    4    0    0  0.63450270491E+01 -0.82511509877E+01 -0.20490424613E+01  0.10608460593E+02  0.51100000000E-03 0. -1.
        -11    1    4    4    0    0  0.27023419500E+02 -0.62008281357E+01 -0.10628047499E+02  0.29692943016E+02  0.51100000000E-03 0.  1.
        -12    1    4    4    0    0 -0.42036884193E+01 -0.51643546792E+01 -0.77626627465E+01  0.10227438022E+02  0.00000000000E+00 0.  1.
</event>
<event>
 8    1  0.9870402E-014  0.9118800E+02  0.7816164E-02  0.1184000E+00
        -11   -1    0    0    0    0  0.00000000000E+00  0.00000000000E+00  0.45593999997E+02  0.45594000000E+02  0.51100000000E-03 0. -1.
         11   -1    0    0    0    0 -0.00000000000E+00 -0.00000000000E+00 -0.45593999997E+02  0.45594000000E+02  0.51100000000E-03 0.  1.
         23    2    1    2    0    0  0.00000000000E+00  0.00000000000E+00  0.17763568394E-14  0.91188000000E+02  0.91188000000E+02 0.  0.
    9900012    2    3    3    0    0  0.33384035625E+02 -0.19105200705E+02  0.13178147342E+02  0.50528854707E+02  0.29999984367E+02 0.  0.
        -12    1    3    3    0    0 -0.33384035625E+02  0.19105200705E+02 -0.13178147342E+02  0.40659145293E+02  0.00000000000E+00 0.  1.
         11    1    4    4    0    0  0.17355162135E+02 -0.18538731345E+02  0.14890740167E+02  0.29438416323E+02  0.51100000000E-03 0. -1.
        -11    1    4    4    0    0  0.29550692744E+01 -0.57738443121E+01 -0.26044844045E+01  0.69894958210E+01  0.51100000000E-03 0.  1.
        -12    1    4    4    0    0  0.13073804216E+02  0.52073749526E+01  0.89189157927E+00  0.14100942563E+02  0.00000000000E+00 0.  1.
</event>
<event>
 8    1  0.9870402E-014  0.9118800E+02  0.7816164E-02  0.1184000E+00
        -11   -1    0    0    0    0  0.00000000000E+00  0.00000000000E+00  0.45593999997E+02  0.45594000000E+02  0.51100000000E-03 0. -1.
         11   -1    0    0    0    0 -0.00000000000E+00 -0.00000000000E+00 -0.45593999997E+02  0.45594000000E+02  0.51100000000E-03 0.  1.
         23    2    1    2    0    0  0.00000000000E+00  0.00000000000E+00  0.17763568394E-14  0.91188000000E+02  0.91188000000E+02 0.  0.
    9900012    2    3    3    0    0 -0.32341610141E+02 -0.21581062117E+02  0.11893073318E+02  0.50528841357E+02  0.29999943787E+02 0.  0.
        -12    1    3    3    0    0  0.32341610141E+02  0.21581062117E+02 -0.11893073318E+02  0.40659158643E+02  0.00000000000E+00 0.  1.
         11    1    4    4    0    0 -0.13840698789E+02 -0.68064110236E+01  0.79053427047E+01  0.17331665169E+02  0.51100000000E-03 0. -1.
        -11    1    4    4    0    0  0.28128996227E+01  0.12347749144E+01 -0.42974960123E+01  0.52825699818E+01  0.51100000000E-03 0.  1.
         12    1    4    4    0    0 -0.21313810975E+02 -0.16009426008E+02  0.82852266257E+01  0.27914606206E+02  0.00000000000E+00 0. -1.
</event>
<event>
 8    1  0.9870402E-014  0.9118800E+02  0.7816164E-02  0.1184000E+00
        -11   -1    0    0    0    0  0.00000000000E+00  0.00000000000E+00  0.45593999997E+02  0.45594000000E+02  0.51100000000E-03 0.  1.
         11   -1    0    0    0    0 -0.00000000000E+00 -0.00000000000E+00 -0.45593999997E+02  0.45594000000E+02  0.51100000000E-03 0. -1.
         23    2    1    2    0    0  0.00000000000E+00  0.00000000000E+00  0.00000000000E+00  0.91188000000E+02  0.91188000000E+02 0.  0.
    9900012    2    3    3    0    0  0.68098175066E+01  0.38936335846E+02  0.95265046699E+01  0.50528853983E+02  0.29999982167E+02 0.  0.
        -12    1    3    3    0    0 -0.68098175066E+01 -0.38936335846E+02 -0.95265046699E+01  0.40659146017E+02  0.00000000000E+00 0.  1.
         11    1    4    4    0    0 -0.33601271128E+01  0.73722942605E+01  0.49156046660E+01  0.94765155184E+01  0.51100000000E-03 0. -1.
        -11    1    4    4    0    0 -0.68178741607E+00  0.92469490806E+00 -0.65769276103E+01  0.66765164424E+01  0.51100000000E-03 0.  1.
        -12    1    4    4    0    0  0.10851732035E+02  0.30639346677E+02  0.11187827614E+02  0.34375822022E+02  0.00000000000E+00 0.  1.
</event>
<event>
 8    1  0.9870402E-014  0.9118800E+02  0.7816164E-02  0.1184000E+00
        -11   -1    0    0    0    0  0.00000000000E+00  0.00000000000E+00  0.45593999997E+02  0.45594000000E+02  0.51100000000E-03 0. -1.
         11   -1    0    0    0    0 -0.00000000000E+00 -0.00000000000E+00 -0.45593999997E+02  0.45594000000E+02  0.51100000000E-03 0.  1.
         23    2    1    2    0    0  0.35527136788E-14  0.00000000000E+00  0.00000000000E+00  0.91188000000E+02  0.91188000000E+02 0.  0.
    9900012    2    3    3    0    0 -0.21616254101E+02 -0.15334630207E+02  0.30834274696E+02  0.50528858089E+02  0.29999994647E+02 0.  0.
        -12    1    3    3    0    0  0.21616254101E+02  0.15334630207E+02 -0.30834274696E+02  0.40659141911E+02  0.00000000000E+00 0.  1.
         11    1    4    4    0    0 -0.11291081493E+02  0.67796753401E+01  0.12793274792E+02  0.18360838738E+02  0.51100000000E-03 0. -1.
        -11    1    4    4    0    0  0.10911046244E+01 -0.17782193507E+01  0.50693138886E+01  0.54818351783E+01  0.51100000000E-03 0.  1.
        -12    1    4    4    0    0 -0.11416277232E+02 -0.20336086196E+02  0.12971686015E+02  0.26686184173E+02  0.00000000000E+00 0.  1.
</event>
<event>
 8    1  0.1088315E-013  0.9118800E+02  0.7816164E-02  0.1184000E+00
        -11   -1    0    0    0    0  0.00000000000E+00  0.00000000000E+00  0.45593999997E+02  0.45594000000E+02  0.51100000000E-03 0. -1.
         11   -1    0    0    0    0 -0.00000000000E+00 -0.00000000000E+00 -0.45593999997E+02  0.45594000000E+02  0.51100000000E-03 0.  1.
         23    2    1    2    0    0  0.88817841970E-15  0.00000000000E+00  0.00000000000E+00  0.91188000000E+02  0.91188000000E+02 0.  0.
    9900012    2    3    3    0    0 -0.54782698112E+01  0.29476928544E+02 -0.27463889212E+02  0.50528856290E+02  0.29999989180E+02 0.  0.
         12    1    3    3    0    0  0.54782698112E+01 -0.29476928544E+02  0.27463889212E+02  0.40659143710E+02  0.00000000000E+00 0. -1.
         11    1    4    4    0    0  0.41048828458E+01  0.15910081901E+02 -0.12033543767E+02  0.20366318890E+02  0.51100000000E-03 0.  1.
        -11    1    4    4    0    0 -0.15224921706E+02  0.11818405844E+02 -0.14640100415E+02  0.24203419140E+02  0.51100000000E-03 0. -1.
         12    1    4    4    0    0  0.56417690488E+01  0.17484407996E+01 -0.79024502986E+00  0.59591182600E+01  0.00000000000E+00 0. -1.
</event>
<event>
 8    1  0.9870402E-014  0.9118800E+02  0.7816164E-02  0.1184000E+00
        -11   -1    0    0    0    0  0.00000000000E+00  0.00000000000E+00  0.45593999997E+02  0.45594000000E+02  0.51100000000E-03 0. -1.
         11   -1    0    0    0    0 -0.00000000000E+00 -0.00000000000E+00 -0.45593999997E+02  0.45594000000E+02  0.51100000000E-03 0.  1.
         23    2    1    2    0    0  0.00000000000E+00  0.35527136788E-14 -0.35527136788E-14  0.91188000000E+02  0.91188000000E+02 0.  0.
    9900012    2    3    3    0    0  0.33958993576E+02  0.17264248096E+02 -0.14209096550E+02  0.50528856726E+02  0.29999990503E+02 0.  0.
         12    1    3    3    0    0 -0.33958993576E+02 -0.17264248096E+02  0.14209096550E+02  0.40659143274E+02  0.00000000000E+00 0. -1.
         11    1    4    4    0    0 -0.20904641321E+01 -0.18902550085E+01  0.12261919695E+01  0.30735405141E+01  0.51100000000E-03 0. -1.
        -11    1    4    4    0    0  0.20312911454E+01  0.92113239170E+01 -0.31326886522E+01  0.99392338977E+01  0.51100000000E-03 0.  1.
        -12    1    4    4    0    0  0.34018166563E+02  0.99431791871E+01 -0.12302599868E+02  0.37516082314E+02  0.00000000000E+00 0.  1.
</event>
<event>
 8    1  0.9870402E-014  0.9118800E+02  0.7816164E-02  0.1184000E+00
        -11   -1    0    0    0    0  0.00000000000E+00  0.00000000000E+00  0.45593999997E+02  0.45594000000E+02  0.51100000000E-03 0. -1.
         11   -1    0    0    0    0 -0.00000000000E+00 -0.00000000000E+00 -0.45593999997E+02  0.45594000000E+02  0.51100000000E-03 0.  1.
         23    2    1    2    0    0  0.00000000000E+00  0.00000000000E+00  0.00000000000E+00  0.91188000000E+02  0.91188000000E+02 0.  0.
    9900012    2    3    3    0    0  0.29668881972E+02  0.25098846523E+02 -0.11957051780E+02  0.50528859066E+02  0.29999997616E+02 0.  0.
         12    1    3    3    0    0 -0.29668881972E+02 -0.25098846523E+02  0.11957051780E+02  0.40659140934E+02  0.00000000000E+00 0. -1.
         11    1    4    4    0    0 -0.60942661845E+00  0.28236290098E+01  0.67893700495E-01  0.28894448263E+01  0.51100000000E-03 0. -1.
        -11    1    4    4    0    0  0.22433022061E+01  0.15487841627E+02  0.16140634942E+01  0.15732477373E+02  0.51100000000E-03 0.  1.
         12    1    4    4    0    0  0.28035006384E+02  0.67873758859E+01 -0.13639008974E+02  0.31906936866E+02  0.00000000000E+00 0. -1.
</event>
<event>
 8    1  0.9870402E-014  0.9118800E+02  0.7816164E-02  0.1184000E+00
        -11   -1    0    0    0    0  0.00000000000E+00  0.00000000000E+00  0.45593999997E+02  0.45594000000E+02  0.51100000000E-03 0. -1.
         11   -1    0    0    0    0 -0.00000000000E+00 -0.00000000000E+00 -0.45593999997E+02  0.45594000000E+02  0.51100000000E-03 0.  1.
         23    2    1    2    0    0 -0.17763568394E-14 -0.17763568394E-14  0.00000000000E+00  0.91188000000E+02  0.91188000000E+02 0.  0.
    9900012    2    3    3    0    0  0.10497123293E+02  0.74872934193E+01  0.38560555829E+02  0.50528860487E+02  0.30000001935E+02 0.  0.
        -12    1    3    3    0    0 -0.10497123293E+02 -0.74872934193E+01 -0.38560555829E+02  0.40659139513E+02  0.00000000000E+00 0.  1.
         11    1    4    4    0    0  0.80334166689E+01 -0.47601240893E+00  0.33951817920E+01  0.87343935594E+01  0.51100000000E-03 0. -1.
        -11    1    4    4    0    0  0.28314126515E+01 -0.61676265965E+01  0.19729107407E+02  0.20863705203E+02  0.51100000000E-03 0.  1.
        -12    1    4    4    0    0 -0.36770602765E+00  0.14130932425E+02  0.15436266629E+02  0.20930761725E+02  0.00000000000E+00 0.  1.
</event>
<event>
 8    1  0.9870402E-014  0.9118800E+02  0.7816164E-02  0.1184000E+00
        -11   -1    0    0    0    0  0.00000000000E+00  0.00000000000E+00  0.45593999997E+02  0.45594000000E+02  0.51100000000E-03 0.  1.
         11   -1    0    0    0    0 -0.00000000000E+00 -0.00000000000E+00 -0.45593999997E+02  0.45594000000E+02  0.51100000000E-03 0. -1.
         23    2    1    2    0    0  0.00000000000E+00  0.00000000000E+00  0.00000000000E+00  0.91188000000E+02  0.91188000000E+02 0.  0.
    9900012    2    3    3    0    0  0.19567966657E+02 -0.28074654116E+02  0.21956335466E+02  0.50528779767E+02  0.29999756579E+02 0.  0.
        -12    1    3    3    0    0 -0.19567966657E+02  0.28074654116E+02 -0.21956335466E+02  0.40659220233E+02  0.00000000000E+00 0.  1.
         11    1    4    4    0    0  0.22281241914E+01 -0.19034833747E+02  0.41079040480E+01  0.19600109926E+02  0.51100000000E-03 0. -1.
        -11    1    4    4    0    0  0.10432608179E+02 -0.13279359675E+02  0.14097618031E+02  0.21998262231E+02  0.51100000000E-03 0.  1.
        -12    1    4    4    0    0  0.69072342868E+01  0.42395393053E+01  0.37508133870E+01  0.89304076099E+01  0.00000000000E+00 0.  1.
</event>
<event>
 8    1  0.9870402E-014  0.9118800E+02  0.7816164E-02  0.1184000E+00
        -11   -1    0    0    0    0  0.00000000000E+00  0.00000000000E+00  0.45593999997E+02  0.45594000000E+02  0.51100000000E-03 0. -1.
         11   -1    0    0    0    0 -0.00000000000E+00 -0.00000000000E+00 -0.45593999997E+02  0.45594000000E+02  0.51100000000E-03 0.  1.
         23    2    1    2    0    0  0.00000000000E+00  0.00000000000E+00  0.00000000000E+00  0.91188000000E+02  0.91188000000E+02 0.  0.
    9900012    2    3    3    0    0  0.26700401300E+02 -0.10641701551E+02  0.28757755706E+02  0.50528858903E+02  0.29999997122E+02 0.  0.
        -12    1    3    3    0    0 -0.26700401300E+02  0.10641701551E+02 -0.28757755706E+02  0.40659141097E+02  0.00000000000E+00 0.  1.
         11    1    4    4    0    0  0.13093731763E+02 -0.99294654031E+01  0.13658966134E+02  0.21368375015E+02  0.51100000000E-03 0. -1.
        -11    1    4    4    0    0  0.10324610135E+02 -0.68274855942E+01 -0.18006337768E+00  0.12379198563E+02  0.51100000000E-03 0.  1.
        -12    1    4    4    0    0  0.32820594025E+01  0.61152494460E+01  0.15278852950E+02  0.16781285326E+02  0.00000000000E+00 0.  1.
</event>
<event>
 8    1  0.1053101E-013  0.9118800E+02  0.7816164E-02  0.1184000E+00
        -11   -1    0    0    0    0  0.00000000000E+00  0.00000000000E+00  0.45593999997E+02  0.45594000000E+02  0.51100000000E-03 0. -1.
         11   -1    0    0    0    0 -0.00000000000E+00 -0.00000000000E+00 -0.45593999997E+02  0.45594000000E+02  0.51100000000E-03 0.  1.
         23    2    1    2    0    0  0.00000000000E+00  0.00000000000E+00  0.35527136788E-14  0.91188000000E+02  0.91188000000E+02 0.  0.
    9900012    2    3    3    0    0 -0.32456196488E+02 -0.84429856231E+01 -0.22988623253E+02  0.50528862088E+02  0.30000006804E+02 0.  0.
         12    1    3    3    0    0  0.32456196488E+02  0.84429856231E+01  0.22988623253E+02  0.40659137912E+02  0.00000000000E+00 0. -1.
         11    1    4    4    0    0 -0.23189921425E+01 -0.61649939799E+01 -0.10913229785E+02  0.12746900013E+02  0.51100000000E-03 0. -1.
        -11    1    4    4    0    0 -0.20206071274E+02  0.37946359126E+01 -0.15386765525E+02  0.25679508010E+02  0.51100000000E-03 0.  1.
         12    1    4    4    0    0 -0.99311330712E+01 -0.60726275559E+01  0.33113720578E+01  0.12102454066E+02  0.00000000000E+00 0. -1.
</event>
<event>
 8    1  0.9870402E-014  0.9118800E+02  0.7816164E-02  0.1184000E+00
        -11   -1    0    0    0    0  0.00000000000E+00  0.00000000000E+00  0.45593999997E+02  0.45594000000E+02  0.51100000000E-03 0. -1.
         11   -1    0    0    0    0 -0.00000000000E+00 -0.00000000000E+00 -0.45593999997E+02  0.45594000000E+02  0.51100000000E-03 0.  1.
         23    2    1    2    0    0  0.88817841970E-15  0.17763568394E-14  0.00000000000E+00  0.91188000000E+02  0.91188000000E+02 0.  0.
    9900012    2    3    3    0    0 -0.68292265848E+01  0.44101173063E+01 -0.39838138336E+02  0.50528871425E+02  0.30000035182E+02 0.  0.
         12    1    3    3    0    0  0.68292265848E+01 -0.44101173063E+01  0.39838138336E+02  0.40659128575E+02  0.00000000000E+00 0. -1.
         11    1    4    4    0    0 -0.34398032259E+01 -0.98630984374E+01 -0.27418413749E+02  0.29340797021E+02  0.51100000000E-03 0.  1.
        -11    1    4    4    0    0 -0.39812081090E+01  0.13633234723E+01 -0.36441915457E+01  0.55667585883E+01  0.51100000000E-03 0. -1.
         12    1    4    4    0    0  0.59178475007E+00  0.12909892272E+02 -0.87755330413E+01  0.15621315816E+02  0.00000000000E+00 0. -1.
</event>
<event>
 8    1  0.9870402E-014  0.9118800E+02  0.7816164E-02  0.1184000E+00
        -11   -1    0    0    0    0  0.00000000000E+00  0.00000000000E+00  0.45593999997E+02  0.45594000000E+02  0.51100000000E-03 0. -1.
         11   -1    0    0    0    0 -0.00000000000E+00 -0.00000000000E+00 -0.45593999997E+02  0.45594000000E+02  0.51100000000E-03 0.  1.
         23    2    1    2    0    0 -0.35527136788E-14  0.88817841970E-15  0.00000000000E+00  0.91188000000E+02  0.91188000000E+02 0.  0.
    9900012    2    3    3    0    0 -0.26055090800E+02 -0.47682931563E+01 -0.30847391138E+02  0.50528856917E+02  0.29999991084E+02 0.  0.
         12    1    3    3    0    0  0.26055090800E+02  0.47682931563E+01  0.30847391138E+02  0.40659143083E+02  0.00000000000E+00 0. -1.
         11    1    4    4    0    0 -0.10950199337E+02  0.10873115655E+02 -0.84560308969E+01  0.17596476021E+02  0.51100000000E-03 0. -1.
        -11    1    4    4    0    0 -0.64735697270E+01 -0.84637359321E+00 -0.93512210543E+01  0.11404770438E+02  0.51100000000E-03 0.  1.
         12    1    4    4    0    0 -0.86313217367E+01 -0.14795035218E+02 -0.13040139187E+02  0.21527610458E+02  0.00000000000E+00 0. -1.
</event>
<event>
 8    1  0.9870402E-014  0.9118800E+02  0.7816164E-02  0.1184000E+00
        -11   -1    0    0    0    0  0.00000000000E+00  0.00000000000E+00  0.45593999997E+02  0.45594000000E+02  0.51100000000E-03 0. -1.
         11   -1    0    0    0    0 -0.00000000000E+00 -0.00000000000E+00 -0.45593999997E+02  0.45594000000E+02  0.51100000000E-03 0.  1.
         23    2    1    2    0    0  0.00000000000E+00  0.00000000000E+00 -0.71054273576E-14  0.91188000000E+02  0.91188000000E+02 0.  0.
    9900012    2    3    3    0    0  0.84414768436E+01  0.12610057591E+01  0.39753201248E+02  0.50528859868E+02  0.30000000054E+02 0.  0.
        -12    1    3    3    0    0 -0.84414768436E+01 -0.12610057591E+01 -0.39753201248E+02  0.40659140132E+02  0.00000000000E+00 0.  1.
         11    1    4    4    0    0  0.11440782735E+02 -0.53419426656E+01  0.28813277922E+02  0.31458430442E+02  0.51100000000E-03 0. -1.
        -11    1    4    4    0    0  0.29351117783E+01 -0.48473059497E+00 -0.16881529115E+01  0.34204832136E+01  0.51100000000E-03 0.  1.
        -12    1    4    4    0    0 -0.59344176696E+01  0.70876790196E+01  0.12628076238E+02  0.15649946212E+02  0.00000000000E+00 0.  1.
</event>
<event>
 8    1  0.9870402E-014  0.9118800E+02  0.7816164E-02  0.1184000E+00
        -11   -1    0    0    0    0  0.00000000000E+00  0.00000000000E+00  0.45593999997E+02  0.45594000000E+02  0.51100000000E-03 0. -1.
         11   -1    0    0    0    0 -0.00000000000E+00 -0.00000000000E+00 -0.45593999997E+02  0.45594000000E+02  0.51100000000E-03 0.  1.
         23    2    1    2    0    0 -0.88817841970E-15  0.00000000000E+00  0.00000000000E+00  0.91188000000E+02  0.91188000000E+02 0.  0.
    9900012    2    3    3    0    0 -0.40236163491E+01  0.22394364981E+02 -0.33696719543E+02  0.50528856140E+02  0.29999988724E+02 0.  0.
         12    1    3    3    0    0  0.40236163491E+01 -0.22394364981E+02  0.33696719543E+02  0.40659143860E+02  0.00000000000E+00 0. -1.
         11    1    4    4    0    0 -0.47808740933E+01 -0.12907483868E+01  0.19796242299E+01  0.53330761149E+01  0.51100000000E-03 0. -1.
        -11    1    4    4    0    0 -0.38599924999E+01  0.11554999821E+02 -0.78539565800E+01  0.14494902455E+02  0.51100000000E-03 0.  1.
        -12    1    4    4    0    0  0.46172502441E+01  0.12130113547E+02 -0.27822387193E+02  0.30700877570E+02  0.00000000000E+00 0.  1.
</event>
<event>
 8    1  0.9870402E-014  0.9118800E+02  0.7816164E-02  0.1184000E+00
        -11   -1    0    0    0    0  0.00000000000E+00  0.00000000000E+00  0.45593999997E+02  0.45594000000E+02  0.51100000000E-03 0. -1.
         11   -1    0    0    0    0 -0.00000000000E+00 -0.00000000000E+00 -0.45593999997E+02  0.45594000000E+02  0.51100000000E-03 0.  1.
         23    2    1    2    0    0 -0.71054273576E-14  0.00000000000E+00  0.00000000000E+00  0.91188000000E+02  0.91188000000E+02 0.  0.
    9900012    2    3    3    0    0  0.33156515348E+02  0.53406525303E+01  0.22919172304E+02  0.50528861561E+02  0.30000005201E+02 0.  0.
        -12    1    3    3    0    0 -0.33156515348E+02 -0.53406525303E+01 -0.22919172304E+02  0.40659138439E+02  0.00000000000E+00 0.  1.
         11    1    4    4    0    0 -0.25307260498E+00 -0.80143954668E+00  0.14490712189E+02  0.14515064282E+02  0.51100000000E-03 0. -1.
        -11    1    4    4    0    0  0.24268527220E+02  0.10028490102E+01  0.77892515008E+01  0.25507637264E+02  0.51100000000E-03 0.  1.
        -12    1    4    4    0    0  0.91410607328E+01  0.51392430668E+01  0.63920861426E+00  0.10506160016E+02  0.00000000000E+00 0.  1.
</event>
<event>
 8    1  0.9870402E-014  0.9118800E+02  0.7816164E-02  0.1184000E+00
        -11   -1    0    0    0    0  0.00000000000E+00  0.00000000000E+00  0.45593999997E+02  0.45594000000E+02  0.51100000000E-03 0.  1.
         11   -1    0    0    0    0 -0.00000000000E+00 -0.00000000000E+00 -0.45593999997E+02  0.45594000000E+02  0.51100000000E-03 0. -1.
         23    2    1    2    0    0  0.17763568394E-14  0.00000000000E+00  0.38857805862E-15  0.91188000000E+02  0.91188000000E+02 0.  0.
    9900012    2    3    3    0    0  0.53029845243E+01 -0.40310998198E+02  0.26012875303E+00  0.50528857270E+02  0.29999992157E+02 0.  0.
        -12    1    3    3    0    0 -0.53029845243E+01  0.40310998198E+02 -0.26012875303E+00  0.40659142730E+02  0.00000000000E+00 0.  1.
         11    1    4    4    0    0  0.20142846828E+01  0.93773261219E+00 -0.39087180801E+01  0.44960830204E+01  0.51100000000E-03 0. -1.
        -11    1    4    4    0    0 -0.50316555067E+01 -0.25696182568E+02 -0.41844550473E+01  0.26516429247E+02  0.51100000000E-03 0.  1.
         12    1    4    4    0    0  0.83203553482E+01 -0.15552548242E+02  0.83533018805E+01  0.19516345002E+02  0.00000000000E+00 0. -1.
</event>
<event>
 8    1  0.9870402E-014  0.9118800E+02  0.7816164E-02  0.1184000E+00
        -11   -1    0    0    0    0  0.00000000000E+00  0.00000000000E+00  0.45593999997E+02  0.45594000000E+02  0.51100000000E-03 0. -1.
         11   -1    0    0    0    0 -0.00000000000E+00 -0.00000000000E+00 -0.45593999997E+02  0.45594000000E+02  0.51100000000E-03 0.  1.
         23    2    1    2    0    0  0.00000000000E+00  0.00000000000E+00  0.00000000000E+00  0.91188000000E+02  0.91188000000E+02 0.  0.
    9900012    2    3    3    0    0 -0.19272701429E+02 -0.62299691554E+01 -0.35255021448E+02  0.50528854985E+02  0.29999985211E+02 0.  0.
         12    1    3    3    0    0  0.19272701429E+02  0.62299691554E+01  0.35255021448E+02  0.40659145015E+02  0.00000000000E+00 0. -1.
         11    1    4    4    0    0  0.15063802062E+01  0.43400955370E+00  0.27503329964E+01  0.31657349021E+01  0.51100000000E-03 0. -1.
        -11    1    4    4    0    0 -0.22165171645E+01  0.48273237303E+01 -0.13693441748E+02  0.14687625741E+02  0.51100000000E-03 0.  1.
        -12    1    4    4    0    0 -0.18562564471E+02 -0.11491302439E+02 -0.24311912697E+02  0.32675494342E+02  0.00000000000E+00 0.  1.
</event>
<event>
 8    1  0.9870402E-014  0.9118800E+02  0.7816164E-02  0.1184000E+00
        -11   -1    0    0    0    0  0.00000000000E+00  0.00000000000E+00  0.45593999997E+02  0.45594000000E+02  0.51100000000E-03 0. -1.
         11   -1    0    0    0    0 -0.00000000000E+00 -0.00000000000E+00 -0.45593999997E+02  0.45594000000E+02  0.51100000000E-03 0.  1.
         23    2    1    2    0    0 -0.35527136788E-14  0.17763568394E-14 -0.35527136788E-14  0.91188000000E+02  0.91188000000E+02 0.  0.
    9900012    2    3    3    0    0 -0.24026786603E+02  0.76784957517E+01 -0.31889174321E+02  0.50528865598E+02  0.30000017471E+02 0.  0.
         12    1    3    3    0    0  0.24026786603E+02 -0.76784957517E+01  0.31889174321E+02  0.40659134402E+02  0.00000000000E+00 0. -1.
         11    1    4    4    0    0 -0.31499432512E+01 -0.15559786928E+00 -0.54566656684E+01  0.63025037612E+01  0.51100000000E-03 0.  1.
        -11    1    4    4    0    0  0.67760624314E+01  0.14024631768E+01 -0.36423248807E+01  0.78197478114E+01  0.51100000000E-03 0. -1.
         12    1    4    4    0    0 -0.27652905783E+02  0.64316304442E+01 -0.22790183772E+02  0.36406614025E+02  0.00000000000E+00 0. -1.
</event>
<event>
 8    1  0.9870402E-014  0.9118800E+02  0.7816164E-02  0.1184000E+00
        -11   -1    0    0    0    0  0.00000000000E+00  0.00000000000E+00  0.45593999997E+02  0.45594000000E+02  0.51100000000E-03 0. -1.
         11   -1    0    0    0    0 -0.00000000000E+00 -0.00000000000E+00 -0.45593999997E+02  0.45594000000E+02  0.51100000000E-03 0.  1.
         23    2    1    2    0    0 -0.17763568394E-14  0.35527136788E-14  0.00000000000E+00  0.91188000000E+02  0.91188000000E+02 0.  0.
    9900012    2    3    3    0    0  0.10844219640E+02 -0.22544788916E+02 -0.32051388891E+02  0.50528977180E+02  0.30000356634E+02 0.  0.
         12    1    3    3    0    0 -0.10844219640E+02  0.22544788916E+02  0.32051388891E+02  0.40659022820E+02  0.00000000000E+00 0. -1.
         11    1    4    4    0    0  0.67579493180E+01 -0.97507475602E+01 -0.26953927519E+02  0.29449298225E+02  0.51100000000E-03 0. -1.
        -11    1    4    4    0    0 -0.46404337941E+01  0.29441567535E+00 -0.19224278184E+01  0.50315042845E+01  0.51100000000E-03 0.  1.
         12    1    4    4    0    0  0.87267041161E+01 -0.13088457031E+02 -0.31750335531E+01  0.16048174670E+02  0.00000000000E+00 0. -1.
</event>
<event>
 8    1  0.9870402E-014  0.9118800E+02  0.7816164E-02  0.1184000E+00
        -11   -1    0    0    0    0  0.00000000000E+00  0.00000000000E+00  0.45593999997E+02  0.45594000000E+02  0.51100000000E-03 0. -1.
         11   -1    0    0    0    0 -0.00000000000E+00 -0.00000000000E+00 -0.45593999997E+02  0.45594000000E+02  0.51100000000E-03 0.  1.
         23    2    1    2    0    0  0.00000000000E+00  0.71054273576E-14  0.35527136788E-14  0.91188000000E+02  0.91188000000E+02 0.  0.
    9900012    2    3    3    0    0 -0.10607557431E+02  0.23391446511E+02  0.31519605970E+02  0.50528860744E+02  0.30000002719E+02 0.  0.
        -12    1    3    3    0    0  0.10607557431E+02 -0.23391446511E+02 -0.31519605970E+02  0.40659139256E+02  0.00000000000E+00 0.  1.
         11    1    4    4    0    0 -0.13266957606E+02  0.18171069731E+02  0.30592578846E+02  0.37975068401E+02  0.51100000000E-03 0. -1.
        -11    1    4    4    0    0 -0.22887053017E+01  0.42211088834E+01 -0.34175091959E+01  0.58936662214E+01  0.51100000000E-03 0.  1.
        -12    1    4    4    0    0  0.49481054767E+01  0.99926789619E+00  0.43445363193E+01  0.66601261225E+01  0.00000000000E+00 0.  1.
</event>
<event>
 8    1  0.9870402E-014  0.9118800E+02  0.7816164E-02  0.1184000E+00
        -11   -1    0    0    0    0  0.00000000000E+00  0.00000000000E+00  0.45593999997E+02  0.45594000000E+02  0.51100000000E-03 0.  1.
         11   -1    0    0    0    0 -0.00000000000E+00 -0.00000000000E+00 -0.45593999997E+02  0.45594000000E+02  0.51100000000E-03 0. -1.
         23    2    1    2    0    0  0.35527136788E-14  0.17763568394E-14 -0.35527136788E-14  0.91188000000E+02  0.91188000000E+02 0.  0.
    9900012    2    3    3    0    0  0.31658243783E+02 -0.10580022248E+02  0.23216036233E+02  0.50528860700E+02  0.30000002584E+02 0.  0.
        -12    1    3    3    0    0 -0.31658243783E+02  0.10580022248E+02 -0.23216036233E+02  0.40659139300E+02  0.00000000000E+00 0.  1.
         11    1    4    4    0    0 -0.13629937693E+01 -0.20291737379E+01  0.58241130498E+01  0.63162956827E+01  0.51100000000E-03 0. -1.
        -11    1    4    4    0    0  0.21622867077E+02 -0.11110283502E+02  0.20852788803E+02  0.32028512005E+02  0.51100000000E-03 0.  1.
         12    1    4    4    0    0  0.11398370476E+02  0.25594349920E+01 -0.34608656194E+01  0.12184053013E+02  0.00000000000E+00 0. -1.
</event>
<event>
 8    1  0.9870402E-014  0.9118800E+02  0.7816164E-02  0.1184000E+00
        -11   -1    0    0    0    0  0.00000000000E+00  0.00000000000E+00  0.45593999997E+02  0.45594000000E+02  0.51100000000E-03 0. -1.
         11   -1    0    0    0    0 -0.00000000000E+00 -0.00000000000E+00 -0.45593999997E+02  0.45594000000E+02  0.51100000000E-03 0.  1.
         23    2    1    2    0    0 -0.17763568394E-14  0.00000000000E+00 -0.71054273576E-14  0.91188000000E+02  0.91188000000E+02 0.  0.
    9900012    2    3    3    0    0  0.15879352506E+02  0.87810029608E+01  0.36385519823E+02  0.50528857095E+02  0.29999991625E+02 0.  0.
        -12    1    3    3    0    0 -0.15879352506E+02 -0.87810029608E+01 -0.36385519823E+02  0.40659142905E+02  0.00000000000E+00 0.  1.
         11    1    4    4    0    0  0.16577738802E+01 -0.59881032357E+01  0.24544772195E+02  0.25318993601E+02  0.51100000000E-03 0. -1.
        -11    1    4    4    0    0  0.54422757402E+01  0.18768743754E+01  0.22323356143E+00  0.57611505915E+01  0.51100000000E-03 0.  1.
        -12    1    4    4    0    0  0.87793028853E+01  0.12892231821E+02  0.11617514067E+02  0.19448712903E+02  0.00000000000E+00 0.  1.
</event>
<event>
 8    1  0.9870402E-014  0.9118800E+02  0.7816164E-02  0.1184000E+00
        -11   -1    0    0    0    0  0.00000000000E+00  0.00000000000E+00  0.45593999997E+02  0.45594000000E+02  0.51100000000E-03 0.  1.
         11   -1    0    0    0    0 -0.00000000000E+00 -0.00000000000E+00 -0.45593999997E+02  0.45594000000E+02  0.51100000000E-03 0. -1.
         23    2    1    2    0    0  0.00000000000E+00 -0.88817841970E-15  0.35527136788E-14  0.91188000000E+02  0.91188000000E+02 0.  0.
    9900012    2    3    3    0    0  0.29386369045E+02 -0.17665522468E+01 -0.28044363227E+02  0.50528859560E+02  0.29999999118E+02 0.  0.
         12    1    3    3    0    0 -0.29386369045E+02  0.17665522468E+01  0.28044363227E+02  0.40659140440E+02  0.00000000000E+00 0. -1.
         11    1    4    4    0    0  0.53122255482E+01 -0.58808695535E+01 -0.63008404115E+01  0.10124473178E+02  0.51100000000E-03 0. -1.
        -11    1    4    4    0    0  0.24420216703E+02  0.51887442374E+00 -0.72666886575E+01  0.25483739498E+02  0.51100000000E-03 0.  1.
        -12    1    4    4    0    0 -0.34607320549E+00  0.35954428829E+01 -0.14476834158E+02  0.14920646884E+02  0.00000000000E+00 0.  1.
</event>
<event>
 8    1  0.9870402E-014  0.9118800E+02  0.7816164E-02  0.1184000E+00
        -11   -1    0    0    0    0  0.00000000000E+00  0.00000000000E+00  0.45593999997E+02  0.45594000000E+02  0.51100000000E-03 0. -1.
         11   -1    0    0    0    0 -0.00000000000E+00 -0.00000000000E+00 -0.45593999997E+02  0.45594000000E+02  0.51100000000E-03 0.  1.
         23    2    1    2    0    0 -0.35527136788E-14  0.00000000000E+00  0.00000000000E+00  0.91188000000E+02  0.91188000000E+02 0.  0.
    9900012    2    3    3    0    0  0.17390292448E+02 -0.19579768105E+02  0.31102673156E+02  0.50528857511E+02  0.29999992891E+02 0.  0.
        -12    1    3    3    0    0 -0.17390292448E+02  0.19579768105E+02 -0.31102673156E+02  0.40659142489E+02  0.00000000000E+00 0.  1.
         11    1    4    4    0    0 -0.15489559631E+01 -0.17658579447E+01  0.17652846795E+01  0.29383242022E+01  0.51100000000E-03 0. -1.
        -11    1    4    4    0    0  0.14986988179E+02  0.37809714018E+01  0.13479363642E+02  0.20508505647E+02  0.51100000000E-03 0.  1.
        -12    1    4    4    0    0  0.39522602321E+01 -0.21594881562E+02  0.15858024834E+02  0.27082027661E+02  0.00000000000E+00 0.  1.
</event>
<event>
 8    1  0.9870402E-014  0.9118800E+02  0.7816164E-02  0.1184000E+00
        -11   -1    0    0    0    0  0.00000000000E+00  0.00000000000E+00  0.45593999997E+02  0.45594000000E+02  0.51100000000E-03 0. -1.
         11   -1    0    0    0    0 -0.00000000000E+00 -0.00000000000E+00 -0.45593999997E+02  0.45594000000E+02  0.51100000000E-03 0.  1.
         23    2    1    2    0    0  0.13322676296E-14  0.00000000000E+00  0.71054273576E-14  0.91188000000E+02  0.91188000000E+02 0.  0.
    9900012    2    3    3    0    0 -0.16846271665E+01  0.18280705177E+02 -0.36278684976E+02  0.50528866536E+02  0.30000020323E+02 0.  0.
         12    1    3    3    0    0  0.16846271665E+01 -0.18280705177E+02  0.36278684976E+02  0.40659133464E+02  0.00000000000E+00 0. -1.
         11    1    4    4    0    0 -0.10940080989E+01  0.29251803557E+00 -0.22943060258E+02  0.22970991158E+02  0.51100000000E-03 0. -1.
        -11    1    4    4    0    0 -0.27602260781E+01  0.10868746700E+01 -0.96877809112E+01  0.10131793711E+02  0.51100000000E-03 0.  1.
         12    1    4    4    0    0  0.21696070105E+01  0.16901312472E+02 -0.36478438070E+01  0.17426081668E+02  0.00000000000E+00 0. -1.
</event>
<event>
 8    1  0.9870402E-014  0.9118800E+02  0.7816164E-02  0.1184000E+00
        -11   -1    0    0    0    0  0.00000000000E+00  0.00000000000E+00  0.45593999997E+02  0.45594000000E+02  0.51100000000E-03 0. -1.
         11   -1    0    0    0    0 -0.00000000000E+00 -0.00000000000E+00 -0.45593999997E+02  0.45594000000E+02  0.51100000000E-03 0.  1.
         23    2    1    2    0    0 -0.71054273576E-14  0.83266726847E-15 -0.35527136788E-14  0.91188000000E+02  0.91188000000E+02 0.  0.
    9900012    2    3    3    0    0 -0.34724933724E+02 -0.48893883649E+00 -0.21144873219E+02  0.50528859001E+02  0.29999997420E+02 0.  0.
         12    1    3    3    0    0  0.34724933724E+02  0.48893883649E+00  0.21144873219E+02  0.40659140999E+02  0.00000000000E+00 0. -1.
         11    1    4    4    0    0 -0.20821834941E+02  0.55913653074E+01 -0.12013120452E+01  0.21592946238E+02  0.51100000000E-03 0. -1.
        -11    1    4    4    0    0 -0.42880231684E+01  0.47949700155E+01 -0.66572079317E+01  0.92572835027E+01  0.51100000000E-03 0.  1.
        -12    1    4    4    0    0 -0.96150756142E+01 -0.10875274159E+02 -0.13286353242E+02  0.19678629261E+02  0.00000000000E+00 0.  1.
</event>
<event>
 8    1  0.9870402E-014  0.9118800E+02  0.7816164E-02  0.1184000E+00
        -11   -1    0    0    0    0  0.00000000000E+00  0.00000000000E+00  0.45593999997E+02  0.45594000000E+02  0.51100000000E-03 0. -1.
         11   -1    0    0    0    0 -0.00000000000E+00 -0.00000000000E+00 -0.45593999997E+02  0.45594000000E+02  0.51100000000E-03 0.  1.
         23    2    1    2    0    0  0.17763568394E-14 -0.88817841970E-15  0.00000000000E+00  0.91188000000E+02  0.91188000000E+02 0.  0.
    9900012    2    3    3    0    0  0.96173609388E+01  0.64825953035E+01  0.38969871683E+02  0.50528824254E+02  0.29999891804E+02 0.  0.
        -12    1    3    3    0    0 -0.96173609388E+01 -0.64825953035E+01 -0.38969871683E+02  0.40659175746E+02  0.00000000000E+00 0.  1.
         11    1    4    4    0    0  0.74869156866E+01  0.33440476796E+01  0.43750532382E+01  0.92939578479E+01  0.51100000000E-03 0. -1.
        -11    1    4    4    0    0  0.87160792852E+01 -0.40814662630E+01  0.68330766576E+01  0.11803361463E+02  0.51100000000E-03 0.  1.
         12    1    4    4    0    0 -0.65856340330E+01  0.72200138869E+01  0.27761741788E+02  0.29431504943E+02  0.00000000000E+00 0. -1.
</event>
<event>
 8    1  0.9870402E-014  0.9118800E+02  0.7816164E-02  0.1184000E+00
        -11   -1    0    0    0    0  0.00000000000E+00  0.00000000000E+00  0.45593999997E+02  0.45594000000E+02  0.51100000000E-03 0. -1.
         11   -1    0    0    0    0 -0.00000000000E+00 -0.00000000000E+00 -0.45593999997E+02  0.45594000000E+02  0.51100000000E-03 0.  1.
         23    2    1    2    0    0  0.00000000000E+00  0.17763568394E-14  0.00000000000E+00  0.91188000000E+02  0.91188000000E+02 0.  0.
    9900012    2    3    3    0    0  0.31428747212E+02 -0.14828557040E+02  0.21107191818E+02  0.50528858326E+02  0.29999995368E+02 0.  0.
        -12    1    3    3    0    0 -0.31428747212E+02  0.14828557040E+02 -0.21107191818E+02  0.40659141674E+02  0.00000000000E+00 0.  1.
         11    1    4    4    0    0  0.23034298473E+02 -0.19568424397E+02  0.19024258012E+02  0.35713086295E+02  0.51100000000E-03 0. -1.
        -11    1    4    4    0    0  0.11357223196E+01 -0.17216673550E+01  0.43699538304E+01  0.48322355499E+01  0.51100000000E-03 0.  1.
         12    1    4    4    0    0  0.72587264203E+01  0.64615347124E+01 -0.22870200247E+01  0.99835364815E+01  0.00000000000E+00 0. -1.
</event>
<event>
 8    1  0.9870402E-014  0.9118800E+02  0.7816164E-02  0.1184000E+00
        -11   -1    0    0    0    0  0.00000000000E+00  0.00000000000E+00  0.45593999997E+02  0.45594000000E+02  0.51100000000E-03 0. -1.
         11   -1    0    0    0    0 -0.00000000000E+00 -0.00000000000E+00 -0.45593999997E+02  0.45594000000E+02  0.51100000000E-03 0.  1.
         23    2    1    2    0    0 -0.17763568394E-14 -0.35527136788E-14 -0.35527136788E-14  0.91188000000E+02  0.91188000000E+02 0.  0.
    9900012    2    3    3    0    0  0.82015500410E+01  0.26006100190E+02  0.30159298897E+02  0.50528856131E+02  0.29999988697E+02 0.  0.
        -12    1    3    3    0    0 -0.82015500410E+01 -0.26006100190E+02 -0.30159298897E+02  0.40659143869E+02  0.00000000000E+00 0.  1.
         11    1    4    4    0    0  0.75090680051E+01  0.70644247946E+01 -0.67307897199E+00  0.10331758589E+02  0.51100000000E-03 0. -1.
        -11    1    4    4    0    0 -0.50399496892E+01  0.15586470416E+02  0.12225448253E+02  0.20440174611E+02  0.51100000000E-03 0.  1.
         12    1    4    4    0    0  0.57324317251E+01  0.33552049796E+01  0.18606929617E+02  0.19756922931E+02  0.00000000000E+00 0. -1.
</event>
<event>
 8    1  0.9870402E-014  0.9118800E+02  0.7816164E-02  0.1184000E+00
        -11   -1    0    0    0    0  0.00000000000E+00  0.00000000000E+00  0.45593999997E+02  0.45594000000E+02  0.51100000000E-03 0. -1.
         11   -1    0    0    0    0 -0.00000000000E+00 -0.00000000000E+00 -0.45593999997E+02  0.45594000000E+02  0.51100000000E-03 0.  1.
         23    2    1    2    0    0  0.53290705182E-14 -0.44408920985E-15  0.00000000000E+00  0.91188000000E+02  0.91188000000E+02 0.  0.
    9900012    2    3    3    0    0 -0.13975751499E+02  0.39089462781E+01 -0.37981088024E+02  0.50528873860E+02  0.30000042585E+02 0.  0.
         12    1    3    3    0    0  0.13975751499E+02 -0.39089462781E+01  0.37981088024E+02  0.40659126140E+02  0.00000000000E+00 0. -1.
         11    1    4    4    0    0 -0.13185675385E+02  0.93284824422E+01 -0.14670094576E+02  0.21819585128E+02  0.51100000000E-03 0. -1.
        -11    1    4    4    0    0 -0.44224195502E+01 -0.14529759427E+01  0.13236890366E+00  0.46568718638E+01  0.51100000000E-03 0.  1.
        -12    1    4    4    0    0  0.36323434363E+01 -0.39665602214E+01 -0.23443362352E+02  0.24052416868E+02  0.00000000000E+00 0.  1.
</event>
<event>
 8    1  0.9870402E-014  0.9118800E+02  0.7816164E-02  0.1184000E+00
        -11   -1    0    0    0    0  0.00000000000E+00  0.00000000000E+00  0.45593999997E+02  0.45594000000E+02  0.51100000000E-03 0. -1.
         11   -1    0    0    0    0 -0.00000000000E+00 -0.00000000000E+00 -0.45593999997E+02  0.45594000000E+02  0.51100000000E-03 0.  1.
         23    2    1    2    0    0  0.17763568394E-14  0.35527136788E-14  0.00000000000E+00  0.91188000000E+02  0.91188000000E+02 0.  0.
    9900012    2    3    3    0    0  0.14407397216E+02  0.28122463226E+02 -0.25587489309E+02  0.50528860295E+02  0.30000001351E+02 0.  0.
         12    1    3    3    0    0 -0.14407397216E+02 -0.28122463226E+02  0.25587489309E+02  0.40659139705E+02  0.00000000000E+00 0. -1.
         11    1    4    4    0    0  0.78362950366E+01 -0.75061747532E+00  0.12486296796E+01  0.79705723027E+01  0.51100000000E-03 0. -1.
        -11    1    4    4    0    0 -0.25387408627E+00  0.72063938905E+01  0.24028773090E+00  0.72148668325E+01  0.51100000000E-03 0.  1.
        -12    1    4    4    0    0  0.68249762655E+01  0.21666686811E+02 -0.27076406720E+02  0.35343421159E+02  0.00000000000E+00 0.  1.
</event>
<event>
 8    1  0.9870402E-014  0.9118800E+02  0.7816164E-02  0.1184000E+00
        -11   -1    0    0    0    0  0.00000000000E+00  0.00000000000E+00  0.45593999997E+02  0.45594000000E+02  0.51100000000E-03 0. -1.
         11   -1    0    0    0    0 -0.00000000000E+00 -0.00000000000E+00 -0.45593999997E+02  0.45594000000E+02  0.51100000000E-03 0.  1.
         23    2    1    2    0    0  0.71054273576E-14  0.35527136788E-14  0.00000000000E+00  0.91188000000E+02  0.91188000000E+02 0.  0.
    9900012    2    3    3    0    0 -0.33640697171E+02 -0.16893541912E+02 -0.15364798012E+02  0.50528864711E+02  0.30000014777E+02 0.  0.
         12    1    3    3    0    0  0.33640697171E+02  0.16893541912E+02  0.15364798012E+02  0.40659135289E+02  0.00000000000E+00 0. -1.
         11    1    4    4    0    0 -0.25878130764E+02 -0.14925970750E+02 -0.16503149224E+02  0.34129403588E+02  0.51100000000E-03 0.  1.
        -11    1    4    4    0    0 -0.14786745116E+01 -0.72463641306E+01  0.30051577057E+01  0.79829345808E+01  0.51100000000E-03 0. -1.
        -12    1    4    4    0    0 -0.62838918956E+01  0.52787929691E+01 -0.18668064931E+01  0.84165265430E+01  0.00000000000E+00 0.  1.
</event>
<event>
 8    1  0.9870402E-014  0.9118800E+02  0.7816164E-02  0.1184000E+00
        -11   -1    0    0    0    0  0.00000000000E+00  0.00000000000E+00  0.45593999997E+02  0.45594000000E+02  0.51100000000E-03 0. -1.
         11   -1    0    0    0    0 -0.00000000000E+00 -0.00000000000E+00 -0.45593999997E+02  0.45594000000E+02  0.51100000000E-03 0.  1.
         23    2    1    2    0    0  0.00000000000E+00  0.17763568394E-14  0.00000000000E+00  0.91188000000E+02  0.91188000000E+02 0.  0.
    9900012    2    3    3    0    0  0.33781595150E+02 -0.13371588172E+02  0.18252959796E+02  0.50528854874E+02  0.29999984875E+02 0.  0.
        -12    1    3    3    0    0 -0.33781595150E+02  0.13371588172E+02 -0.18252959796E+02  0.40659145126E+02  0.00000000000E+00 0.  1.
         11    1    4    4    0    0  0.26234727784E+01 -0.55503566662E+01  0.17971477792E+01  0.63967811392E+01  0.51100000000E-03 0. -1.
        -11    1    4    4    0    0  0.98586633409E+01 -0.15712604568E+01 -0.67252310234E+01  0.12037060890E+02  0.51100000000E-03 0.  1.
         12    1    4    4    0    0  0.21299459030E+02 -0.62499710487E+01  0.23181043040E+02  0.32095012845E+02  0.00000000000E+00 0. -1.
</event>
<event>
 8    1  0.9870402E-014  0.9118800E+02  0.7816164E-02  0.1184000E+00
        -11   -1    0    0    0    0  0.00000000000E+00  0.00000000000E+00  0.45593999997E+02  0.45594000000E+02  0.51100000000E-03 0. -1.
         11   -1    0    0    0    0 -0.00000000000E+00 -0.00000000000E+00 -0.45593999997E+02  0.45594000000E+02  0.51100000000E-03 0.  1.
         23    2    1    2    0    0 -0.44408920985E-15  0.00000000000E+00  0.00000000000E+00  0.91188000000E+02  0.91188000000E+02 0.  0.
    9900012    2    3    3    0    0  0.13560674192E+01  0.35847299985E+02  0.19138917222E+02  0.50528856041E+02  0.29999988422E+02 0.  0.
        -12    1    3    3    0    0 -0.13560674192E+01 -0.35847299985E+02 -0.19138917222E+02  0.40659143959E+02  0.00000000000E+00 0.  1.
         11    1    4    4    0    0 -0.68196580524E+01  0.12348702489E+02  0.42782498866E+01  0.14741153668E+02  0.51100000000E-03 0. -1.
        -11    1    4    4    0    0 -0.33351738156E+01 -0.43335405394E+00  0.75164015384E+01  0.82345292800E+01  0.51100000000E-03 0.  1.
         12    1    4    4    0    0  0.11510899287E+02  0.23931951550E+02  0.73442657971E+01  0.27553173093E+02  0.00000000000E+00 0. -1.
</event>
<event>
 8    1  0.9870402E-014  0.9118800E+02  0.7816164E-02  0.1184000E+00
        -11   -1    0    0    0    0  0.00000000000E+00  0.00000000000E+00  0.45593999997E+02  0.45594000000E+02  0.51100000000E-03 0. -1.
         11   -1    0    0    0    0 -0.00000000000E+00 -0.00000000000E+00 -0.45593999997E+02  0.45594000000E+02  0.51100000000E-03 0.  1.
         23    2    1    2    0    0  0.00000000000E+00  0.00000000000E+00  0.00000000000E+00  0.91188000000E+02  0.91188000000E+02 0.  0.
    9900012    2    3    3    0    0  0.20072737511E+02 -0.14591552949E+02  0.32207727461E+02  0.50528856909E+02  0.29999991061E+02 0.  0.
        -12    1    3    3    0    0 -0.20072737511E+02  0.14591552949E+02 -0.32207727461E+02  0.40659143091E+02  0.00000000000E+00 0.  1.
         11    1    4    4    0    0  0.13866083630E+01 -0.10960398197E+02  0.13865266043E+02  0.17728469028E+02  0.51100000000E-03 0. -1.
        -11    1    4    4    0    0 -0.31208688993E+01  0.16862604021E+01 -0.38470897114E+00  0.35680944612E+01  0.51100000000E-03 0.  1.
        -12    1    4    4    0    0  0.21806998048E+02 -0.53174151542E+01  0.18727170390E+02  0.29232293420E+02  0.00000000000E+00 0.  1.
</event>
<event>
 8    1  0.9870402E-014  0.9118800E+02  0.7816164E-02  0.1184000E+00
        -11   -1    0    0    0    0  0.00000000000E+00  0.00000000000E+00  0.45593999997E+02  0.45594000000E+02  0.51100000000E-03 0. -1.
         11   -1    0    0    0    0 -0.00000000000E+00 -0.00000000000E+00 -0.45593999997E+02  0.45594000000E+02  0.51100000000E-03 0.  1.
         23    2    1    2    0    0  0.71054273576E-14  0.00000000000E+00  0.00000000000E+00  0.91188000000E+02  0.91188000000E+02 0.  0.
    9900012    2    3    3    0    0  0.25934025547E+02  0.22938346700E+02 -0.21317166119E+02  0.50528892758E+02  0.30000100028E+02 0.  0.
         12    1    3    3    0    0 -0.25934025547E+02 -0.22938346700E+02  0.21317166119E+02  0.40659107242E+02  0.00000000000E+00 0. -1.
         11    1    4    4    0    0  0.19866892455E+01  0.11705122839E+02 -0.62847976620E+01  0.13433373245E+02  0.51100000000E-03 0. -1.
        -11    1    4    4    0    0  0.26370501183E+01  0.16534957001E+01 -0.13308370754E+02  0.13667509420E+02  0.51100000000E-03 0.  1.
        -12    1    4    4    0    0  0.21310286183E+02  0.95797281603E+01 -0.17239977028E+01  0.23428010093E+02  0.00000000000E+00 0.  1.
</event>
<event>
 8    1  0.9870402E-014  0.9118800E+02  0.7816164E-02  0.1184000E+00
        -11   -1    0    0    0    0  0.00000000000E+00  0.00000000000E+00  0.45593999997E+02  0.45594000000E+02  0.51100000000E-03 0. -1.
         11   -1    0    0    0    0 -0.00000000000E+00 -0.00000000000E+00 -0.45593999997E+02  0.45594000000E+02  0.51100000000E-03 0.  1.
         23    2    1    2    0    0 -0.17763568394E-14  0.00000000000E+00  0.00000000000E+00  0.91188000000E+02  0.91188000000E+02 0.  0.
    9900012    2    3    3    0    0  0.10853919654E+02 -0.16710557080E+02 -0.35441868116E+02  0.50528729159E+02  0.29999602749E+02 0.  0.
         12    1    3    3    0    0 -0.10853919654E+02  0.16710557080E+02  0.35441868116E+02  0.40659270841E+02  0.00000000000E+00 0. -1.
         11    1    4    4    0    0 -0.35677359065E+01  0.11662156124E+01 -0.47778289066E+01  0.60758906898E+01  0.51100000000E-03 0. -1.
        -11    1    4    4    0    0  0.33736409842E+01 -0.49462688709E+01 -0.26191405962E+02  0.26867020225E+02  0.51100000000E-03 0.  1.
         12    1    4    4    0    0  0.11048014576E+02 -0.12930503822E+02 -0.44726332468E+01  0.17585818244E+02  0.00000000000E+00 0. -1.
</event>
<event>
 8    1  0.9870402E-014  0.9118800E+02  0.7816164E-02  0.1184000E+00
        -11   -1    0    0    0    0  0.00000000000E+00  0.00000000000E+00  0.45593999997E+02  0.45594000000E+02  0.51100000000E-03 0. -1.
         11   -1    0    0    0    0 -0.00000000000E+00 -0.00000000000E+00 -0.45593999997E+02  0.45594000000E+02  0.51100000000E-03 0.  1.
         23    2    1    2    0    0 -0.35527136788E-14  0.17763568394E-14  0.35527136788E-14  0.91188000000E+02  0.91188000000E+02 0.  0.
    9900012    2    3    3    0    0  0.30615047836E+02 -0.97025474247E+01 -0.24934816499E+02  0.50528860137E+02  0.30000000874E+02 0.  0.
         12    1    3    3    0    0 -0.30615047836E+02  0.97025474247E+01  0.24934816499E+02  0.40659139863E+02  0.00000000000E+00 0. -1.
         11    1    4    4    0    0  0.76243479936E+01 -0.23657234640E+01 -0.16613438378E+02  0.18431865473E+02  0.51100000000E-03 0. -1.
        -11    1    4    4    0    0  0.74948426066E+01  0.61551781356E+01 -0.60372886642E+01  0.11423998348E+02  0.51100000000E-03 0.  1.
         12    1    4    4    0    0  0.15495857236E+02 -0.13492002096E+02 -0.22840894572E+01  0.20672996316E+02  0.00000000000E+00 0. -1.
</event>
<event>
 8    1  0.9870402E-014  0.9118800E+02  0.7816164E-02  0.1184000E+00
        -11   -1    0    0    0    0  0.00000000000E+00  0.00000000000E+00  0.45593999997E+02  0.45594000000E+02  0.51100000000E-03 0. -1.
         11   -1    0    0    0    0 -0.00000000000E+00 -0.00000000000E+00 -0.45593999997E+02  0.45594000000E+02  0.51100000000E-03 0.  1.
         23    2    1    2    0    0  0.35527136788E-14 -0.71054273576E-14 -0.99920072216E-15  0.91188000000E+02  0.91188000000E+02 0.  0.
    9900012    2    3    3    0    0  0.17073310314E+02 -0.36890060213E+02 -0.88973878283E+00  0.50528854624E+02  0.29999984114E+02 0.  0.
        -12    1    3    3    0    0 -0.17073310314E+02  0.36890060213E+02  0.88973878283E+00  0.40659145376E+02  0.00000000000E+00 0.  1.
         11    1    4    4    0    0  0.26221179287E+01 -0.11556356236E+02  0.66573713360E+01  0.13592110404E+02  0.51100000000E-03 0. -1.
        -11    1    4    4    0    0 -0.29257146573E+01 -0.32336323328E+01  0.45757006978E+01  0.63208560699E+01  0.51100000000E-03 0.  1.
        -12    1    4    4    0    0  0.17376907043E+02 -0.22100071645E+02 -0.12122810817E+02  0.30615888150E+02  0.00000000000E+00 0.  1.
</event>
<event>
 8    1  0.1298060E-013  0.9118800E+02  0.7816164E-02  0.1184000E+00
        -11   -1    0    0    0    0  0.00000000000E+00  0.00000000000E+00  0.45593999997E+02  0.45594000000E+02  0.51100000000E-03 0. -1.
         11   -1    0    0    0    0 -0.00000000000E+00 -0.00000000000E+00 -0.45593999997E+02  0.45594000000E+02  0.51100000000E-03 0.  1.
         23    2    1    2    0    0  0.00000000000E+00  0.00000000000E+00  0.00000000000E+00  0.91188000000E+02  0.91188000000E+02 0.  0.
    9900012    2    3    3    0    0  0.25496920656E+02  0.23189215378E+02 -0.21571581486E+02  0.50528858339E+02  0.29999995407E+02 0.  0.
         12    1    3    3    0    0 -0.25496920656E+02 -0.23189215378E+02  0.21571581486E+02  0.40659141661E+02  0.00000000000E+00 0. -1.
         11    1    4    4    0    0  0.23532543021E+01  0.52164728673E+01 -0.12845328990E+02  0.14062427675E+02  0.51100000000E-03 0. -1.
        -11    1    4    4    0    0  0.36359583765E+01  0.15065446536E+02 -0.56973718242E+01  0.16512053737E+02  0.51100000000E-03 0.  1.
         12    1    4    4    0    0  0.19507707977E+02  0.29072959751E+01 -0.30288806714E+01  0.19954376927E+02  0.00000000000E+00 0. -1.
</event>
<event>
 8    1  0.9870402E-014  0.9118800E+02  0.7816164E-02  0.1184000E+00
        -11   -1    0    0    0    0  0.00000000000E+00  0.00000000000E+00  0.45593999997E+02  0.45594000000E+02  0.51100000000E-03 0. -1.
         11   -1    0    0    0    0 -0.00000000000E+00 -0.00000000000E+00 -0.45593999997E+02  0.45594000000E+02  0.51100000000E-03 0.  1.
         23    2    1    2    0    0  0.00000000000E+00  0.35527136788E-14  0.00000000000E+00  0.91188000000E+02  0.91188000000E+02 0.  0.
    9900012    2    3    3    0    0 -0.38882484125E+01 -0.18652634892E+02  0.35918324274E+02  0.50528864707E+02  0.30000014762E+02 0.  0.
        -12    1    3    3    0    0  0.38882484125E+01  0.18652634892E+02 -0.35918324274E+02  0.40659135293E+02  0.00000000000E+00 0.  1.
         11    1    4    4    0    0 -0.44847479084E+01 -0.50406448961E+01  0.15985122409E+02  0.17350654266E+02  0.51100000000E-03 0. -1.
        -11    1    4    4    0    0  0.31965284885E+01 -0.87649574681E+01  0.24380652955E+02  0.26104760343E+02  0.51100000000E-03 0.  1.
        -12    1    4    4    0    0 -0.26000289926E+01 -0.48470325274E+01 -0.44474510897E+01  0.70734500973E+01  0.00000000000E+00 0.  1.
</event>
<event>
 8    1  0.9870402E-014  0.9118800E+02  0.7816164E-02  0.1184000E+00
        -11   -1    0    0    0    0  0.00000000000E+00  0.00000000000E+00  0.45593999997E+02  0.45594000000E+02  0.51100000000E-03 0. -1.
         11   -1    0    0    0    0 -0.00000000000E+00 -0.00000000000E+00 -0.45593999997E+02  0.45594000000E+02  0.51100000000E-03 0.  1.
         23    2    1    2    0    0  0.00000000000E+00  0.00000000000E+00  0.00000000000E+00  0.91188000000E+02  0.91188000000E+02 0.  0.
    9900012    2    3    3    0    0  0.76467947707E+01 -0.17851172922E+02  0.35721606888E+02  0.50528793864E+02  0.29999799428E+02 0.  0.
        -12    1    3    3    0    0 -0.76467947707E+01  0.17851172922E+02 -0.35721606888E+02  0.40659206136E+02  0.00000000000E+00 0.  1.
         11    1    4    4    0    0  0.38391600303E+00 -0.61365542239E+01 -0.33616600504E+00  0.61577347364E+01  0.51100000000E-03 0. -1.
        -11    1    4    4    0    0  0.14896259634E+01  0.17760389415E+01 -0.23224255127E+01  0.32813046728E+01  0.51100000000E-03 0.  1.
         12    1    4    4    0    0  0.57732528042E+01 -0.13490657639E+02  0.38380198406E+02  0.41089754455E+02  0.00000000000E+00 0. -1.
</event>
<event>
 8    1  0.9870402E-014  0.9118800E+02  0.7816164E-02  0.1184000E+00
        -11   -1    0    0    0    0  0.00000000000E+00  0.00000000000E+00  0.45593999997E+02  0.45594000000E+02  0.51100000000E-03 0. -1.
         11   -1    0    0    0    0 -0.00000000000E+00 -0.00000000000E+00 -0.45593999997E+02  0.45594000000E+02  0.51100000000E-03 0.  1.
         23    2    1    2    0    0  0.88817841970E-15  0.00000000000E+00 -0.17763568394E-14  0.91188000000E+02  0.91188000000E+02 0.  0.
    9900012    2    3    3    0    0  0.10262153732E+01 -0.39672798518E+02 -0.88420627582E+01  0.50528854238E+02  0.29999982942E+02 0.  0.
         12    1    3    3    0    0 -0.10262153732E+01  0.39672798518E+02  0.88420627582E+01  0.40659145762E+02  0.00000000000E+00 0. -1.
         11    1    4    4    0    0  0.50992399664E+01 -0.85455360513E+00  0.10186382283E+01  0.52697375836E+01  0.51100000000E-03 0. -1.
        -11    1    4    4    0    0 -0.23913962265E+01 -0.24190979699E+02 -0.16217273772E+02  0.29221947976E+02  0.51100000000E-03 0.  1.
         12    1    4    4    0    0 -0.16816283667E+01 -0.14627265215E+02  0.63565727853E+01  0.16037168678E+02  0.00000000000E+00 0. -1.
</event>
<event>
 8    1  0.9870402E-014  0.9118800E+02  0.7816164E-02  0.1184000E+00
        -11   -1    0    0    0    0  0.00000000000E+00  0.00000000000E+00  0.45593999997E+02  0.45594000000E+02  0.51100000000E-03 0. -1.
         11   -1    0    0    0    0 -0.00000000000E+00 -0.00000000000E+00 -0.45593999997E+02  0.45594000000E+02  0.51100000000E-03 0.  1.
         23    2    1    2    0    0  0.00000000000E+00  0.35527136788E-14 -0.35527136788E-14  0.91188000000E+02  0.91188000000E+02 0.  0.
    9900012    2    3    3    0    0 -0.20279223414E+02 -0.25792858569E+02  0.24013481808E+02  0.50528858789E+02  0.29999996776E+02 0.  0.
        -12    1    3    3    0    0  0.20279223414E+02  0.25792858569E+02 -0.24013481808E+02  0.40659141211E+02  0.00000000000E+00 0.  1.
         11    1    4    4    0    0 -0.86898376659E+01 -0.18949692702E+02  0.59831619699E+01  0.21688761136E+02  0.51100000000E-03 0. -1.
        -11    1    4    4    0    0 -0.13447661540E+02 -0.11005858287E+02  0.11360478925E+02  0.20761237901E+02  0.51100000000E-03 0.  1.
        -12    1    4    4    0    0  0.18582757918E+01  0.41626924198E+01  0.66698409127E+01  0.80788597525E+01  0.00000000000E+00 0.  1.
</event>
<event>
 8    1  0.9870402E-014  0.9118800E+02  0.7816164E-02  0.1184000E+00
        -11   -1    0    0    0    0  0.00000000000E+00  0.00000000000E+00  0.45593999997E+02  0.45594000000E+02  0.51100000000E-03 0. -1.
         11   -1    0    0    0    0 -0.00000000000E+00 -0.00000000000E+00 -0.45593999997E+02  0.45594000000E+02  0.51100000000E-03 0.  1.
         23    2    1    2    0    0  0.44408920985E-15  0.17763568394E-14  0.71054273576E-14  0.91188000000E+02  0.91188000000E+02 0.  0.
    9900012    2    3    3    0    0 -0.30817602499E+01  0.59563364308E+01 -0.40102244580E+02  0.50528865599E+02  0.30000017475E+02 0.  0.
         12    1    3    3    0    0  0.30817602499E+01 -0.59563364308E+01  0.40102244580E+02  0.40659134401E+02  0.00000000000E+00 0. -1.
         11    1    4    4    0    0  0.16200372126E+01  0.31264458049E+01 -0.12207961933E+01  0.37268656466E+01  0.51100000000E-03 0.  1.
        -11    1    4    4    0    0 -0.22942395337E+01 -0.10064900122E+02 -0.74130686364E+01  0.12709025783E+02  0.51100000000E-03 0. -1.
         12    1    4    4    0    0 -0.24075579288E+01  0.12894790748E+02 -0.31468379750E+02  0.34092974169E+02  0.00000000000E+00 0. -1.
</event>
<event>
 8    1  0.9870402E-014  0.9118800E+02  0.7816164E-02  0.1184000E+00
        -11   -1    0    0    0    0  0.00000000000E+00  0.00000000000E+00  0.45593999997E+02  0.45594000000E+02  0.51100000000E-03 0. -1.
         11   -1    0    0    0    0 -0.00000000000E+00 -0.00000000000E+00 -0.45593999997E+02  0.45594000000E+02  0.51100000000E-03 0.  1.
         23    2    1    2    0    0  0.14210854715E-13  0.35527136788E-14  0.17763568394E-14  0.91188000000E+02  0.91188000000E+02 0.  0.
    9900012    2    3    3    0    0  0.35619174672E+02  0.12044789606E+02  0.15471384690E+02  0.50528852134E+02  0.29999976546E+02 0.  0.
        -12    1    3    3    0    0 -0.35619174672E+02 -0.12044789606E+02 -0.15471384690E+02  0.40659147866E+02  0.00000000000E+00 0.  1.
         11    1    4    4    0    0  0.19528200931E+02  0.77120933833E+01  0.12812779161E+02  0.24596632413E+02  0.51100000000E-03 0. -1.
        -11    1    4    4    0    0  0.16202914374E+02  0.70973944301E+01  0.83823473324E+01  0.19574758976E+02  0.51100000000E-03 0.  1.
        -12    1    4    4    0    0 -0.11194063265E+00 -0.27646982070E+01 -0.57237418042E+01  0.63574607448E+01  0.00000000000E+00 0.  1.
</event>
<event>
 8    1  0.9870402E-014  0.9118800E+02  0.7816164E-02  0.1184000E+00
        -11   -1    0    0    0    0  0.00000000000E+00  0.00000000000E+00  0.45593999997E+02  0.45594000000E+02  0.51100000000E-03 0. -1.
         11   -1    0    0    0    0 -0.00000000000E+00 -0.00000000000E+00 -0.45593999997E+02  0.45594000000E+02  0.51100000000E-03 0.  1.
         23    2    1    2    0    0  0.00000000000E+00  0.00000000000E+00  0.00000000000E+00  0.91188000000E+02  0.91188000000E+02 0.  0.
    9900012    2    3    3    0    0 -0.96908505800E+01 -0.99981444574E+01 -0.38200649575E+02  0.50528866887E+02  0.30000021389E+02 0.  0.
         12    1    3    3    0    0  0.96908505800E+01  0.99981444574E+01  0.38200649575E+02  0.40659133113E+02  0.00000000000E+00 0. -1.
         11    1    4    4    0    0 -0.64380360783E+01  0.19483166574E+01 -0.24929139570E+02  0.25820655420E+02  0.51100000000E-03 0.  1.
        -11    1    4    4    0    0  0.10788917318E+01 -0.26948712749E+01 -0.14159727385E+02  0.14454211097E+02  0.51100000000E-03 0. -1.
         12    1    4    4    0    0 -0.43317062335E+01 -0.92515898399E+01  0.88821738069E+00  0.10254000369E+02  0.00000000000E+00 0. -1.
</event>
<event>
 8    1  0.9870402E-014  0.9118800E+02  0.7816164E-02  0.1184000E+00
        -11   -1    0    0    0    0  0.00000000000E+00  0.00000000000E+00  0.45593999997E+02  0.45594000000E+02  0.51100000000E-03 0. -1.
         11   -1    0    0    0    0 -0.00000000000E+00 -0.00000000000E+00 -0.45593999997E+02  0.45594000000E+02  0.51100000000E-03 0.  1.
         23    2    1    2    0    0 -0.17763568394E-14  0.24980018054E-15  0.71054273576E-14  0.91188000000E+02  0.91188000000E+02 0.  0.
    9900012    2    3    3    0    0  0.12091577216E+02  0.12929263308E+00 -0.38819359418E+02  0.50528860538E+02  0.30000002092E+02 0.  0.
         12    1    3    3    0    0 -0.12091577216E+02 -0.12929263308E+00  0.38819359418E+02  0.40659139462E+02  0.00000000000E+00 0. -1.
         11    1    4    4    0    0  0.12026831875E+02 -0.95727066930E+01 -0.14897425038E+02  0.21405949439E+02  0.51100000000E-03 0. -1.
        -11    1    4    4    0    0 -0.14236409372E+01  0.50731604137E+00  0.14505264532E+01  0.20947912394E+01  0.51100000000E-03 0.  1.
        -12    1    4    4    0    0  0.14883862786E+01  0.91946832847E+01 -0.25372460833E+02  0.27028119860E+02  0.00000000000E+00 0.  1.
</event>
<event>
 8    1  0.9870402E-014  0.9118800E+02  0.7816164E-02  0.1184000E+00
        -11   -1    0    0    0    0  0.00000000000E+00  0.00000000000E+00  0.45593999997E+02  0.45594000000E+02  0.51100000000E-03 0.  1.
         11   -1    0    0    0    0 -0.00000000000E+00 -0.00000000000E+00 -0.45593999997E+02  0.45594000000E+02  0.51100000000E-03 0. -1.
         23    2    1    2    0    0  0.00000000000E+00  0.00000000000E+00  0.88817841970E-15  0.91188000000E+02  0.91188000000E+02 0.  0.
    9900012    2    3    3    0    0 -0.50002562143E+01  0.40204455498E+02  0.34299735488E+01  0.50528861757E+02  0.30000005796E+02 0.  0.
         12    1    3    3    0    0  0.50002562143E+01 -0.40204455498E+02 -0.34299735488E+01  0.40659138243E+02  0.00000000000E+00 0. -1.
         11    1    4    4    0    0 -0.84145889064E+01  0.17116401326E+02  0.83764975671E+01  0.20831279667E+02  0.51100000000E-03 0. -1.
        -11    1    4    4    0    0  0.61921099983E+01  0.93990820779E+01  0.52343910666E+01  0.12413050400E+02  0.51100000000E-03 0.  1.
         12    1    4    4    0    0 -0.27777773063E+01  0.13688972095E+02 -0.10180915085E+02  0.17284531690E+02  0.00000000000E+00 0. -1.
</event>
<event>
 8    1  0.9870402E-014  0.9118800E+02  0.7816164E-02  0.1184000E+00
        -11   -1    0    0    0    0  0.00000000000E+00  0.00000000000E+00  0.45593999997E+02  0.45594000000E+02  0.51100000000E-03 0. -1.
         11   -1    0    0    0    0 -0.00000000000E+00 -0.00000000000E+00 -0.45593999997E+02  0.45594000000E+02  0.51100000000E-03 0.  1.
         23    2    1    2    0    0  0.17763568394E-14  0.17763568394E-14  0.00000000000E+00  0.91188000000E+02  0.91188000000E+02 0.  0.
    9900012    2    3    3    0    0  0.59730017705E+01 -0.13876583430E+02 -0.37748249889E+02  0.50528847432E+02  0.29999962255E+02 0.  0.
         12    1    3    3    0    0 -0.59730017705E+01  0.13876583430E+02  0.37748249889E+02  0.40659152568E+02  0.00000000000E+00 0. -1.
         11    1    4    4    0    0  0.84607408517E+01 -0.11005861384E+01 -0.26871417023E+01  0.89451750344E+01  0.51100000000E-03 0. -1.
        -11    1    4    4    0    0  0.70703398674E+01 -0.44058929866E+01 -0.73936015346E+01  0.11138534139E+02  0.51100000000E-03 0.  1.
        -12    1    4    4    0    0 -0.95580789485E+01 -0.83701043048E+01 -0.27667506652E+02  0.30445138259E+02  0.00000000000E+00 0.  1.
</event>
<event>
 8    1  0.9870402E-014  0.9118800E+02  0.7816164E-02  0.1184000E+00
        -11   -1    0    0    0    0  0.00000000000E+00  0.00000000000E+00  0.45593999997E+02  0.45594000000E+02  0.51100000000E-03 0. -1.
         11   -1    0    0    0    0 -0.00000000000E+00 -0.00000000000E+00 -0.45593999997E+02  0.45594000000E+02  0.51100000000E-03 0.  1.
         23    2    1    2    0    0 -0.35527136788E-14  0.17763568394E-14  0.35527136788E-14  0.91188000000E+02  0.91188000000E+02 0.  0.
    9900012    2    3    3    0    0  0.29898990690E+02 -0.11423998184E+02 -0.25074015435E+02  0.50528885046E+02  0.30000076586E+02 0.  0.
         12    1    3    3    0    0 -0.29898990690E+02  0.11423998184E+02  0.25074015435E+02  0.40659114954E+02  0.00000000000E+00 0. -1.
         11    1    4    4    0    0  0.51158279130E+01  0.11796329792E+00  0.32758934476E+01  0.60759434425E+01  0.51100000000E-03 0. -1.
        -11    1    4    4    0    0  0.25248301071E+01  0.50414269358E+01 -0.89885433969E+01  0.10610592127E+02  0.51100000000E-03 0.  1.
        -12    1    4    4    0    0  0.22258332669E+02 -0.16583388418E+02 -0.19361365486E+02  0.33842349477E+02  0.00000000000E+00 0.  1.
</event>
<event>
 8    1  0.9870402E-014  0.9118800E+02  0.7816164E-02  0.1184000E+00
        -11   -1    0    0    0    0  0.00000000000E+00  0.00000000000E+00  0.45593999997E+02  0.45594000000E+02  0.51100000000E-03 0. -1.
         11   -1    0    0    0    0 -0.00000000000E+00 -0.00000000000E+00 -0.45593999997E+02  0.45594000000E+02  0.51100000000E-03 0.  1.
         23    2    1    2    0    0  0.00000000000E+00  0.44408920985E-15 -0.71054273576E-14  0.91188000000E+02  0.91188000000E+02 0.  0.
    9900012    2    3    3    0    0 -0.22389081279E+02  0.24255868999E+01  0.33852718918E+02  0.50528917245E+02  0.30000174458E+02 0.  0.
        -12    1    3    3    0    0  0.22389081279E+02 -0.24255868999E+01 -0.33852718918E+02  0.40659082755E+02  0.00000000000E+00 0.  1.
         11    1    4    4    0    0 -0.18208792762E+02  0.94501653778E+01  0.18981933118E+02  0.27949589348E+02  0.51100000000E-03 0. -1.
        -11    1    4    4    0    0  0.28036487487E+01  0.30208399714E+01  0.67035289254E+01  0.78691308767E+01  0.51100000000E-03 0.  1.
        -12    1    4    4    0    0 -0.69839372659E+01 -0.10045418449E+02  0.81672568737E+01  0.14710197021E+02  0.00000000000E+00 0.  1.
</event>
<event>
 8    1  0.1075818E-013  0.9118800E+02  0.7816164E-02  0.1184000E+00
        -11   -1    0    0    0    0  0.00000000000E+00  0.00000000000E+00  0.45593999997E+02  0.45594000000E+02  0.51100000000E-03 0.  1.
         11   -1    0    0    0    0 -0.00000000000E+00 -0.00000000000E+00 -0.45593999997E+02  0.45594000000E+02  0.51100000000E-03 0. -1.
         23    2    1    2    0    0  0.00000000000E+00  0.00000000000E+00 -0.35527136788E-14  0.91188000000E+02  0.91188000000E+02 0.  0.
    9900012    2    3    3    0    0  0.46548111605E+01 -0.34806287481E+02 -0.20494426924E+02  0.50528850352E+02  0.29999971130E+02 0.  0.
         12    1    3    3    0    0 -0.46548111605E+01  0.34806287481E+02  0.20494426924E+02  0.40659149648E+02  0.00000000000E+00 0. -1.
         11    1    4    4    0    0 -0.46634477084E+00 -0.20132518490E+02 -0.22694900911E+01  0.20265398188E+02  0.51100000000E-03 0. -1.
        -11    1    4    4    0    0 -0.26956638265E+01 -0.10348953091E+02 -0.18452046424E+02  0.21327106017E+02  0.51100000000E-03 0.  1.
         12    1    4    4    0    0  0.78168197579E+01 -0.43248159001E+01  0.22710959113E+00  0.89363461472E+01  0.00000000000E+00 0. -1.
</event>
<event>
 8    1  0.9870402E-014  0.9118800E+02  0.7816164E-02  0.1184000E+00
        -11   -1    0    0    0    0  0.00000000000E+00  0.00000000000E+00  0.45593999997E+02  0.45594000000E+02  0.51100000000E-03 0.  1.
         11   -1    0    0    0    0 -0.00000000000E+00 -0.00000000000E+00 -0.45593999997E+02  0.45594000000E+02  0.51100000000E-03 0. -1.
         23    2    1    2    0    0 -0.35527136788E-14  0.00000000000E+00  0.00000000000E+00  0.91188000000E+02  0.91188000000E+02 0.  0.
    9900012    2    3    3    0    0 -0.25889571406E+02  0.53686572318E+01 -0.30888085935E+02  0.50528852926E+02  0.29999978954E+02 0.  0.
         12    1    3    3    0    0  0.25889571406E+02 -0.53686572318E+01  0.30888085935E+02  0.40659147074E+02  0.00000000000E+00 0. -1.
         11    1    4    4    0    0 -0.27299975710E+01  0.52608054755E+01 -0.34104973876E+01  0.68381615717E+01  0.51100000000E-03 0. -1.
        -11    1    4    4    0    0 -0.30681022207E+01 -0.10081118651E+01 -0.22805438035E+02  0.23032966483E+02  0.51100000000E-03 0.  1.
        -12    1    4    4    0    0 -0.20091471615E+02  0.11159636214E+01 -0.46721505117E+01  0.20657724871E+02  0.00000000000E+00 0.  1.
</event>
<event>
 8    1  0.9870402E-014  0.9118800E+02  0.7816164E-02  0.1184000E+00
        -11   -1    0    0    0    0  0.00000000000E+00  0.00000000000E+00  0.45593999997E+02  0.45594000000E+02  0.51100000000E-03 0. -1.
         11   -1    0    0    0    0 -0.00000000000E+00 -0.00000000000E+00 -0.45593999997E+02  0.45594000000E+02  0.51100000000E-03 0.  1.
         23    2    1    2    0    0  0.00000000000E+00  0.35527136788E-14  0.35527136788E-14  0.91188000000E+02  0.91188000000E+02 0.  0.
    9900012    2    3    3    0    0 -0.16208359235E+02  0.26335016539E+02  0.26399263615E+02  0.50528866651E+02  0.30000020673E+02 0.  0.
        -12    1    3    3    0    0  0.16208359235E+02 -0.26335016539E+02 -0.26399263615E+02  0.40659133349E+02  0.00000000000E+00 0.  1.
         11    1    4    4    0    0 -0.19332970037E+02  0.19437438559E+02  0.18766282793E+02  0.33222750011E+02  0.51100000000E-03 0. -1.
        -11    1    4    4    0    0 -0.37709333183E+00  0.52140465288E+01 -0.29708595895E+01  0.60128601802E+01  0.51100000000E-03 0.  1.
        -12    1    4    4    0    0  0.35017041332E+01  0.16835314514E+01  0.10603840412E+02  0.11293256460E+02  0.00000000000E+00 0.  1.
</event>
<event>
 8    1  0.9870402E-014  0.9118800E+02  0.7816164E-02  0.1184000E+00
        -11   -1    0    0    0    0  0.00000000000E+00  0.00000000000E+00  0.45593999997E+02  0.45594000000E+02  0.51100000000E-03 0. -1.
         11   -1    0    0    0    0 -0.00000000000E+00 -0.00000000000E+00 -0.45593999997E+02  0.45594000000E+02  0.51100000000E-03 0.  1.
         23    2    1    2    0    0  0.00000000000E+00  0.00000000000E+00  0.00000000000E+00  0.91188000000E+02  0.91188000000E+02 0.  0.
    9900012    2    3    3    0    0  0.22139961090E+02 -0.12472012125E+02  0.31740147420E+02  0.50528856849E+02  0.29999990878E+02 0.  0.
        -12    1    3    3    0    0 -0.22139961090E+02  0.12472012125E+02 -0.31740147420E+02  0.40659143151E+02  0.00000000000E+00 0.  1.
         11    1    4    4    0    0  0.19989745888E+02 -0.16779730755E+02  0.13240952241E+02  0.29265544953E+02  0.51100000000E-03 0. -1.
        -11    1    4    4    0    0 -0.10944525473E+01 -0.18766157701E+01  0.10142598608E+02  0.10372647681E+02  0.51100000000E-03 0.  1.
        -12    1    4    4    0    0  0.32446677492E+01  0.61843344005E+01  0.83565965718E+01  0.10890664215E+02  0.00000000000E+00 0.  1.
</event>
<event>
 8    1  0.9870402E-014  0.9118800E+02  0.7816164E-02  0.1184000E+00
        -11   -1    0    0    0    0  0.00000000000E+00  0.00000000000E+00  0.45593999997E+02  0.45594000000E+02  0.51100000000E-03 0. -1.
         11   -1    0    0    0    0 -0.00000000000E+00 -0.00000000000E+00 -0.45593999997E+02  0.45594000000E+02  0.51100000000E-03 0.  1.
         23    2    1    2    0    0  0.00000000000E+00  0.00000000000E+00  0.00000000000E+00  0.91188000000E+02  0.91188000000E+02 0.  0.
    9900012    2    3    3    0    0  0.17001941545E+01  0.26763660268E+02 -0.30561102798E+02  0.50528866028E+02  0.30000018780E+02 0.  0.
         12    1    3    3    0    0 -0.17001941545E+01 -0.26763660268E+02  0.30561102798E+02  0.40659133972E+02  0.00000000000E+00 0. -1.
         11    1    4    4    0    0 -0.43414086623E+00  0.22501763516E+02 -0.25178161553E+02  0.33770662698E+02  0.51100000000E-03 0. -1.
        -11    1    4    4    0    0  0.54501033586E+00  0.49753136201E+01 -0.10348825562E+02  0.11495606668E+02  0.51100000000E-03 0.  1.
         12    1    4    4    0    0  0.15893246848E+01 -0.71341686855E+00  0.49658843171E+01  0.52625966626E+01  0.00000000000E+00 0. -1.
</event>
<event>
 8    1  0.9870402E-014  0.9118800E+02  0.7816164E-02  0.1184000E+00
        -11   -1    0    0    0    0  0.00000000000E+00  0.00000000000E+00  0.45593999997E+02  0.45594000000E+02  0.51100000000E-03 0. -1.
         11   -1    0    0    0    0 -0.00000000000E+00 -0.00000000000E+00 -0.45593999997E+02  0.45594000000E+02  0.51100000000E-03 0.  1.
         23    2    1    2    0    0  0.35527136788E-14  0.35527136788E-14 -0.35527136788E-14  0.91188000000E+02  0.91188000000E+02 0.  0.
    9900012    2    3    3    0    0 -0.28134603289E+02 -0.19212276340E+02  0.22192283868E+02  0.50528869074E+02  0.30000028036E+02 0.  0.
        -12    1    3    3    0    0  0.28134603289E+02  0.19212276340E+02 -0.22192283868E+02  0.40659130926E+02  0.00000000000E+00 0.  1.
         11    1    4    4    0    0 -0.51810787519E+01 -0.92443132083E+01 -0.10198467117E+01  0.10646172613E+02  0.51100000000E-03 0. -1.
        -11    1    4    4    0    0  0.33198867936E+01 -0.34931127309E+01  0.64524515731E+01  0.80534226536E+01  0.51100000000E-03 0.  1.
         12    1    4    4    0    0 -0.26273411331E+02 -0.64748504008E+01  0.16759679007E+02  0.31829273807E+02  0.00000000000E+00 0. -1.
</event>
<event>
 8    1  0.9870402E-014  0.9118800E+02  0.7816164E-02  0.1184000E+00
        -11   -1    0    0    0    0  0.00000000000E+00  0.00000000000E+00  0.45593999997E+02  0.45594000000E+02  0.51100000000E-03 0. -1.
         11   -1    0    0    0    0 -0.00000000000E+00 -0.00000000000E+00 -0.45593999997E+02  0.45594000000E+02  0.51100000000E-03 0.  1.
         23    2    1    2    0    0  0.35527136788E-14 -0.71054273576E-14  0.00000000000E+00  0.91188000000E+02  0.91188000000E+02 0.  0.
    9900012    2    3    3    0    0 -0.21420686761E+02  0.27248593619E+02  0.21256468081E+02  0.50528817633E+02  0.29999871676E+02 0.  0.
        -12    1    3    3    0    0  0.21420686761E+02 -0.27248593619E+02 -0.21256468081E+02  0.40659182367E+02  0.00000000000E+00 0.  1.
         11    1    4    4    0    0 -0.69687527207E+01  0.25610856463E+02  0.14325419991E+02  0.30161186008E+02  0.51100000000E-03 0. -1.
        -11    1    4    4    0    0 -0.10150788714E+02  0.65175537986E+01  0.68292697083E+01  0.13862032464E+02  0.51100000000E-03 0.  1.
        -12    1    4    4    0    0 -0.43011453267E+01 -0.48798166431E+01  0.10177838186E+00  0.65055991600E+01  0.00000000000E+00 0.  1.
</event>
<event>
 8    1  0.9870402E-014  0.9118800E+02  0.7816164E-02  0.1184000E+00
        -11   -1    0    0    0    0  0.00000000000E+00  0.00000000000E+00  0.45593999997E+02  0.45594000000E+02  0.51100000000E-03 0. -1.
         11   -1    0    0    0    0 -0.00000000000E+00 -0.00000000000E+00 -0.45593999997E+02  0.45594000000E+02  0.51100000000E-03 0.  1.
         23    2    1    2    0    0 -0.35527136788E-14  0.00000000000E+00  0.88817841970E-15  0.91188000000E+02  0.91188000000E+02 0.  0.
    9900012    2    3    3    0    0 -0.22453604612E+02  0.33280309549E+02 -0.64360298019E+01  0.50528857814E+02  0.29999993810E+02 0.  0.
        -12    1    3    3    0    0  0.22453604612E+02 -0.33280309549E+02  0.64360298019E+01  0.40659142186E+02  0.00000000000E+00 0.  1.
         11    1    4    4    0    0 -0.66605699947E+01  0.34083973185E+00  0.49629933119E+01  0.83132825798E+01  0.51100000000E-03 0. -1.
        -11    1    4    4    0    0 -0.13615921783E+02  0.12667268982E+02 -0.11426093265E+02  0.21826787144E+02  0.51100000000E-03 0.  1.
        -12    1    4    4    0    0 -0.21771128336E+01  0.20272200835E+02  0.27070150802E-01  0.20388788090E+02  0.00000000000E+00 0.  1.
</event>
<event>
 8    1  0.9870402E-014  0.9118800E+02  0.7816164E-02  0.1184000E+00
        -11   -1    0    0    0    0  0.00000000000E+00  0.00000000000E+00  0.45593999997E+02  0.45594000000E+02  0.51100000000E-03 0. -1.
         11   -1    0    0    0    0 -0.00000000000E+00 -0.00000000000E+00 -0.45593999997E+02  0.45594000000E+02  0.51100000000E-03 0.  1.
         23    2    1    2    0    0  0.00000000000E+00  0.00000000000E+00  0.00000000000E+00  0.91188000000E+02  0.91188000000E+02 0.  0.
    9900012    2    3    3    0    0  0.32829681030E+02  0.68303252871E+01  0.22994004406E+02  0.50528861560E+02  0.30000005199E+02 0.  0.
        -12    1    3    3    0    0 -0.32829681030E+02 -0.68303252871E+01 -0.22994004406E+02  0.40659138440E+02  0.00000000000E+00 0.  1.
         11    1    4    4    0    0  0.13669361682E+02 -0.64960225168E+01  0.90391052229E+01  0.17628249511E+02  0.51100000000E-03 0. -1.
        -11    1    4    4    0    0  0.41083259169E+01  0.14059117278E+01 -0.45110461314E+01  0.62613470665E+01  0.51100000000E-03 0.  1.
         12    1    4    4    0    0  0.15051993431E+02  0.11920436076E+02  0.18465945314E+02  0.26639264983E+02  0.00000000000E+00 0. -1.
</event>
<event>
 8    1  0.9870402E-014  0.9118800E+02  0.7816164E-02  0.1184000E+00
        -11   -1    0    0    0    0  0.00000000000E+00  0.00000000000E+00  0.45593999997E+02  0.45594000000E+02  0.51100000000E-03 0. -1.
         11   -1    0    0    0    0 -0.00000000000E+00 -0.00000000000E+00 -0.45593999997E+02  0.45594000000E+02  0.51100000000E-03 0.  1.
         23    2    1    2    0    0 -0.44408920985E-15  0.00000000000E+00  0.00000000000E+00  0.91188000000E+02  0.91188000000E+02 0.  0.
    9900012    2    3    3    0    0 -0.19898289819E+01 -0.34065241936E+02 -0.22108101360E+02  0.50528827932E+02  0.29999902982E+02 0.  0.
         12    1    3    3    0    0  0.19898289819E+01  0.34065241936E+02  0.22108101360E+02  0.40659172068E+02  0.00000000000E+00 0. -1.
         11    1    4    4    0    0  0.20649895546E+01 -0.12711398064E+02 -0.11520319464E+02  0.17278934672E+02  0.51100000000E-03 0. -1.
        -11    1    4    4    0    0 -0.98613126825E+01 -0.10364372150E+02 -0.14350843794E+02  0.20263573617E+02  0.51100000000E-03 0.  1.
         12    1    4    4    0    0  0.58064941459E+01 -0.10989471722E+02  0.37630618984E+01  0.12986319642E+02  0.00000000000E+00 0. -1.
</event>
<event>
 8    1  0.9870402E-014  0.9118800E+02  0.7816164E-02  0.1184000E+00
        -11   -1    0    0    0    0  0.00000000000E+00  0.00000000000E+00  0.45593999997E+02  0.45594000000E+02  0.51100000000E-03 0. -1.
         11   -1    0    0    0    0 -0.00000000000E+00 -0.00000000000E+00 -0.45593999997E+02  0.45594000000E+02  0.51100000000E-03 0.  1.
         23    2    1    2    0    0 -0.35527136788E-14 -0.35527136788E-14 -0.17763568394E-14  0.91188000000E+02  0.91188000000E+02 0.  0.
    9900012    2    3    3    0    0  0.26399841720E+02  0.29122626389E+02  0.10396461409E+02  0.50528863014E+02  0.30000009617E+02 0.  0.
        -12    1    3    3    0    0 -0.26399841720E+02 -0.29122626389E+02 -0.10396461409E+02  0.40659136986E+02  0.00000000000E+00 0.  1.
         11    1    4    4    0    0  0.24373008648E+02  0.82553416541E+01  0.11302424436E+02  0.28105853746E+02  0.51100000000E-03 0. -1.
        -11    1    4    4    0    0  0.49276427385E+01  0.14745021778E+02 -0.15187973030E+01  0.15620629812E+02  0.51100000000E-03 0.  1.
        -12    1    4    4    0    0 -0.29008096659E+01  0.61222629560E+01  0.61283427542E+00  0.68023794565E+01  0.00000000000E+00 0.  1.
</event>
<event>
 8    1  0.9870402E-014  0.9118800E+02  0.7816164E-02  0.1184000E+00
        -11   -1    0    0    0    0  0.00000000000E+00  0.00000000000E+00  0.45593999997E+02  0.45594000000E+02  0.51100000000E-03 0. -1.
         11   -1    0    0    0    0 -0.00000000000E+00 -0.00000000000E+00 -0.45593999997E+02  0.45594000000E+02  0.51100000000E-03 0.  1.
         23    2    1    2    0    0  0.00000000000E+00 -0.35527136788E-14  0.00000000000E+00  0.91188000000E+02  0.91188000000E+02 0.  0.
    9900012    2    3    3    0    0 -0.16602632602E+02 -0.24847687174E+02  0.27570091782E+02  0.50528869069E+02  0.30000028022E+02 0.  0.
        -12    1    3    3    0    0  0.16602632602E+02  0.24847687174E+02 -0.27570091782E+02  0.40659130931E+02  0.00000000000E+00 0.  1.
         11    1    4    4    0    0 -0.12116542212E+01  0.38854363212E-01 -0.90880682794E+00  0.15151058461E+01  0.51100000000E-03 0.  1.
        -11    1    4    4    0    0  0.69695721072E+01 -0.72066604490E+01  0.22451380807E+01  0.10273827692E+02  0.51100000000E-03 0. -1.
         12    1    4    4    0    0 -0.22360550488E+02 -0.17679881089E+02  0.26233760529E+02  0.38739935531E+02  0.00000000000E+00 0. -1.
</event>
<event>
 8    1  0.9870402E-014  0.9118800E+02  0.7816164E-02  0.1184000E+00
        -11   -1    0    0    0    0  0.00000000000E+00  0.00000000000E+00  0.45593999997E+02  0.45594000000E+02  0.51100000000E-03 0.  1.
         11   -1    0    0    0    0 -0.00000000000E+00 -0.00000000000E+00 -0.45593999997E+02  0.45594000000E+02  0.51100000000E-03 0. -1.
         23    2    1    2    0    0 -0.71054273576E-14  0.35527136788E-14 -0.35527136788E-14  0.91188000000E+02  0.91188000000E+02 0.  0.
    9900012    2    3    3    0    0 -0.27661812393E+02  0.16345491589E+02 -0.24916151034E+02  0.50528861513E+02  0.30000005055E+02 0.  0.
         12    1    3    3    0    0  0.27661812393E+02 -0.16345491589E+02  0.24916151034E+02  0.40659138487E+02  0.00000000000E+00 0. -1.
         11    1    4    4    0    0 -0.30660958246E+01 -0.15477189868E+01 -0.30381351899E+01  0.45854818025E+01  0.51100000000E-03 0. -1.
        -11    1    4    4    0    0 -0.17777969948E+02  0.23937962579E+02 -0.21615296757E+02  0.36828023597E+02  0.51100000000E-03 0.  1.
        -12    1    4    4    0    0 -0.68177466205E+01 -0.60447520028E+01 -0.26271908698E+00  0.91153561134E+01  0.00000000000E+00 0.  1.
</event>
<event>
 8    1  0.9870402E-014  0.9118800E+02  0.7816164E-02  0.1184000E+00
        -11   -1    0    0    0    0  0.00000000000E+00  0.00000000000E+00  0.45593999997E+02  0.45594000000E+02  0.51100000000E-03 0.  1.
         11   -1    0    0    0    0 -0.00000000000E+00 -0.00000000000E+00 -0.45593999997E+02  0.45594000000E+02  0.51100000000E-03 0. -1.
         23    2    1    2    0    0  0.00000000000E+00  0.00000000000E+00  0.00000000000E+00  0.91188000000E+02  0.91188000000E+02 0.  0.
    9900012    2    3    3    0    0 -0.37985909861E+02 -0.12500748666E+02 -0.73464759350E+01  0.50528821776E+02  0.29999884270E+02 0.  0.
         12    1    3    3    0    0  0.37985909861E+02  0.12500748666E+02  0.73464759350E+01  0.40659178224E+02  0.00000000000E+00 0. -1.
         11    1    4    4    0    0 -0.60930063571E+01  0.30470377161E+01  0.17117960500E+01  0.70242018258E+01  0.51100000000E-03 0. -1.
        -11    1    4    4    0    0 -0.33324925492E+02 -0.15737827961E+02 -0.26652482693E+01  0.36950418625E+02  0.51100000000E-03 0.  1.
        -12    1    4    4    0    0  0.14320219881E+01  0.19004157909E+00 -0.63930237157E+01  0.65542013248E+01  0.00000000000E+00 0.  1.
</event>
<event>
 8    1  0.9870402E-014  0.9118800E+02  0.7816164E-02  0.1184000E+00
        -11   -1    0    0    0    0  0.00000000000E+00  0.00000000000E+00  0.45593999997E+02  0.45594000000E+02  0.51100000000E-03 0. -1.
         11   -1    0    0    0    0 -0.00000000000E+00 -0.00000000000E+00 -0.45593999997E+02  0.45594000000E+02  0.51100000000E-03 0.  1.
         23    2    1    2    0    0  0.00000000000E+00  0.35527136788E-14 -0.35527136788E-14  0.91188000000E+02  0.91188000000E+02 0.  0.
    9900012    2    3    3    0    0  0.83692592048E+01  0.27354708818E+02 -0.28893609373E+02  0.50528865027E+02  0.30000015737E+02 0.  0.
         12    1    3    3    0    0 -0.83692592048E+01 -0.27354708818E+02  0.28893609373E+02  0.40659134973E+02  0.00000000000E+00 0. -1.
         11    1    4    4    0    0  0.44088192434E+01  0.41595860061E+01  0.11843545802E+01  0.61759646126E+01  0.51100000000E-03 0. -1.
        -11    1    4    4    0    0 -0.83434728852E+01  0.41953103223E+01 -0.50866725297E+01  0.10634303276E+02  0.51100000000E-03 0.  1.
        -12    1    4    4    0    0  0.12303912847E+02  0.18999812489E+02 -0.24991291424E+02  0.33718597138E+02  0.00000000000E+00 0.  1.
</event>
<event>
 8    1  0.9870402E-014  0.9118800E+02  0.7816164E-02  0.1184000E+00
        -11   -1    0    0    0    0  0.00000000000E+00  0.00000000000E+00  0.45593999997E+02  0.45594000000E+02  0.51100000000E-03 0. -1.
         11   -1    0    0    0    0 -0.00000000000E+00 -0.00000000000E+00 -0.45593999997E+02  0.45594000000E+02  0.51100000000E-03 0.  1.
         23    2    1    2    0    0  0.00000000000E+00  0.00000000000E+00  0.00000000000E+00  0.91188000000E+02  0.91188000000E+02 0.  0.
    9900012    2    3    3    0    0  0.80430134766E+01  0.16728084346E+02  0.36175232796E+02  0.50528851711E+02  0.29999975262E+02 0.  0.
        -12    1    3    3    0    0 -0.80430134766E+01 -0.16728084346E+02 -0.36175232796E+02  0.40659148289E+02  0.00000000000E+00 0.  1.
         11    1    4    4    0    0  0.10293258884E+02  0.45996571779E+01  0.18081414942E+02  0.21308345576E+02  0.51100000000E-03 0. -1.
        -11    1    4    4    0    0  0.13400426938E+01  0.11923635702E+01 -0.39579611229E+01  0.43454461009E+01  0.51100000000E-03 0.  1.
         12    1    4    4    0    0 -0.35902881009E+01  0.10936063598E+02  0.22051778977E+02  0.24875060035E+02  0.00000000000E+00 0. -1.
</event>
<event>
 8    1  0.9870402E-014  0.9118800E+02  0.7816164E-02  0.1184000E+00
        -11   -1    0    0    0    0  0.00000000000E+00  0.00000000000E+00  0.45593999997E+02  0.45594000000E+02  0.51100000000E-03 0. -1.
         11   -1    0    0    0    0 -0.00000000000E+00 -0.00000000000E+00 -0.45593999997E+02  0.45594000000E+02  0.51100000000E-03 0.  1.
         23    2    1    2    0    0  0.22204460493E-15 -0.17763568394E-14  0.00000000000E+00  0.91188000000E+02  0.91188000000E+02 0.  0.
    9900012    2    3    3    0    0  0.33015105615E-01  0.15115761389E+02 -0.37744899557E+02  0.50528870952E+02  0.30000033747E+02 0.  0.
         12    1    3    3    0    0 -0.33015105615E-01 -0.15115761389E+02  0.37744899557E+02  0.40659129048E+02  0.00000000000E+00 0. -1.
         11    1    4    4    0    0  0.46874965216E+01 -0.24105173954E+01 -0.16131755612E+01  0.55123092625E+01  0.51100000000E-03 0. -1.
        -11    1    4    4    0    0  0.36633540860E+01 -0.36350026165E+00  0.18605668994E+00  0.36860429938E+01  0.51100000000E-03 0.  1.
        -12    1    4    4    0    0 -0.83178355020E+01  0.17889779046E+02 -0.36317780685E+02  0.41330518696E+02  0.00000000000E+00 0.  1.
</event>
<event>
 8    1  0.9870402E-014  0.9118800E+02  0.7816164E-02  0.1184000E+00
        -11   -1    0    0    0    0  0.00000000000E+00  0.00000000000E+00  0.45593999997E+02  0.45594000000E+02  0.51100000000E-03 0. -1.
         11   -1    0    0    0    0 -0.00000000000E+00 -0.00000000000E+00 -0.45593999997E+02  0.45594000000E+02  0.51100000000E-03 0.  1.
         23    2    1    2    0    0  0.00000000000E+00  0.71054273576E-14  0.00000000000E+00  0.91188000000E+02  0.91188000000E+02 0.  0.
    9900012    2    3    3    0    0 -0.96375708856E+01  0.33799044585E+02  0.20442794349E+02  0.50528855540E+02  0.29999986899E+02 0.  0.
        -12    1    3    3    0    0  0.96375708856E+01 -0.33799044585E+02 -0.20442794349E+02  0.40659144460E+02  0.00000000000E+00 0.  1.
         11    1    4    4    0    0 -0.56964149931E+01  0.74668540809E+01 -0.13335329875E+01  0.94858507330E+01  0.51100000000E-03 0. -1.
        -11    1    4    4    0    0 -0.12344819896E+02  0.99421900882E+01  0.13622297465E+02  0.20899969150E+02  0.51100000000E-03 0.  1.
         12    1    4    4    0    0  0.84036640032E+01  0.16390000416E+02  0.81540298719E+01  0.20143035656E+02  0.00000000000E+00 0. -1.
</event>
<event>
 8    1  0.9870402E-014  0.9118800E+02  0.7816164E-02  0.1184000E+00
        -11   -1    0    0    0    0  0.00000000000E+00  0.00000000000E+00  0.45593999997E+02  0.45594000000E+02  0.51100000000E-03 0. -1.
         11   -1    0    0    0    0 -0.00000000000E+00 -0.00000000000E+00 -0.45593999997E+02  0.45594000000E+02  0.51100000000E-03 0.  1.
         23    2    1    2    0    0  0.35527136788E-14  0.35527136788E-14 -0.71054273576E-14  0.91188000000E+02  0.91188000000E+02 0.  0.
    9900012    2    3    3    0    0 -0.15299941947E+02 -0.15657867135E+02  0.34262353143E+02  0.50528857490E+02  0.29999992825E+02 0.  0.
        -12    1    3    3    0    0  0.15299941947E+02  0.15657867135E+02 -0.34262353143E+02  0.40659142510E+02  0.00000000000E+00 0.  1.
         11    1    4    4    0    0 -0.13268381826E+01 -0.13959219225E+02  0.95521119559E+01  0.16966530111E+02  0.51100000000E-03 0. -1.
        -11    1    4    4    0    0  0.18708038080E+01  0.88536882058E+00 -0.16848774090E+01  0.26688193983E+01  0.51100000000E-03 0.  1.
         12    1    4    4    0    0 -0.15843907572E+02 -0.25840167309E+01  0.26395118596E+02  0.30893507980E+02  0.00000000000E+00 0. -1.
</event>
<event>
 8    1  0.9870402E-014  0.9118800E+02  0.7816164E-02  0.1184000E+00
        -11   -1    0    0    0    0  0.00000000000E+00  0.00000000000E+00  0.45593999997E+02  0.45594000000E+02  0.51100000000E-03 0. -1.
         11   -1    0    0    0    0 -0.00000000000E+00 -0.00000000000E+00 -0.45593999997E+02  0.45594000000E+02  0.51100000000E-03 0.  1.
         23    2    1    2    0    0 -0.17763568394E-14  0.35527136788E-14  0.00000000000E+00  0.91188000000E+02  0.91188000000E+02 0.  0.
    9900012    2    3    3    0    0 -0.90200894122E+01  0.31564171217E+02  0.23989727203E+02  0.50528856762E+02  0.29999990613E+02 0.  0.
        -12    1    3    3    0    0  0.90200894122E+01 -0.31564171217E+02 -0.23989727203E+02  0.40659143238E+02  0.00000000000E+00 0.  1.
         11    1    4    4    0    0 -0.15879699994E+01  0.12311234690E+02  0.53305730163E+00  0.12424664932E+02  0.51100000000E-03 0. -1.
        -11    1    4    4    0    0  0.77380865122E+01  0.59229337223E+01  0.62832971510E+01  0.11594781158E+02  0.51100000000E-03 0.  1.
        -12    1    4    4    0    0 -0.15170205925E+02  0.13330002804E+02  0.17173372750E+02  0.26509410672E+02  0.00000000000E+00 0.  1.
</event>
<event>
 8    1  0.9870402E-014  0.9118800E+02  0.7816164E-02  0.1184000E+00
        -11   -1    0    0    0    0  0.00000000000E+00  0.00000000000E+00  0.45593999997E+02  0.45594000000E+02  0.51100000000E-03 0. -1.
         11   -1    0    0    0    0 -0.00000000000E+00 -0.00000000000E+00 -0.45593999997E+02  0.45594000000E+02  0.51100000000E-03 0.  1.
         23    2    1    2    0    0 -0.35527136788E-14  0.00000000000E+00  0.35527136788E-14  0.91188000000E+02  0.91188000000E+02 0.  0.
    9900012    2    3    3    0    0  0.25562378740E+02  0.64939500914E+01 -0.30944452711E+02  0.50528858983E+02  0.29999997366E+02 0.  0.
         12    1    3    3    0    0 -0.25562378740E+02 -0.64939500914E+01  0.30944452711E+02  0.40659141017E+02  0.00000000000E+00 0. -1.
         11    1    4    4    0    0  0.68831211898E+01  0.85291764699E+01 -0.14338436758E+01  0.11053511502E+02  0.51100000000E-03 0. -1.
        -11    1    4    4    0    0  0.13439217495E+02 -0.37557951089E+01 -0.57658316318E+01  0.15098456161E+02  0.51100000000E-03 0.  1.
         12    1    4    4    0    0  0.52400400555E+01  0.17205687304E+01 -0.23744777403E+02  0.24376891321E+02  0.00000000000E+00 0. -1.
</event>
<event>
 8    1  0.9870402E-014  0.9118800E+02  0.7816164E-02  0.1184000E+00
        -11   -1    0    0    0    0  0.00000000000E+00  0.00000000000E+00  0.45593999997E+02  0.45594000000E+02  0.51100000000E-03 0. -1.
         11   -1    0    0    0    0 -0.00000000000E+00 -0.00000000000E+00 -0.45593999997E+02  0.45594000000E+02  0.51100000000E-03 0.  1.
         23    2    1    2    0    0  0.71054273576E-14  0.88817841970E-15  0.00000000000E+00  0.91188000000E+02  0.91188000000E+02 0.  0.
    9900012    2    3    3    0    0  0.38689130624E+02 -0.63371840194E+01 -0.10777617980E+02  0.50528858604E+02  0.29999996212E+02 0.  0.
         12    1    3    3    0    0 -0.38689130624E+02  0.63371840194E+01  0.10777617980E+02  0.40659141396E+02  0.00000000000E+00 0. -1.
         11    1    4    4    0    0  0.24956927234E+01 -0.85554633791E+01  0.24871688374E+01  0.92525912526E+01  0.51100000000E-03 0. -1.
        -11    1    4    4    0    0  0.21149681836E+02 -0.28856151643E+01 -0.13735946837E+02  0.25383302630E+02  0.51100000000E-03 0.  1.
        -12    1    4    4    0    0  0.15043756065E+02  0.51038945241E+01  0.47116002007E+00  0.15892964721E+02  0.00000000000E+00 0.  1.
</event>
<event>
 8    1  0.9870402E-014  0.9118800E+02  0.7816164E-02  0.1184000E+00
        -11   -1    0    0    0    0  0.00000000000E+00  0.00000000000E+00  0.45593999997E+02  0.45594000000E+02  0.51100000000E-03 0.  1.
         11   -1    0    0    0    0 -0.00000000000E+00 -0.00000000000E+00 -0.45593999997E+02  0.45594000000E+02  0.51100000000E-03 0. -1.
         23    2    1    2    0    0  0.00000000000E+00  0.44408920985E-15  0.00000000000E+00  0.91188000000E+02  0.91188000000E+02 0.  0.
    9900012    2    3    3    0    0  0.35938345158E+02 -0.20857971520E+01 -0.18901071883E+02  0.50528859321E+02  0.29999998392E+02 0.  0.
         12    1    3    3    0    0 -0.35938345158E+02  0.20857971520E+01  0.18901071883E+02  0.40659140679E+02  0.00000000000E+00 0. -1.
         11    1    4    4    0    0  0.14229566746E+02 -0.22515388279E+01 -0.19133643536E+02  0.23950914640E+02  0.51100000000E-03 0. -1.
        -11    1    4    4    0    0 -0.30448637671E+00 -0.26617055818E+01 -0.31416123779E+01  0.41288154660E+01  0.51100000000E-03 0.  1.
        -12    1    4    4    0    0  0.22013264789E+02  0.28274472578E+01  0.33741840306E+01  0.22449129215E+02  0.00000000000E+00 0.  1.
</event>
<event>
 8    1  0.9870402E-014  0.9118800E+02  0.7816164E-02  0.1184000E+00
        -11   -1    0    0    0    0  0.00000000000E+00  0.00000000000E+00  0.45593999997E+02  0.45594000000E+02  0.51100000000E-03 0. -1.
         11   -1    0    0    0    0 -0.00000000000E+00 -0.00000000000E+00 -0.45593999997E+02  0.45594000000E+02  0.51100000000E-03 0.  1.
         23    2    1    2    0    0  0.00000000000E+00  0.00000000000E+00  0.00000000000E+00  0.91188000000E+02  0.91188000000E+02 0.  0.
    9900012    2    3    3    0    0 -0.37736999014E+02  0.19413024060E+01 -0.15010522724E+02  0.50528861519E+02  0.30000005072E+02 0.  0.
         12    1    3    3    0    0  0.37736999014E+02 -0.19413024060E+01  0.15010522724E+02  0.40659138481E+02  0.00000000000E+00 0. -1.
         11    1    4    4    0    0 -0.61192624073E+01  0.57900299813E+01 -0.73581938659E+01  0.11185384965E+02  0.51100000000E-03 0. -1.
        -11    1    4    4    0    0 -0.13222898237E+02  0.90495433574E+01 -0.46031562144E+01  0.16671182326E+02  0.51100000000E-03 0.  1.
        -12    1    4    4    0    0 -0.18394838370E+02 -0.12898270933E+02 -0.30491726435E+01  0.22672294227E+02  0.00000000000E+00 0.  1.
</event>
<event>
 8    1  0.9870402E-014  0.9118800E+02  0.7816164E-02  0.1184000E+00
        -11   -1    0    0    0    0  0.00000000000E+00  0.00000000000E+00  0.45593999997E+02  0.45594000000E+02  0.51100000000E-03 0. -1.
         11   -1    0    0    0    0 -0.00000000000E+00 -0.00000000000E+00 -0.45593999997E+02  0.45594000000E+02  0.51100000000E-03 0.  1.
         23    2    1    2    0    0  0.00000000000E+00  0.00000000000E+00  0.00000000000E+00  0.91188000000E+02  0.91188000000E+02 0.  0.
    9900012    2    3    3    0    0 -0.31840507690E+02  0.21643096434E+02 -0.13073830665E+02  0.50528848491E+02  0.29999965472E+02 0.  0.
         12    1    3    3    0    0  0.31840507690E+02 -0.21643096434E+02  0.13073830665E+02  0.40659151509E+02  0.00000000000E+00 0. -1.
         11    1    4    4    0    0 -0.71599194784E+01  0.18339595337E+02 -0.34540025638E+01  0.19988380076E+02  0.51100000000E-03 0. -1.
        -11    1    4    4    0    0 -0.91830736828E+01  0.29412838131E+01  0.34734491164E+01  0.10249138586E+02  0.51100000000E-03 0.  1.
         12    1    4    4    0    0 -0.15497514529E+02  0.36221728359E+00 -0.13093277218E+02  0.20291329829E+02  0.00000000000E+00 0. -1.
</event>
<event>
 8    1  0.9870402E-014  0.9118800E+02  0.7816164E-02  0.1184000E+00
        -11   -1    0    0    0    0  0.00000000000E+00  0.00000000000E+00  0.45593999997E+02  0.45594000000E+02  0.51100000000E-03 0. -1.
         11   -1    0    0    0    0 -0.00000000000E+00 -0.00000000000E+00 -0.45593999997E+02  0.45594000000E+02  0.51100000000E-03 0.  1.
         23    2    1    2    0    0  0.88817841970E-15  0.88817841970E-15  0.71054273576E-14  0.91188000000E+02  0.91188000000E+02 0.  0.
    9900012    2    3    3    0    0 -0.78541129844E+01  0.65146079375E+01 -0.39357830609E+02  0.50528855425E+02  0.29999986549E+02 0.  0.
         12    1    3    3    0    0  0.78541129844E+01 -0.65146079375E+01  0.39357830609E+02  0.40659144575E+02  0.00000000000E+00 0. -1.
         11    1    4    4    0    0  0.10559974581E+01 -0.66201856087E+01 -0.16326023129E+01  0.68998100480E+01  0.51100000000E-03 0. -1.
        -11    1    4    4    0    0 -0.10797695037E+02  0.49829695905E+01 -0.13456004137E+02  0.17957846520E+02  0.51100000000E-03 0.  1.
        -12    1    4    4    0    0  0.18875845949E+01  0.81518239558E+01 -0.24269224160E+02  0.25671198856E+02  0.00000000000E+00 0.  1.
</event>
<event>
 8    1  0.9870402E-014  0.9118800E+02  0.7816164E-02  0.1184000E+00
        -11   -1    0    0    0    0  0.00000000000E+00  0.00000000000E+00  0.45593999997E+02  0.45594000000E+02  0.51100000000E-03 0. -1.
         11   -1    0    0    0    0 -0.00000000000E+00 -0.00000000000E+00 -0.45593999997E+02  0.45594000000E+02  0.51100000000E-03 0.  1.
         23    2    1    2    0    0 -0.44408920985E-15  0.00000000000E+00  0.00000000000E+00  0.91188000000E+02  0.91188000000E+02 0.  0.
    9900012    2    3    3    0    0 -0.30501908690E+01 -0.98845389895E+01  0.39321212025E+02  0.50528862153E+02  0.30000007000E+02 0.  0.
        -12    1    3    3    0    0  0.30501908690E+01  0.98845389895E+01 -0.39321212025E+02  0.40659137847E+02  0.00000000000E+00 0.  1.
         11    1    4    4    0    0 -0.11362806292E+01  0.35942153487E+01  0.71155113079E+01  0.80523300401E+01  0.51100000000E-03 0. -1.
        -11    1    4    4    0    0 -0.59337453751E+01  0.40435387613E+01  0.22220988268E+01  0.75164661476E+01  0.51100000000E-03 0.  1.
         12    1    4    4    0    0  0.40198351352E+01 -0.17522293099E+02  0.29983601890E+02  0.34960065965E+02  0.00000000000E+00 0. -1.
</event>
<event>
 8    1  0.9870402E-014  0.9118800E+02  0.7816164E-02  0.1184000E+00
        -11   -1    0    0    0    0  0.00000000000E+00  0.00000000000E+00  0.45593999997E+02  0.45594000000E+02  0.51100000000E-03 0.  1.
         11   -1    0    0    0    0 -0.00000000000E+00 -0.00000000000E+00 -0.45593999997E+02  0.45594000000E+02  0.51100000000E-03 0. -1.
         23    2    1    2    0    0 -0.71054273576E-14 -0.35527136788E-14  0.00000000000E+00  0.91188000000E+02  0.91188000000E+02 0.  0.
    9900012    2    3    3    0    0 -0.33057889509E+02 -0.16118477886E+02 -0.17336017029E+02  0.50528845132E+02  0.29999955263E+02 0.  0.
        -12    1    3    3    0    0  0.33057889509E+02  0.16118477886E+02  0.17336017029E+02  0.40659154868E+02  0.00000000000E+00 0.  1.
         11    1    4    4    0    0 -0.26205707425E+02 -0.10828548273E+02 -0.24532040163E+02  0.37494233612E+02  0.51100000000E-03 0. -1.
        -11    1    4    4    0    0 -0.46617574336E+01 -0.28749825310E+01  0.39349347944E+00  0.54911150327E+01  0.51100000000E-03 0.  1.
         12    1    4    4    0    0 -0.21904246501E+01 -0.24149470820E+01  0.68025296539E+01  0.75434964870E+01  0.00000000000E+00 0. -1.
</event>
<event>
 8    1  0.1000281E-013  0.9118800E+02  0.7816164E-02  0.1184000E+00
        -11   -1    0    0    0    0  0.00000000000E+00  0.00000000000E+00  0.45593999997E+02  0.45594000000E+02  0.51100000000E-03 0. -1.
         11   -1    0    0    0    0 -0.00000000000E+00 -0.00000000000E+00 -0.45593999997E+02  0.45594000000E+02  0.51100000000E-03 0.  1.
         23    2    1    2    0    0  0.88817841970E-15 -0.35527136788E-14  0.00000000000E+00  0.91188000000E+02  0.91188000000E+02 0.  0.
    9900012    2    3    3    0    0 -0.70358604323E+01  0.25319293238E+02 -0.31025737836E+02  0.50528851579E+02  0.29999974859E+02 0.  0.
         12    1    3    3    0    0  0.70358604323E+01 -0.25319293238E+02  0.31025737836E+02  0.40659148421E+02  0.00000000000E+00 0. -1.
         11    1    4    4    0    0  0.90092831133E+00  0.45047481751E+01  0.33820342680E+01  0.57046107663E+01  0.51100000000E-03 0. -1.
        -11    1    4    4    0    0  0.28479569823E+01  0.16113394434E+02 -0.15400848387E+02  0.22470835998E+02  0.51100000000E-03 0.  1.
        -12    1    4    4    0    0 -0.10784745726E+02  0.47011506288E+01 -0.19006923717E+02  0.22353404814E+02  0.00000000000E+00 0.  1.
</event>
<event>
 8    1  0.9870402E-014  0.9118800E+02  0.7816164E-02  0.1184000E+00
        -11   -1    0    0    0    0  0.00000000000E+00  0.00000000000E+00  0.45593999997E+02  0.45594000000E+02  0.51100000000E-03 0. -1.
         11   -1    0    0    0    0 -0.00000000000E+00 -0.00000000000E+00 -0.45593999997E+02  0.45594000000E+02  0.51100000000E-03 0.  1.
         23    2    1    2    0    0  0.00000000000E+00  0.33306690739E-15  0.00000000000E+00  0.91188000000E+02  0.91188000000E+02 0.  0.
    9900012    2    3    3    0    0 -0.24798492460E+02 -0.72531148022E+00  0.32212947364E+02  0.50528864705E+02  0.30000014758E+02 0.  0.
        -12    1    3    3    0    0  0.24798492460E+02  0.72531148022E+00 -0.32212947364E+02  0.40659135295E+02  0.00000000000E+00 0.  1.
         11    1    4    4    0    0 -0.16139586003E+02  0.65920156796E+01  0.14115683533E+02  0.22431973363E+02  0.51100000000E-03 0. -1.
        -11    1    4    4    0    0 -0.13576841242E+02 -0.70575655604E+01  0.90000894198E+01  0.17752224074E+02  0.51100000000E-03 0.  1.
        -12    1    4    4    0    0  0.49179347848E+01 -0.25976159942E+00  0.90971744112E+01  0.10344667269E+02  0.00000000000E+00 0.  1.
</event>
<event>
 8    1  0.9870402E-014  0.9118800E+02  0.7816164E-02  0.1184000E+00
        -11   -1    0    0    0    0  0.00000000000E+00  0.00000000000E+00  0.45593999997E+02  0.45594000000E+02  0.51100000000E-03 0.  1.
         11   -1    0    0    0    0 -0.00000000000E+00 -0.00000000000E+00 -0.45593999997E+02  0.45594000000E+02  0.51100000000E-03 0. -1.
         23    2    1    2    0    0 -0.17763568394E-14  0.00000000000E+00  0.00000000000E+00  0.91188000000E+02  0.91188000000E+02 0.  0.
    9900012    2    3    3    0    0  0.11088075138E+02  0.37849231978E+02 -0.98821102310E+01  0.50528857434E+02  0.29999992656E+02 0.  0.
         12    1    3    3    0    0 -0.11088075138E+02 -0.37849231978E+02  0.98821102310E+01  0.40659142566E+02  0.00000000000E+00 0. -1.
         11    1    4    4    0    0 -0.59728064305E+01  0.10726671788E+02 -0.24600870278E+01  0.12521498822E+02  0.51100000000E-03 0. -1.
        -11    1    4    4    0    0  0.94095133081E+01  0.27999085734E+02 -0.52031302480E+01  0.29992670893E+02  0.51100000000E-03 0.  1.
         12    1    4    4    0    0  0.76513682607E+01 -0.87652554426E+00 -0.22188929553E+01  0.80146877192E+01  0.00000000000E+00 0. -1.
</event>
<event>
 8    1  0.9870402E-014  0.9118800E+02  0.7816164E-02  0.1184000E+00
        -11   -1    0    0    0    0  0.00000000000E+00  0.00000000000E+00  0.45593999997E+02  0.45594000000E+02  0.51100000000E-03 0. -1.
         11   -1    0    0    0    0 -0.00000000000E+00 -0.00000000000E+00 -0.45593999997E+02  0.45594000000E+02  0.51100000000E-03 0.  1.
         23    2    1    2    0    0  0.00000000000E+00 -0.17763568394E-14  0.00000000000E+00  0.91188000000E+02  0.91188000000E+02 0.  0.
    9900012    2    3    3    0    0 -0.42284131338E+01  0.10634998067E+02 -0.39015132633E+02  0.50528889878E+02  0.30000091273E+02 0.  0.
         12    1    3    3    0    0  0.42284131338E+01 -0.10634998067E+02  0.39015132633E+02  0.40659110122E+02  0.00000000000E+00 0. -1.
         11    1    4    4    0    0 -0.10607343209E+02  0.16294524276E+01 -0.65518196246E+01  0.12573670340E+02  0.51100000000E-03 0.  1.
        -11    1    4    4    0    0 -0.35556844289E+01  0.84085689442E+01 -0.20157073706E+02  0.22128139192E+02  0.51100000000E-03 0. -1.
        -12    1    4    4    0    0  0.99346145038E+01  0.59697669553E+00 -0.12306239303E+02  0.15827080346E+02  0.00000000000E+00 0.  1.
</event>
<event>
 8    1  0.9870402E-014  0.9118800E+02  0.7816164E-02  0.1184000E+00
        -11   -1    0    0    0    0  0.00000000000E+00  0.00000000000E+00  0.45593999997E+02  0.45594000000E+02  0.51100000000E-03 0. -1.
         11   -1    0    0    0    0 -0.00000000000E+00 -0.00000000000E+00 -0.45593999997E+02  0.45594000000E+02  0.51100000000E-03 0.  1.
         23    2    1    2    0    0 -0.17763568394E-14  0.00000000000E+00  0.00000000000E+00  0.91188000000E+02  0.91188000000E+02 0.  0.
    9900012    2    3    3    0    0 -0.15635119504E+02 -0.11492848754E+02  0.35729862801E+02  0.50528860435E+02  0.30000001778E+02 0.  0.
        -12    1    3    3    0    0  0.15635119504E+02  0.11492848754E+02 -0.35729862801E+02  0.40659139565E+02  0.00000000000E+00 0.  1.
         11    1    4    4    0    0 -0.88424646193E+01 -0.54696492644E+01  0.92968696504E+01  0.13947689026E+02  0.51100000000E-03 0.  1.
        -11    1    4    4    0    0 -0.15461875567E+02 -0.18644179051E+01  0.14747974539E+02  0.21448738971E+02  0.51100000000E-03 0. -1.
        -12    1    4    4    0    0  0.86692206830E+01 -0.41587815842E+01  0.11685018612E+02  0.15132432438E+02  0.00000000000E+00 0.  1.
</event>
<event>
 8    1  0.9870402E-014  0.9118800E+02  0.7816164E-02  0.1184000E+00
        -11   -1    0    0    0    0  0.00000000000E+00  0.00000000000E+00  0.45593999997E+02  0.45594000000E+02  0.51100000000E-03 0. -1.
         11   -1    0    0    0    0 -0.00000000000E+00 -0.00000000000E+00 -0.45593999997E+02  0.45594000000E+02  0.51100000000E-03 0.  1.
         23    2    1    2    0    0 -0.17763568394E-14  0.44408920985E-15  0.00000000000E+00  0.91188000000E+02  0.91188000000E+02 0.  0.
    9900012    2    3    3    0    0 -0.15181238953E+02 -0.68398436168E+00  0.37712372190E+02  0.50528919010E+02  0.30000179823E+02 0.  0.
        -12    1    3    3    0    0  0.15181238953E+02  0.68398436168E+00 -0.37712372190E+02  0.40659080990E+02  0.00000000000E+00 0.  1.
         11    1    4    4    0    0 -0.56470118466E-01 -0.42950690253E+01  0.24155030028E+01  0.49280281882E+01  0.51100000000E-03 0. -1.
        -11    1    4    4    0    0 -0.11158661814E+02  0.38169390372E+01  0.18721899123E+01  0.11941099297E+02  0.51100000000E-03 0.  1.
         12    1    4    4    0    0 -0.39661070204E+01 -0.20585437355E+00  0.33424679275E+02  0.33659791525E+02  0.00000000000E+00 0. -1.
</event>
<event>
 8    1  0.9870402E-014  0.9118800E+02  0.7816164E-02  0.1184000E+00
        -11   -1    0    0    0    0  0.00000000000E+00  0.00000000000E+00  0.45593999997E+02  0.45594000000E+02  0.51100000000E-03 0. -1.
         11   -1    0    0    0    0 -0.00000000000E+00 -0.00000000000E+00 -0.45593999997E+02  0.45594000000E+02  0.51100000000E-03 0.  1.
         23    2    1    2    0    0  0.00000000000E+00  0.00000000000E+00  0.35527136788E-14  0.91188000000E+02  0.91188000000E+02 0.  0.
    9900012    2    3    3    0    0  0.24062616028E+02  0.22833802006E+02 -0.23511145514E+02  0.50528856286E+02  0.29999989168E+02 0.  0.
         12    1    3    3    0    0 -0.24062616028E+02 -0.22833802006E+02  0.23511145514E+02  0.40659143714E+02  0.00000000000E+00 0. -1.
         11    1    4    4    0    0  0.11024189041E+02  0.14603885849E+02  0.63232321536E-01  0.18297820212E+02  0.51100000000E-03 0. -1.
        -11    1    4    4    0    0  0.11427611886E+02  0.12496531324E+02 -0.15494044476E+02  0.22952538488E+02  0.51100000000E-03 0.  1.
         12    1    4    4    0    0  0.16108151002E+01 -0.42666151666E+01 -0.80803333599E+01  0.92784975871E+01  0.00000000000E+00 0. -1.
</event>
<event>
 8    1  0.9870402E-014  0.9118800E+02  0.7816164E-02  0.1184000E+00
        -11   -1    0    0    0    0  0.00000000000E+00  0.00000000000E+00  0.45593999997E+02  0.45594000000E+02  0.51100000000E-03 0. -1.
         11   -1    0    0    0    0 -0.00000000000E+00 -0.00000000000E+00 -0.45593999997E+02  0.45594000000E+02  0.51100000000E-03 0.  1.
         23    2    1    2    0    0  0.00000000000E+00  0.17763568394E-14 -0.71054273576E-14  0.91188000000E+02  0.91188000000E+02 0.  0.
    9900012    2    3    3    0    0  0.71118022098E+01  0.11878886875E+02 -0.38229307320E+02  0.50528860533E+02  0.30000002075E+02 0.  0.
         12    1    3    3    0    0 -0.71118022098E+01 -0.11878886875E+02  0.38229307320E+02  0.40659139467E+02  0.00000000000E+00 0. -1.
         11    1    4    4    0    0 -0.60456617206E+00  0.92335622887E+00  0.26628020790E+01  0.28824645973E+01  0.51100000000E-03 0. -1.
        -11    1    4    4    0    0  0.13518460440E+01  0.15856012637E+02 -0.22324351449E+02  0.27415639558E+02  0.51100000000E-03 0.  1.
        -12    1    4    4    0    0  0.63645223378E+01 -0.49004819907E+01 -0.18567757950E+02  0.20230756378E+02  0.00000000000E+00 0.  1.
</event>
<event>
 8    1  0.9870402E-014  0.9118800E+02  0.7816164E-02  0.1184000E+00
        -11   -1    0    0    0    0  0.00000000000E+00  0.00000000000E+00  0.45593999997E+02  0.45594000000E+02  0.51100000000E-03 0. -1.
         11   -1    0    0    0    0 -0.00000000000E+00 -0.00000000000E+00 -0.45593999997E+02  0.45594000000E+02  0.51100000000E-03 0.  1.
         23    2    1    2    0    0 -0.17763568394E-14  0.00000000000E+00  0.17763568394E-14  0.91188000000E+02  0.91188000000E+02 0.  0.
    9900012    2    3    3    0    0  0.81998982033E+01  0.38495122153E+02  0.10200626064E+02  0.50528861639E+02  0.30000005438E+02 0.  0.
        -12    1    3    3    0    0 -0.81998982033E+01 -0.38495122153E+02 -0.10200626064E+02  0.40659138361E+02  0.00000000000E+00 0.  1.
         11    1    4    4    0    0  0.10398870337E+01  0.32362494842E+01 -0.63819968359E+01  0.72308062926E+01  0.51100000000E-03 0. -1.
        -11    1    4    4    0    0 -0.55471963024E+01  0.82854560196E+01  0.22797170868E+01  0.10228258822E+02  0.51100000000E-03 0.  1.
         12    1    4    4    0    0  0.12707207472E+02  0.26973416650E+02  0.14302905813E+02  0.33069796525E+02  0.00000000000E+00 0. -1.
</event>
<event>
 8    1  0.9870402E-014  0.9118800E+02  0.7816164E-02  0.1184000E+00
        -11   -1    0    0    0    0  0.00000000000E+00  0.00000000000E+00  0.45593999997E+02  0.45594000000E+02  0.51100000000E-03 0. -1.
         11   -1    0    0    0    0 -0.00000000000E+00 -0.00000000000E+00 -0.45593999997E+02  0.45594000000E+02  0.51100000000E-03 0.  1.
         23    2    1    2    0    0  0.00000000000E+00 -0.35527136788E-14  0.35527136788E-14  0.91188000000E+02  0.91188000000E+02 0.  0.
    9900012    2    3    3    0    0  0.17080561066E+02  0.25476357142E+02 -0.26690360243E+02  0.50528859952E+02  0.30000000310E+02 0.  0.
         12    1    3    3    0    0 -0.17080561066E+02 -0.25476357142E+02  0.26690360243E+02  0.40659140048E+02  0.00000000000E+00 0. -1.
         11    1    4    4    0    0  0.44953345562E+00 -0.45884314529E+01 -0.42084449657E+00  0.46295673531E+01  0.51100000000E-03 0. -1.
        -11    1    4    4    0    0  0.94086081155E+01  0.38187677599E+01 -0.48072254912E+01  0.11234514278E+02  0.51100000000E-03 0.  1.
        -12    1    4    4    0    0  0.72224194946E+01  0.26246020835E+02 -0.21462290255E+02  0.34664778321E+02  0.00000000000E+00 0.  1.
</event>
<event>
 8    1  0.9870402E-014  0.9118800E+02  0.7816164E-02  0.1184000E+00
        -11   -1    0    0    0    0  0.00000000000E+00  0.00000000000E+00  0.45593999997E+02  0.45594000000E+02  0.51100000000E-03 0. -1.
         11   -1    0    0    0    0 -0.00000000000E+00 -0.00000000000E+00 -0.45593999997E+02  0.45594000000E+02  0.51100000000E-03 0.  1.
         23    2    1    2    0    0  0.00000000000E+00  0.00000000000E+00  0.00000000000E+00  0.91188000000E+02  0.91188000000E+02 0.  0.
    9900012    2    3    3    0    0 -0.66298459704E+01  0.99851423830E+01 -0.38852398114E+02  0.50528846477E+02  0.29999959352E+02 0.  0.
         12    1    3    3    0    0  0.66298459704E+01 -0.99851423830E+01  0.38852398114E+02  0.40659153523E+02  0.00000000000E+00 0. -1.
         11    1    4    4    0    0 -0.14328650132E+02  0.66855472964E+01 -0.38314892959E+02  0.41449219292E+02  0.51100000000E-03 0.  1.
        -11    1    4    4    0    0  0.27757814151E+01  0.21493916319E+01  0.12361117488E+01  0.37219375826E+01  0.51100000000E-03 0. -1.
        -12    1    4    4    0    0  0.49230227466E+01  0.11502034547E+01 -0.17736169040E+01  0.53576896021E+01  0.00000000000E+00 0.  1.
</event>
<event>
 8    1  0.9870402E-014  0.9118800E+02  0.7816164E-02  0.1184000E+00
        -11   -1    0    0    0    0  0.00000000000E+00  0.00000000000E+00  0.45593999997E+02  0.45594000000E+02  0.51100000000E-03 0. -1.
         11   -1    0    0    0    0 -0.00000000000E+00 -0.00000000000E+00 -0.45593999997E+02  0.45594000000E+02  0.51100000000E-03 0.  1.
         23    2    1    2    0    0  0.00000000000E+00  0.00000000000E+00  0.00000000000E+00  0.91188000000E+02  0.91188000000E+02 0.  0.
    9900012    2    3    3    0    0 -0.25686729816E+02  0.13622296495E+02  0.28421654904E+02  0.50528861815E+02  0.30000005974E+02 0.  0.
        -12    1    3    3    0    0  0.25686729816E+02 -0.13622296495E+02 -0.28421654904E+02  0.40659138185E+02  0.00000000000E+00 0.  1.
         11    1    4    4    0    0 -0.62500584209E+01  0.77652620450E+01  0.45557140786E+01  0.10959792695E+02  0.51100000000E-03 0. -1.
        -11    1    4    4    0    0 -0.74625974085E+01 -0.48717085494E+01 -0.19812618082E+01  0.91295839383E+01  0.51100000000E-03 0.  1.
         12    1    4    4    0    0 -0.11974073987E+02  0.10728742999E+02  0.25847202633E+02  0.30439485182E+02  0.00000000000E+00 0. -1.
</event>
<event>
 8    1  0.9870402E-014  0.9118800E+02  0.7816164E-02  0.1184000E+00
        -11   -1    0    0    0    0  0.00000000000E+00  0.00000000000E+00  0.45593999997E+02  0.45594000000E+02  0.51100000000E-03 0. -1.
         11   -1    0    0    0    0 -0.00000000000E+00 -0.00000000000E+00 -0.45593999997E+02  0.45594000000E+02  0.51100000000E-03 0.  1.
         23    2    1    2    0    0 -0.17763568394E-14  0.00000000000E+00  0.00000000000E+00  0.91188000000E+02  0.91188000000E+02 0.  0.
    9900012    2    3    3    0    0 -0.11455216313E+02  0.26741841250E+02 -0.28404559887E+02  0.50528842648E+02  0.29999947714E+02 0.  0.
         12    1    3    3    0    0  0.11455216313E+02 -0.26741841250E+02  0.28404559887E+02  0.40659157352E+02  0.00000000000E+00 0. -1.
         11    1    4    4    0    0 -0.11766388419E+02 -0.10250026442E+01 -0.23907981439E+01  0.12050495545E+02  0.51100000000E-03 0. -1.
        -11    1    4    4    0    0 -0.18305934023E+01  0.13588710282E+02 -0.99216749336E+01  0.16924649275E+02  0.51100000000E-03 0.  1.
        -12    1    4    4    0    0  0.21417655083E+01  0.14178133612E+02 -0.16092086809E+02  0.21553697828E+02  0.00000000000E+00 0.  1.
</event>
<event>
 8    1  0.9870402E-014  0.9118800E+02  0.7816164E-02  0.1184000E+00
        -11   -1    0    0    0    0  0.00000000000E+00  0.00000000000E+00  0.45593999997E+02  0.45594000000E+02  0.51100000000E-03 0. -1.
         11   -1    0    0    0    0 -0.00000000000E+00 -0.00000000000E+00 -0.45593999997E+02  0.45594000000E+02  0.51100000000E-03 0.  1.
         23    2    1    2    0    0  0.00000000000E+00  0.00000000000E+00  0.00000000000E+00  0.91188000000E+02  0.91188000000E+02 0.  0.
    9900012    2    3    3    0    0  0.35630525433E+02  0.82772570370E+01 -0.17751588324E+02  0.50528853247E+02  0.29999979928E+02 0.  0.
         12    1    3    3    0    0 -0.35630525433E+02 -0.82772570370E+01  0.17751588324E+02  0.40659146753E+02  0.00000000000E+00 0. -1.
         11    1    4    4    0    0 -0.25500928189E+00 -0.73674117509E+00  0.31418811549E+01  0.32371646152E+01  0.51100000000E-03 0. -1.
        -11    1    4    4    0    0  0.22561770888E+02 -0.29101958977E+01 -0.48308847668E+01  0.23255971140E+02  0.51100000000E-03 0.  1.
        -12    1    4    4    0    0  0.13323763827E+02  0.11924194110E+02 -0.16062584712E+02  0.24035717491E+02  0.00000000000E+00 0.  1.
</event>
<event>
 8    1  0.9870402E-014  0.9118800E+02  0.7816164E-02  0.1184000E+00
        -11   -1    0    0    0    0  0.00000000000E+00  0.00000000000E+00  0.45593999997E+02  0.45594000000E+02  0.51100000000E-03 0. -1.
         11   -1    0    0    0    0 -0.00000000000E+00 -0.00000000000E+00 -0.45593999997E+02  0.45594000000E+02  0.51100000000E-03 0.  1.
         23    2    1    2    0    0  0.00000000000E+00  0.17763568394E-14  0.00000000000E+00  0.91188000000E+02  0.91188000000E+02 0.  0.
    9900012    2    3    3    0    0 -0.72215473148E+01 -0.11059995451E+02  0.38453757489E+02  0.50528859453E+02  0.29999998794E+02 0.  0.
        -12    1    3    3    0    0  0.72215473148E+01  0.11059995451E+02 -0.38453757489E+02  0.40659140547E+02  0.00000000000E+00 0.  1.
         11    1    4    4    0    0 -0.22767867676E+01 -0.12306158977E+02  0.16065003172E+02  0.20364420786E+02  0.51100000000E-03 0. -1.
        -11    1    4    4    0    0 -0.11635564062E+01  0.28198644137E+01 -0.30997283849E+01  0.43490016260E+01  0.51100000000E-03 0.  1.
         12    1    4    4    0    0 -0.37812041410E+01 -0.15737008884E+01  0.25488482701E+02  0.25815437042E+02  0.00000000000E+00 0. -1.
</event>
<event>
 8    1  0.9870402E-014  0.9118800E+02  0.7816164E-02  0.1184000E+00
        -11   -1    0    0    0    0  0.00000000000E+00  0.00000000000E+00  0.45593999997E+02  0.45594000000E+02  0.51100000000E-03 0. -1.
         11   -1    0    0    0    0 -0.00000000000E+00 -0.00000000000E+00 -0.45593999997E+02  0.45594000000E+02  0.51100000000E-03 0.  1.
         23    2    1    2    0    0  0.00000000000E+00  0.88817841970E-15  0.35527136788E-14  0.91188000000E+02  0.91188000000E+02 0.  0.
    9900012    2    3    3    0    0  0.25336080781E+02  0.22744508425E+01  0.31718691518E+02  0.50528861942E+02  0.30000006359E+02 0.  0.
        -12    1    3    3    0    0 -0.25336080781E+02 -0.22744508425E+01 -0.31718691518E+02  0.40659138058E+02  0.00000000000E+00 0.  1.
         11    1    4    4    0    0  0.84005946527E+01  0.43626123225E+00  0.92490694351E+01  0.12502223804E+02  0.51100000000E-03 0.  1.
        -11    1    4    4    0    0  0.11675433923E+02  0.11931481682E+02  0.54667105099E+01  0.17565902667E+02  0.51100000000E-03 0. -1.
        -12    1    4    4    0    0  0.52600522053E+01 -0.10093292072E+02  0.17002911573E+02  0.20460735471E+02  0.00000000000E+00 0.  1.
</event>
<event>
 8    1  0.9870402E-014  0.9118800E+02  0.7816164E-02  0.1184000E+00
        -11   -1    0    0    0    0  0.00000000000E+00  0.00000000000E+00  0.45593999997E+02  0.45594000000E+02  0.51100000000E-03 0. -1.
         11   -1    0    0    0    0 -0.00000000000E+00 -0.00000000000E+00 -0.45593999997E+02  0.45594000000E+02  0.51100000000E-03 0.  1.
         23    2    1    2    0    0 -0.55511151231E-15  0.00000000000E+00  0.00000000000E+00  0.91188000000E+02  0.91188000000E+02 0.  0.
    9900012    2    3    3    0    0 -0.68187135982E+00  0.92129726211E+01  0.39595714455E+02  0.50528875362E+02  0.30000047151E+02 0.  0.
        -12    1    3    3    0    0  0.68187135982E+00 -0.92129726211E+01 -0.39595714455E+02  0.40659124638E+02  0.00000000000E+00 0.  1.
         11    1    4    4    0    0 -0.35777689086E+01  0.80839976130E+01  0.25440404319E+02  0.26932612572E+02  0.51100000000E-03 0. -1.
        -11    1    4    4    0    0 -0.77026297270E+01  0.85457392719E+00  0.33021296957E+01  0.84240644642E+01  0.51100000000E-03 0.  1.
         12    1    4    4    0    0  0.10598527276E+02  0.27440108085E+00  0.10853180440E+02  0.15172198326E+02  0.00000000000E+00 0. -1.
</event>
<event>
 8    1  0.1514624E-013  0.9118800E+02  0.7816164E-02  0.1184000E+00
        -11   -1    0    0    0    0  0.00000000000E+00  0.00000000000E+00  0.45593999997E+02  0.45594000000E+02  0.51100000000E-03 0. -1.
         11   -1    0    0    0    0 -0.00000000000E+00 -0.00000000000E+00 -0.45593999997E+02  0.45594000000E+02  0.51100000000E-03 0.  1.
         23    2    1    2    0    0 -0.35527136788E-14  0.00000000000E+00  0.00000000000E+00  0.91188000000E+02  0.91188000000E+02 0.  0.
    9900012    2    3    3    0    0  0.22582359199E+02  0.11013867385E+02 -0.31967132255E+02  0.50528858760E+02  0.29999996688E+02 0.  0.
         12    1    3    3    0    0 -0.22582359199E+02 -0.11013867385E+02  0.31967132255E+02  0.40659141240E+02  0.00000000000E+00 0. -1.
         11    1    4    4    0    0  0.14146177884E+02 -0.19246156888E+01 -0.88471656476E+01  0.16795559965E+02  0.51100000000E-03 0. -1.
        -11    1    4    4    0    0  0.27329028667E+01  0.26339162955E+01 -0.21514564888E+02  0.21846802414E+02  0.51100000000E-03 0.  1.
         12    1    4    4    0    0  0.57032784476E+01  0.10304566778E+02 -0.16054017190E+01  0.11886496381E+02  0.00000000000E+00 0. -1.
</event>
<event>
 8    1  0.9870402E-014  0.9118800E+02  0.7816164E-02  0.1184000E+00
        -11   -1    0    0    0    0  0.00000000000E+00  0.00000000000E+00  0.45593999997E+02  0.45594000000E+02  0.51100000000E-03 0.  1.
         11   -1    0    0    0    0 -0.00000000000E+00 -0.00000000000E+00 -0.45593999997E+02  0.45594000000E+02  0.51100000000E-03 0. -1.
         23    2    1    2    0    0  0.00000000000E+00  0.00000000000E+00  0.00000000000E+00  0.91188000000E+02  0.91188000000E+02 0.  0.
    9900012    2    3    3    0    0 -0.37126121471E+01  0.35233571366E+02  0.19949311111E+02  0.50528892115E+02  0.30000098074E+02 0.  0.
        -12    1    3    3    0    0  0.37126121471E+01 -0.35233571366E+02 -0.19949311111E+02  0.40659107885E+02  0.00000000000E+00 0.  1.
         11    1    4    4    0    0  0.76306698921E+01  0.26844692099E+02  0.96553148898E+01  0.29531165280E+02  0.51100000000E-03 0. -1.
        -11    1    4    4    0    0 -0.30215874158E+01  0.55535122855E+01 -0.12928582969E+01  0.64531366058E+01  0.51100000000E-03 0.  1.
         12    1    4    4    0    0 -0.83216946235E+01  0.28353669813E+01  0.11586854518E+02  0.14544590230E+02  0.00000000000E+00 0. -1.
</event>
<event>
 8    1  0.9870402E-014  0.9118800E+02  0.7816164E-02  0.1184000E+00
        -11   -1    0    0    0    0  0.00000000000E+00  0.00000000000E+00  0.45593999997E+02  0.45594000000E+02  0.51100000000E-03 0.  1.
         11   -1    0    0    0    0 -0.00000000000E+00 -0.00000000000E+00 -0.45593999997E+02  0.45594000000E+02  0.51100000000E-03 0. -1.
         23    2    1    2    0    0  0.35527136788E-14  0.35527136788E-14  0.00000000000E+00  0.91188000000E+02  0.91188000000E+02 0.  0.
    9900012    2    3    3    0    0 -0.27514063038E+02  0.28523279282E+02  0.90865565083E+01  0.50528848078E+02  0.29999964217E+02 0.  0.
        -12    1    3    3    0    0  0.27514063038E+02 -0.28523279282E+02 -0.90865565083E+01  0.40659151922E+02  0.00000000000E+00 0.  1.
         11    1    4    4    0    0 -0.13263914414E+02  0.16678115478E+02  0.18476818631E+01  0.21389363946E+02  0.51100000000E-03 0. -1.
        -11    1    4    4    0    0  0.18098317359E+01  0.10732427406E+02 -0.12231735254E+01  0.10952471989E+02  0.51100000000E-03 0.  1.
        -12    1    4    4    0    0 -0.16059980360E+02  0.11127363980E+01  0.84620481705E+01  0.18187012143E+02  0.00000000000E+00 0.  1.
</event>
<event>
 8    1  0.9870402E-014  0.9118800E+02  0.7816164E-02  0.1184000E+00
        -11   -1    0    0    0    0  0.00000000000E+00  0.00000000000E+00  0.45593999997E+02  0.45594000000E+02  0.51100000000E-03 0. -1.
         11   -1    0    0    0    0 -0.00000000000E+00 -0.00000000000E+00 -0.45593999997E+02  0.45594000000E+02  0.51100000000E-03 0.  1.
         23    2    1    2    0    0  0.00000000000E+00  0.00000000000E+00 -0.35527136788E-14  0.91188000000E+02  0.91188000000E+02 0.  0.
    9900012    2    3    3    0    0 -0.28017495424E+02 -0.24675393345E+01  0.29361502520E+02  0.50528848134E+02  0.29999964388E+02 0.  0.
        -12    1    3    3    0    0  0.28017495424E+02  0.24675393345E+01 -0.29361502520E+02  0.40659151866E+02  0.00000000000E+00 0.  1.
         11    1    4    4    0    0 -0.18830362767E+01  0.74340956962E+01  0.88547423884E+01  0.11714011587E+02  0.51100000000E-03 0.  1.
        -11    1    4    4    0    0 -0.12629176563E+02 -0.91352192143E+01  0.19895416780E+02  0.25274017090E+02  0.51100000000E-03 0. -1.
         12    1    4    4    0    0 -0.13505282584E+02 -0.76641581639E+00  0.61134335226E+00  0.13540819457E+02  0.00000000000E+00 0. -1.
</event>
<event>
 8    1  0.9870402E-014  0.9118800E+02  0.7816164E-02  0.1184000E+00
        -11   -1    0    0    0    0  0.00000000000E+00  0.00000000000E+00  0.45593999997E+02  0.45594000000E+02  0.51100000000E-03 0.  1.
         11   -1    0    0    0    0 -0.00000000000E+00 -0.00000000000E+00 -0.45593999997E+02  0.45594000000E+02  0.51100000000E-03 0. -1.
         23    2    1    2    0    0  0.00000000000E+00  0.00000000000E+00  0.00000000000E+00  0.91188000000E+02  0.91188000000E+02 0.  0.
    9900012    2    3    3    0    0  0.33279650902E+02  0.82262950769E+01  0.21862161811E+02  0.50528914743E+02  0.30000166852E+02 0.  0.
        -12    1    3    3    0    0 -0.33279650902E+02 -0.82262950769E+01 -0.21862161811E+02  0.40659085257E+02  0.00000000000E+00 0.  1.
         11    1    4    4    0    0  0.77594910374E+01 -0.39534162372E+01 -0.17809467016E+01  0.88888116483E+01  0.51100000000E-03 0. -1.
        -11    1    4    4    0    0  0.68136405990E+01  0.27380143258E+01  0.18729381342E+02  0.20117458746E+02  0.51100000000E-03 0.  1.
         12    1    4    4    0    0  0.18706519266E+02  0.94416969883E+01  0.49137271708E+01  0.21522644349E+02  0.00000000000E+00 0. -1.
</event>
<event>
 8    1  0.9870402E-014  0.9118800E+02  0.7816164E-02  0.1184000E+00
        -11   -1    0    0    0    0  0.00000000000E+00  0.00000000000E+00  0.45593999997E+02  0.45594000000E+02  0.51100000000E-03 0. -1.
         11   -1    0    0    0    0 -0.00000000000E+00 -0.00000000000E+00 -0.45593999997E+02  0.45594000000E+02  0.51100000000E-03 0.  1.
         23    2    1    2    0    0  0.00000000000E+00  0.00000000000E+00  0.00000000000E+00  0.91188000000E+02  0.91188000000E+02 0.  0.
    9900012    2    3    3    0    0 -0.11522527389E+02  0.14081433193E+02  0.36360855719E+02  0.50528840800E+02  0.29999942096E+02 0.  0.
        -12    1    3    3    0    0  0.11522527389E+02 -0.14081433193E+02 -0.36360855719E+02  0.40659159200E+02  0.00000000000E+00 0.  1.
         11    1    4    4    0    0 -0.77441944776E+01 -0.13441456185E+01  0.24023905290E+01  0.82189266979E+01  0.51100000000E-03 0. -1.
        -11    1    4    4    0    0 -0.25723767580E+00 -0.64807560299E+00 -0.23476329434E+01  0.24489903853E+01  0.51100000000E-03 0.  1.
         12    1    4    4    0    0 -0.35210952356E+01  0.16073654414E+02  0.36306098134E+02  0.39860923717E+02  0.00000000000E+00 0. -1.
</event>
<event>
 8    1  0.9870402E-014  0.9118800E+02  0.7816164E-02  0.1184000E+00
        -11   -1    0    0    0    0  0.00000000000E+00  0.00000000000E+00  0.45593999997E+02  0.45594000000E+02  0.51100000000E-03 0. -1.
         11   -1    0    0    0    0 -0.00000000000E+00 -0.00000000000E+00 -0.45593999997E+02  0.45594000000E+02  0.51100000000E-03 0.  1.
         23    2    1    2    0    0  0.00000000000E+00  0.00000000000E+00  0.35527136788E-14  0.91188000000E+02  0.91188000000E+02 0.  0.
    9900012    2    3    3    0    0 -0.60077490757E+01 -0.33206382169E+02 -0.22680619571E+02  0.50528839041E+02  0.29999936750E+02 0.  0.
         12    1    3    3    0    0  0.60077490757E+01  0.33206382169E+02  0.22680619571E+02  0.40659160959E+02  0.00000000000E+00 0. -1.
         11    1    4    4    0    0 -0.90416455890E+00 -0.15189650408E+02 -0.23781641903E+01  0.15401255087E+02  0.51100000000E-03 0. -1.
        -11    1    4    4    0    0  0.34165655599E+01 -0.18466235039E+02 -0.18591508314E+02  0.26425724936E+02  0.51100000000E-03 0.  1.
        -12    1    4    4    0    0 -0.85201500767E+01  0.44950327750E+00 -0.17109470671E+01  0.87018590193E+01  0.00000000000E+00 0.  1.
</event>
<event>
 8    1  0.9870402E-014  0.9118800E+02  0.7816164E-02  0.1184000E+00
        -11   -1    0    0    0    0  0.00000000000E+00  0.00000000000E+00  0.45593999997E+02  0.45594000000E+02  0.51100000000E-03 0. -1.
         11   -1    0    0    0    0 -0.00000000000E+00 -0.00000000000E+00 -0.45593999997E+02  0.45594000000E+02  0.51100000000E-03 0.  1.
         23    2    1    2    0    0  0.00000000000E+00  0.00000000000E+00  0.00000000000E+00  0.91188000000E+02  0.91188000000E+02 0.  0.
    9900012    2    3    3    0    0 -0.92356347379E+00 -0.24944048048E+02  0.32095285437E+02  0.50528857734E+02  0.29999993569E+02 0.  0.
        -12    1    3    3    0    0  0.92356347379E+00  0.24944048048E+02 -0.32095285437E+02  0.40659142266E+02  0.00000000000E+00 0.  1.
         11    1    4    4    0    0 -0.39785079135E+01  0.23698331387E+01  0.16799363567E+02  0.17425936154E+02  0.51100000000E-03 0. -1.
        -11    1    4    4    0    0  0.33997679841E+01 -0.14183335870E+02  0.13447618628E+02  0.19838444641E+02  0.51100000000E-03 0.  1.
        -12    1    4    4    0    0 -0.34482354437E+00 -0.13130545317E+02  0.18483032415E+01  0.13264476940E+02  0.00000000000E+00 0.  1.
</event>
<event>
 8    1  0.9870402E-014  0.9118800E+02  0.7816164E-02  0.1184000E+00
        -11   -1    0    0    0    0  0.00000000000E+00  0.00000000000E+00  0.45593999997E+02  0.45594000000E+02  0.51100000000E-03 0. -1.
         11   -1    0    0    0    0 -0.00000000000E+00 -0.00000000000E+00 -0.45593999997E+02  0.45594000000E+02  0.51100000000E-03 0.  1.
         23    2    1    2    0    0 -0.17763568394E-14  0.00000000000E+00  0.00000000000E+00  0.91188000000E+02  0.91188000000E+02 0.  0.
    9900012    2    3    3    0    0 -0.11657591364E+02 -0.64589265135E+01 -0.38412871344E+02  0.50528857695E+02  0.29999993449E+02 0.  0.
         12    1    3    3    0    0  0.11657591364E+02  0.64589265135E+01  0.38412871344E+02  0.40659142305E+02  0.00000000000E+00 0. -1.
         11    1    4    4    0    0  0.62564451465E+01 -0.22603947298E+01 -0.13893500927E+02  0.15403955936E+02  0.51100000000E-03 0. -1.
        -11    1    4    4    0    0 -0.13614758854E+02 -0.60830081668E+01 -0.26193844555E+02  0.30141037471E+02  0.51100000000E-03 0.  1.
         12    1    4    4    0    0 -0.42992776562E+01  0.18844763830E+01  0.16744741376E+01  0.49838642879E+01  0.00000000000E+00 0. -1.
</event>
<event>
 8    1  0.9870402E-014  0.9118800E+02  0.7816164E-02  0.1184000E+00
        -11   -1    0    0    0    0  0.00000000000E+00  0.00000000000E+00  0.45593999997E+02  0.45594000000E+02  0.51100000000E-03 0. -1.
         11   -1    0    0    0    0 -0.00000000000E+00 -0.00000000000E+00 -0.45593999997E+02  0.45594000000E+02  0.51100000000E-03 0.  1.
         23    2    1    2    0    0  0.71054273576E-14  0.00000000000E+00 -0.17763568394E-14  0.91188000000E+02  0.91188000000E+02 0.  0.
    9900012    2    3    3    0    0 -0.37396608191E+02  0.56746737424E+01  0.14915023471E+02  0.50528854025E+02  0.29999982293E+02 0.  0.
        -12    1    3    3    0    0  0.37396608191E+02 -0.56746737424E+01 -0.14915023471E+02  0.40659145975E+02  0.00000000000E+00 0.  1.
         11    1    4    4    0    0  0.10131559275E+01 -0.42554078986E+01  0.61666067389E+01  0.75605568744E+01  0.51100000000E-03 0. -1.
        -11    1    4    4    0    0 -0.22337672844E+02  0.82379034593E+01  0.11719686002E+02  0.26536497918E+02  0.51100000000E-03 0.  1.
        -12    1    4    4    0    0 -0.16072091275E+02  0.16921781818E+01 -0.29712692693E+01  0.16431799232E+02  0.00000000000E+00 0.  1.
</event>
<event>
 8    1  0.9870402E-014  0.9118800E+02  0.7816164E-02  0.1184000E+00
        -11   -1    0    0    0    0  0.00000000000E+00  0.00000000000E+00  0.45593999997E+02  0.45594000000E+02  0.51100000000E-03 0. -1.
         11   -1    0    0    0    0 -0.00000000000E+00 -0.00000000000E+00 -0.45593999997E+02  0.45594000000E+02  0.51100000000E-03 0.  1.
         23    2    1    2    0    0  0.17763568394E-14 -0.35527136788E-14  0.00000000000E+00  0.91188000000E+02  0.91188000000E+02 0.  0.
    9900012    2    3    3    0    0  0.47946855549E+01  0.31030937170E+02  0.25831328981E+02  0.50528860460E+02  0.30000001854E+02 0.  0.
        -12    1    3    3    0    0 -0.47946855549E+01 -0.31030937170E+02 -0.25831328981E+02  0.40659139540E+02  0.00000000000E+00 0.  1.
         11    1    4    4    0    0  0.94554785519E+01  0.17123639946E+02  0.15665341644E+02  0.25060487799E+02  0.51100000000E-03 0. -1.
        -11    1    4    4    0    0 -0.19497886506E+01  0.13160177086E+02 -0.15737032074E+01  0.13396584593E+02  0.51100000000E-03 0.  1.
         12    1    4    4    0    0 -0.27110043464E+01  0.74712013752E+00  0.11739690545E+02  0.12071788068E+02  0.00000000000E+00 0. -1.
</event>
<event>
 8    1  0.9870402E-014  0.9118800E+02  0.7816164E-02  0.1184000E+00
        -11   -1    0    0    0    0  0.00000000000E+00  0.00000000000E+00  0.45593999997E+02  0.45594000000E+02  0.51100000000E-03 0. -1.
         11   -1    0    0    0    0 -0.00000000000E+00 -0.00000000000E+00 -0.45593999997E+02  0.45594000000E+02  0.51100000000E-03 0.  1.
         23    2    1    2    0    0  0.00000000000E+00  0.35527136788E-14  0.00000000000E+00  0.91188000000E+02  0.91188000000E+02 0.  0.
    9900012    2    3    3    0    0 -0.20291778047E+02  0.24009712594E+02 -0.25786491457E+02  0.50528859616E+02  0.29999999287E+02 0.  0.
         12    1    3    3    0    0  0.20291778047E+02 -0.24009712594E+02  0.25786491457E+02  0.40659140384E+02  0.00000000000E+00 0. -1.
         11    1    4    4    0    0 -0.10183493756E+02  0.89622620202E+01  0.86480663214E+00  0.13593144462E+02  0.51100000000E-03 0. -1.
        -11    1    4    4    0    0  0.51658945008E+01  0.23192611178E+01 -0.52111992465E+01  0.76955854861E+01  0.51100000000E-03 0.  1.
         12    1    4    4    0    0 -0.15274178792E+02  0.12728189456E+02 -0.21440098842E+02  0.29240129667E+02  0.00000000000E+00 0. -1.
</event>
<event>
 8    1  0.9870402E-014  0.9118800E+02  0.7816164E-02  0.1184000E+00
        -11   -1    0    0    0    0  0.00000000000E+00  0.00000000000E+00  0.45593999997E+02  0.45594000000E+02  0.51100000000E-03 0. -1.
         11   -1    0    0    0    0 -0.00000000000E+00 -0.00000000000E+00 -0.45593999997E+02  0.45594000000E+02  0.51100000000E-03 0.  1.
         23    2    1    2    0    0  0.00000000000E+00  0.00000000000E+00  0.35527136788E-14  0.91188000000E+02  0.91188000000E+02 0.  0.
    9900012    2    3    3    0    0  0.28819099178E+02 -0.14686668446E+02 -0.24635879940E+02  0.50528864644E+02  0.30000014573E+02 0.  0.
         12    1    3    3    0    0 -0.28819099178E+02  0.14686668446E+02  0.24635879940E+02  0.40659135356E+02  0.00000000000E+00 0. -1.
         11    1    4    4    0    0  0.16191719057E+01 -0.88981146356E+01 -0.10487772445E+02  0.13848882007E+02  0.51100000000E-03 0. -1.
        -11    1    4    4    0    0  0.78151994916E+00  0.26043652435E+01 -0.77756695366E+01  0.82373860391E+01  0.51100000000E-03 0.  1.
         12    1    4    4    0    0  0.26418407323E+02 -0.83929190539E+01 -0.63724379586E+01  0.28442596598E+02  0.00000000000E+00 0. -1.
</event>
<event>
 8    1  0.9870402E-014  0.9118800E+02  0.7816164E-02  0.1184000E+00
        -11   -1    0    0    0    0  0.00000000000E+00  0.00000000000E+00  0.45593999997E+02  0.45594000000E+02  0.51100000000E-03 0. -1.
         11   -1    0    0    0    0 -0.00000000000E+00 -0.00000000000E+00 -0.45593999997E+02  0.45594000000E+02  0.51100000000E-03 0.  1.
         23    2    1    2    0    0  0.17763568394E-14  0.00000000000E+00 -0.71054273576E-14  0.91188000000E+02  0.91188000000E+02 0.  0.
    9900012    2    3    3    0    0 -0.79098948118E+01 -0.86789449478E+01  0.38926527989E+02  0.50528866923E+02  0.30000021498E+02 0.  0.
        -12    1    3    3    0    0  0.79098948118E+01  0.86789449478E+01 -0.38926527989E+02  0.40659133077E+02  0.00000000000E+00 0.  1.
         11    1    4    4    0    0 -0.28399494344E+01 -0.68414136998E+01  0.29909890636E+02  0.30813500487E+02  0.51100000000E-03 0. -1.
        -11    1    4    4    0    0 -0.10113046469E+02 -0.28378577243E+01  0.99750244067E+01  0.14485449856E+02  0.51100000000E-03 0.  1.
         12    1    4    4    0    0  0.50431010918E+01  0.10003264763E+01 -0.95838705347E+00  0.52299165792E+01  0.00000000000E+00 0. -1.
</event>
<event>
 8    1  0.9870402E-014  0.9118800E+02  0.7816164E-02  0.1184000E+00
        -11   -1    0    0    0    0  0.00000000000E+00  0.00000000000E+00  0.45593999997E+02  0.45594000000E+02  0.51100000000E-03 0. -1.
         11   -1    0    0    0    0 -0.00000000000E+00 -0.00000000000E+00 -0.45593999997E+02  0.45594000000E+02  0.51100000000E-03 0.  1.
         23    2    1    2    0    0 -0.35527136788E-14 -0.35527136788E-14 -0.35527136788E-14  0.91188000000E+02  0.91188000000E+02 0.  0.
    9900012    2    3    3    0    0  0.23733817953E+02  0.25267808056E+02  0.21246434591E+02  0.50528840868E+02  0.29999942301E+02 0.  0.
        -12    1    3    3    0    0 -0.23733817953E+02 -0.25267808056E+02 -0.21246434591E+02  0.40659159132E+02  0.00000000000E+00 0.  1.
         11    1    4    4    0    0 -0.37645198731E+00 -0.11829023713E+01 -0.48192015412E+01  0.49765126218E+01  0.51100000000E-03 0. -1.
        -11    1    4    4    0    0  0.44965774019E+00  0.32823756021E+01  0.59397333944E+01  0.68012215619E+01  0.51100000000E-03 0.  1.
         12    1    4    4    0    0  0.23660612200E+02  0.23168334825E+02  0.20125902737E+02  0.38751106684E+02  0.00000000000E+00 0. -1.
</event>
<event>
 8    1  0.9870402E-014  0.9118800E+02  0.7816164E-02  0.1184000E+00
        -11   -1    0    0    0    0  0.00000000000E+00  0.00000000000E+00  0.45593999997E+02  0.45594000000E+02  0.51100000000E-03 0. -1.
         11   -1    0    0    0    0 -0.00000000000E+00 -0.00000000000E+00 -0.45593999997E+02  0.45594000000E+02  0.51100000000E-03 0.  1.
         23    2    1    2    0    0  0.88817841970E-15  0.00000000000E+00  0.00000000000E+00  0.91188000000E+02  0.91188000000E+02 0.  0.
    9900012    2    3    3    0    0 -0.59913425332E+01  0.18660606489E+02  0.35623743099E+02  0.50528862130E+02  0.30000006931E+02 0.  0.
        -12    1    3    3    0    0  0.59913425332E+01 -0.18660606489E+02 -0.35623743099E+02  0.40659137870E+02  0.00000000000E+00 0.  1.
         11    1    4    4    0    0 -0.21432399267E+01 -0.26960379769E+01  0.10701470996E+01  0.36065652957E+01  0.51100000000E-03 0. -1.
        -11    1    4    4    0    0 -0.32866902126E+01 -0.10860789500E+01 -0.20203162546E+01  0.40079393794E+01  0.51100000000E-03 0.  1.
        -12    1    4    4    0    0 -0.56141239393E+00  0.22442723416E+02  0.36573912254E+02  0.42914357455E+02  0.00000000000E+00 0.  1.
</event>
<event>
 8    1  0.9870402E-014  0.9118800E+02  0.7816164E-02  0.1184000E+00
        -11   -1    0    0    0    0  0.00000000000E+00  0.00000000000E+00  0.45593999997E+02  0.45594000000E+02  0.51100000000E-03 0. -1.
         11   -1    0    0    0    0 -0.00000000000E+00 -0.00000000000E+00 -0.45593999997E+02  0.45594000000E+02  0.51100000000E-03 0.  1.
         23    2    1    2    0    0  0.00000000000E+00  0.00000000000E+00  0.00000000000E+00  0.91188000000E+02  0.91188000000E+02 0.  0.
    9900012    2    3    3    0    0  0.32840970404E+02  0.94103081245E+01  0.22047278700E+02  0.50528859156E+02  0.29999997892E+02 0.  0.
        -12    1    3    3    0    0 -0.32840970404E+02 -0.94103081245E+01 -0.22047278700E+02  0.40659140844E+02  0.00000000000E+00 0.  1.
         11    1    4    4    0    0  0.20496041147E+02  0.18742005361E+01  0.13588477947E+01  0.20626361723E+02  0.51100000000E-03 0. -1.
        -11    1    4    4    0    0  0.10101804148E+02 -0.32179703045E+01  0.99126330841E+01  0.14514202522E+02  0.51100000000E-03 0.  1.
        -12    1    4    4    0    0  0.22431251086E+01  0.10754077893E+02  0.10775797821E+02  0.15388294911E+02  0.00000000000E+00 0.  1.
</event>
<event>
 8    1  0.9870402E-014  0.9118800E+02  0.7816164E-02  0.1184000E+00
        -11   -1    0    0    0    0  0.00000000000E+00  0.00000000000E+00  0.45593999997E+02  0.45594000000E+02  0.51100000000E-03 0.  1.
         11   -1    0    0    0    0 -0.00000000000E+00 -0.00000000000E+00 -0.45593999997E+02  0.45594000000E+02  0.51100000000E-03 0. -1.
         23    2    1    2    0    0  0.35527136788E-14 -0.35527136788E-14  0.00000000000E+00  0.91188000000E+02  0.91188000000E+02 0.  0.
    9900012    2    3    3    0    0 -0.31457514984E+02  0.23093408903E+02 -0.11414248603E+02  0.50528857671E+02  0.29999993378E+02 0.  0.
         12    1    3    3    0    0  0.31457514984E+02 -0.23093408903E+02  0.11414248603E+02  0.40659142329E+02  0.00000000000E+00 0. -1.
         11    1    4    4    0    0 -0.24274928539E+02  0.10229225369E+02 -0.10974915743E+02  0.28536958196E+02  0.51100000000E-03 0. -1.
        -11    1    4    4    0    0 -0.11887073245E+02  0.12520356514E+02 -0.13389675684E+00  0.17264986712E+02  0.51100000000E-03 0.  1.
         12    1    4    4    0    0  0.47044867992E+01  0.34382701963E+00 -0.30543610255E+00  0.47269127637E+01  0.00000000000E+00 0. -1.
</event>
<event>
 8    1  0.9870402E-014  0.9118800E+02  0.7816164E-02  0.1184000E+00
        -11   -1    0    0    0    0  0.00000000000E+00  0.00000000000E+00  0.45593999997E+02  0.45594000000E+02  0.51100000000E-03 0. -1.
         11   -1    0    0    0    0 -0.00000000000E+00 -0.00000000000E+00 -0.45593999997E+02  0.45594000000E+02  0.51100000000E-03 0.  1.
         23    2    1    2    0    0 -0.71054273576E-14 -0.17763568394E-14  0.35527136788E-14  0.91188000000E+02  0.91188000000E+02 0.  0.
    9900012    2    3    3    0    0  0.33702464493E+02  0.12293407212E+02 -0.19135873593E+02  0.50528860413E+02  0.30000001711E+02 0.  0.
         12    1    3    3    0    0 -0.33702464493E+02 -0.12293407212E+02  0.19135873593E+02  0.40659139587E+02  0.00000000000E+00 0. -1.
         11    1    4    4    0    0  0.30996230031E+01  0.91989719847E+00  0.33324135836E+01  0.46431513189E+01  0.51100000000E-03 0. -1.
        -11    1    4    4    0    0 -0.25344980932E+01 -0.19172597240E+00 -0.71548250819E+01  0.75928888867E+01  0.51100000000E-03 0.  1.
        -12    1    4    4    0    0  0.33137339584E+02  0.11565235986E+02 -0.15313462095E+02  0.38292820207E+02  0.00000000000E+00 0.  1.
</event>
<event>
 8    1  0.9870402E-014  0.9118800E+02  0.7816164E-02  0.1184000E+00
        -11   -1    0    0    0    0  0.00000000000E+00  0.00000000000E+00  0.45593999997E+02  0.45594000000E+02  0.51100000000E-03 0. -1.
         11   -1    0    0    0    0 -0.00000000000E+00 -0.00000000000E+00 -0.45593999997E+02  0.45594000000E+02  0.51100000000E-03 0.  1.
         23    2    1    2    0    0  0.00000000000E+00  0.00000000000E+00  0.00000000000E+00  0.91188000000E+02  0.91188000000E+02 0.  0.
    9900012    2    3    3    0    0  0.27361203504E+02  0.11772549437E+02  0.27675615959E+02  0.50528830110E+02  0.29999909603E+02 0.  0.
        -12    1    3    3    0    0 -0.27361203504E+02 -0.11772549437E+02 -0.27675615959E+02  0.40659169890E+02  0.00000000000E+00 0.  1.
         11    1    4    4    0    0 -0.34481810586E+01 -0.29434833191E+01 -0.89700390366E+00  0.46215433490E+01  0.51100000000E-03 0.  1.
        -11    1    4    4    0    0  0.14616181819E+02  0.43185172208E+01  0.63507602885E+01  0.16511042319E+02  0.51100000000E-03 0. -1.
        -12    1    4    4    0    0  0.16193202743E+02  0.10397515536E+02  0.22221859574E+02  0.29396244442E+02  0.00000000000E+00 0.  1.
</event>
<event>
 8    1  0.9870402E-014  0.9118800E+02  0.7816164E-02  0.1184000E+00
        -11   -1    0    0    0    0  0.00000000000E+00  0.00000000000E+00  0.45593999997E+02  0.45594000000E+02  0.51100000000E-03 0. -1.
         11   -1    0    0    0    0 -0.00000000000E+00 -0.00000000000E+00 -0.45593999997E+02  0.45594000000E+02  0.51100000000E-03 0.  1.
         23    2    1    2    0    0  0.88817841970E-15  0.00000000000E+00 -0.71054273576E-14  0.91188000000E+02  0.91188000000E+02 0.  0.
    9900012    2    3    3    0    0  0.24516522185E+01 -0.26417112037E+02 -0.30810590193E+02  0.50528845127E+02  0.29999955247E+02 0.  0.
         12    1    3    3    0    0 -0.24516522185E+01  0.26417112037E+02  0.30810590193E+02  0.40659154873E+02  0.00000000000E+00 0. -1.
         11    1    4    4    0    0 -0.40028649652E+01 -0.30673539691E+02 -0.19686493438E+02  0.36666701369E+02  0.51100000000E-03 0. -1.
        -11    1    4    4    0    0  0.10959700118E+01 -0.18810128355E+00 -0.27861417329E+01  0.29998530591E+01  0.51100000000E-03 0.  1.
         12    1    4    4    0    0  0.53585471720E+01  0.44445289382E+01 -0.83379550220E+01  0.10862290699E+02  0.00000000000E+00 0. -1.
</event>
<event>
 8    1  0.9870402E-014  0.9118800E+02  0.7816164E-02  0.1184000E+00
        -11   -1    0    0    0    0  0.00000000000E+00  0.00000000000E+00  0.45593999997E+02  0.45594000000E+02  0.51100000000E-03 0. -1.
         11   -1    0    0    0    0 -0.00000000000E+00 -0.00000000000E+00 -0.45593999997E+02  0.45594000000E+02  0.51100000000E-03 0.  1.
         23    2    1    2    0    0 -0.35527136788E-14  0.00000000000E+00  0.00000000000E+00  0.91188000000E+02  0.91188000000E+02 0.  0.
    9900012    2    3    3    0    0 -0.28613821942E+02 -0.12447952852E+02 -0.26066538178E+02  0.50528846678E+02  0.29999959961E+02 0.  0.
         12    1    3    3    0    0  0.28613821942E+02  0.12447952852E+02  0.26066538178E+02  0.40659153322E+02  0.00000000000E+00 0. -1.
         11    1    4    4    0    0 -0.26353572952E+01 -0.12685958553E+02 -0.54420489692E+01  0.14053275409E+02  0.51100000000E-03 0. -1.
        -11    1    4    4    0    0 -0.41546390835E+01 -0.23416137480E+01 -0.11920104421E+02  0.12838733213E+02  0.51100000000E-03 0.  1.
        -12    1    4    4    0    0 -0.21823825563E+02  0.25796194493E+01 -0.87043847881E+01  0.23636838055E+02  0.00000000000E+00 0.  1.
</event>
<event>
 8    1  0.9870402E-014  0.9118800E+02  0.7816164E-02  0.1184000E+00
        -11   -1    0    0    0    0  0.00000000000E+00  0.00000000000E+00  0.45593999997E+02  0.45594000000E+02  0.51100000000E-03 0. -1.
         11   -1    0    0    0    0 -0.00000000000E+00 -0.00000000000E+00 -0.45593999997E+02  0.45594000000E+02  0.51100000000E-03 0.  1.
         23    2    1    2    0    0 -0.35527136788E-14  0.00000000000E+00  0.00000000000E+00  0.91188000000E+02  0.91188000000E+02 0.  0.
    9900012    2    3    3    0    0  0.29891645365E+02 -0.19213241425E+02  0.19761246249E+02  0.50528856354E+02  0.29999989374E+02 0.  0.
        -12    1    3    3    0    0 -0.29891645365E+02  0.19213241425E+02 -0.19761246249E+02  0.40659143646E+02  0.00000000000E+00 0.  1.
         11    1    4    4    0    0  0.13394941637E+02 -0.13666555823E+02  0.13591344668E+02  0.23471767289E+02  0.51100000000E-03 0. -1.
        -11    1    4    4    0    0 -0.70855586554E+00 -0.38994298445E+01  0.87272218317E+01  0.95849885596E+01  0.51100000000E-03 0.  1.
        -12    1    4    4    0    0  0.17205259594E+02 -0.16472557569E+01 -0.25573202501E+01  0.17472100506E+02  0.00000000000E+00 0.  1.
</event>
<event>
 8    1  0.9870402E-014  0.9118800E+02  0.7816164E-02  0.1184000E+00
        -11   -1    0    0    0    0  0.00000000000E+00  0.00000000000E+00  0.45593999997E+02  0.45594000000E+02  0.51100000000E-03 0. -1.
         11   -1    0    0    0    0 -0.00000000000E+00 -0.00000000000E+00 -0.45593999997E+02  0.45594000000E+02  0.51100000000E-03 0.  1.
         23    2    1    2    0    0 -0.17763568394E-14  0.00000000000E+00 -0.35527136788E-14  0.91188000000E+02  0.91188000000E+02 0.  0.
    9900012    2    3    3    0    0 -0.15101577140E+02  0.25055384883E+02  0.28237177922E+02  0.50528829316E+02  0.29999907188E+02 0.  0.
        -12    1    3    3    0    0  0.15101577140E+02 -0.25055384883E+02 -0.28237177922E+02  0.40659170684E+02  0.00000000000E+00 0.  1.
         11    1    4    4    0    0 -0.16517173049E+02  0.27877144652E+02  0.20225951592E+02  0.38197399356E+02  0.51100000000E-03 0. -1.
        -11    1    4    4    0    0 -0.36027557461E+01 -0.76341130807E+00  0.18450020007E+01  0.41190628103E+01  0.51100000000E-03 0.  1.
         12    1    4    4    0    0  0.50183516555E+01 -0.20583484611E+01  0.61662243294E+01  0.82123671500E+01  0.00000000000E+00 0. -1.
</event>
<event>
 8    1  0.9870402E-014  0.9118800E+02  0.7816164E-02  0.1184000E+00
        -11   -1    0    0    0    0  0.00000000000E+00  0.00000000000E+00  0.45593999997E+02  0.45594000000E+02  0.51100000000E-03 0. -1.
         11   -1    0    0    0    0 -0.00000000000E+00 -0.00000000000E+00 -0.45593999997E+02  0.45594000000E+02  0.51100000000E-03 0.  1.
         23    2    1    2    0    0  0.35527136788E-14  0.00000000000E+00  0.00000000000E+00  0.91188000000E+02  0.91188000000E+02 0.  0.
    9900012    2    3    3    0    0 -0.20004331595E+02  0.28507299358E+02  0.20983961484E+02  0.50528855410E+02  0.29999986504E+02 0.  0.
        -12    1    3    3    0    0  0.20004331595E+02 -0.28507299358E+02 -0.20983961484E+02  0.40659144590E+02  0.00000000000E+00 0.  1.
         11    1    4    4    0    0 -0.16335829262E+01 -0.57914630995E+00  0.23444365767E+01  0.29155422735E+01  0.51100000000E-03 0. -1.
        -11    1    4    4    0    0 -0.24551912132E+02  0.28080080429E+02  0.14089277107E+02  0.39872233896E+02  0.51100000000E-03 0.  1.
        -12    1    4    4    0    0  0.61811634635E+01  0.10063652391E+01  0.45502478003E+01  0.77410792401E+01  0.00000000000E+00 0.  1.
</event>
<event>
 8    1  0.9870402E-014  0.9118800E+02  0.7816164E-02  0.1184000E+00
        -11   -1    0    0    0    0  0.00000000000E+00  0.00000000000E+00  0.45593999997E+02  0.45594000000E+02  0.51100000000E-03 0. -1.
         11   -1    0    0    0    0 -0.00000000000E+00 -0.00000000000E+00 -0.45593999997E+02  0.45594000000E+02  0.51100000000E-03 0.  1.
         23    2    1    2    0    0 -0.17763568394E-14  0.00000000000E+00  0.00000000000E+00  0.91188000000E+02  0.91188000000E+02 0.  0.
    9900012    2    3    3    0    0 -0.83433135799E+01  0.18765059841E+02 -0.35091701883E+02  0.50528857198E+02  0.29999991940E+02 0.  0.
         12    1    3    3    0    0  0.83433135799E+01 -0.18765059841E+02  0.35091701883E+02  0.40659142802E+02  0.00000000000E+00 0. -1.
         11    1    4    4    0    0  0.23129094606E+00 -0.28561331964E+01 -0.29899530408E+01  0.41413538589E+01  0.51100000000E-03 0. -1.
        -11    1    4    4    0    0  0.78813612731E+01  0.84730718812E+01 -0.16596619394E+02  0.20232562324E+02  0.51100000000E-03 0.  1.
        -12    1    4    4    0    0 -0.16455965799E+02  0.13148121157E+02 -0.15505129447E+02  0.26154941015E+02  0.00000000000E+00 0.  1.
</event>
<event>
 8    1  0.9870402E-014  0.9118800E+02  0.7816164E-02  0.1184000E+00
        -11   -1    0    0    0    0  0.00000000000E+00  0.00000000000E+00  0.45593999997E+02  0.45594000000E+02  0.51100000000E-03 0. -1.
         11   -1    0    0    0    0 -0.00000000000E+00 -0.00000000000E+00 -0.45593999997E+02  0.45594000000E+02  0.51100000000E-03 0.  1.
         23    2    1    2    0    0  0.35527136788E-14 -0.35527136788E-14 -0.35527136788E-14  0.91188000000E+02  0.91188000000E+02 0.  0.
    9900012    2    3    3    0    0  0.25904230199E+02 -0.28233369995E+02 -0.13601954667E+02  0.50528862106E+02  0.30000006859E+02 0.  0.
         12    1    3    3    0    0 -0.25904230199E+02  0.28233369995E+02  0.13601954667E+02  0.40659137894E+02  0.00000000000E+00 0. -1.
         11    1    4    4    0    0  0.60856063674E+00  0.10220026870E+01  0.11315395018E+01  0.16417117427E+01  0.51100000000E-03 0. -1.
        -11    1    4    4    0    0  0.20480947445E+01 -0.11853925904E+02 -0.15764370283E+02  0.19829917350E+02  0.51100000000E-03 0.  1.
        -12    1    4    4    0    0  0.23247574818E+02 -0.17401446778E+02  0.10308761137E+01  0.29057233014E+02  0.00000000000E+00 0.  1.
</event>
<event>
 8    1  0.9870402E-014  0.9118800E+02  0.7816164E-02  0.1184000E+00
        -11   -1    0    0    0    0  0.00000000000E+00  0.00000000000E+00  0.45593999997E+02  0.45594000000E+02  0.51100000000E-03 0. -1.
         11   -1    0    0    0    0 -0.00000000000E+00 -0.00000000000E+00 -0.45593999997E+02  0.45594000000E+02  0.51100000000E-03 0.  1.
         23    2    1    2    0    0 -0.35527136788E-14  0.88817841970E-15  0.00000000000E+00  0.91188000000E+02  0.91188000000E+02 0.  0.
    9900012    2    3    3    0    0 -0.21350123592E+02  0.48294477543E+01  0.34263881171E+02  0.50528869464E+02  0.30000029223E+02 0.  0.
        -12    1    3    3    0    0  0.21350123592E+02 -0.48294477543E+01 -0.34263881171E+02  0.40659130536E+02  0.00000000000E+00 0.  1.
         11    1    4    4    0    0  0.14449883235E+01 -0.43317374177E-01  0.66631112555E+00  0.15918035140E+01  0.51100000000E-03 0. -1.
        -11    1    4    4    0    0 -0.63152772655E+01  0.22843276441E+01 -0.39916568310E+01  0.78124390713E+01  0.51100000000E-03 0.  1.
         12    1    4    4    0    0 -0.16479834650E+02  0.25884374844E+01  0.37589226877E+02  0.41124626879E+02  0.00000000000E+00 0. -1.
</event>
<event>
 8    1  0.9870402E-014  0.9118800E+02  0.7816164E-02  0.1184000E+00
        -11   -1    0    0    0    0  0.00000000000E+00  0.00000000000E+00  0.45593999997E+02  0.45594000000E+02  0.51100000000E-03 0. -1.
         11   -1    0    0    0    0 -0.00000000000E+00 -0.00000000000E+00 -0.45593999997E+02  0.45594000000E+02  0.51100000000E-03 0.  1.
         23    2    1    2    0    0  0.00000000000E+00  0.11102230246E-15  0.00000000000E+00  0.91188000000E+02  0.91188000000E+02 0.  0.
    9900012    2    3    3    0    0  0.46505166938E+01  0.36380226924E+00  0.40390668705E+02  0.50528858641E+02  0.29999996324E+02 0.  0.
        -12    1    3    3    0    0 -0.46505166938E+01 -0.36380226924E+00 -0.40390668705E+02  0.40659141359E+02  0.00000000000E+00 0.  1.
         11    1    4    4    0    0 -0.24765113976E+01 -0.66078315450E+01  0.31612866853E+02  0.32390892197E+02  0.51100000000E-03 0. -1.
        -11    1    4    4    0    0  0.21476590689E+01  0.40744900004E+01  0.11029594513E+02  0.11952650904E+02  0.51100000000E-03 0.  1.
        -12    1    4    4    0    0  0.49793690225E+01  0.28971438138E+01 -0.22517926605E+01  0.61853155397E+01  0.00000000000E+00 0.  1.
</event>
<event>
 8    1  0.9870402E-014  0.9118800E+02  0.7816164E-02  0.1184000E+00
        -11   -1    0    0    0    0  0.00000000000E+00  0.00000000000E+00  0.45593999997E+02  0.45594000000E+02  0.51100000000E-03 0. -1.
         11   -1    0    0    0    0 -0.00000000000E+00 -0.00000000000E+00 -0.45593999997E+02  0.45594000000E+02  0.51100000000E-03 0.  1.
         23    2    1    2    0    0  0.00000000000E+00  0.00000000000E+00  0.00000000000E+00  0.91188000000E+02  0.91188000000E+02 0.  0.
    9900012    2    3    3    0    0  0.25189161650E+02  0.19511442994E+02 -0.25258199906E+02  0.50528844391E+02  0.29999953012E+02 0.  0.
         12    1    3    3    0    0 -0.25189161650E+02 -0.19511442994E+02  0.25258199906E+02  0.40659155609E+02  0.00000000000E+00 0. -1.
         11    1    4    4    0    0 -0.70585527828E+00  0.73442575526E+01 -0.10664296877E+01  0.74547718418E+01  0.51100000000E-03 0. -1.
        -11    1    4    4    0    0  0.18083385206E+02  0.14163519211E+02 -0.68820089744E+01  0.23978660195E+02  0.51100000000E-03 0.  1.
        -12    1    4    4    0    0  0.78116317219E+01 -0.19963337696E+01 -0.17309761244E+02  0.19095412355E+02  0.00000000000E+00 0.  1.
</event>
<event>
 8    1  0.9870402E-014  0.9118800E+02  0.7816164E-02  0.1184000E+00
        -11   -1    0    0    0    0  0.00000000000E+00  0.00000000000E+00  0.45593999997E+02  0.45594000000E+02  0.51100000000E-03 0. -1.
         11   -1    0    0    0    0 -0.00000000000E+00 -0.00000000000E+00 -0.45593999997E+02  0.45594000000E+02  0.51100000000E-03 0.  1.
         23    2    1    2    0    0 -0.35527136788E-14  0.00000000000E+00  0.00000000000E+00  0.91188000000E+02  0.91188000000E+02 0.  0.
    9900012    2    3    3    0    0  0.27613735379E+02  0.60655324268E+01  0.29220835195E+02  0.50528852509E+02  0.29999977685E+02 0.  0.
        -12    1    3    3    0    0 -0.27613735379E+02 -0.60655324268E+01 -0.29220835195E+02  0.40659147491E+02  0.00000000000E+00 0.  1.
         11    1    4    4    0    0  0.12699595749E+02 -0.27123622627E+01  0.24773517372E+01  0.13220208512E+02  0.51100000000E-03 0. -1.
        -11    1    4    4    0    0  0.18790472707E+02  0.29613921944E+01  0.19370883619E+02  0.27149269617E+02  0.51100000000E-03 0.  1.
        -12    1    4    4    0    0 -0.38763330763E+01  0.58165024951E+01  0.73725998393E+01  0.10159374380E+02  0.00000000000E+00 0.  1.
</event>
<event>
 8    1  0.9870402E-014  0.9118800E+02  0.7816164E-02  0.1184000E+00
        -11   -1    0    0    0    0  0.00000000000E+00  0.00000000000E+00  0.45593999997E+02  0.45594000000E+02  0.51100000000E-03 0. -1.
         11   -1    0    0    0    0 -0.00000000000E+00 -0.00000000000E+00 -0.45593999997E+02  0.45594000000E+02  0.51100000000E-03 0.  1.
         23    2    1    2    0    0  0.17763568394E-14  0.00000000000E+00  0.71054273576E-14  0.91188000000E+02  0.91188000000E+02 0.  0.
    9900012    2    3    3    0    0  0.11000280583E+02 -0.26475938087E+01  0.39053168977E+02  0.50528856710E+02  0.29999990457E+02 0.  0.
        -12    1    3    3    0    0 -0.11000280583E+02  0.26475938087E+01 -0.39053168977E+02  0.40659143290E+02  0.00000000000E+00 0.  1.
         11    1    4    4    0    0  0.87067245988E+01  0.27473508472E+01  0.24517811743E+01  0.94533708858E+01  0.51100000000E-03 0. -1.
        -11    1    4    4    0    0 -0.50834899798E+01  0.10670578495E+01  0.28429465495E+01  0.59213873521E+01  0.51100000000E-03 0.  1.
         12    1    4    4    0    0  0.73770459641E+01 -0.64620025053E+01  0.33758441254E+02  0.35154098472E+02  0.00000000000E+00 0. -1.
</event>
<event>
 8    1  0.9870402E-014  0.9118800E+02  0.7816164E-02  0.1184000E+00
        -11   -1    0    0    0    0  0.00000000000E+00  0.00000000000E+00  0.45593999997E+02  0.45594000000E+02  0.51100000000E-03 0. -1.
         11   -1    0    0    0    0 -0.00000000000E+00 -0.00000000000E+00 -0.45593999997E+02  0.45594000000E+02  0.51100000000E-03 0.  1.
         23    2    1    2    0    0  0.00000000000E+00 -0.88817841970E-15  0.00000000000E+00  0.91188000000E+02  0.91188000000E+02 0.  0.
    9900012    2    3    3    0    0  0.34004893492E+02 -0.71889899063E+01  0.21098606516E+02  0.50528861369E+02  0.30000004617E+02 0.  0.
        -12    1    3    3    0    0 -0.34004893492E+02  0.71889899063E+01 -0.21098606516E+02  0.40659138631E+02  0.00000000000E+00 0.  1.
         11    1    4    4    0    0  0.14353292334E+02  0.82896773768E+01  0.69554735631E+01  0.17975382182E+02  0.51100000000E-03 0. -1.
        -11    1    4    4    0    0  0.51789608762E+01 -0.64661857576E+01 -0.25746031148E+01  0.86753544866E+01  0.51100000000E-03 0.  1.
        -12    1    4    4    0    0  0.14472640282E+02 -0.90124815255E+01  0.16717736068E+02  0.23878124701E+02  0.00000000000E+00 0.  1.
</event>
<event>
 8    1  0.9870402E-014  0.9118800E+02  0.7816164E-02  0.1184000E+00
        -11   -1    0    0    0    0  0.00000000000E+00  0.00000000000E+00  0.45593999997E+02  0.45594000000E+02  0.51100000000E-03 0. -1.
         11   -1    0    0    0    0 -0.00000000000E+00 -0.00000000000E+00 -0.45593999997E+02  0.45594000000E+02  0.51100000000E-03 0.  1.
         23    2    1    2    0    0  0.00000000000E+00  0.00000000000E+00  0.00000000000E+00  0.91188000000E+02  0.91188000000E+02 0.  0.
    9900012    2    3    3    0    0 -0.14505778298E+02  0.28114163831E+02  0.25540986846E+02  0.50528858088E+02  0.29999994645E+02 0.  0.
        -12    1    3    3    0    0  0.14505778298E+02 -0.28114163831E+02 -0.25540986846E+02  0.40659141912E+02  0.00000000000E+00 0.  1.
         11    1    4    4    0    0  0.24294972001E+01  0.12089941411E+02  0.18238050141E+02  0.22015803714E+02  0.51100000000E-03 0. -1.
        -11    1    4    4    0    0 -0.22071515067E+01 -0.15444386637E+01 -0.24103671920E+01  0.36147861376E+01  0.51100000000E-03 0.  1.
         12    1    4    4    0    0 -0.14728123991E+02  0.17568661084E+02  0.97133038962E+01  0.24898268236E+02  0.00000000000E+00 0. -1.
</event>
<event>
 8    1  0.9870402E-014  0.9118800E+02  0.7816164E-02  0.1184000E+00
        -11   -1    0    0    0    0  0.00000000000E+00  0.00000000000E+00  0.45593999997E+02  0.45594000000E+02  0.51100000000E-03 0. -1.
         11   -1    0    0    0    0 -0.00000000000E+00 -0.00000000000E+00 -0.45593999997E+02  0.45594000000E+02  0.51100000000E-03 0.  1.
         23    2    1    2    0    0  0.00000000000E+00  0.00000000000E+00  0.00000000000E+00  0.91188000000E+02  0.91188000000E+02 0.  0.
    9900012    2    3    3    0    0  0.26417085531E+02  0.55977703035E+01  0.30396848188E+02  0.50528858099E+02  0.29999994678E+02 0.  0.
        -12    1    3    3    0    0 -0.26417085531E+02 -0.55977703035E+01 -0.30396848188E+02  0.40659141901E+02  0.00000000000E+00 0.  1.
         11    1    4    4    0    0  0.17790269236E+02 -0.10151220231E+01  0.77727481177E+01  0.19440672977E+02  0.51100000000E-03 0. -1.
        -11    1    4    4    0    0  0.90529856948E+01  0.84264111405E+01  0.49586155930E+01  0.13324744784E+02  0.51100000000E-03 0.  1.
         12    1    4    4    0    0 -0.42616939963E+00 -0.18135188139E+01  0.17665484477E+02  0.17763440339E+02  0.00000000000E+00 0. -1.
</event>
<event>
 8    1  0.9870402E-014  0.9118800E+02  0.7816164E-02  0.1184000E+00
        -11   -1    0    0    0    0  0.00000000000E+00  0.00000000000E+00  0.45593999997E+02  0.45594000000E+02  0.51100000000E-03 0.  1.
         11   -1    0    0    0    0 -0.00000000000E+00 -0.00000000000E+00 -0.45593999997E+02  0.45594000000E+02  0.51100000000E-03 0. -1.
         23    2    1    2    0    0  0.35527136788E-14  0.17763568394E-14  0.00000000000E+00  0.91188000000E+02  0.91188000000E+02 0.  0.
    9900012    2    3    3    0    0 -0.29567170901E+02 -0.14311460619E+02 -0.23961011268E+02  0.50528861284E+02  0.30000004358E+02 0.  0.
         12    1    3    3    0    0  0.29567170901E+02  0.14311460619E+02  0.23961011268E+02  0.40659138716E+02  0.00000000000E+00 0. -1.
         11    1    4    4    0    0  0.32301449906E+01 -0.71421454533E+01 -0.55350158005E+01  0.95958573618E+01  0.51100000000E-03 0. -1.
        -11    1    4    4    0    0 -0.82081562773E+01 -0.83814919386E+01 -0.39769881675E+01  0.12387076803E+02  0.51100000000E-03 0.  1.
        -12    1    4    4    0    0 -0.24589159615E+02  0.12121767732E+01 -0.14449007300E+02  0.28545927118E+02  0.00000000000E+00 0.  1.
</event>
<event>
 8    1  0.9870402E-014  0.9118800E+02  0.7816164E-02  0.1184000E+00
        -11   -1    0    0    0    0  0.00000000000E+00  0.00000000000E+00  0.45593999997E+02  0.45594000000E+02  0.51100000000E-03 0. -1.
         11   -1    0    0    0    0 -0.00000000000E+00 -0.00000000000E+00 -0.45593999997E+02  0.45594000000E+02  0.51100000000E-03 0.  1.
         23    2    1    2    0    0  0.00000000000E+00  0.00000000000E+00  0.00000000000E+00  0.91188000000E+02  0.91188000000E+02 0.  0.
    9900012    2    3    3    0    0  0.30661168127E+02 -0.17416051542E+02 -0.20242016868E+02  0.50528864137E+02  0.30000013031E+02 0.  0.
         12    1    3    3    0    0 -0.30661168127E+02  0.17416051542E+02  0.20242016868E+02  0.40659135863E+02  0.00000000000E+00 0. -1.
         11    1    4    4    0    0  0.66436394275E+01  0.15521871721E+01 -0.13902722324E+02  0.15486539902E+02  0.51100000000E-03 0. -1.
        -11    1    4    4    0    0  0.35418035389E+00  0.24433398121E+01 -0.10988739047E+01  0.27023836293E+01  0.51100000000E-03 0.  1.
         12    1    4    4    0    0  0.23663348345E+02 -0.21411578527E+02 -0.52404206398E+01  0.32339940606E+02  0.00000000000E+00 0. -1.
</event>
<event>
 8    1  0.9870402E-014  0.9118800E+02  0.7816164E-02  0.1184000E+00
        -11   -1    0    0    0    0  0.00000000000E+00  0.00000000000E+00  0.45593999997E+02  0.45594000000E+02  0.51100000000E-03 0. -1.
         11   -1    0    0    0    0 -0.00000000000E+00 -0.00000000000E+00 -0.45593999997E+02  0.45594000000E+02  0.51100000000E-03 0.  1.
         23    2    1    2    0    0  0.35527136788E-14  0.00000000000E+00 -0.35527136788E-14  0.91188000000E+02  0.91188000000E+02 0.  0.
    9900012    2    3    3    0    0 -0.30989366129E+02 -0.20140380749E+02  0.16946955578E+02  0.50528744557E+02  0.29999649553E+02 0.  0.
        -12    1    3    3    0    0  0.30989366129E+02  0.20140380749E+02 -0.16946955578E+02  0.40659255443E+02  0.00000000000E+00 0.  1.
         11    1    4    4    0    0 -0.17379591142E+02 -0.18651658751E+02  0.58915654693E+01  0.26165723884E+02  0.51100000000E-03 0. -1.
        -11    1    4    4    0    0 -0.49589396206E+01 -0.69304588580E+01 -0.97514162169E+00  0.85774846888E+01  0.51100000000E-03 0.  1.
         12    1    4    4    0    0 -0.86508353666E+01  0.54417368599E+01  0.12030531730E+02  0.15785535984E+02  0.00000000000E+00 0. -1.
</event>
<event>
 8    1  0.9870402E-014  0.9118800E+02  0.7816164E-02  0.1184000E+00
        -11   -1    0    0    0    0  0.00000000000E+00  0.00000000000E+00  0.45593999997E+02  0.45594000000E+02  0.51100000000E-03 0. -1.
         11   -1    0    0    0    0 -0.00000000000E+00 -0.00000000000E+00 -0.45593999997E+02  0.45594000000E+02  0.51100000000E-03 0.  1.
         23    2    1    2    0    0  0.00000000000E+00  0.35527136788E-14  0.00000000000E+00  0.91188000000E+02  0.91188000000E+02 0.  0.
    9900012    2    3    3    0    0 -0.85959263403E+01 -0.16850272058E+02 -0.35990894016E+02  0.50528855024E+02  0.29999985331E+02 0.  0.
         12    1    3    3    0    0  0.85959263403E+01  0.16850272058E+02  0.35990894016E+02  0.40659144976E+02  0.00000000000E+00 0. -1.
         11    1    4    4    0    0  0.23128956477E+01 -0.69123194123E+01 -0.50201511392E+01  0.88505120562E+01  0.51100000000E-03 0. -1.
        -11    1    4    4    0    0 -0.13102046296E+02 -0.12292936017E+02 -0.33209721071E+02  0.37757985472E+02  0.51100000000E-03 0.  1.
         12    1    4    4    0    0  0.21932243078E+01  0.23549833707E+01  0.22389781937E+01  0.39203574955E+01  0.00000000000E+00 0. -1.
</event>
<event>
 8    1  0.9870402E-014  0.9118800E+02  0.7816164E-02  0.1184000E+00
        -11   -1    0    0    0    0  0.00000000000E+00  0.00000000000E+00  0.45593999997E+02  0.45594000000E+02  0.51100000000E-03 0. -1.
         11   -1    0    0    0    0 -0.00000000000E+00 -0.00000000000E+00 -0.45593999997E+02  0.45594000000E+02  0.51100000000E-03 0.  1.
         23    2    1    2    0    0  0.00000000000E+00  0.44408920985E-15  0.00000000000E+00  0.91188000000E+02  0.91188000000E+02 0.  0.
    9900012    2    3    3    0    0 -0.12473222963E+02 -0.12370290104E+01 -0.38678854631E+02  0.50528864158E+02  0.30000013094E+02 0.  0.
         12    1    3    3    0    0  0.12473222963E+02  0.12370290104E+01  0.38678854631E+02  0.40659135842E+02  0.00000000000E+00 0. -1.
         11    1    4    4    0    0  0.45224032398E+01  0.10307045714E+01 -0.22873811749E+01  0.51717111170E+01  0.51100000000E-03 0. -1.
        -11    1    4    4    0    0 -0.79623007736E+01 -0.11563523363E+02 -0.20558747700E+02  0.24895288981E+02  0.51100000000E-03 0.  1.
         12    1    4    4    0    0 -0.90333254288E+01  0.92957897808E+01 -0.15832725756E+02  0.20461864060E+02  0.00000000000E+00 0. -1.
</event>
<event>
 8    1  0.9870402E-014  0.9118800E+02  0.7816164E-02  0.1184000E+00
        -11   -1    0    0    0    0  0.00000000000E+00  0.00000000000E+00  0.45593999997E+02  0.45594000000E+02  0.51100000000E-03 0. -1.
         11   -1    0    0    0    0 -0.00000000000E+00 -0.00000000000E+00 -0.45593999997E+02  0.45594000000E+02  0.51100000000E-03 0.  1.
         23    2    1    2    0    0 -0.35527136788E-14  0.71054273576E-14 -0.17763568394E-14  0.91188000000E+02  0.91188000000E+02 0.  0.
    9900012    2    3    3    0    0  0.16283459129E+02 -0.35824768988E+02  0.10227443818E+02  0.50528859315E+02  0.29999998373E+02 0.  0.
        -12    1    3    3    0    0 -0.16283459129E+02  0.35824768988E+02 -0.10227443818E+02  0.40659140685E+02  0.00000000000E+00 0.  1.
         11    1    4    4    0    0  0.76168628093E+01 -0.96657687805E+01 -0.10944231314E+01  0.12354814747E+02  0.51100000000E-03 0.  1.
        -11    1    4    4    0    0  0.12179683653E+02 -0.17870080862E+02  0.17019445403E+02  0.27519920166E+02  0.51100000000E-03 0. -1.
         12    1    4    4    0    0 -0.35130873332E+01 -0.82889193457E+01 -0.56975784537E+01  0.10654124402E+02  0.00000000000E+00 0. -1.
</event>
<event>
 8    1  0.9870402E-014  0.9118800E+02  0.7816164E-02  0.1184000E+00
        -11   -1    0    0    0    0  0.00000000000E+00  0.00000000000E+00  0.45593999997E+02  0.45594000000E+02  0.51100000000E-03 0. -1.
         11   -1    0    0    0    0 -0.00000000000E+00 -0.00000000000E+00 -0.45593999997E+02  0.45594000000E+02  0.51100000000E-03 0.  1.
         23    2    1    2    0    0  0.00000000000E+00  0.00000000000E+00  0.00000000000E+00  0.91188000000E+02  0.91188000000E+02 0.  0.
    9900012    2    3    3    0    0 -0.34282085876E+01  0.38923206322E+02 -0.11242645659E+02  0.50528859749E+02  0.29999999694E+02 0.  0.
         12    1    3    3    0    0  0.34282085876E+01 -0.38923206322E+02  0.11242645659E+02  0.40659140251E+02  0.00000000000E+00 0. -1.
         11    1    4    4    0    0  0.20068046023E+01  0.39050533630E+01  0.32745911990E+01  0.54771940135E+01  0.51100000000E-03 0. -1.
        -11    1    4    4    0    0  0.81281495329E+01  0.22927782225E+02 -0.10189137912E+02  0.26373633505E+02  0.51100000000E-03 0.  1.
        -12    1    4    4    0    0 -0.13563162723E+02  0.12090370734E+02 -0.43280989467E+01  0.18678032231E+02  0.00000000000E+00 0.  1.
</event>
<event>
 8    1  0.9870402E-014  0.9118800E+02  0.7816164E-02  0.1184000E+00
        -11   -1    0    0    0    0  0.00000000000E+00  0.00000000000E+00  0.45593999997E+02  0.45594000000E+02  0.51100000000E-03 0. -1.
         11   -1    0    0    0    0 -0.00000000000E+00 -0.00000000000E+00 -0.45593999997E+02  0.45594000000E+02  0.51100000000E-03 0.  1.
         23    2    1    2    0    0  0.00000000000E+00 -0.35527136788E-14  0.35527136788E-14  0.91188000000E+02  0.91188000000E+02 0.  0.
    9900012    2    3    3    0    0  0.16038349979E+02 -0.24607436101E+02 -0.28114250360E+02  0.50528860132E+02  0.30000000857E+02 0.  0.
         12    1    3    3    0    0 -0.16038349979E+02  0.24607436101E+02  0.28114250360E+02  0.40659139868E+02  0.00000000000E+00 0. -1.
         11    1    4    4    0    0  0.15501097313E+01 -0.18825771708E+02 -0.11865219335E+02  0.22306858827E+02  0.51100000000E-03 0. -1.
        -11    1    4    4    0    0  0.60138715267E+01 -0.61154412500E+00 -0.17217561997E+02  0.18247878735E+02  0.51100000000E-03 0.  1.
         12    1    4    4    0    0  0.84743687211E+01 -0.51701202678E+01  0.96853097191E+00  0.99741225703E+01  0.00000000000E+00 0. -1.
</event>
<event>
 8    1  0.9870402E-014  0.9118800E+02  0.7816164E-02  0.1184000E+00
        -11   -1    0    0    0    0  0.00000000000E+00  0.00000000000E+00  0.45593999997E+02  0.45594000000E+02  0.51100000000E-03 0.  1.
         11   -1    0    0    0    0 -0.00000000000E+00 -0.00000000000E+00 -0.45593999997E+02  0.45594000000E+02  0.51100000000E-03 0. -1.
         23    2    1    2    0    0  0.71054273576E-14 -0.35527136788E-14 -0.88817841970E-15  0.91188000000E+02  0.91188000000E+02 0.  0.
    9900012    2    3    3    0    0  0.33765620771E+02 -0.22271811477E+02 -0.41247757004E+01  0.50528874246E+02  0.30000043757E+02 0.  0.
        -12    1    3    3    0    0 -0.33765620771E+02  0.22271811477E+02  0.41247757004E+01  0.40659125754E+02  0.00000000000E+00 0.  1.
         11    1    4    4    0    0 -0.39922758887E+00 -0.61217069771E+01  0.53487688158E+01  0.81390421480E+01  0.51100000000E-03 0. -1.
        -11    1    4    4    0    0  0.60950135699E+01 -0.61817338695E+00  0.42925831398E+01  0.74804812029E+01  0.51100000000E-03 0.  1.
         12    1    4    4    0    0  0.28069834790E+02 -0.15531931113E+02 -0.13766127656E+02  0.34909350895E+02  0.00000000000E+00 0. -1.
</event>
<event>
 8    1  0.9870402E-014  0.9118800E+02  0.7816164E-02  0.1184000E+00
        -11   -1    0    0    0    0  0.00000000000E+00  0.00000000000E+00  0.45593999997E+02  0.45594000000E+02  0.51100000000E-03 0. -1.
         11   -1    0    0    0    0 -0.00000000000E+00 -0.00000000000E+00 -0.45593999997E+02  0.45594000000E+02  0.51100000000E-03 0.  1.
         23    2    1    2    0    0  0.00000000000E+00  0.35527136788E-14  0.17763568394E-14  0.91188000000E+02  0.91188000000E+02 0.  0.
    9900012    2    3    3    0    0  0.29209525791E+02  0.25123332312E+02  0.12991840265E+02  0.50528854203E+02  0.29999982836E+02 0.  0.
        -12    1    3    3    0    0 -0.29209525791E+02 -0.25123332312E+02 -0.12991840265E+02  0.40659145797E+02  0.00000000000E+00 0.  1.
         11    1    4    4    0    0  0.57930368026E+01  0.19228548712E+02  0.12568905294E+02  0.23691216548E+02  0.51100000000E-03 0. -1.
        -11    1    4    4    0    0  0.31872065591E+01 -0.95861580775E+00  0.39763198042E+01  0.51853977055E+01  0.51100000000E-03 0.  1.
        -12    1    4    4    0    0  0.20229282430E+02  0.68533994081E+01 -0.35533848332E+01  0.21652239950E+02  0.00000000000E+00 0.  1.
</event>
<event>
 8    1  0.9870402E-014  0.9118800E+02  0.7816164E-02  0.1184000E+00
        -11   -1    0    0    0    0  0.00000000000E+00  0.00000000000E+00  0.45593999997E+02  0.45594000000E+02  0.51100000000E-03 0. -1.
         11   -1    0    0    0    0 -0.00000000000E+00 -0.00000000000E+00 -0.45593999997E+02  0.45594000000E+02  0.51100000000E-03 0.  1.
         23    2    1    2    0    0  0.22204460493E-14  0.00000000000E+00  0.00000000000E+00  0.91188000000E+02  0.91188000000E+02 0.  0.
    9900012    2    3    3    0    0 -0.25300727905E+01 -0.26913495653E+02  0.30371504252E+02  0.50528858505E+02  0.29999995912E+02 0.  0.
        -12    1    3    3    0    0  0.25300727905E+01  0.26913495653E+02 -0.30371504252E+02  0.40659141495E+02  0.00000000000E+00 0.  1.
         11    1    4    4    0    0  0.85936812112E+00  0.40847544153E+01  0.91554347011E+01  0.10062093074E+02  0.51100000000E-03 0. -1.
        -11    1    4    4    0    0 -0.83681691969E+01 -0.15892092353E+02  0.14960998443E+02  0.23375549827E+02  0.51100000000E-03 0.  1.
        -12    1    4    4    0    0  0.49787282853E+01 -0.15106157715E+02  0.62550711077E+01  0.17091215604E+02  0.00000000000E+00 0.  1.
</event>
<event>
 8    1  0.9870402E-014  0.9118800E+02  0.7816164E-02  0.1184000E+00
        -11   -1    0    0    0    0  0.00000000000E+00  0.00000000000E+00  0.45593999997E+02  0.45594000000E+02  0.51100000000E-03 0. -1.
         11   -1    0    0    0    0 -0.00000000000E+00 -0.00000000000E+00 -0.45593999997E+02  0.45594000000E+02  0.51100000000E-03 0.  1.
         23    2    1    2    0    0  0.00000000000E+00 -0.88817841970E-15 -0.71054273576E-14  0.91188000000E+02  0.91188000000E+02 0.  0.
    9900012    2    3    3    0    0  0.27404450114E+02  0.11029856578E+01 -0.30015757291E+02  0.50528854053E+02  0.29999982378E+02 0.  0.
         12    1    3    3    0    0 -0.27404450114E+02 -0.11029856578E+01  0.30015757291E+02  0.40659145947E+02  0.00000000000E+00 0. -1.
         11    1    4    4    0    0  0.14666538741E+02  0.15562525290E+01 -0.12681218705E+02  0.19451030529E+02  0.51100000000E-03 0.  1.
        -11    1    4    4    0    0  0.14204766312E+02 -0.70147469358E+01 -0.43067046919E+01  0.16417361728E+02  0.51100000000E-03 0. -1.
         12    1    4    4    0    0 -0.14668549389E+01  0.65614800646E+01 -0.13027833895E+02  0.14660461795E+02  0.00000000000E+00 0. -1.
</event>
<event>
 8    1  0.9870402E-014  0.9118800E+02  0.7816164E-02  0.1184000E+00
        -11   -1    0    0    0    0  0.00000000000E+00  0.00000000000E+00  0.45593999997E+02  0.45594000000E+02  0.51100000000E-03 0.  1.
         11   -1    0    0    0    0 -0.00000000000E+00 -0.00000000000E+00 -0.45593999997E+02  0.45594000000E+02  0.51100000000E-03 0. -1.
         23    2    1    2    0    0  0.00000000000E+00 -0.71054273576E-14 -0.17763568394E-14  0.91188000000E+02  0.91188000000E+02 0.  0.
    9900012    2    3    3    0    0 -0.80621655552E+01 -0.36662427437E+02 -0.15621580464E+02  0.50528857422E+02  0.29999992620E+02 0.  0.
         12    1    3    3    0    0  0.80621655552E+01  0.36662427437E+02  0.15621580464E+02  0.40659142578E+02  0.00000000000E+00 0. -1.
         11    1    4    4    0    0 -0.84735168603E+01 -0.64773924433E+01 -0.98743348270E+00  0.10711308323E+02  0.51100000000E-03 0.  1.
        -11    1    4    4    0    0  0.34866369514E+01 -0.32557647565E+02 -0.11122539819E+02  0.34581323637E+02  0.51100000000E-03 0. -1.
         12    1    4    4    0    0 -0.30752856464E+01  0.23726125718E+01 -0.35116071626E+01  0.52362254618E+01  0.00000000000E+00 0. -1.
</event>
<event>
 8    1  0.9870402E-014  0.9118800E+02  0.7816164E-02  0.1184000E+00
        -11   -1    0    0    0    0  0.00000000000E+00  0.00000000000E+00  0.45593999997E+02  0.45594000000E+02  0.51100000000E-03 0. -1.
         11   -1    0    0    0    0 -0.00000000000E+00 -0.00000000000E+00 -0.45593999997E+02  0.45594000000E+02  0.51100000000E-03 0.  1.
         23    2    1    2    0    0 -0.44408920985E-15 -0.88817841970E-15 -0.14210854715E-13  0.91188000000E+02  0.91188000000E+02 0.  0.
    9900012    2    3    3    0    0  0.38166122137E+01  0.37112772571E+01  0.40309121862E+02  0.50528863107E+02  0.30000009899E+02 0.  0.
        -12    1    3    3    0    0 -0.38166122137E+01 -0.37112772571E+01 -0.40309121862E+02  0.40659136893E+02  0.00000000000E+00 0.  1.
         11    1    4    4    0    0  0.49634339140E+01  0.59264099355E+01  0.77936851197E+01  0.10977228200E+02  0.51100000000E-03 0. -1.
        -11    1    4    4    0    0 -0.73508077409E+00  0.21985791258E-01  0.35661661753E+02  0.35669243703E+02  0.51100000000E-03 0.  1.
        -12    1    4    4    0    0 -0.41174092613E+00 -0.22371184696E+01 -0.31462250111E+01  0.38823912036E+01  0.00000000000E+00 0.  1.
</event>
<event>
 8    1  0.9870402E-014  0.9118800E+02  0.7816164E-02  0.1184000E+00
        -11   -1    0    0    0    0  0.00000000000E+00  0.00000000000E+00  0.45593999997E+02  0.45594000000E+02  0.51100000000E-03 0. -1.
         11   -1    0    0    0    0 -0.00000000000E+00 -0.00000000000E+00 -0.45593999997E+02  0.45594000000E+02  0.51100000000E-03 0.  1.
         23    2    1    2    0    0  0.44408920985E-15  0.35527136788E-14 -0.35527136788E-14  0.91188000000E+02  0.91188000000E+02 0.  0.
    9900012    2    3    3    0    0 -0.23102029003E+01 -0.31550111961E+02  0.25542499336E+02  0.50528857430E+02  0.29999992645E+02 0.  0.
        -12    1    3    3    0    0  0.23102029003E+01  0.31550111961E+02 -0.25542499336E+02  0.40659142570E+02  0.00000000000E+00 0.  1.
         11    1    4    4    0    0 -0.76044809000E+01 -0.80385972535E+01  0.16013688256E+02  0.19464978484E+02  0.51100000000E-03 0. -1.
        -11    1    4    4    0    0  0.54687393722E+01 -0.59310464936E+01  0.10749642131E+02  0.13440209412E+02  0.51100000000E-03 0.  1.
        -12    1    4    4    0    0 -0.17446137249E+00 -0.17580468214E+02 -0.12208310515E+01  0.17623669534E+02  0.00000000000E+00 0.  1.
</event>
<event>
 8    1  0.9870402E-014  0.9118800E+02  0.7816164E-02  0.1184000E+00
        -11   -1    0    0    0    0  0.00000000000E+00  0.00000000000E+00  0.45593999997E+02  0.45594000000E+02  0.51100000000E-03 0. -1.
         11   -1    0    0    0    0 -0.00000000000E+00 -0.00000000000E+00 -0.45593999997E+02  0.45594000000E+02  0.51100000000E-03 0.  1.
         23    2    1    2    0    0 -0.88817841970E-15  0.35527136788E-14  0.00000000000E+00  0.91188000000E+02  0.91188000000E+02 0.  0.
    9900012    2    3    3    0    0  0.46984822269E+01 -0.89740421448E+01 -0.39377112676E+02  0.50528853792E+02  0.29999981586E+02 0.  0.
         12    1    3    3    0    0 -0.46984822269E+01  0.89740421448E+01  0.39377112676E+02  0.40659146208E+02  0.00000000000E+00 0. -1.
         11    1    4    4    0    0  0.71848375329E+01 -0.13520801190E+01 -0.11710910766E+02  0.13805630817E+02  0.51100000000E-03 0. -1.
        -11    1    4    4    0    0  0.61479639909E+01 -0.92019869472E+01 -0.44944211072E+01  0.11944615790E+02  0.51100000000E-03 0.  1.
         12    1    4    4    0    0 -0.86343192969E+01  0.15800249213E+01 -0.23171780803E+02  0.24778607185E+02  0.00000000000E+00 0. -1.
</event>
<event>
 8    1  0.9870402E-014  0.9118800E+02  0.7816164E-02  0.1184000E+00
        -11   -1    0    0    0    0  0.00000000000E+00  0.00000000000E+00  0.45593999997E+02  0.45594000000E+02  0.51100000000E-03 0. -1.
         11   -1    0    0    0    0 -0.00000000000E+00 -0.00000000000E+00 -0.45593999997E+02  0.45594000000E+02  0.51100000000E-03 0.  1.
         23    2    1    2    0    0  0.00000000000E+00 -0.17763568394E-14  0.00000000000E+00  0.91188000000E+02  0.91188000000E+02 0.  0.
    9900012    2    3    3    0    0 -0.65529569282E+01  0.43185540780E+01  0.39894540938E+02  0.50528861415E+02  0.30000004756E+02 0.  0.
        -12    1    3    3    0    0  0.65529569282E+01 -0.43185540780E+01 -0.39894540938E+02  0.40659138585E+02  0.00000000000E+00 0.  1.
         11    1    4    4    0    0 -0.31958243906E+01  0.45422613884E-01 -0.24079225447E+00  0.32052048172E+01  0.51100000000E-03 0. -1.
        -11    1    4    4    0    0  0.33123758844E+01 -0.92019082140E+01  0.12592023288E+02  0.15943838920E+02  0.51100000000E-03 0.  1.
         12    1    4    4    0    0 -0.66695084221E+01  0.13475039678E+02  0.27543309905E+02  0.31379817677E+02  0.00000000000E+00 0. -1.
</event>
<event>
 8    1  0.9870402E-014  0.9118800E+02  0.7816164E-02  0.1184000E+00
        -11   -1    0    0    0    0  0.00000000000E+00  0.00000000000E+00  0.45593999997E+02  0.45594000000E+02  0.51100000000E-03 0. -1.
         11   -1    0    0    0    0 -0.00000000000E+00 -0.00000000000E+00 -0.45593999997E+02  0.45594000000E+02  0.51100000000E-03 0.  1.
         23    2    1    2    0    0  0.17763568394E-14  0.00000000000E+00  0.00000000000E+00  0.91188000000E+02  0.91188000000E+02 0.  0.
    9900012    2    3    3    0    0  0.13803536982E+02  0.26330178435E+02  0.27737156999E+02  0.50528858248E+02  0.29999995130E+02 0.  0.
        -12    1    3    3    0    0 -0.13803536982E+02 -0.26330178435E+02 -0.27737156999E+02  0.40659141752E+02  0.00000000000E+00 0.  1.
         11    1    4    4    0    0  0.48383450936E+01  0.14062170287E+02  0.14823005310E+02  0.20997040342E+02  0.51100000000E-03 0. -1.
        -11    1    4    4    0    0 -0.13297377018E+01  0.14260878418E+02  0.21128500385E+01  0.14477741231E+02  0.51100000000E-03 0.  1.
        -12    1    4    4    0    0  0.10294929591E+02 -0.19928702701E+01  0.10801301650E+02  0.15054076674E+02  0.00000000000E+00 0.  1.
</event>
<event>
 8    1  0.9870402E-014  0.9118800E+02  0.7816164E-02  0.1184000E+00
        -11   -1    0    0    0    0  0.00000000000E+00  0.00000000000E+00  0.45593999997E+02  0.45594000000E+02  0.51100000000E-03 0. -1.
         11   -1    0    0    0    0 -0.00000000000E+00 -0.00000000000E+00 -0.45593999997E+02  0.45594000000E+02  0.51100000000E-03 0.  1.
         23    2    1    2    0    0 -0.88817841970E-15  0.00000000000E+00  0.11102230246E-14  0.91188000000E+02  0.91188000000E+02 0.  0.
    9900012    2    3    3    0    0  0.79817769778E+01  0.39843087224E+02  0.14092905795E+01  0.50528850191E+02  0.29999970640E+02 0.  0.
         12    1    3    3    0    0 -0.79817769778E+01 -0.39843087224E+02 -0.14092905795E+01  0.40659149809E+02  0.00000000000E+00 0. -1.
         11    1    4    4    0    0 -0.32310876774E+01  0.22456564179E+01 -0.74631586757E+01  0.84369211213E+01  0.51100000000E-03 0. -1.
        -11    1    4    4    0    0  0.58275768110E+01  0.47689285790E+01 -0.44856827432E+00  0.75435101271E+01  0.51100000000E-03 0.  1.
         12    1    4    4    0    0  0.53852878442E+01  0.32828502227E+02  0.93210175295E+01  0.34548418942E+02  0.00000000000E+00 0. -1.
</event>
<event>
 8    1  0.9870402E-014  0.9118800E+02  0.7816164E-02  0.1184000E+00
        -11   -1    0    0    0    0  0.00000000000E+00  0.00000000000E+00  0.45593999997E+02  0.45594000000E+02  0.51100000000E-03 0. -1.
         11   -1    0    0    0    0 -0.00000000000E+00 -0.00000000000E+00 -0.45593999997E+02  0.45594000000E+02  0.51100000000E-03 0.  1.
         23    2    1    2    0    0  0.17763568394E-14  0.71054273576E-14  0.00000000000E+00  0.91188000000E+02  0.91188000000E+02 0.  0.
    9900012    2    3    3    0    0  0.95147992857E+01  0.34550563827E+02  0.19206580397E+02  0.50528860846E+02  0.30000003029E+02 0.  0.
        -12    1    3    3    0    0 -0.95147992857E+01 -0.34550563827E+02 -0.19206580397E+02  0.40659139154E+02  0.00000000000E+00 0.  1.
         11    1    4    4    0    0 -0.17065157956E+01  0.15315502268E+02  0.15406021170E+02  0.21790417491E+02  0.51100000000E-03 0. -1.
        -11    1    4    4    0    0 -0.14758224938E+01 -0.14485982633E+01  0.39605702937E+01  0.44679532533E+01  0.51100000000E-03 0.  1.
         12    1    4    4    0    0  0.12697137575E+02  0.20683659822E+02 -0.16001106750E+00  0.24270490102E+02  0.00000000000E+00 0. -1.
</event>
<event>
 8    1  0.9870402E-014  0.9118800E+02  0.7816164E-02  0.1184000E+00
        -11   -1    0    0    0    0  0.00000000000E+00  0.00000000000E+00  0.45593999997E+02  0.45594000000E+02  0.51100000000E-03 0. -1.
         11   -1    0    0    0    0 -0.00000000000E+00 -0.00000000000E+00 -0.45593999997E+02  0.45594000000E+02  0.51100000000E-03 0.  1.
         23    2    1    2    0    0 -0.99920072216E-15  0.00000000000E+00  0.00000000000E+00  0.91188000000E+02  0.91188000000E+02 0.  0.
    9900012    2    3    3    0    0  0.57280075472E+00  0.25431942285E+02  0.31718353042E+02  0.50528859469E+02  0.29999998841E+02 0.  0.
        -12    1    3    3    0    0 -0.57280075472E+00 -0.25431942285E+02 -0.31718353042E+02  0.40659140531E+02  0.00000000000E+00 0.  1.
         11    1    4    4    0    0  0.88107001011E+01  0.61899559137E+01  0.34462329348E+01  0.11305773401E+02  0.51100000000E-03 0. -1.
        -11    1    4    4    0    0  0.95280822122E+00  0.12812249903E+02  0.57771437568E+01  0.14086766178E+02  0.51100000000E-03 0.  1.
        -12    1    4    4    0    0 -0.91907075676E+01  0.64297364674E+01  0.22494976350E+02  0.25136319890E+02  0.00000000000E+00 0.  1.
</event>
<event>
 8    1  0.9870402E-014  0.9118800E+02  0.7816164E-02  0.1184000E+00
        -11   -1    0    0    0    0  0.00000000000E+00  0.00000000000E+00  0.45593999997E+02  0.45594000000E+02  0.51100000000E-03 0. -1.
         11   -1    0    0    0    0 -0.00000000000E+00 -0.00000000000E+00 -0.45593999997E+02  0.45594000000E+02  0.51100000000E-03 0.  1.
         23    2    1    2    0    0  0.17763568394E-14  0.00000000000E+00  0.00000000000E+00  0.91188000000E+02  0.91188000000E+02 0.  0.
    9900012    2    3    3    0    0  0.23155338180E+01  0.62817861035E+01 -0.40104169337E+02  0.50528844429E+02  0.29999953126E+02 0.  0.
         12    1    3    3    0    0 -0.23155338180E+01 -0.62817861035E+01  0.40104169337E+02  0.40659155571E+02  0.00000000000E+00 0. -1.
         11    1    4    4    0    0  0.51040260673E+01  0.11357667419E+02 -0.48968138193E+01  0.13380077621E+02  0.51100000000E-03 0. -1.
        -11    1    4    4    0    0  0.38881023034E+01 -0.23233132822E+01 -0.15995607679E+02  0.16624517720E+02  0.51100000000E-03 0.  1.
        -12    1    4    4    0    0 -0.66765945527E+01 -0.27525680336E+01 -0.19211747839E+02  0.20524249088E+02  0.00000000000E+00 0.  1.
</event>
<event>
 8    1  0.9870402E-014  0.9118800E+02  0.7816164E-02  0.1184000E+00
        -11   -1    0    0    0    0  0.00000000000E+00  0.00000000000E+00  0.45593999997E+02  0.45594000000E+02  0.51100000000E-03 0. -1.
         11   -1    0    0    0    0 -0.00000000000E+00 -0.00000000000E+00 -0.45593999997E+02  0.45594000000E+02  0.51100000000E-03 0.  1.
         23    2    1    2    0    0  0.17763568394E-14  0.22204460493E-15  0.00000000000E+00  0.91188000000E+02  0.91188000000E+02 0.  0.
    9900012    2    3    3    0    0 -0.10021599634E+02  0.95254866357E+00 -0.39393221231E+02  0.50528859735E+02  0.29999999650E+02 0.  0.
         12    1    3    3    0    0  0.10021599634E+02 -0.95254866357E+00  0.39393221231E+02  0.40659140265E+02  0.00000000000E+00 0. -1.
         11    1    4    4    0    0  0.52793199944E+01  0.17758463448E+01 -0.16817204488E+01  0.58183359969E+01  0.51100000000E-03 0. -1.
        -11    1    4    4    0    0 -0.48488400053E+01 -0.29555152263E+01 -0.16811578490E+00  0.56810723309E+01  0.51100000000E-03 0.  1.
        -12    1    4    4    0    0 -0.10452079623E+02  0.21322175451E+01 -0.37543384997E+02  0.39029451407E+02  0.00000000000E+00 0.  1.
</event>
<event>
 8    1  0.9870402E-014  0.9118800E+02  0.7816164E-02  0.1184000E+00
        -11   -1    0    0    0    0  0.00000000000E+00  0.00000000000E+00  0.45593999997E+02  0.45594000000E+02  0.51100000000E-03 0. -1.
         11   -1    0    0    0    0 -0.00000000000E+00 -0.00000000000E+00 -0.45593999997E+02  0.45594000000E+02  0.51100000000E-03 0.  1.
         23    2    1    2    0    0 -0.71054273576E-14 -0.35527136788E-14 -0.71054273576E-14  0.91188000000E+02  0.91188000000E+02 0.  0.
    9900012    2    3    3    0    0 -0.19107748695E+02 -0.27409824444E+02 -0.23168102991E+02  0.50528861636E+02  0.30000005429E+02 0.  0.
         12    1    3    3    0    0  0.19107748695E+02  0.27409824444E+02  0.23168102991E+02  0.40659138364E+02  0.00000000000E+00 0. -1.
         11    1    4    4    0    0 -0.33292320633E+00 -0.16727666878E+00  0.13425459708E+01  0.13932872245E+01  0.51100000000E-03 0. -1.
        -11    1    4    4    0    0 -0.19906358970E+02 -0.22798521873E+02 -0.29565715876E+02  0.42310368500E+02  0.51100000000E-03 0.  1.
        -12    1    4    4    0    0  0.11315334815E+01 -0.44440259024E+01  0.50550669137E+01  0.68252059121E+01  0.00000000000E+00 0.  1.
</event>
<event>
 8    1  0.9870402E-014  0.9118800E+02  0.7816164E-02  0.1184000E+00
        -11   -1    0    0    0    0  0.00000000000E+00  0.00000000000E+00  0.45593999997E+02  0.45594000000E+02  0.51100000000E-03 0. -1.
         11   -1    0    0    0    0 -0.00000000000E+00 -0.00000000000E+00 -0.45593999997E+02  0.45594000000E+02  0.51100000000E-03 0.  1.
         23    2    1    2    0    0  0.00000000000E+00  0.35527136788E-14 -0.35527136788E-14  0.91188000000E+02  0.91188000000E+02 0.  0.
    9900012    2    3    3    0    0  0.30488191604E+02 -0.14212811693E+02  0.22839261829E+02  0.50528859276E+02  0.29999998255E+02 0.  0.
        -12    1    3    3    0    0 -0.30488191604E+02  0.14212811693E+02 -0.22839261829E+02  0.40659140724E+02  0.00000000000E+00 0.  1.
         11    1    4    4    0    0 -0.21515793222E+01  0.88070989745E+00  0.34909784061E+01  0.41942668008E+01  0.51100000000E-03 0. -1.
        -11    1    4    4    0    0  0.36045116859E+01  0.52680469169E+01  0.48741559781E+01  0.80313273855E+01  0.51100000000E-03 0.  1.
         12    1    4    4    0    0  0.29035259241E+02 -0.20361568507E+02  0.14474127445E+02  0.38303265090E+02  0.00000000000E+00 0. -1.
</event>
<event>
 8    1  0.9870402E-014  0.9118800E+02  0.7816164E-02  0.1184000E+00
        -11   -1    0    0    0    0  0.00000000000E+00  0.00000000000E+00  0.45593999997E+02  0.45594000000E+02  0.51100000000E-03 0. -1.
         11   -1    0    0    0    0 -0.00000000000E+00 -0.00000000000E+00 -0.45593999997E+02  0.45594000000E+02  0.51100000000E-03 0.  1.
         23    2    1    2    0    0  0.00000000000E+00  0.00000000000E+00  0.00000000000E+00  0.91188000000E+02  0.91188000000E+02 0.  0.
    9900012    2    3    3    0    0 -0.12002819070E+02  0.89992632470E+01  0.37790333129E+02  0.50528884385E+02  0.30000074576E+02 0.  0.
        -12    1    3    3    0    0  0.12002819070E+02 -0.89992632470E+01 -0.37790333129E+02  0.40659115615E+02  0.00000000000E+00 0.  1.
         11    1    4    4    0    0  0.64177194221E+01  0.73100499784E+01  0.10611127927E+02  0.14395137700E+02  0.51100000000E-03 0. -1.
        -11    1    4    4    0    0 -0.97289234987E+00 -0.25066724097E+01  0.12965821409E+02  0.13241693667E+02  0.51100000000E-03 0.  1.
        -12    1    4    4    0    0 -0.17447646142E+02  0.41958856783E+01  0.14213383793E+02  0.22892053018E+02  0.00000000000E+00 0.  1.
</event>
<event>
 8    1  0.9870402E-014  0.9118800E+02  0.7816164E-02  0.1184000E+00
        -11   -1    0    0    0    0  0.00000000000E+00  0.00000000000E+00  0.45593999997E+02  0.45594000000E+02  0.51100000000E-03 0.  1.
         11   -1    0    0    0    0 -0.00000000000E+00 -0.00000000000E+00 -0.45593999997E+02  0.45594000000E+02  0.51100000000E-03 0. -1.
         23    2    1    2    0    0  0.35527136788E-14  0.00000000000E+00  0.00000000000E+00  0.91188000000E+02  0.91188000000E+02 0.  0.
    9900012    2    3    3    0    0  0.24360915174E+02  0.31787668650E+02  0.70182506203E+01  0.50528857017E+02  0.29999991390E+02 0.  0.
        -12    1    3    3    0    0 -0.24360915174E+02 -0.31787668650E+02 -0.70182506203E+01  0.40659142983E+02  0.00000000000E+00 0.  1.
         11    1    4    4    0    0  0.53187830487E+01  0.47126802323E+01  0.13069914221E+02  0.14876876893E+02  0.51100000000E-03 0.  1.
        -11    1    4    4    0    0  0.94997190883E+01  0.52737461109E+01  0.77799133443E+00  0.10893224113E+02  0.51100000000E-03 0. -1.
        -12    1    4    4    0    0  0.95424130373E+01  0.21801242306E+02 -0.68296549352E+01  0.24758756011E+02  0.00000000000E+00 0.  1.
</event>
<event>
 8    1  0.9870402E-014  0.9118800E+02  0.7816164E-02  0.1184000E+00
        -11   -1    0    0    0    0  0.00000000000E+00  0.00000000000E+00  0.45593999997E+02  0.45594000000E+02  0.51100000000E-03 0. -1.
         11   -1    0    0    0    0 -0.00000000000E+00 -0.00000000000E+00 -0.45593999997E+02  0.45594000000E+02  0.51100000000E-03 0.  1.
         23    2    1    2    0    0  0.00000000000E+00  0.00000000000E+00  0.00000000000E+00  0.91188000000E+02  0.91188000000E+02 0.  0.
    9900012    2    3    3    0    0 -0.16422909293E+02 -0.17335177356E+02 -0.32908057259E+02  0.50528922832E+02  0.30000191439E+02 0.  0.
         12    1    3    3    0    0  0.16422909293E+02  0.17335177356E+02  0.32908057259E+02  0.40659077168E+02  0.00000000000E+00 0. -1.
         11    1    4    4    0    0 -0.15460830220E+02 -0.17021420302E+00 -0.74212869158E+01  0.17150561032E+02  0.51100000000E-03 0. -1.
        -11    1    4    4    0    0 -0.28956200493E+01 -0.79970563838E+01 -0.30018208631E+01  0.90193378378E+01  0.51100000000E-03 0.  1.
         12    1    4    4    0    0  0.19335409765E+01 -0.91679067694E+01 -0.22484949480E+02  0.24359023962E+02  0.00000000000E+00 0. -1.
</event>
<event>
 8    1  0.9870402E-014  0.9118800E+02  0.7816164E-02  0.1184000E+00
        -11   -1    0    0    0    0  0.00000000000E+00  0.00000000000E+00  0.45593999997E+02  0.45594000000E+02  0.51100000000E-03 0. -1.
         11   -1    0    0    0    0 -0.00000000000E+00 -0.00000000000E+00 -0.45593999997E+02  0.45594000000E+02  0.51100000000E-03 0.  1.
         23    2    1    2    0    0  0.35527136788E-14  0.00000000000E+00  0.00000000000E+00  0.91188000000E+02  0.91188000000E+02 0.  0.
    9900012    2    3    3    0    0 -0.25853681096E+02  0.17954294412E+02  0.25737052004E+02  0.50528863758E+02  0.30000011880E+02 0.  0.
        -12    1    3    3    0    0  0.25853681096E+02 -0.17954294412E+02 -0.25737052004E+02  0.40659136242E+02  0.00000000000E+00 0.  1.
         11    1    4    4    0    0  0.42698502768E+01  0.60502712343E+01  0.60196329121E+01  0.95432376085E+01  0.51100000000E-03 0.  1.
        -11    1    4    4    0    0 -0.70454138376E+01  0.80767494558E+01  0.53162022567E+00  0.10730999871E+02  0.51100000000E-03 0. -1.
        -12    1    4    4    0    0 -0.23078117535E+02  0.38272737220E+01  0.19185798866E+02  0.30254626279E+02  0.00000000000E+00 0.  1.
</event>
<event>
 8    1  0.9870402E-014  0.9118800E+02  0.7816164E-02  0.1184000E+00
        -11   -1    0    0    0    0  0.00000000000E+00  0.00000000000E+00  0.45593999997E+02  0.45594000000E+02  0.51100000000E-03 0. -1.
         11   -1    0    0    0    0 -0.00000000000E+00 -0.00000000000E+00 -0.45593999997E+02  0.45594000000E+02  0.51100000000E-03 0.  1.
         23    2    1    2    0    0  0.00000000000E+00  0.00000000000E+00  0.35527136788E-14  0.91188000000E+02  0.91188000000E+02 0.  0.
    9900012    2    3    3    0    0  0.28116583235E+02  0.17148235652E+02  0.23844511565E+02  0.50528868546E+02  0.30000026434E+02 0.  0.
        -12    1    3    3    0    0 -0.28116583235E+02 -0.17148235652E+02 -0.23844511565E+02  0.40659131454E+02  0.00000000000E+00 0.  1.
         11    1    4    4    0    0  0.97944206255E+01  0.11237843397E+02  0.78114388465E+01  0.16829687363E+02  0.51100000000E-03 0. -1.
        -11    1    4    4    0    0  0.23427347714E+02  0.26477960063E+01  0.13017723800E+02  0.26931627834E+02  0.51100000000E-03 0.  1.
        -12    1    4    4    0    0 -0.51051851048E+01  0.32625962484E+01  0.30153489188E+01  0.67675533494E+01  0.00000000000E+00 0.  1.
</event>
<event>
 8    1  0.9870402E-014  0.9118800E+02  0.7816164E-02  0.1184000E+00
        -11   -1    0    0    0    0  0.00000000000E+00  0.00000000000E+00  0.45593999997E+02  0.45594000000E+02  0.51100000000E-03 0. -1.
         11   -1    0    0    0    0 -0.00000000000E+00 -0.00000000000E+00 -0.45593999997E+02  0.45594000000E+02  0.51100000000E-03 0.  1.
         23    2    1    2    0    0  0.00000000000E+00  0.00000000000E+00  0.00000000000E+00  0.91188000000E+02  0.91188000000E+02 0.  0.
    9900012    2    3    3    0    0  0.69118591997E+01  0.21252928048E+02  0.33966244733E+02  0.50528849376E+02  0.29999968163E+02 0.  0.
        -12    1    3    3    0    0 -0.69118591997E+01 -0.21252928048E+02 -0.33966244733E+02  0.40659150624E+02  0.00000000000E+00 0.  1.
         11    1    4    4    0    0  0.68601629535E+01  0.10044767327E+02  0.98762474220E+01  0.15668422059E+02  0.51100000000E-03 0. -1.
        -11    1    4    4    0    0  0.70516219869E+01 -0.51118544937E+00 -0.11550554348E+00  0.70710695798E+01  0.51100000000E-03 0.  1.
        -12    1    4    4    0    0 -0.69999257407E+01  0.11719346170E+02  0.24205502855E+02  0.27789357738E+02  0.00000000000E+00 0.  1.
</event>
<event>
 8    1  0.9870402E-014  0.9118800E+02  0.7816164E-02  0.1184000E+00
        -11   -1    0    0    0    0  0.00000000000E+00  0.00000000000E+00  0.45593999997E+02  0.45594000000E+02  0.51100000000E-03 0. -1.
         11   -1    0    0    0    0 -0.00000000000E+00 -0.00000000000E+00 -0.45593999997E+02  0.45594000000E+02  0.51100000000E-03 0.  1.
         23    2    1    2    0    0  0.00000000000E+00  0.44408920985E-15  0.00000000000E+00  0.91188000000E+02  0.91188000000E+02 0.  0.
    9900012    2    3    3    0    0  0.19649197143E+02 -0.34342902573E+01  0.35429946714E+02  0.50528850697E+02  0.29999972178E+02 0.  0.
        -12    1    3    3    0    0 -0.19649197143E+02  0.34342902573E+01 -0.35429946714E+02  0.40659149303E+02  0.00000000000E+00 0.  1.
         11    1    4    4    0    0 -0.35138647184E+01 -0.49962705817E+01  0.44998315107E+01  0.75867284695E+01  0.51100000000E-03 0. -1.
        -11    1    4    4    0    0  0.70431908971E+01 -0.15391626779E+01 -0.76342591940E+00  0.72497157984E+01  0.51100000000E-03 0.  1.
         12    1    4    4    0    0  0.16119870964E+02  0.31011430023E+01  0.31693541122E+02  0.35692406429E+02  0.00000000000E+00 0. -1.
</event>
<event>
 8    1  0.9870402E-014  0.9118800E+02  0.7816164E-02  0.1184000E+00
        -11   -1    0    0    0    0  0.00000000000E+00  0.00000000000E+00  0.45593999997E+02  0.45594000000E+02  0.51100000000E-03 0. -1.
         11   -1    0    0    0    0 -0.00000000000E+00 -0.00000000000E+00 -0.45593999997E+02  0.45594000000E+02  0.51100000000E-03 0.  1.
         23    2    1    2    0    0 -0.27755575616E-15  0.00000000000E+00  0.00000000000E+00  0.91188000000E+02  0.91188000000E+02 0.  0.
    9900012    2    3    3    0    0 -0.25703830343E+00  0.36715768521E+02 -0.17465749622E+02  0.50528854207E+02  0.29999982847E+02 0.  0.
         12    1    3    3    0    0  0.25703830343E+00 -0.36715768521E+02  0.17465749622E+02  0.40659145793E+02  0.00000000000E+00 0. -1.
         11    1    4    4    0    0 -0.71911352582E+01  0.12471248401E+02  0.23415681690E+00  0.14397891952E+02  0.51100000000E-03 0. -1.
        -11    1    4    4    0    0  0.35695880936E+01  0.25293965076E+02 -0.19534397223E+02  0.32157725410E+02  0.51100000000E-03 0.  1.
         12    1    4    4    0    0  0.33645088612E+01 -0.10494449559E+01  0.18344907836E+01  0.39732368452E+01  0.00000000000E+00 0. -1.
</event>
<event>
 8    1  0.9870402E-014  0.9118800E+02  0.7816164E-02  0.1184000E+00
        -11   -1    0    0    0    0  0.00000000000E+00  0.00000000000E+00  0.45593999997E+02  0.45594000000E+02  0.51100000000E-03 0. -1.
         11   -1    0    0    0    0 -0.00000000000E+00 -0.00000000000E+00 -0.45593999997E+02  0.45594000000E+02  0.51100000000E-03 0.  1.
         23    2    1    2    0    0  0.35527136788E-14  0.00000000000E+00  0.00000000000E+00  0.91188000000E+02  0.91188000000E+02 0.  0.
    9900012    2    3    3    0    0  0.25651822271E+02  0.28957011867E+02 -0.12515639950E+02  0.50528858771E+02  0.29999996721E+02 0.  0.
         12    1    3    3    0    0 -0.25651822271E+02 -0.28957011867E+02  0.12515639950E+02  0.40659141229E+02  0.00000000000E+00 0. -1.
         11    1    4    4    0    0 -0.14781283988E+00  0.97947550429E+01 -0.88170015139E+01  0.13179476126E+02  0.51100000000E-03 0. -1.
        -11    1    4    4    0    0  0.15842241142E+01 -0.12975574526E+01 -0.52241047520E+01  0.56111221790E+01  0.51100000000E-03 0.  1.
         12    1    4    4    0    0  0.24215410997E+02  0.20459814277E+02  0.15254663156E+01  0.31738260467E+02  0.00000000000E+00 0. -1.
</event>
<event>
 8    1  0.9870402E-014  0.9118800E+02  0.7816164E-02  0.1184000E+00
        -11   -1    0    0    0    0  0.00000000000E+00  0.00000000000E+00  0.45593999997E+02  0.45594000000E+02  0.51100000000E-03 0.  1.
         11   -1    0    0    0    0 -0.00000000000E+00 -0.00000000000E+00 -0.45593999997E+02  0.45594000000E+02  0.51100000000E-03 0. -1.
         23    2    1    2    0    0  0.14210854715E-13  0.88817841970E-15  0.35527136788E-14  0.91188000000E+02  0.91188000000E+02 0.  0.
    9900012    2    3    3    0    0 -0.38670155822E+02 -0.41704012895E+01 -0.11848758871E+02  0.50528852382E+02  0.29999977302E+02 0.  0.
         12    1    3    3    0    0  0.38670155822E+02  0.41704012895E+01  0.11848758871E+02  0.40659147618E+02  0.00000000000E+00 0. -1.
         11    1    4    4    0    0 -0.19064011646E+00  0.30701471771E+01  0.71970142277E+00  0.31591324350E+01  0.51100000000E-03 0. -1.
        -11    1    4    4    0    0 -0.26570772497E+02 -0.40617214666E+01  0.35130012985E+01  0.27108019307E+02  0.51100000000E-03 0.  1.
         12    1    4    4    0    0 -0.11908743208E+02 -0.31788269999E+01 -0.16081461592E+02  0.20261700640E+02  0.00000000000E+00 0. -1.
</event>
<event>
 8    1  0.9870402E-014  0.9118800E+02  0.7816164E-02  0.1184000E+00
        -11   -1    0    0    0    0  0.00000000000E+00  0.00000000000E+00  0.45593999997E+02  0.45594000000E+02  0.51100000000E-03 0.  1.
         11   -1    0    0    0    0 -0.00000000000E+00 -0.00000000000E+00 -0.45593999997E+02  0.45594000000E+02  0.51100000000E-03 0. -1.
         23    2    1    2    0    0  0.00000000000E+00  0.00000000000E+00  0.00000000000E+00  0.91188000000E+02  0.91188000000E+02 0.  0.
    9900012    2    3    3    0    0 -0.40378688350E+02  0.39709308502E+01  0.26372666595E+01  0.50528905813E+02  0.30000139708E+02 0.  0.
        -12    1    3    3    0    0  0.40378688350E+02 -0.39709308502E+01 -0.26372666595E+01  0.40659094187E+02  0.00000000000E+00 0.  1.
         11    1    4    4    0    0 -0.75983404225E+01 -0.15370264187E+01 -0.25557087391E+01  0.81626512120E+01  0.51100000000E-03 0. -1.
        -11    1    4    4    0    0  0.41682563858E+01  0.75485421931E-01 -0.14899506605E+01  0.44271901449E+01  0.51100000000E-03 0.  1.
         12    1    4    4    0    0 -0.36948604313E+02  0.54324718470E+01  0.66829260591E+01  0.37939064456E+02  0.00000000000E+00 0. -1.
</event>
<event>
 8    1  0.9893208E-014  0.9118800E+02  0.7816164E-02  0.1184000E+00
        -11   -1    0    0    0    0  0.00000000000E+00  0.00000000000E+00  0.45593999997E+02  0.45594000000E+02  0.51100000000E-03 0. -1.
         11   -1    0    0    0    0 -0.00000000000E+00 -0.00000000000E+00 -0.45593999997E+02  0.45594000000E+02  0.51100000000E-03 0.  1.
         23    2    1    2    0    0 -0.88817841970E-15  0.71054273576E-14  0.35527136788E-14  0.91188000000E+02  0.91188000000E+02 0.  0.
    9900012    2    3    3    0    0  0.42573452567E+01 -0.36074063436E+02 -0.18267505382E+02  0.50528870714E+02  0.30000033021E+02 0.  0.
         12    1    3    3    0    0 -0.42573452567E+01  0.36074063436E+02  0.18267505382E+02  0.40659129286E+02  0.00000000000E+00 0. -1.
         11    1    4    4    0    0 -0.39598444809E+01 -0.13273677769E+02 -0.10992673020E+02  0.17683601166E+02  0.51100000000E-03 0. -1.
        -11    1    4    4    0    0  0.74598118994E+01 -0.23077439333E+02 -0.12688548563E+02  0.27371815151E+02  0.51100000000E-03 0.  1.
         12    1    4    4    0    0  0.75737783820E+00  0.27705366492E+00  0.54137162016E+01  0.54734543968E+01  0.00000000000E+00 0. -1.
</event>
<event>
 8    1  0.9870402E-014  0.9118800E+02  0.7816164E-02  0.1184000E+00
        -11   -1    0    0    0    0  0.00000000000E+00  0.00000000000E+00  0.45593999997E+02  0.45594000000E+02  0.51100000000E-03 0. -1.
         11   -1    0    0    0    0 -0.00000000000E+00 -0.00000000000E+00 -0.45593999997E+02  0.45594000000E+02  0.51100000000E-03 0.  1.
         23    2    1    2    0    0 -0.35527136788E-14  0.66613381478E-15 -0.35527136788E-14  0.91188000000E+02  0.91188000000E+02 0.  0.
    9900012    2    3    3    0    0 -0.31358903565E+02 -0.19170262011E+01  0.25809089889E+02  0.50528868884E+02  0.30000027458E+02 0.  0.
        -12    1    3    3    0    0  0.31358903565E+02  0.19170262011E+01 -0.25809089889E+02  0.40659131116E+02  0.00000000000E+00 0.  1.
         11    1    4    4    0    0  0.13847114408E+01 -0.60746692576E+01  0.10990336703E+02  0.12633547937E+02  0.51100000000E-03 0.  1.
        -11    1    4    4    0    0 -0.15491654665E+02  0.14106150714E+01  0.13108663330E+02  0.20342523288E+02  0.51100000000E-03 0. -1.
        -12    1    4    4    0    0 -0.17251960340E+02  0.27470279850E+01  0.17100898556E+01  0.17552797659E+02  0.00000000000E+00 0.  1.
</event>
<event>
 8    1  0.9870402E-014  0.9118800E+02  0.7816164E-02  0.1184000E+00
        -11   -1    0    0    0    0  0.00000000000E+00  0.00000000000E+00  0.45593999997E+02  0.45594000000E+02  0.51100000000E-03 0. -1.
         11   -1    0    0    0    0 -0.00000000000E+00 -0.00000000000E+00 -0.45593999997E+02  0.45594000000E+02  0.51100000000E-03 0.  1.
         23    2    1    2    0    0  0.00000000000E+00  0.00000000000E+00  0.00000000000E+00  0.91188000000E+02  0.91188000000E+02 0.  0.
    9900012    2    3    3    0    0  0.18650697226E+02 -0.41950494070E+01 -0.35884795139E+02  0.50528862421E+02  0.30000007814E+02 0.  0.
         12    1    3    3    0    0 -0.18650697226E+02  0.41950494070E+01  0.35884795139E+02  0.40659137579E+02  0.00000000000E+00 0. -1.
         11    1    4    4    0    0  0.15135055513E+02 -0.47248028713E+01 -0.78591451019E+01  0.17696322486E+02  0.51100000000E-03 0. -1.
        -11    1    4    4    0    0  0.82164809885E+01  0.56668788631E+01 -0.18662150933E+02  0.21163646982E+02  0.51100000000E-03 0.  1.
        -12    1    4    4    0    0 -0.47008392755E+01 -0.51371253987E+01 -0.93634991039E+01  0.11668892952E+02  0.00000000000E+00 0.  1.
</event>
<event>
 8    1  0.9870402E-014  0.9118800E+02  0.7816164E-02  0.1184000E+00
        -11   -1    0    0    0    0  0.00000000000E+00  0.00000000000E+00  0.45593999997E+02  0.45594000000E+02  0.51100000000E-03 0.  1.
         11   -1    0    0    0    0 -0.00000000000E+00 -0.00000000000E+00 -0.45593999997E+02  0.45594000000E+02  0.51100000000E-03 0. -1.
         23    2    1    2    0    0  0.00000000000E+00  0.35527136788E-14  0.00000000000E+00  0.91188000000E+02  0.91188000000E+02 0.  0.
    9900012    2    3    3    0    0 -0.20787285946E+02  0.18250714212E+02 -0.29798711915E+02  0.50528892066E+02  0.30000097923E+02 0.  0.
         12    1    3    3    0    0  0.20787285946E+02 -0.18250714212E+02  0.29798711915E+02  0.40659107934E+02  0.00000000000E+00 0. -1.
         11    1    4    4    0    0  0.16734291422E+01 -0.13901778526E+01 -0.42333147998E+00  0.22163414355E+01  0.51100000000E-03 0. -1.
        -11    1    4    4    0    0 -0.13604064210E+02  0.31560268479E+00 -0.21589691022E+01  0.13777928579E+02  0.51100000000E-03 0.  1.
        -12    1    4    4    0    0 -0.88566508779E+01  0.19325289380E+02 -0.27216411332E+02  0.34534622051E+02  0.00000000000E+00 0.  1.
</event>
<event>
 8    1  0.9870402E-014  0.9118800E+02  0.7816164E-02  0.1184000E+00
        -11   -1    0    0    0    0  0.00000000000E+00  0.00000000000E+00  0.45593999997E+02  0.45594000000E+02  0.51100000000E-03 0. -1.
         11   -1    0    0    0    0 -0.00000000000E+00 -0.00000000000E+00 -0.45593999997E+02  0.45594000000E+02  0.51100000000E-03 0.  1.
         23    2    1    2    0    0  0.00000000000E+00  0.00000000000E+00  0.00000000000E+00  0.91188000000E+02  0.91188000000E+02 0.  0.
    9900012    2    3    3    0    0  0.35699495720E+02  0.17771776923E+02 -0.79288559435E+01  0.50528968946E+02  0.30000331608E+02 0.  0.
         12    1    3    3    0    0 -0.35699495720E+02 -0.17771776923E+02  0.79288559435E+01  0.40659031054E+02  0.00000000000E+00 0. -1.
         11    1    4    4    0    0 -0.36583854970E+01  0.20135712655E+01 -0.29935746995E+01  0.51380680638E+01  0.51100000000E-03 0. -1.
        -11    1    4    4    0    0  0.26599622043E+02  0.29195045051E+01 -0.53378349572E+01  0.27286551297E+02  0.51100000000E-03 0.  1.
         12    1    4    4    0    0  0.12758259173E+02  0.12838701153E+02  0.40255371319E+00  0.18104349585E+02  0.00000000000E+00 0. -1.
</event>
<event>
 8    1  0.9870402E-014  0.9118800E+02  0.7816164E-02  0.1184000E+00
        -11   -1    0    0    0    0  0.00000000000E+00  0.00000000000E+00  0.45593999997E+02  0.45594000000E+02  0.51100000000E-03 0. -1.
         11   -1    0    0    0    0 -0.00000000000E+00 -0.00000000000E+00 -0.45593999997E+02  0.45594000000E+02  0.51100000000E-03 0.  1.
         23    2    1    2    0    0  0.17763568394E-14  0.00000000000E+00  0.35527136788E-14  0.91188000000E+02  0.91188000000E+02 0.  0.
    9900012    2    3    3    0    0 -0.84008192854E+01  0.34784047106E+02 -0.19304456406E+02  0.50528859147E+02  0.29999997864E+02 0.  0.
         12    1    3    3    0    0  0.84008192854E+01 -0.34784047106E+02  0.19304456406E+02  0.40659140853E+02  0.00000000000E+00 0. -1.
         11    1    4    4    0    0  0.49412988021E+01  0.18675319704E+02 -0.14578361987E+02  0.24201500747E+02  0.51100000000E-03 0. -1.
        -11    1    4    4    0    0 -0.34973153838E+01  0.15160788616E+02 -0.52562721342E+01  0.16422823246E+02  0.51100000000E-03 0.  1.
        -12    1    4    4    0    0 -0.98448027038E+01  0.94793878586E+00  0.53017771520E+00  0.99045351545E+01  0.00000000000E+00 0.  1.
</event>
<event>
 8    1  0.9870402E-014  0.9118800E+02  0.7816164E-02  0.1184000E+00
        -11   -1    0    0    0    0  0.00000000000E+00  0.00000000000E+00  0.45593999997E+02  0.45594000000E+02  0.51100000000E-03 0. -1.
         11   -1    0    0    0    0 -0.00000000000E+00 -0.00000000000E+00 -0.45593999997E+02  0.45594000000E+02  0.51100000000E-03 0.  1.
         23    2    1    2    0    0  0.35527136788E-14  0.00000000000E+00 -0.35527136788E-14  0.91188000000E+02  0.91188000000E+02 0.  0.
    9900012    2    3    3    0    0  0.19208155781E+02 -0.18517414837E+02 -0.30680910241E+02  0.50528853994E+02  0.29999982200E+02 0.  0.
         12    1    3    3    0    0 -0.19208155781E+02  0.18517414837E+02  0.30680910241E+02  0.40659146006E+02  0.00000000000E+00 0. -1.
         11    1    4    4    0    0 -0.34268220272E+00 -0.43079385548E+00  0.75430440669E+00  0.93380396072E+00  0.51100000000E-03 0. -1.
        -11    1    4    4    0    0  0.18701706560E+02 -0.11124210554E+02 -0.35388760529E+02  0.41543546560E+02  0.51100000000E-03 0.  1.
        -12    1    4    4    0    0  0.84913142365E+00 -0.69624104278E+01  0.39535458821E+01  0.80515034734E+01  0.00000000000E+00 0.  1.
</event>
<event>
 8    1  0.9870402E-014  0.9118800E+02  0.7816164E-02  0.1184000E+00
        -11   -1    0    0    0    0  0.00000000000E+00  0.00000000000E+00  0.45593999997E+02  0.45594000000E+02  0.51100000000E-03 0. -1.
         11   -1    0    0    0    0 -0.00000000000E+00 -0.00000000000E+00 -0.45593999997E+02  0.45594000000E+02  0.51100000000E-03 0.  1.
         23    2    1    2    0    0  0.00000000000E+00  0.00000000000E+00  0.00000000000E+00  0.91188000000E+02  0.91188000000E+02 0.  0.
    9900012    2    3    3    0    0  0.89988097116E+01  0.33844760380E+02 -0.20657186581E+02  0.50528859099E+02  0.29999997717E+02 0.  0.
         12    1    3    3    0    0 -0.89988097116E+01 -0.33844760380E+02  0.20657186581E+02  0.40659140901E+02  0.00000000000E+00 0. -1.
         11    1    4    4    0    0 -0.12089501535E+01  0.11032037038E+02  0.11802193158E+01  0.11160659460E+02  0.51100000000E-03 0. -1.
        -11    1    4    4    0    0 -0.19622983378E+01  0.18908353864E+02 -0.17591097430E+02  0.25900254240E+02  0.51100000000E-03 0.  1.
        -12    1    4    4    0    0  0.12170058203E+02  0.39043694772E+01 -0.42463084665E+01  0.13467945399E+02  0.00000000000E+00 0.  1.
</event>
<event>
 8    1  0.9870402E-014  0.9118800E+02  0.7816164E-02  0.1184000E+00
        -11   -1    0    0    0    0  0.00000000000E+00  0.00000000000E+00  0.45593999997E+02  0.45594000000E+02  0.51100000000E-03 0.  1.
         11   -1    0    0    0    0 -0.00000000000E+00 -0.00000000000E+00 -0.45593999997E+02  0.45594000000E+02  0.51100000000E-03 0. -1.
         23    2    1    2    0    0 -0.17763568394E-14 -0.71054273576E-14  0.00000000000E+00  0.91188000000E+02  0.91188000000E+02 0.  0.
    9900012    2    3    3    0    0 -0.73037493829E+01 -0.38874387157E+02  0.94129032205E+01  0.50528862295E+02  0.30000007431E+02 0.  0.
        -12    1    3    3    0    0  0.73037493829E+01  0.38874387157E+02 -0.94129032205E+01  0.40659137705E+02  0.00000000000E+00 0.  1.
         11    1    4    4    0    0 -0.64688049469E+01 -0.20084537536E+02 -0.23412685258E+01  0.21230064155E+02  0.51100000000E-03 0. -1.
        -11    1    4    4    0    0 -0.64392594159E+01 -0.19430182658E+02  0.11859971746E+02  0.23657028343E+02  0.51100000000E-03 0.  1.
         12    1    4    4    0    0  0.56043149799E+01  0.64033303680E+00 -0.10579999929E+00  0.56417697961E+01  0.00000000000E+00 0. -1.
</event>
<event>
 8    1  0.9870402E-014  0.9118800E+02  0.7816164E-02  0.1184000E+00
        -11   -1    0    0    0    0  0.00000000000E+00  0.00000000000E+00  0.45593999997E+02  0.45594000000E+02  0.51100000000E-03 0. -1.
         11   -1    0    0    0    0 -0.00000000000E+00 -0.00000000000E+00 -0.45593999997E+02  0.45594000000E+02  0.51100000000E-03 0.  1.
         23    2    1    2    0    0  0.00000000000E+00 -0.44408920985E-15  0.00000000000E+00  0.91188000000E+02  0.91188000000E+02 0.  0.
    9900012    2    3    3    0    0 -0.15274899700E+02 -0.85401856288E+00 -0.37671115099E+02  0.50528870382E+02  0.30000032012E+02 0.  0.
         12    1    3    3    0    0  0.15274899700E+02  0.85401856288E+00  0.37671115099E+02  0.40659129618E+02  0.00000000000E+00 0. -1.
         11    1    4    4    0    0  0.25158251271E+01  0.25884454758E+01 -0.52453651516E+00  0.36475423052E+01  0.51100000000E-03 0. -1.
        -11    1    4    4    0    0 -0.16804646535E+02  0.63749863090E+01 -0.18548333926E+02  0.25827839385E+02  0.51100000000E-03 0.  1.
        -12    1    4    4    0    0 -0.98607829136E+00 -0.98174503477E+01 -0.18598244658E+02  0.21053488692E+02  0.00000000000E+00 0.  1.
</event>
<event>
 8    1  0.9870402E-014  0.9118800E+02  0.7816164E-02  0.1184000E+00
        -11   -1    0    0    0    0  0.00000000000E+00  0.00000000000E+00  0.45593999997E+02  0.45594000000E+02  0.51100000000E-03 0. -1.
         11   -1    0    0    0    0 -0.00000000000E+00 -0.00000000000E+00 -0.45593999997E+02  0.45594000000E+02  0.51100000000E-03 0.  1.
         23    2    1    2    0    0  0.00000000000E+00  0.71054273576E-14  0.00000000000E+00  0.91188000000E+02  0.91188000000E+02 0.  0.
    9900012    2    3    3    0    0  0.64003481240E+01 -0.36215939446E+02 -0.17338014017E+02  0.50528862576E+02  0.30000008285E+02 0.  0.
         12    1    3    3    0    0 -0.64003481240E+01  0.36215939446E+02  0.17338014017E+02  0.40659137424E+02  0.00000000000E+00 0. -1.
         11    1    4    4    0    0  0.67278268497E+00 -0.12288619254E+02 -0.32691001739E+01  0.12733806027E+02  0.51100000000E-03 0.  1.
        -11    1    4    4    0    0  0.10905878803E+02 -0.12307095078E+02  0.27856598607E+01  0.16678209821E+02  0.51100000000E-03 0. -1.
         12    1    4    4    0    0 -0.51783133636E+01 -0.11620225113E+02 -0.16854573704E+02  0.21116846728E+02  0.00000000000E+00 0. -1.
</event>
<event>
 8    1  0.9870402E-014  0.9118800E+02  0.7816164E-02  0.1184000E+00
        -11   -1    0    0    0    0  0.00000000000E+00  0.00000000000E+00  0.45593999997E+02  0.45594000000E+02  0.51100000000E-03 0. -1.
         11   -1    0    0    0    0 -0.00000000000E+00 -0.00000000000E+00 -0.45593999997E+02  0.45594000000E+02  0.51100000000E-03 0.  1.
         23    2    1    2    0    0  0.35527136788E-14  0.35527136788E-14  0.00000000000E+00  0.91188000000E+02  0.91188000000E+02 0.  0.
    9900012    2    3    3    0    0 -0.30212728719E+02 -0.25314370295E+02 -0.99769337254E+01  0.50528861708E+02  0.30000005649E+02 0.  0.
         12    1    3    3    0    0  0.30212728719E+02  0.25314370295E+02  0.99769337254E+01  0.40659138292E+02  0.00000000000E+00 0. -1.
         11    1    4    4    0    0  0.26119279142E+01 -0.39373993072E+01 -0.32781893124E+01  0.57508091745E+01  0.51100000000E-03 0.  1.
        -11    1    4    4    0    0 -0.16977324428E+02 -0.14708733734E+01 -0.89255844733E+01  0.19236919495E+02  0.51100000000E-03 0. -1.
         12    1    4    4    0    0 -0.15847332205E+02 -0.19906097614E+02  0.22268400603E+01  0.25541133039E+02  0.00000000000E+00 0. -1.
</event>
<event>
 8    1  0.9870402E-014  0.9118800E+02  0.7816164E-02  0.1184000E+00
        -11   -1    0    0    0    0  0.00000000000E+00  0.00000000000E+00  0.45593999997E+02  0.45594000000E+02  0.51100000000E-03 0.  1.
         11   -1    0    0    0    0 -0.00000000000E+00 -0.00000000000E+00 -0.45593999997E+02  0.45594000000E+02  0.51100000000E-03 0. -1.
         23    2    1    2    0    0  0.17763568394E-14  0.00000000000E+00  0.35527136788E-14  0.91188000000E+02  0.91188000000E+02 0.  0.
    9900012    2    3    3    0    0  0.88503212838E+01 -0.28749898405E+02  0.27354727114E+02  0.50528856617E+02  0.29999990174E+02 0.  0.
        -12    1    3    3    0    0 -0.88503212838E+01  0.28749898405E+02 -0.27354727114E+02  0.40659143383E+02  0.00000000000E+00 0.  1.
         11    1    4    4    0    0  0.15127892271E+01 -0.61280837378E+01 -0.34684912857E+00  0.63215699096E+01  0.51100000000E-03 0. -1.
        -11    1    4    4    0    0  0.13745220077E+02 -0.24107978492E+02  0.20863279741E+02  0.34718901823E+02  0.51100000000E-03 0.  1.
        -12    1    4    4    0    0 -0.64076880208E+01  0.14861638247E+01  0.68382965009E+01  0.94883848847E+01  0.00000000000E+00 0.  1.
</event>
<event>
 8    1  0.9870402E-014  0.9118800E+02  0.7816164E-02  0.1184000E+00
        -11   -1    0    0    0    0  0.00000000000E+00  0.00000000000E+00  0.45593999997E+02  0.45594000000E+02  0.51100000000E-03 0. -1.
         11   -1    0    0    0    0 -0.00000000000E+00 -0.00000000000E+00 -0.45593999997E+02  0.45594000000E+02  0.51100000000E-03 0.  1.
         23    2    1    2    0    0  0.00000000000E+00  0.17763568394E-14  0.35527136788E-14  0.91188000000E+02  0.91188000000E+02 0.  0.
    9900012    2    3    3    0    0  0.27851641023E+02 -0.94695322877E+01 -0.28067452794E+02  0.50528833066E+02  0.29999918589E+02 0.  0.
         12    1    3    3    0    0 -0.27851641023E+02  0.94695322877E+01  0.28067452794E+02  0.40659166934E+02  0.00000000000E+00 0. -1.
         11    1    4    4    0    0  0.18271270664E+02 -0.41724258648E+01 -0.12949288798E+02  0.22780091087E+02  0.51100000000E-03 0. -1.
        -11    1    4    4    0    0  0.94444149127E+01 -0.56178181579E+01 -0.20018354699E+02  0.22836185737E+02  0.51100000000E-03 0.  1.
         12    1    4    4    0    0  0.13595544555E+00  0.32071173509E+00  0.49001907037E+01  0.49125562422E+01  0.00000000000E+00 0. -1.
</event>
<event>
 8    1  0.9870402E-014  0.9118800E+02  0.7816164E-02  0.1184000E+00
        -11   -1    0    0    0    0  0.00000000000E+00  0.00000000000E+00  0.45593999997E+02  0.45594000000E+02  0.51100000000E-03 0. -1.
         11   -1    0    0    0    0 -0.00000000000E+00 -0.00000000000E+00 -0.45593999997E+02  0.45594000000E+02  0.51100000000E-03 0.  1.
         23    2    1    2    0    0 -0.17763568394E-14 -0.35527136788E-14  0.00000000000E+00  0.91188000000E+02  0.91188000000E+02 0.  0.
    9900012    2    3    3    0    0  0.95818179656E+01  0.20040231949E+02  0.34055008177E+02  0.50528859404E+02  0.29999998645E+02 0.  0.
        -12    1    3    3    0    0 -0.95818179656E+01 -0.20040231949E+02 -0.34055008177E+02  0.40659140596E+02  0.00000000000E+00 0.  1.
         11    1    4    4    0    0  0.57777874087E+01  0.11054199720E+02  0.53957621037E+01  0.13590158488E+02  0.51100000000E-03 0. -1.
        -11    1    4    4    0    0  0.10024899686E+02 -0.23585001896E+01  0.14112226023E+02  0.17470433894E+02  0.51100000000E-03 0.  1.
        -12    1    4    4    0    0 -0.62208691290E+01  0.11344532418E+02  0.14547020050E+02  0.19468267022E+02  0.00000000000E+00 0.  1.
</event>
<event>
 8    1  0.9870402E-014  0.9118800E+02  0.7816164E-02  0.1184000E+00
        -11   -1    0    0    0    0  0.00000000000E+00  0.00000000000E+00  0.45593999997E+02  0.45594000000E+02  0.51100000000E-03 0. -1.
         11   -1    0    0    0    0 -0.00000000000E+00 -0.00000000000E+00 -0.45593999997E+02  0.45594000000E+02  0.51100000000E-03 0.  1.
         23    2    1    2    0    0 -0.53290705182E-14  0.00000000000E+00 -0.71054273576E-14  0.91188000000E+02  0.91188000000E+02 0.  0.
    9900012    2    3    3    0    0  0.11268743527E+02  0.24699618620E+01  0.38988203615E+02  0.50528864331E+02  0.30000013620E+02 0.  0.
        -12    1    3    3    0    0 -0.11268743527E+02 -0.24699618620E+01 -0.38988203615E+02  0.40659135669E+02  0.00000000000E+00 0.  1.
         11    1    4    4    0    0  0.10594070238E+01 -0.37911953599E+01  0.17986462512E+02  0.18412179107E+02  0.51100000000E-03 0. -1.
        -11    1    4    4    0    0  0.15128554690E+02  0.10312417087E+01  0.19633693286E+02  0.24807630656E+02  0.51100000000E-03 0.  1.
        -12    1    4    4    0    0 -0.49192181865E+01  0.52299155132E+01  0.13680478159E+01  0.73090545673E+01  0.00000000000E+00 0.  1.
</event>
<event>
 8    1  0.9870402E-014  0.9118800E+02  0.7816164E-02  0.1184000E+00
        -11   -1    0    0    0    0  0.00000000000E+00  0.00000000000E+00  0.45593999997E+02  0.45594000000E+02  0.51100000000E-03 0. -1.
         11   -1    0    0    0    0 -0.00000000000E+00 -0.00000000000E+00 -0.45593999997E+02  0.45594000000E+02  0.51100000000E-03 0.  1.
         23    2    1    2    0    0  0.00000000000E+00 -0.17763568394E-14  0.71054273576E-14  0.91188000000E+02  0.91188000000E+02 0.  0.
    9900012    2    3    3    0    0 -0.74632940789E+01 -0.14110140493E+02  0.37394656180E+02  0.50528964915E+02  0.30000319354E+02 0.  0.
        -12    1    3    3    0    0  0.74632940789E+01  0.14110140493E+02 -0.37394656180E+02  0.40659035085E+02  0.00000000000E+00 0.  1.
         11    1    4    4    0    0  0.64831253851E+01 -0.39849060146E+01  0.77889027176E+01  0.10889324888E+02  0.51100000000E-03 0. -1.
        -11    1    4    4    0    0 -0.64556627550E+01  0.55882970100E+01  0.66091415089E+01  0.10797471779E+02  0.51100000000E-03 0.  1.
        -12    1    4    4    0    0 -0.74907567091E+01 -0.15713531488E+02  0.22996611954E+02  0.28842168248E+02  0.00000000000E+00 0.  1.
</event>
<event>
 8    1  0.1486404E-013  0.9118800E+02  0.7816164E-02  0.1184000E+00
        -11   -1    0    0    0    0  0.00000000000E+00  0.00000000000E+00  0.45593999997E+02  0.45594000000E+02  0.51100000000E-03 0. -1.
         11   -1    0    0    0    0 -0.00000000000E+00 -0.00000000000E+00 -0.45593999997E+02  0.45594000000E+02  0.51100000000E-03 0.  1.
         23    2    1    2    0    0  0.88817841970E-15  0.00000000000E+00  0.00000000000E+00  0.91188000000E+02  0.91188000000E+02 0.  0.
    9900012    2    3    3    0    0  0.41497190640E+01  0.24317707449E+02 -0.32320192587E+02  0.50528856960E+02  0.29999991217E+02 0.  0.
         12    1    3    3    0    0 -0.41497190640E+01 -0.24317707449E+02  0.32320192587E+02  0.40659143040E+02  0.00000000000E+00 0. -1.
         11    1    4    4    0    0  0.47725608733E+01  0.23728524971E+02 -0.17278653551E+02  0.29738394432E+02  0.51100000000E-03 0. -1.
        -11    1    4    4    0    0  0.14290169006E+01  0.45269326596E+01 -0.15608238274E+02  0.16314175152E+02  0.51100000000E-03 0.  1.
         12    1    4    4    0    0 -0.20518587099E+01 -0.39377501816E+01  0.56669923776E+00  0.44762873773E+01  0.00000000000E+00 0. -1.
</event>
<event>
 8    1  0.9870402E-014  0.9118800E+02  0.7816164E-02  0.1184000E+00
        -11   -1    0    0    0    0  0.00000000000E+00  0.00000000000E+00  0.45593999997E+02  0.45594000000E+02  0.51100000000E-03 0. -1.
         11   -1    0    0    0    0 -0.00000000000E+00 -0.00000000000E+00 -0.45593999997E+02  0.45594000000E+02  0.51100000000E-03 0.  1.
         23    2    1    2    0    0  0.00000000000E+00  0.00000000000E+00  0.00000000000E+00  0.91188000000E+02  0.91188000000E+02 0.  0.
    9900012    2    3    3    0    0 -0.54410359180E+01  0.16650823275E+02 -0.36692113343E+02  0.50528856266E+02  0.29999989107E+02 0.  0.
         12    1    3    3    0    0  0.54410359180E+01 -0.16650823275E+02  0.36692113343E+02  0.40659143734E+02  0.00000000000E+00 0. -1.
         11    1    4    4    0    0  0.10705687531E+02  0.13141213281E+02 -0.21895358117E+02  0.27689527611E+02  0.51100000000E-03 0. -1.
        -11    1    4    4    0    0 -0.38537922398E+01  0.13786977484E+01 -0.95164369411E+00  0.42021599316E+01  0.51100000000E-03 0.  1.
        -12    1    4    4    0    0 -0.12292931209E+02  0.21309122459E+01 -0.13845111532E+02  0.18637168724E+02  0.00000000000E+00 0.  1.
</event>
<event>
 8    1  0.9870402E-014  0.9118800E+02  0.7816164E-02  0.1184000E+00
        -11   -1    0    0    0    0  0.00000000000E+00  0.00000000000E+00  0.45593999997E+02  0.45594000000E+02  0.51100000000E-03 0.  1.
         11   -1    0    0    0    0 -0.00000000000E+00 -0.00000000000E+00 -0.45593999997E+02  0.45594000000E+02  0.51100000000E-03 0. -1.
         23    2    1    2    0    0  0.00000000000E+00  0.00000000000E+00  0.00000000000E+00  0.91188000000E+02  0.91188000000E+02 0.  0.
    9900012    2    3    3    0    0 -0.36235204523E+02  0.56869250101E+01 -0.17545215986E+02  0.50528858754E+02  0.29999996669E+02 0.  0.
         12    1    3    3    0    0  0.36235204523E+02 -0.56869250101E+01  0.17545215986E+02  0.40659141246E+02  0.00000000000E+00 0. -1.
         11    1    4    4    0    0 -0.44899874218E+00 -0.96905648242E+00  0.21785343951E+01  0.24262486906E+01  0.51100000000E-03 0.  1.
        -11    1    4    4    0    0 -0.30896307824E+02  0.47279763938E+01 -0.39845605686E+01  0.31508924468E+02  0.51100000000E-03 0. -1.
         12    1    4    4    0    0 -0.48898979561E+01  0.19280050987E+01 -0.15739189812E+02  0.16593685595E+02  0.00000000000E+00 0. -1.
</event>
<event>
 8    1  0.9870402E-014  0.9118800E+02  0.7816164E-02  0.1184000E+00
        -11   -1    0    0    0    0  0.00000000000E+00  0.00000000000E+00  0.45593999997E+02  0.45594000000E+02  0.51100000000E-03 0. -1.
         11   -1    0    0    0    0 -0.00000000000E+00 -0.00000000000E+00 -0.45593999997E+02  0.45594000000E+02  0.51100000000E-03 0.  1.
         23    2    1    2    0    0 -0.35527136788E-14  0.35527136788E-14  0.35527136788E-14  0.91188000000E+02  0.91188000000E+02 0.  0.
    9900012    2    3    3    0    0 -0.12187178425E+02  0.24226612025E+02  0.30293726890E+02  0.50528856661E+02  0.29999990306E+02 0.  0.
        -12    1    3    3    0    0  0.12187178425E+02 -0.24226612025E+02 -0.30293726890E+02  0.40659143339E+02  0.00000000000E+00 0.  1.
         11    1    4    4    0    0  0.41518209275E+01  0.10840625955E+02  0.44208672768E+01  0.12421789559E+02  0.51100000000E-03 0. -1.
        -11    1    4    4    0    0  0.31161184604E+01 -0.11198150726E+01  0.55079560520E+01  0.64266445513E+01  0.51100000000E-03 0.  1.
         12    1    4    4    0    0 -0.19455117813E+02  0.14505801142E+02  0.20364903562E+02  0.31680422551E+02  0.00000000000E+00 0. -1.
</event>
<event>
 8    1  0.9870402E-014  0.9118800E+02  0.7816164E-02  0.1184000E+00
        -11   -1    0    0    0    0  0.00000000000E+00  0.00000000000E+00  0.45593999997E+02  0.45594000000E+02  0.51100000000E-03 0. -1.
         11   -1    0    0    0    0 -0.00000000000E+00 -0.00000000000E+00 -0.45593999997E+02  0.45594000000E+02  0.51100000000E-03 0.  1.
         23    2    1    2    0    0  0.17763568394E-14 -0.35527136788E-14 -0.35527136788E-14  0.91188000000E+02  0.91188000000E+02 0.  0.
    9900012    2    3    3    0    0 -0.90858194799E+01  0.24497461570E+02  0.31152667154E+02  0.50528850847E+02  0.29999972635E+02 0.  0.
        -12    1    3    3    0    0  0.90858194799E+01 -0.24497461570E+02 -0.31152667154E+02  0.40659149153E+02  0.00000000000E+00 0.  1.
         11    1    4    4    0    0 -0.83295926302E+01  0.84076081717E+01  0.11280727867E+02  0.16350070643E+02  0.51100000000E-03 0. -1.
        -11    1    4    4    0    0 -0.69203851052E+01  0.12852220724E+02  0.16719453264E+01  0.14692403104E+02  0.51100000000E-03 0.  1.
        -12    1    4    4    0    0  0.61641582555E+01  0.32376326748E+01  0.18199993961E+02  0.19486377101E+02  0.00000000000E+00 0.  1.
</event>
<event>
 8    1  0.9870402E-014  0.9118800E+02  0.7816164E-02  0.1184000E+00
        -11   -1    0    0    0    0  0.00000000000E+00  0.00000000000E+00  0.45593999997E+02  0.45594000000E+02  0.51100000000E-03 0. -1.
         11   -1    0    0    0    0 -0.00000000000E+00 -0.00000000000E+00 -0.45593999997E+02  0.45594000000E+02  0.51100000000E-03 0.  1.
         23    2    1    2    0    0 -0.71054273576E-14  0.17763568394E-14 -0.17763568394E-14  0.91188000000E+02  0.91188000000E+02 0.  0.
    9900012    2    3    3    0    0  0.37922557787E+02 -0.14611717154E+02 -0.12407917156E+01  0.50528902231E+02  0.30000128822E+02 0.  0.
        -12    1    3    3    0    0 -0.37922557787E+02  0.14611717154E+02  0.12407917156E+01  0.40659097769E+02  0.00000000000E+00 0.  1.
         11    1    4    4    0    0  0.11619383935E+01 -0.10128302925E+02  0.37257837829E+01  0.10854219734E+02  0.51100000000E-03 0. -1.
        -11    1    4    4    0    0  0.15049671451E+02 -0.58075531184E+01  0.31911309090E+01  0.16443953319E+02  0.51100000000E-03 0.  1.
        -12    1    4    4    0    0  0.21710947942E+02  0.13241388894E+01 -0.81577064076E+01  0.23230729179E+02  0.00000000000E+00 0.  1.
</event>
<event>
 8    1  0.9870402E-014  0.9118800E+02  0.7816164E-02  0.1184000E+00
        -11   -1    0    0    0    0  0.00000000000E+00  0.00000000000E+00  0.45593999997E+02  0.45594000000E+02  0.51100000000E-03 0. -1.
         11   -1    0    0    0    0 -0.00000000000E+00 -0.00000000000E+00 -0.45593999997E+02  0.45594000000E+02  0.51100000000E-03 0.  1.
         23    2    1    2    0    0  0.00000000000E+00  0.00000000000E+00  0.00000000000E+00  0.91188000000E+02  0.91188000000E+02 0.  0.
    9900012    2    3    3    0    0  0.22639016272E+02  0.13287118724E+02  0.31049861135E+02  0.50528850251E+02  0.29999970824E+02 0.  0.
        -12    1    3    3    0    0 -0.22639016272E+02 -0.13287118724E+02 -0.31049861135E+02  0.40659149749E+02  0.00000000000E+00 0.  1.
         11    1    4    4    0    0  0.13378086630E+02  0.10488296302E+02 -0.37416352478E+00  0.17003457290E+02  0.51100000000E-03 0.  1.
        -11    1    4    4    0    0  0.48587085027E+01  0.48118055143E+01  0.18818155788E+02  0.20022075520E+02  0.51100000000E-03 0. -1.
        -12    1    4    4    0    0  0.44022211398E+01 -0.20129830930E+01  0.12605868872E+02  0.13503317441E+02  0.00000000000E+00 0.  1.
</event>
<event>
 8    1  0.9870402E-014  0.9118800E+02  0.7816164E-02  0.1184000E+00
        -11   -1    0    0    0    0  0.00000000000E+00  0.00000000000E+00  0.45593999997E+02  0.45594000000E+02  0.51100000000E-03 0. -1.
         11   -1    0    0    0    0 -0.00000000000E+00 -0.00000000000E+00 -0.45593999997E+02  0.45594000000E+02  0.51100000000E-03 0.  1.
         23    2    1    2    0    0 -0.22204460493E-15  0.00000000000E+00 -0.71054273576E-14  0.91188000000E+02  0.91188000000E+02 0.  0.
    9900012    2    3    3    0    0  0.15539438814E+01  0.25611444848E+01  0.40548631081E+02  0.50528859758E+02  0.29999999720E+02 0.  0.
        -12    1    3    3    0    0 -0.15539438814E+01 -0.25611444848E+01 -0.40548631081E+02  0.40659140242E+02  0.00000000000E+00 0.  1.
         11    1    4    4    0    0 -0.66991721084E+01  0.60853006494E+01  0.16145632263E+02  0.18509220199E+02  0.51100000000E-03 0. -1.
        -11    1    4    4    0    0 -0.19703944268E+01  0.28915725909E+01  0.18038119845E+02  0.18374368398E+02  0.51100000000E-03 0.  1.
         12    1    4    4    0    0  0.10223510417E+02 -0.64157287556E+01  0.63648789738E+01  0.13645271161E+02  0.00000000000E+00 0. -1.
</event>
<event>
 8    1  0.9870402E-014  0.9118800E+02  0.7816164E-02  0.1184000E+00
        -11   -1    0    0    0    0  0.00000000000E+00  0.00000000000E+00  0.45593999997E+02  0.45594000000E+02  0.51100000000E-03 0. -1.
         11   -1    0    0    0    0 -0.00000000000E+00 -0.00000000000E+00 -0.45593999997E+02  0.45594000000E+02  0.51100000000E-03 0.  1.
         23    2    1    2    0    0  0.00000000000E+00 -0.35527136788E-14  0.00000000000E+00  0.91188000000E+02  0.91188000000E+02 0.  0.
    9900012    2    3    3    0    0  0.25237293232E+02 -0.17919785039E+02  0.26365243855E+02  0.50528858973E+02  0.29999997334E+02 0.  0.
        -12    1    3    3    0    0 -0.25237293232E+02  0.17919785039E+02 -0.26365243855E+02  0.40659141027E+02  0.00000000000E+00 0.  1.
         11    1    4    4    0    0  0.23345313198E+01 -0.82634246657E+01  0.20421419862E+01  0.88263564307E+01  0.51100000000E-03 0. -1.
        -11    1    4    4    0    0 -0.48811566670E-01 -0.10702469034E+02  0.98716327985E+01  0.14560026112E+02  0.51100000000E-03 0.  1.
        -12    1    4    4    0    0  0.22951573479E+02  0.10461086609E+01  0.14451469070E+02  0.27142476431E+02  0.00000000000E+00 0.  1.
</event>
<event>
 8    1  0.9870402E-014  0.9118800E+02  0.7816164E-02  0.1184000E+00
        -11   -1    0    0    0    0  0.00000000000E+00  0.00000000000E+00  0.45593999997E+02  0.45594000000E+02  0.51100000000E-03 0. -1.
         11   -1    0    0    0    0 -0.00000000000E+00 -0.00000000000E+00 -0.45593999997E+02  0.45594000000E+02  0.51100000000E-03 0.  1.
         23    2    1    2    0    0  0.00000000000E+00  0.88817841970E-15  0.00000000000E+00  0.91188000000E+02  0.91188000000E+02 0.  0.
    9900012    2    3    3    0    0  0.65720028161E+01 -0.56991269771E+01 -0.39717683841E+02  0.50528859835E+02  0.29999999954E+02 0.  0.
         12    1    3    3    0    0 -0.65720028161E+01  0.56991269771E+01  0.39717683841E+02  0.40659140165E+02  0.00000000000E+00 0. -1.
         11    1    4    4    0    0  0.76513390697E-01 -0.29715600621E+01 -0.23553182927E+02  0.23740017897E+02  0.51100000000E-03 0.  1.
        -11    1    4    4    0    0 -0.70139337595E+00 -0.10641598895E+02 -0.81726539721E+01  0.13436065381E+02  0.51100000000E-03 0. -1.
         12    1    4    4    0    0  0.71968828013E+01  0.79140319801E+01 -0.79918469416E+01  0.13352776557E+02  0.00000000000E+00 0. -1.
</event>
<event>
 8    1  0.9870402E-014  0.9118800E+02  0.7816164E-02  0.1184000E+00
        -11   -1    0    0    0    0  0.00000000000E+00  0.00000000000E+00  0.45593999997E+02  0.45594000000E+02  0.51100000000E-03 0. -1.
         11   -1    0    0    0    0 -0.00000000000E+00 -0.00000000000E+00 -0.45593999997E+02  0.45594000000E+02  0.51100000000E-03 0.  1.
         23    2    1    2    0    0  0.35527136788E-14  0.00000000000E+00  0.00000000000E+00  0.91188000000E+02  0.91188000000E+02 0.  0.
    9900012    2    3    3    0    0 -0.18804884051E+02  0.12230542981E+02  0.33910994505E+02  0.50528863337E+02  0.30000010601E+02 0.  0.
        -12    1    3    3    0    0  0.18804884051E+02 -0.12230542981E+02 -0.33910994505E+02  0.40659136663E+02  0.00000000000E+00 0.  1.
         11    1    4    4    0    0 -0.18246205126E+02  0.10199872644E+02  0.13316039445E+02  0.24784638593E+02  0.51100000000E-03 0. -1.
        -11    1    4    4    0    0  0.19024129422E+01 -0.10000971809E+01 -0.19268429230E+01  0.28865365553E+01  0.51100000000E-03 0.  1.
        -12    1    4    4    0    0 -0.24610918678E+01  0.30307675181E+01  0.22521797984E+02  0.22857688189E+02  0.00000000000E+00 0.  1.
</event>
<event>
 8    1  0.9870402E-014  0.9118800E+02  0.7816164E-02  0.1184000E+00
        -11   -1    0    0    0    0  0.00000000000E+00  0.00000000000E+00  0.45593999997E+02  0.45594000000E+02  0.51100000000E-03 0.  1.
         11   -1    0    0    0    0 -0.00000000000E+00 -0.00000000000E+00 -0.45593999997E+02  0.45594000000E+02  0.51100000000E-03 0. -1.
         23    2    1    2    0    0  0.00000000000E+00  0.00000000000E+00  0.00000000000E+00  0.91188000000E+02  0.91188000000E+02 0.  0.
    9900012    2    3    3    0    0 -0.38698754943E+02  0.11247020101E+02 -0.53922583204E+01  0.50528861481E+02  0.30000004958E+02 0.  0.
         12    1    3    3    0    0  0.38698754943E+02 -0.11247020101E+02  0.53922583204E+01  0.40659138519E+02  0.00000000000E+00 0. -1.
         11    1    4    4    0    0  0.22220926591E+01  0.33863383869E+01  0.21485334611E+01  0.45848860128E+01  0.51100000000E-03 0. -1.
        -11    1    4    4    0    0 -0.81098828349E+01 -0.43527495966E+01  0.24712139126E+01  0.95301378326E+01  0.51100000000E-03 0.  1.
         12    1    4    4    0    0 -0.32810964767E+02  0.12213431311E+02 -0.10012005694E+02  0.36413837636E+02  0.00000000000E+00 0. -1.
</event>
<event>
 8    1  0.9870402E-014  0.9118800E+02  0.7816164E-02  0.1184000E+00
        -11   -1    0    0    0    0  0.00000000000E+00  0.00000000000E+00  0.45593999997E+02  0.45594000000E+02  0.51100000000E-03 0. -1.
         11   -1    0    0    0    0 -0.00000000000E+00 -0.00000000000E+00 -0.45593999997E+02  0.45594000000E+02  0.51100000000E-03 0.  1.
         23    2    1    2    0    0  0.00000000000E+00 -0.33306690739E-15  0.00000000000E+00  0.91188000000E+02  0.91188000000E+02 0.  0.
    9900012    2    3    3    0    0  0.23415605833E+02  0.53458239315E+00 -0.33235358509E+02  0.50528862895E+02  0.30000009257E+02 0.  0.
         12    1    3    3    0    0 -0.23415605833E+02 -0.53458239315E+00  0.33235358509E+02  0.40659137105E+02  0.00000000000E+00 0. -1.
         11    1    4    4    0    0  0.98080858392E+01 -0.48840774854E+01 -0.18496604105E+01  0.11111885736E+02  0.51100000000E-03 0. -1.
        -11    1    4    4    0    0  0.18027488371E+02  0.27753376557E+01 -0.27349055401E+02  0.32873449282E+02  0.51100000000E-03 0.  1.
        -12    1    4    4    0    0 -0.44199683768E+01  0.26433222229E+01 -0.40366426971E+01  0.65435278780E+01  0.00000000000E+00 0.  1.
</event>
<event>
 8    1  0.9870402E-014  0.9118800E+02  0.7816164E-02  0.1184000E+00
        -11   -1    0    0    0    0  0.00000000000E+00  0.00000000000E+00  0.45593999997E+02  0.45594000000E+02  0.51100000000E-03 0. -1.
         11   -1    0    0    0    0 -0.00000000000E+00 -0.00000000000E+00 -0.45593999997E+02  0.45594000000E+02  0.51100000000E-03 0.  1.
         23    2    1    2    0    0 -0.35527136788E-14  0.00000000000E+00 -0.17763568394E-14  0.91188000000E+02  0.91188000000E+02 0.  0.
    9900012    2    3    3    0    0 -0.27006221797E+02 -0.26401437576E+02  0.15059619854E+02  0.50528879597E+02  0.30000060022E+02 0.  0.
        -12    1    3    3    0    0  0.27006221797E+02  0.26401437576E+02 -0.15059619854E+02  0.40659120403E+02  0.00000000000E+00 0.  1.
         11    1    4    4    0    0 -0.52053982897E-01  0.29913626100E+00  0.10109201651E+02  0.10113760448E+02  0.51100000000E-03 0. -1.
        -11    1    4    4    0    0 -0.13121424358E+02 -0.17857880200E+02  0.82921842020E+01  0.23660853356E+02  0.51100000000E-03 0.  1.
        -12    1    4    4    0    0 -0.13832743456E+02 -0.88426936367E+01 -0.33417659987E+01  0.16754265793E+02  0.00000000000E+00 0.  1.
</event>
<event>
 8    1  0.9870402E-014  0.9118800E+02  0.7816164E-02  0.1184000E+00
        -11   -1    0    0    0    0  0.00000000000E+00  0.00000000000E+00  0.45593999997E+02  0.45594000000E+02  0.51100000000E-03 0. -1.
         11   -1    0    0    0    0 -0.00000000000E+00 -0.00000000000E+00 -0.45593999997E+02  0.45594000000E+02  0.51100000000E-03 0.  1.
         23    2    1    2    0    0  0.88817841970E-15  0.00000000000E+00  0.00000000000E+00  0.91188000000E+02  0.91188000000E+02 0.  0.
    9900012    2    3    3    0    0 -0.67832042888E+01  0.22736353137E+02 -0.33018352621E+02  0.50528865427E+02  0.30000016952E+02 0.  0.
         12    1    3    3    0    0  0.67832042888E+01 -0.22736353137E+02  0.33018352621E+02  0.40659134573E+02  0.00000000000E+00 0. -1.
         11    1    4    4    0    0  0.13366545207E+01  0.94118901556E+01 -0.94593770137E+00  0.95532779717E+01  0.51100000000E-03 0. -1.
        -11    1    4    4    0    0 -0.70970142133E+01 -0.48916929143E+00 -0.13030667766E+01  0.72322113233E+01  0.51100000000E-03 0.  1.
        -12    1    4    4    0    0 -0.10228445963E+01  0.13813632273E+02 -0.30769348143E+02  0.33743376132E+02  0.00000000000E+00 0.  1.
</event>
<event>
 8    1  0.9870402E-014  0.9118800E+02  0.7816164E-02  0.1184000E+00
        -11   -1    0    0    0    0  0.00000000000E+00  0.00000000000E+00  0.45593999997E+02  0.45594000000E+02  0.51100000000E-03 0. -1.
         11   -1    0    0    0    0 -0.00000000000E+00 -0.00000000000E+00 -0.45593999997E+02  0.45594000000E+02  0.51100000000E-03 0.  1.
         23    2    1    2    0    0  0.00000000000E+00  0.00000000000E+00  0.35527136788E-14  0.91188000000E+02  0.91188000000E+02 0.  0.
    9900012    2    3    3    0    0 -0.16744407856E+02  0.27180968692E+02  0.25179063924E+02  0.50528861869E+02  0.30000006137E+02 0.  0.
        -12    1    3    3    0    0  0.16744407856E+02 -0.27180968692E+02 -0.25179063924E+02  0.40659138131E+02  0.00000000000E+00 0.  1.
         11    1    4    4    0    0 -0.15600332248E+02  0.22850437996E+02  0.13038764701E+02  0.30586308506E+02  0.51100000000E-03 0. -1.
        -11    1    4    4    0    0 -0.59155274134E+01  0.76987719572E+01  0.93137381806E+01  0.13454005849E+02  0.51100000000E-03 0.  1.
        -12    1    4    4    0    0  0.47714518047E+01 -0.33682412612E+01  0.28265610416E+01  0.64885475140E+01  0.00000000000E+00 0.  1.
</event>
<event>
 8    1  0.9870402E-014  0.9118800E+02  0.7816164E-02  0.1184000E+00
        -11   -1    0    0    0    0  0.00000000000E+00  0.00000000000E+00  0.45593999997E+02  0.45594000000E+02  0.51100000000E-03 0. -1.
         11   -1    0    0    0    0 -0.00000000000E+00 -0.00000000000E+00 -0.45593999997E+02  0.45594000000E+02  0.51100000000E-03 0.  1.
         23    2    1    2    0    0  0.00000000000E+00 -0.88817841970E-15  0.00000000000E+00  0.91188000000E+02  0.91188000000E+02 0.  0.
    9900012    2    3    3    0    0 -0.19492176824E+02  0.51570394684E+01 -0.35307599243E+02  0.50528848783E+02  0.29999966359E+02 0.  0.
         12    1    3    3    0    0  0.19492176824E+02 -0.51570394684E+01  0.35307599243E+02  0.40659151217E+02  0.00000000000E+00 0. -1.
         11    1    4    4    0    0 -0.85615800527E+01 -0.15505072848E+01 -0.24954103812E+02  0.26427486130E+02  0.51100000000E-03 0. -1.
        -11    1    4    4    0    0 -0.12573384427E+02 -0.21370128490E+01 -0.56340960183E+01  0.13942734957E+02  0.51100000000E-03 0.  1.
         12    1    4    4    0    0  0.16427876561E+01  0.88445596022E+01 -0.47193994132E+01  0.10158627696E+02  0.00000000000E+00 0. -1.
</event>
<event>
 8    1  0.9870402E-014  0.9118800E+02  0.7816164E-02  0.1184000E+00
        -11   -1    0    0    0    0  0.00000000000E+00  0.00000000000E+00  0.45593999997E+02  0.45594000000E+02  0.51100000000E-03 0. -1.
         11   -1    0    0    0    0 -0.00000000000E+00 -0.00000000000E+00 -0.45593999997E+02  0.45594000000E+02  0.51100000000E-03 0.  1.
         23    2    1    2    0    0 -0.88817841970E-15  0.00000000000E+00  0.00000000000E+00  0.91188000000E+02  0.91188000000E+02 0.  0.
    9900012    2    3    3    0    0 -0.64693163633E+01  0.15006064253E+02 -0.37230787100E+02  0.50528861708E+02  0.30000005646E+02 0.  0.
         12    1    3    3    0    0  0.64693163633E+01 -0.15006064253E+02  0.37230787100E+02  0.40659138292E+02  0.00000000000E+00 0. -1.
         11    1    4    4    0    0  0.35670369177E+01  0.69715430717E+01 -0.95366760609E+00  0.78889573036E+01  0.51100000000E-03 0. -1.
        -11    1    4    4    0    0 -0.67348076020E+01  0.14030638899E+02 -0.25226094713E+02  0.29640720573E+02  0.51100000000E-03 0.  1.
        -12    1    4    4    0    0 -0.33015456790E+01 -0.59961177179E+01 -0.11051024781E+02  0.12999183831E+02  0.00000000000E+00 0.  1.
</event>
<event>
 8    1  0.9870402E-014  0.9118800E+02  0.7816164E-02  0.1184000E+00
        -11   -1    0    0    0    0  0.00000000000E+00  0.00000000000E+00  0.45593999997E+02  0.45594000000E+02  0.51100000000E-03 0. -1.
         11   -1    0    0    0    0 -0.00000000000E+00 -0.00000000000E+00 -0.45593999997E+02  0.45594000000E+02  0.51100000000E-03 0.  1.
         23    2    1    2    0    0  0.71054273576E-14  0.35527136788E-14  0.00000000000E+00  0.91188000000E+02  0.91188000000E+02 0.  0.
    9900012    2    3    3    0    0 -0.25321342967E+02 -0.17768601006E+02 -0.26386966127E+02  0.50528861141E+02  0.30000003925E+02 0.  0.
         12    1    3    3    0    0  0.25321342967E+02  0.17768601006E+02  0.26386966127E+02  0.40659138859E+02  0.00000000000E+00 0. -1.
         11    1    4    4    0    0 -0.18687381126E+02 -0.11816515632E+02 -0.26755963948E+02  0.34709218690E+02  0.51100000000E-03 0. -1.
        -11    1    4    4    0    0 -0.70896527525E+01  0.21659023979E+01 -0.12814388321E+01  0.75230575625E+01  0.51100000000E-03 0.  1.
         12    1    4    4    0    0  0.45569091167E+00 -0.81179877714E+01  0.16504366532E+01  0.82965848884E+01  0.00000000000E+00 0. -1.
</event>
<event>
 8    1  0.9870402E-014  0.9118800E+02  0.7816164E-02  0.1184000E+00
        -11   -1    0    0    0    0  0.00000000000E+00  0.00000000000E+00  0.45593999997E+02  0.45594000000E+02  0.51100000000E-03 0. -1.
         11   -1    0    0    0    0 -0.00000000000E+00 -0.00000000000E+00 -0.45593999997E+02  0.45594000000E+02  0.51100000000E-03 0.  1.
         23    2    1    2    0    0  0.35527136788E-14 -0.35527136788E-14  0.00000000000E+00  0.91188000000E+02  0.91188000000E+02 0.  0.
    9900012    2    3    3    0    0 -0.14115721232E+02  0.25849661692E+02 -0.28030492699E+02  0.50528842158E+02  0.29999946223E+02 0.  0.
         12    1    3    3    0    0  0.14115721232E+02 -0.25849661692E+02  0.28030492699E+02  0.40659157842E+02  0.00000000000E+00 0. -1.
         11    1    4    4    0    0 -0.14674171919E+02  0.22297576639E+02 -0.20693770437E+02  0.33774922363E+02  0.51100000000E-03 0. -1.
        -11    1    4    4    0    0 -0.37535356277E+01  0.18564147245E+01 -0.10391919787E+02  0.11203896754E+02  0.51100000000E-03 0.  1.
        -12    1    4    4    0    0  0.43119863142E+01  0.16956703285E+01  0.30551975254E+01  0.55500230410E+01  0.00000000000E+00 0.  1.
</event>
<event>
 8    1  0.9870402E-014  0.9118800E+02  0.7816164E-02  0.1184000E+00
        -11   -1    0    0    0    0  0.00000000000E+00  0.00000000000E+00  0.45593999997E+02  0.45594000000E+02  0.51100000000E-03 0. -1.
         11   -1    0    0    0    0 -0.00000000000E+00 -0.00000000000E+00 -0.45593999997E+02  0.45594000000E+02  0.51100000000E-03 0.  1.
         23    2    1    2    0    0  0.00000000000E+00 -0.35527136788E-14  0.35527136788E-14  0.91188000000E+02  0.91188000000E+02 0.  0.
    9900012    2    3    3    0    0  0.16816743703E+02 -0.26130371929E+02  0.26221494664E+02  0.50528856031E+02  0.29999988390E+02 0.  0.
        -12    1    3    3    0    0 -0.16816743703E+02  0.26130371929E+02 -0.26221494664E+02  0.40659143969E+02  0.00000000000E+00 0.  1.
         11    1    4    4    0    0  0.19326204142E+02 -0.20057620090E+02  0.12477903330E+02  0.30520621914E+02  0.51100000000E-03 0. -1.
        -11    1    4    4    0    0 -0.24500529220E+01 -0.80329583662E+01  0.27440134265E+01  0.88352017170E+01  0.51100000000E-03 0.  1.
        -12    1    4    4    0    0 -0.59407516597E-01  0.19602065273E+01  0.10999577907E+02  0.11173032400E+02  0.00000000000E+00 0.  1.
</event>
<event>
 8    1  0.9870402E-014  0.9118800E+02  0.7816164E-02  0.1184000E+00
        -11   -1    0    0    0    0  0.00000000000E+00  0.00000000000E+00  0.45593999997E+02  0.45594000000E+02  0.51100000000E-03 0. -1.
         11   -1    0    0    0    0 -0.00000000000E+00 -0.00000000000E+00 -0.45593999997E+02  0.45594000000E+02  0.51100000000E-03 0.  1.
         23    2    1    2    0    0  0.35527136788E-14  0.88817841970E-15  0.00000000000E+00  0.91188000000E+02  0.91188000000E+02 0.  0.
    9900012    2    3    3    0    0 -0.19243427382E+02 -0.23855616770E+01 -0.35737445029E+02  0.50528863522E+02  0.30000011161E+02 0.  0.
         12    1    3    3    0    0  0.19243427382E+02  0.23855616770E+01  0.35737445029E+02  0.40659136478E+02  0.00000000000E+00 0. -1.
         11    1    4    4    0    0  0.16650757776E+01  0.18953055458E+01 -0.15100352357E+01  0.29402154907E+01  0.51100000000E-03 0. -1.
        -11    1    4    4    0    0 -0.11106867832E+02  0.57072039146E+01 -0.30721063854E+02  0.33162003169E+02  0.51100000000E-03 0.  1.
        -12    1    4    4    0    0 -0.98016353278E+01 -0.99880711374E+01 -0.35063459392E+01  0.14426644863E+02  0.00000000000E+00 0.  1.
</event>
<event>
 8    1  0.9870402E-014  0.9118800E+02  0.7816164E-02  0.1184000E+00
        -11   -1    0    0    0    0  0.00000000000E+00  0.00000000000E+00  0.45593999997E+02  0.45594000000E+02  0.51100000000E-03 0. -1.
         11   -1    0    0    0    0 -0.00000000000E+00 -0.00000000000E+00 -0.45593999997E+02  0.45594000000E+02  0.51100000000E-03 0.  1.
         23    2    1    2    0    0 -0.35527136788E-14  0.00000000000E+00  0.00000000000E+00  0.91188000000E+02  0.91188000000E+02 0.  0.
    9900012    2    3    3    0    0 -0.28892048512E+02 -0.56155716822E+01 -0.28051393680E+02  0.50528858348E+02  0.29999995433E+02 0.  0.
         12    1    3    3    0    0  0.28892048512E+02  0.56155716822E+01  0.28051393680E+02  0.40659141652E+02  0.00000000000E+00 0. -1.
         11    1    4    4    0    0 -0.16227104962E+01  0.32884553525E+01  0.21591216214E+01  0.42554593638E+01  0.51100000000E-03 0. -1.
        -11    1    4    4    0    0 -0.20539311809E+01 -0.44079204972E+01 -0.16540687961E+02  0.17240729534E+02  0.51100000000E-03 0.  1.
         12    1    4    4    0    0 -0.25215406835E+02 -0.44961065375E+01 -0.13669827341E+02  0.29032669449E+02  0.00000000000E+00 0. -1.
</event>
<event>
 8    1  0.9870402E-014  0.9118800E+02  0.7816164E-02  0.1184000E+00
        -11   -1    0    0    0    0  0.00000000000E+00  0.00000000000E+00  0.45593999997E+02  0.45594000000E+02  0.51100000000E-03 0. -1.
         11   -1    0    0    0    0 -0.00000000000E+00 -0.00000000000E+00 -0.45593999997E+02  0.45594000000E+02  0.51100000000E-03 0.  1.
         23    2    1    2    0    0 -0.35527136788E-14 -0.35527136788E-14  0.00000000000E+00  0.91188000000E+02  0.91188000000E+02 0.  0.
    9900012    2    3    3    0    0 -0.18434466165E+02  0.17940516253E+02 -0.31487682399E+02  0.50528858235E+02  0.29999995090E+02 0.  0.
         12    1    3    3    0    0  0.18434466165E+02 -0.17940516253E+02  0.31487682399E+02  0.40659141765E+02  0.00000000000E+00 0. -1.
         11    1    4    4    0    0 -0.20633371492E+02  0.66503420732E+01 -0.17718719320E+02  0.27998501450E+02  0.51100000000E-03 0. -1.
        -11    1    4    4    0    0 -0.33173482389E+01  0.83886279701E+01 -0.13569521376E+02  0.16294348382E+02  0.51100000000E-03 0.  1.
        -12    1    4    4    0    0  0.55162535660E+01  0.29015462093E+01 -0.19944170351E+00  0.62360084030E+01  0.00000000000E+00 0.  1.
</event>
<event>
 8    1  0.9870402E-014  0.9118800E+02  0.7816164E-02  0.1184000E+00
        -11   -1    0    0    0    0  0.00000000000E+00  0.00000000000E+00  0.45593999997E+02  0.45594000000E+02  0.51100000000E-03 0. -1.
         11   -1    0    0    0    0 -0.00000000000E+00 -0.00000000000E+00 -0.45593999997E+02  0.45594000000E+02  0.51100000000E-03 0.  1.
         23    2    1    2    0    0  0.00000000000E+00  0.00000000000E+00  0.00000000000E+00  0.91188000000E+02  0.91188000000E+02 0.  0.
    9900012    2    3    3    0    0  0.41334657596E+01  0.16006531029E+02 -0.37146620292E+02  0.50528856208E+02  0.29999988930E+02 0.  0.
         12    1    3    3    0    0 -0.41334657596E+01 -0.16006531029E+02  0.37146620292E+02  0.40659143792E+02  0.00000000000E+00 0. -1.
         11    1    4    4    0    0 -0.60751517436E+01  0.79640810040E+01 -0.12089385633E+02  0.15699914018E+02  0.51100000000E-03 0. -1.
        -11    1    4    4    0    0  0.76320877695E+01  0.81150682639E+01 -0.28458561497E+02  0.30561296102E+02  0.51100000000E-03 0.  1.
        -12    1    4    4    0    0  0.25765297336E+01 -0.72618239193E-01  0.34013268376E+01  0.42676460880E+01  0.00000000000E+00 0.  1.
</event>
<event>
 8    1  0.9870402E-014  0.9118800E+02  0.7816164E-02  0.1184000E+00
        -11   -1    0    0    0    0  0.00000000000E+00  0.00000000000E+00  0.45593999997E+02  0.45594000000E+02  0.51100000000E-03 0. -1.
         11   -1    0    0    0    0 -0.00000000000E+00 -0.00000000000E+00 -0.45593999997E+02  0.45594000000E+02  0.51100000000E-03 0.  1.
         23    2    1    2    0    0  0.00000000000E+00 -0.35527136788E-14  0.00000000000E+00  0.91188000000E+02  0.91188000000E+02 0.  0.
    9900012    2    3    3    0    0  0.19452960372E+02  0.20855279200E+02 -0.28979395105E+02  0.50528859842E+02  0.29999999975E+02 0.  0.
         12    1    3    3    0    0 -0.19452960372E+02 -0.20855279200E+02  0.28979395105E+02  0.40659140158E+02  0.00000000000E+00 0. -1.
         11    1    4    4    0    0  0.51920672727E+01  0.19685085353E+02 -0.12453034786E+02  0.23864999970E+02  0.51100000000E-03 0. -1.
        -11    1    4    4    0    0  0.53469248926E+00 -0.95132571625E+00  0.27191340076E+01  0.29299499464E+01  0.51100000000E-03 0.  1.
        -12    1    4    4    0    0  0.13726200610E+02  0.21215195624E+01 -0.19245494327E+02  0.23733909925E+02  0.00000000000E+00 0.  1.
</event>
<event>
 8    1  0.9870402E-014  0.9118800E+02  0.7816164E-02  0.1184000E+00
        -11   -1    0    0    0    0  0.00000000000E+00  0.00000000000E+00  0.45593999997E+02  0.45594000000E+02  0.51100000000E-03 0.  1.
         11   -1    0    0    0    0 -0.00000000000E+00 -0.00000000000E+00 -0.45593999997E+02  0.45594000000E+02  0.51100000000E-03 0. -1.
         23    2    1    2    0    0  0.00000000000E+00  0.00000000000E+00  0.00000000000E+00  0.91188000000E+02  0.91188000000E+02 0.  0.
    9900012    2    3    3    0    0  0.22524232700E+02 -0.33736327129E+02 -0.27721064541E+01  0.50528863252E+02  0.30000010340E+02 0.  0.
        -12    1    3    3    0    0 -0.22524232700E+02  0.33736327129E+02  0.27721064541E+01  0.40659136748E+02  0.00000000000E+00 0.  1.
         11    1    4    4    0    0 -0.30222637161E+00 -0.49612262107E+01  0.52553489525E+01  0.72335191412E+01  0.51100000000E-03 0. -1.
        -11    1    4    4    0    0  0.26234583630E+02 -0.20014708014E+02 -0.47359404362E+01  0.33335732289E+02  0.51100000000E-03 0.  1.
         12    1    4    4    0    0 -0.34081245585E+01 -0.87603929044E+01 -0.32915149704E+01  0.99596118220E+01  0.00000000000E+00 0. -1.
</event>
<event>
 8    1  0.9870402E-014  0.9118800E+02  0.7816164E-02  0.1184000E+00
        -11   -1    0    0    0    0  0.00000000000E+00  0.00000000000E+00  0.45593999997E+02  0.45594000000E+02  0.51100000000E-03 0. -1.
         11   -1    0    0    0    0 -0.00000000000E+00 -0.00000000000E+00 -0.45593999997E+02  0.45594000000E+02  0.51100000000E-03 0.  1.
         23    2    1    2    0    0  0.17763568394E-14 -0.35527136788E-14  0.00000000000E+00  0.91188000000E+02  0.91188000000E+02 0.  0.
    9900012    2    3    3    0    0  0.10524105356E+02  0.19915148865E+02  0.33849551609E+02  0.50528903945E+02  0.30000134032E+02 0.  0.
        -12    1    3    3    0    0 -0.10524105356E+02 -0.19915148865E+02 -0.33849551609E+02  0.40659096055E+02  0.00000000000E+00 0.  1.
         11    1    4    4    0    0  0.17420644349E+02  0.22227314999E+02  0.26030725913E+02  0.38407435132E+02  0.51100000000E-03 0. -1.
        -11    1    4    4    0    0 -0.77713888773E+00  0.24458987270E+00  0.47401866926E+01  0.48096922145E+01  0.51100000000E-03 0.  1.
         12    1    4    4    0    0 -0.61194001050E+01 -0.25567560068E+01  0.30786390029E+01  0.73117765990E+01  0.00000000000E+00 0. -1.
</event>
<event>
 8    1  0.9870402E-014  0.9118800E+02  0.7816164E-02  0.1184000E+00
        -11   -1    0    0    0    0  0.00000000000E+00  0.00000000000E+00  0.45593999997E+02  0.45594000000E+02  0.51100000000E-03 0. -1.
         11   -1    0    0    0    0 -0.00000000000E+00 -0.00000000000E+00 -0.45593999997E+02  0.45594000000E+02  0.51100000000E-03 0.  1.
         23    2    1    2    0    0  0.00000000000E+00 -0.17763568394E-14  0.00000000000E+00  0.91188000000E+02  0.91188000000E+02 0.  0.
    9900012    2    3    3    0    0 -0.15604474304E+02  0.14211419741E+02 -0.34752001768E+02  0.50528859622E+02  0.29999999309E+02 0.  0.
         12    1    3    3    0    0  0.15604474304E+02 -0.14211419741E+02  0.34752001768E+02  0.40659140378E+02  0.00000000000E+00 0. -1.
         11    1    4    4    0    0 -0.13874024999E+02  0.49182380982E+01 -0.89730049865E+01  0.17239270705E+02  0.51100000000E-03 0. -1.
        -11    1    4    4    0    0 -0.55435507691E+01  0.85716558685E+01 -0.27281005916E+02  0.29128294208E+02  0.51100000000E-03 0.  1.
        -12    1    4    4    0    0  0.38131014647E+01  0.72152577414E+00  0.15020091339E+01  0.41612947098E+01  0.00000000000E+00 0.  1.
</event>
<event>
 8    1  0.9870402E-014  0.9118800E+02  0.7816164E-02  0.1184000E+00
        -11   -1    0    0    0    0  0.00000000000E+00  0.00000000000E+00  0.45593999997E+02  0.45594000000E+02  0.51100000000E-03 0. -1.
         11   -1    0    0    0    0 -0.00000000000E+00 -0.00000000000E+00 -0.45593999997E+02  0.45594000000E+02  0.51100000000E-03 0.  1.
         23    2    1    2    0    0  0.00000000000E+00  0.00000000000E+00 -0.35527136788E-14  0.91188000000E+02  0.91188000000E+02 0.  0.
    9900012    2    3    3    0    0 -0.32053011023E+02 -0.16238067054E+02  0.19028802785E+02  0.50528859912E+02  0.30000000187E+02 0.  0.
        -12    1    3    3    0    0  0.32053011023E+02  0.16238067054E+02 -0.19028802785E+02  0.40659140088E+02  0.00000000000E+00 0.  1.
         11    1    4    4    0    0 -0.92629639952E+01 -0.17011606950E+02  0.19561717878E+01  0.19468535675E+02  0.51100000000E-03 0. -1.
        -11    1    4    4    0    0 -0.28971015128E+01  0.14137576413E+01 -0.17485488362E+01  0.36673329734E+01  0.51100000000E-03 0.  1.
         12    1    4    4    0    0 -0.19892945515E+02 -0.64021774532E+00  0.18821179833E+02  0.27392991263E+02  0.00000000000E+00 0. -1.
</event>
<event>
 8    1  0.9870402E-014  0.9118800E+02  0.7816164E-02  0.1184000E+00
        -11   -1    0    0    0    0  0.00000000000E+00  0.00000000000E+00  0.45593999997E+02  0.45594000000E+02  0.51100000000E-03 0. -1.
         11   -1    0    0    0    0 -0.00000000000E+00 -0.00000000000E+00 -0.45593999997E+02  0.45594000000E+02  0.51100000000E-03 0.  1.
         23    2    1    2    0    0 -0.26645352591E-14  0.00000000000E+00  0.00000000000E+00  0.91188000000E+02  0.91188000000E+02 0.  0.
    9900012    2    3    3    0    0 -0.16775313249E+01 -0.21306322762E+02  0.34588897679E+02  0.50528863958E+02  0.30000012487E+02 0.  0.
        -12    1    3    3    0    0  0.16775313249E+01  0.21306322762E+02 -0.34588897679E+02  0.40659136042E+02  0.00000000000E+00 0.  1.
         11    1    4    4    0    0  0.72161633815E+01 -0.37078485170E+01  0.13653409354E+02  0.15881962783E+02  0.51100000000E-03 0. -1.
        -11    1    4    4    0    0  0.37276646551E+01 -0.22956637065E+01 -0.15667970580E+01  0.46497751469E+01  0.51100000000E-03 0.  1.
        -12    1    4    4    0    0 -0.12621359362E+02 -0.15302810539E+02  0.22502285383E+02  0.29997126029E+02  0.00000000000E+00 0.  1.
</event>
<event>
 8    1  0.9870402E-014  0.9118800E+02  0.7816164E-02  0.1184000E+00
        -11   -1    0    0    0    0  0.00000000000E+00  0.00000000000E+00  0.45593999997E+02  0.45594000000E+02  0.51100000000E-03 0. -1.
         11   -1    0    0    0    0 -0.00000000000E+00 -0.00000000000E+00 -0.45593999997E+02  0.45594000000E+02  0.51100000000E-03 0.  1.
         23    2    1    2    0    0 -0.35527136788E-14  0.35527136788E-14 -0.71054273576E-14  0.91188000000E+02  0.91188000000E+02 0.  0.
    9900012    2    3    3    0    0  0.12766508428E+02 -0.22400277745E+02  0.31438958928E+02  0.50528876559E+02  0.30000050788E+02 0.  0.
        -12    1    3    3    0    0 -0.12766508428E+02  0.22400277745E+02 -0.31438958928E+02  0.40659123441E+02  0.00000000000E+00 0.  1.
         11    1    4    4    0    0  0.71585461330E+01 -0.58883517946E+01  0.12271201090E+01  0.93500424394E+01  0.51100000000E-03 0. -1.
        -11    1    4    4    0    0 -0.73691769769E+01 -0.81890794673E+00  0.59717072367E+01  0.95203291500E+01  0.51100000000E-03 0.  1.
         12    1    4    4    0    0  0.12977139272E+02 -0.15693018004E+02  0.24240131583E+02  0.31658504969E+02  0.00000000000E+00 0. -1.
</event>
<event>
 8    1  0.9870402E-014  0.9118800E+02  0.7816164E-02  0.1184000E+00
        -11   -1    0    0    0    0  0.00000000000E+00  0.00000000000E+00  0.45593999997E+02  0.45594000000E+02  0.51100000000E-03 0. -1.
         11   -1    0    0    0    0 -0.00000000000E+00 -0.00000000000E+00 -0.45593999997E+02  0.45594000000E+02  0.51100000000E-03 0.  1.
         23    2    1    2    0    0 -0.88817841970E-15  0.00000000000E+00  0.00000000000E+00  0.91188000000E+02  0.91188000000E+02 0.  0.
    9900012    2    3    3    0    0 -0.60660580313E+01  0.14635559730E+02  0.37445576153E+02  0.50528833234E+02  0.29999919098E+02 0.  0.
        -12    1    3    3    0    0  0.60660580313E+01 -0.14635559730E+02 -0.37445576153E+02  0.40659166766E+02  0.00000000000E+00 0.  1.
         11    1    4    4    0    0 -0.11290039213E+02  0.29298805740E+01  0.17159819530E+02  0.20748700976E+02  0.51100000000E-03 0. -1.
        -11    1    4    4    0    0 -0.10754767513E+01 -0.17619729998E+01 -0.20753753754E+01  0.29271799236E+01  0.51100000000E-03 0.  1.
         12    1    4    4    0    0  0.62994579332E+01  0.13467652156E+02  0.22361131999E+02  0.26852952335E+02  0.00000000000E+00 0. -1.
</event>
<event>
 8    1  0.9870402E-014  0.9118800E+02  0.7816164E-02  0.1184000E+00
        -11   -1    0    0    0    0  0.00000000000E+00  0.00000000000E+00  0.45593999997E+02  0.45594000000E+02  0.51100000000E-03 0. -1.
         11   -1    0    0    0    0 -0.00000000000E+00 -0.00000000000E+00 -0.45593999997E+02  0.45594000000E+02  0.51100000000E-03 0.  1.
         23    2    1    2    0    0  0.35527136788E-14  0.35527136788E-14  0.15404344467E-14  0.91188000000E+02  0.91188000000E+02 0.  0.
    9900012    2    3    3    0    0 -0.30059399428E+02 -0.27378615336E+02  0.99897688231E-01  0.50528855257E+02  0.29999986039E+02 0.  0.
         12    1    3    3    0    0  0.30059399428E+02  0.27378615336E+02 -0.99897688231E-01  0.40659144743E+02  0.00000000000E+00 0. -1.
         11    1    4    4    0    0 -0.87620305077E+01 -0.10556200355E+02 -0.92218100930E+01  0.16530224626E+02  0.51100000000E-03 0.  1.
        -11    1    4    4    0    0  0.21586445408E+01 -0.68642637754E+01  0.15913014545E+01  0.73695389280E+01  0.51100000000E-03 0. -1.
         12    1    4    4    0    0 -0.23456013461E+02 -0.99581512059E+01  0.77304063267E+01  0.26629091703E+02  0.00000000000E+00 0. -1.
</event>
<event>
 8    1  0.9870402E-014  0.9118800E+02  0.7816164E-02  0.1184000E+00
        -11   -1    0    0    0    0  0.00000000000E+00  0.00000000000E+00  0.45593999997E+02  0.45594000000E+02  0.51100000000E-03 0. -1.
         11   -1    0    0    0    0 -0.00000000000E+00 -0.00000000000E+00 -0.45593999997E+02  0.45594000000E+02  0.51100000000E-03 0.  1.
         23    2    1    2    0    0  0.00000000000E+00  0.00000000000E+00  0.00000000000E+00  0.91188000000E+02  0.91188000000E+02 0.  0.
    9900012    2    3    3    0    0  0.85831662341E+00  0.33279986747E+02  0.23342490412E+02  0.50528854855E+02  0.29999984816E+02 0.  0.
        -12    1    3    3    0    0 -0.85831662341E+00 -0.33279986747E+02 -0.23342490412E+02  0.40659145145E+02  0.00000000000E+00 0.  1.
         11    1    4    4    0    0 -0.36490482380E+01  0.16801183168E+02  0.92158563134E+01  0.19507109389E+02  0.51100000000E-03 0. -1.
        -11    1    4    4    0    0  0.11155896368E+02  0.17412194981E+02  0.12312117769E+02  0.24067131155E+02  0.51100000000E-03 0.  1.
         12    1    4    4    0    0 -0.66485315062E+01 -0.93339140124E+00  0.18145163297E+01  0.69546143105E+01  0.00000000000E+00 0. -1.
</event>
<event>
 8    1  0.9870402E-014  0.9118800E+02  0.7816164E-02  0.1184000E+00
        -11   -1    0    0    0    0  0.00000000000E+00  0.00000000000E+00  0.45593999997E+02  0.45594000000E+02  0.51100000000E-03 0. -1.
         11   -1    0    0    0    0 -0.00000000000E+00 -0.00000000000E+00 -0.45593999997E+02  0.45594000000E+02  0.51100000000E-03 0.  1.
         23    2    1    2    0    0  0.00000000000E+00 -0.17763568394E-14  0.00000000000E+00  0.91188000000E+02  0.91188000000E+02 0.  0.
    9900012    2    3    3    0    0 -0.20831035033E+02  0.97183815334E+01 -0.33537826679E+02  0.50528870908E+02  0.30000033612E+02 0.  0.
         12    1    3    3    0    0  0.20831035033E+02 -0.97183815334E+01  0.33537826679E+02  0.40659129092E+02  0.00000000000E+00 0. -1.
         11    1    4    4    0    0 -0.11119164430E+02  0.59791230651E+01 -0.66679343487E+01  0.14277502547E+02  0.51100000000E-03 0.  1.
        -11    1    4    4    0    0  0.67924668900E+00 -0.22362947748E+01  0.31525758912E+01  0.39244267601E+01  0.51100000000E-03 0. -1.
         12    1    4    4    0    0 -0.10391117293E+02  0.59755532431E+01 -0.30022468222E+02  0.32326941601E+02  0.00000000000E+00 0. -1.
</event>
<event>
 8    1  0.9870402E-014  0.9118800E+02  0.7816164E-02  0.1184000E+00
        -11   -1    0    0    0    0  0.00000000000E+00  0.00000000000E+00  0.45593999997E+02  0.45594000000E+02  0.51100000000E-03 0. -1.
         11   -1    0    0    0    0 -0.00000000000E+00 -0.00000000000E+00 -0.45593999997E+02  0.45594000000E+02  0.51100000000E-03 0.  1.
         23    2    1    2    0    0  0.00000000000E+00  0.00000000000E+00  0.00000000000E+00  0.91188000000E+02  0.91188000000E+02 0.  0.
    9900012    2    3    3    0    0 -0.86900351849E+01  0.75109680128E+01  0.39003003800E+02  0.50528860100E+02  0.30000000758E+02 0.  0.
        -12    1    3    3    0    0  0.86900351849E+01 -0.75109680128E+01 -0.39003003800E+02  0.40659139900E+02  0.00000000000E+00 0.  1.
         11    1    4    4    0    0  0.14169763914E+01 -0.68650532449E+01  0.50116539619E+01  0.86170443799E+01  0.51100000000E-03 0. -1.
        -11    1    4    4    0    0 -0.26696216305E+01  0.40260872242E+01 -0.76628290786E+00  0.48911601633E+01  0.51100000000E-03 0.  1.
         12    1    4    4    0    0 -0.74373899458E+01  0.10349934033E+02  0.34757632746E+02  0.37020655556E+02  0.00000000000E+00 0. -1.
</event>
<event>
 8    1  0.9870402E-014  0.9118800E+02  0.7816164E-02  0.1184000E+00
        -11   -1    0    0    0    0  0.00000000000E+00  0.00000000000E+00  0.45593999997E+02  0.45594000000E+02  0.51100000000E-03 0. -1.
         11   -1    0    0    0    0 -0.00000000000E+00 -0.00000000000E+00 -0.45593999997E+02  0.45594000000E+02  0.51100000000E-03 0.  1.
         23    2    1    2    0    0  0.44408920985E-15 -0.71054273576E-14  0.00000000000E+00  0.91188000000E+02  0.91188000000E+02 0.  0.
    9900012    2    3    3    0    0  0.28262216043E+01 -0.36466159227E+02 -0.17759440321E+02  0.50528855667E+02  0.29999987286E+02 0.  0.
         12    1    3    3    0    0 -0.28262216043E+01  0.36466159227E+02  0.17759440321E+02  0.40659144333E+02  0.00000000000E+00 0. -1.
         11    1    4    4    0    0 -0.30766459262E+01 -0.27371817131E+02 -0.17362441674E+01  0.27598852644E+02  0.51100000000E-03 0. -1.
        -11    1    4    4    0    0  0.30134824542E+01 -0.83081335075E+01 -0.26512495026E+01  0.92268782947E+01  0.51100000000E-03 0.  1.
         12    1    4    4    0    0  0.28893850764E+01 -0.78620858879E+00 -0.13371946651E+02  0.13703124728E+02  0.00000000000E+00 0. -1.
</event>
<event>
 8    1  0.9870402E-014  0.9118800E+02  0.7816164E-02  0.1184000E+00
        -11   -1    0    0    0    0  0.00000000000E+00  0.00000000000E+00  0.45593999997E+02  0.45594000000E+02  0.51100000000E-03 0.  1.
         11   -1    0    0    0    0 -0.00000000000E+00 -0.00000000000E+00 -0.45593999997E+02  0.45594000000E+02  0.51100000000E-03 0. -1.
         23    2    1    2    0    0  0.71054273576E-14 -0.35527136788E-14  0.00000000000E+00  0.91188000000E+02  0.91188000000E+02 0.  0.
    9900012    2    3    3    0    0 -0.32623532849E+02  0.23761082645E+02 -0.49273735707E+01  0.50528893340E+02  0.30000101797E+02 0.  0.
         12    1    3    3    0    0  0.32623532849E+02 -0.23761082645E+02  0.49273735707E+01  0.40659106660E+02  0.00000000000E+00 0. -1.
         11    1    4    4    0    0 -0.37394164869E+01  0.83778302553E+01 -0.68648434594E+01  0.11458505637E+02  0.51100000000E-03 0. -1.
        -11    1    4    4    0    0 -0.27035783607E+02  0.38593686928E+01  0.53342403011E+00  0.27315066601E+02  0.51100000000E-03 0.  1.
         12    1    4    4    0    0 -0.18483327551E+01  0.11523883697E+02  0.14040458586E+01  0.11755321102E+02  0.00000000000E+00 0. -1.
</event>
<event>
 8    1  0.9870402E-014  0.9118800E+02  0.7816164E-02  0.1184000E+00
        -11   -1    0    0    0    0  0.00000000000E+00  0.00000000000E+00  0.45593999997E+02  0.45594000000E+02  0.51100000000E-03 0. -1.
         11   -1    0    0    0    0 -0.00000000000E+00 -0.00000000000E+00 -0.45593999997E+02  0.45594000000E+02  0.51100000000E-03 0.  1.
         23    2    1    2    0    0  0.17763568394E-14  0.00000000000E+00 -0.17763568394E-14  0.91188000000E+02  0.91188000000E+02 0.  0.
    9900012    2    3    3    0    0  0.13926214318E+02  0.35808110592E+02  0.13304302510E+02  0.50528871939E+02  0.30000036746E+02 0.  0.
        -12    1    3    3    0    0 -0.13926214318E+02 -0.35808110592E+02 -0.13304302510E+02  0.40659128061E+02  0.00000000000E+00 0.  1.
         11    1    4    4    0    0  0.59849408691E+01  0.25938314444E+02  0.23043403219E+01  0.26719387305E+02  0.51100000000E-03 0.  1.
        -11    1    4    4    0    0 -0.70322039287E+00  0.12047193040E+02  0.49922286111E+01  0.13059545391E+02  0.51100000000E-03 0. -1.
         12    1    4    4    0    0  0.86444938414E+01 -0.21773968913E+01  0.60077335765E+01  0.10749939243E+02  0.00000000000E+00 0. -1.
</event>
<event>
 8    1  0.9870402E-014  0.9118800E+02  0.7816164E-02  0.1184000E+00
        -11   -1    0    0    0    0  0.00000000000E+00  0.00000000000E+00  0.45593999997E+02  0.45594000000E+02  0.51100000000E-03 0. -1.
         11   -1    0    0    0    0 -0.00000000000E+00 -0.00000000000E+00 -0.45593999997E+02  0.45594000000E+02  0.51100000000E-03 0.  1.
         23    2    1    2    0    0  0.22204460493E-15 -0.35527136788E-14  0.35527136788E-14  0.91188000000E+02  0.91188000000E+02 0.  0.
    9900012    2    3    3    0    0  0.17245349030E+01 -0.26389134657E+02  0.30883731431E+02  0.50528864302E+02  0.30000013532E+02 0.  0.
        -12    1    3    3    0    0 -0.17245349030E+01  0.26389134657E+02 -0.30883731431E+02  0.40659135698E+02  0.00000000000E+00 0.  1.
         11    1    4    4    0    0 -0.64428243050E+01 -0.13724059078E+02  0.12491978509E+02  0.19644574567E+02  0.51100000000E-03 0. -1.
        -11    1    4    4    0    0  0.31491598051E+01 -0.51825605567E+01  0.20711429076E+02  0.21580997105E+02  0.51100000000E-03 0.  1.
        -12    1    4    4    0    0  0.50181994029E+01 -0.74825150223E+01 -0.23196761531E+01  0.93032926301E+01  0.00000000000E+00 0.  1.
</event>
<event>
 8    1  0.9870402E-014  0.9118800E+02  0.7816164E-02  0.1184000E+00
        -11   -1    0    0    0    0  0.00000000000E+00  0.00000000000E+00  0.45593999997E+02  0.45594000000E+02  0.51100000000E-03 0.  1.
         11   -1    0    0    0    0 -0.00000000000E+00 -0.00000000000E+00 -0.45593999997E+02  0.45594000000E+02  0.51100000000E-03 0. -1.
         23    2    1    2    0    0  0.00000000000E+00  0.00000000000E+00 -0.17763568394E-14  0.91188000000E+02  0.91188000000E+02 0.  0.
    9900012    2    3    3    0    0  0.34804284336E+02 -0.17350417378E+02 -0.11865519171E+02  0.50528859126E+02  0.29999997801E+02 0.  0.
         12    1    3    3    0    0 -0.34804284336E+02  0.17350417378E+02  0.11865519171E+02  0.40659140874E+02  0.00000000000E+00 0. -1.
         11    1    4    4    0    0  0.10369652690E+02  0.49653302761E+01 -0.33089922143E+01  0.11963846848E+02  0.51100000000E-03 0. -1.
        -11    1    4    4    0    0  0.15977301756E+02 -0.56508235609E+01  0.20598995973E+01  0.17071882290E+02  0.51100000000E-03 0.  1.
         12    1    4    4    0    0  0.84573298905E+01 -0.16664924094E+02 -0.10616426554E+02  0.21493129989E+02  0.00000000000E+00 0. -1.
</event>
<event>
 8    1  0.9870402E-014  0.9118800E+02  0.7816164E-02  0.1184000E+00
        -11   -1    0    0    0    0  0.00000000000E+00  0.00000000000E+00  0.45593999997E+02  0.45594000000E+02  0.51100000000E-03 0. -1.
         11   -1    0    0    0    0 -0.00000000000E+00 -0.00000000000E+00 -0.45593999997E+02  0.45594000000E+02  0.51100000000E-03 0.  1.
         23    2    1    2    0    0  0.00000000000E+00  0.00000000000E+00  0.35527136788E-14  0.91188000000E+02  0.91188000000E+02 0.  0.
    9900012    2    3    3    0    0  0.24520903295E+02  0.20110696887E+02 -0.25445045962E+02  0.50528865827E+02  0.30000018168E+02 0.  0.
         12    1    3    3    0    0 -0.24520903295E+02 -0.20110696887E+02  0.25445045962E+02  0.40659134173E+02  0.00000000000E+00 0. -1.
         11    1    4    4    0    0  0.17502978071E+02  0.24140287508E+02 -0.23638251092E+02  0.38050947916E+02  0.51100000000E-03 0.  1.
        -11    1    4    4    0    0 -0.19392546452E+01  0.46663327862E+00 -0.14194224054E+01  0.24481044548E+01  0.51100000000E-03 0. -1.
        -12    1    4    4    0    0  0.89571798687E+01 -0.44962238992E+01 -0.38737246430E+00  0.10029813457E+02  0.00000000000E+00 0.  1.
</event>
<event>
 8    1  0.9870402E-014  0.9118800E+02  0.7816164E-02  0.1184000E+00
        -11   -1    0    0    0    0  0.00000000000E+00  0.00000000000E+00  0.45593999997E+02  0.45594000000E+02  0.51100000000E-03 0. -1.
         11   -1    0    0    0    0 -0.00000000000E+00 -0.00000000000E+00 -0.45593999997E+02  0.45594000000E+02  0.51100000000E-03 0.  1.
         23    2    1    2    0    0 -0.17763568394E-14  0.00000000000E+00  0.00000000000E+00  0.91188000000E+02  0.91188000000E+02 0.  0.
    9900012    2    3    3    0    0  0.13129973983E+02 -0.18090676284E+02  0.33963162585E+02  0.50528865750E+02  0.30000017932E+02 0.  0.
        -12    1    3    3    0    0 -0.13129973983E+02  0.18090676284E+02 -0.33963162585E+02  0.40659134250E+02  0.00000000000E+00 0.  1.
         11    1    4    4    0    0 -0.14665127499E+01 -0.46521979883E+01 -0.33117032604E+01  0.58958446819E+01  0.51100000000E-03 0.  1.
        -11    1    4    4    0    0  0.15359376785E+01 -0.10831424273E+02  0.13438991723E+02  0.17328743610E+02  0.51100000000E-03 0. -1.
         12    1    4    4    0    0  0.13060549054E+02 -0.26070540236E+01  0.23835874123E+02  0.27304277457E+02  0.00000000000E+00 0. -1.
</event>
<event>
 8    1  0.9870402E-014  0.9118800E+02  0.7816164E-02  0.1184000E+00
        -11   -1    0    0    0    0  0.00000000000E+00  0.00000000000E+00  0.45593999997E+02  0.45594000000E+02  0.51100000000E-03 0. -1.
         11   -1    0    0    0    0 -0.00000000000E+00 -0.00000000000E+00 -0.45593999997E+02  0.45594000000E+02  0.51100000000E-03 0.  1.
         23    2    1    2    0    0  0.00000000000E+00  0.00000000000E+00 -0.35527136788E-14  0.91188000000E+02  0.91188000000E+02 0.  0.
    9900012    2    3    3    0    0 -0.94790780004E+01 -0.33343941284E+02  0.21248397961E+02  0.50528858888E+02  0.29999997075E+02 0.  0.
        -12    1    3    3    0    0  0.94790780004E+01  0.33343941284E+02 -0.21248397961E+02  0.40659141112E+02  0.00000000000E+00 0.  1.
         11    1    4    4    0    0  0.24295285396E+01 -0.21745235571E+02  0.16949954321E+02  0.27677767806E+02  0.51100000000E-03 0. -1.
        -11    1    4    4    0    0  0.25618290069E+01 -0.47972896411E+01  0.41837421903E+01  0.68615344303E+01  0.51100000000E-03 0.  1.
        -12    1    4    4    0    0 -0.14470435547E+02 -0.68014160711E+01  0.11470145011E+00  0.15989556652E+02  0.00000000000E+00 0.  1.
</event>
<event>
 8    1  0.9870402E-014  0.9118800E+02  0.7816164E-02  0.1184000E+00
        -11   -1    0    0    0    0  0.00000000000E+00  0.00000000000E+00  0.45593999997E+02  0.45594000000E+02  0.51100000000E-03 0. -1.
         11   -1    0    0    0    0 -0.00000000000E+00 -0.00000000000E+00 -0.45593999997E+02  0.45594000000E+02  0.51100000000E-03 0.  1.
         23    2    1    2    0    0  0.00000000000E+00  0.00000000000E+00  0.35527136788E-14  0.91188000000E+02  0.91188000000E+02 0.  0.
    9900012    2    3    3    0    0  0.32169347193E+02  0.16862184003E+02 -0.18274699891E+02  0.50528870591E+02  0.30000032649E+02 0.  0.
         12    1    3    3    0    0 -0.32169347193E+02 -0.16862184003E+02  0.18274699891E+02  0.40659129409E+02  0.00000000000E+00 0. -1.
         11    1    4    4    0    0  0.60456421736E+01 -0.11780272309E+01 -0.11048624450E+02  0.12649491688E+02  0.51100000000E-03 0. -1.
        -11    1    4    4    0    0 -0.15144670393E+01 -0.18819002067E+01 -0.25117744536E+01  0.34848486292E+01  0.51100000000E-03 0.  1.
        -12    1    4    4    0    0  0.27638172059E+02  0.19922111441E+02 -0.47143009870E+01  0.34394530274E+02  0.00000000000E+00 0.  1.
</event>
<event>
 8    1  0.9870402E-014  0.9118800E+02  0.7816164E-02  0.1184000E+00
        -11   -1    0    0    0    0  0.00000000000E+00  0.00000000000E+00  0.45593999997E+02  0.45594000000E+02  0.51100000000E-03 0. -1.
         11   -1    0    0    0    0 -0.00000000000E+00 -0.00000000000E+00 -0.45593999997E+02  0.45594000000E+02  0.51100000000E-03 0.  1.
         23    2    1    2    0    0 -0.35527136788E-14  0.88817841970E-15  0.35527136788E-14  0.91188000000E+02  0.91188000000E+02 0.  0.
    9900012    2    3    3    0    0  0.28429870946E+02 -0.59221011521E+01 -0.28457611182E+02  0.50528874601E+02  0.30000044836E+02 0.  0.
         12    1    3    3    0    0 -0.28429870946E+02  0.59221011521E+01  0.28457611182E+02  0.40659125399E+02  0.00000000000E+00 0. -1.
         11    1    4    4    0    0  0.14809991738E+00 -0.44651436321E+01 -0.14516110654E+01  0.46975117016E+01  0.51100000000E-03 0. -1.
        -11    1    4    4    0    0  0.20006400138E+02  0.97526945791E+01 -0.21196584039E+02  0.30735423752E+02  0.51100000000E-03 0.  1.
         12    1    4    4    0    0  0.82753708906E+01 -0.11209652099E+02 -0.58094160775E+01  0.15095939147E+02  0.00000000000E+00 0. -1.
</event>
<event>
 8    1  0.9870402E-014  0.9118800E+02  0.7816164E-02  0.1184000E+00
        -11   -1    0    0    0    0  0.00000000000E+00  0.00000000000E+00  0.45593999997E+02  0.45594000000E+02  0.51100000000E-03 0.  1.
         11   -1    0    0    0    0 -0.00000000000E+00 -0.00000000000E+00 -0.45593999997E+02  0.45594000000E+02  0.51100000000E-03 0. -1.
         23    2    1    2    0    0  0.00000000000E+00 -0.17763568394E-14  0.00000000000E+00  0.91188000000E+02  0.91188000000E+02 0.  0.
    9900012    2    3    3    0    0  0.36372624615E+02  0.75862333833E+01 -0.16512040681E+02  0.50528852864E+02  0.29999978766E+02 0.  0.
         12    1    3    3    0    0 -0.36372624615E+02 -0.75862333833E+01  0.16512040681E+02  0.40659147136E+02  0.00000000000E+00 0. -1.
         11    1    4    4    0    0  0.53834697504E+01  0.88281612863E+01 -0.15675775286E+02  0.18778927268E+02  0.51100000000E-03 0. -1.
        -11    1    4    4    0    0  0.74993824384E+01  0.20352750422E+01 -0.19324081070E+01  0.80073268203E+01  0.51100000000E-03 0.  1.
         12    1    4    4    0    0  0.23489772427E+02 -0.32772029452E+01  0.10961427120E+01  0.23742598776E+02  0.00000000000E+00 0. -1.
</event>
<event>
 8    1  0.9870402E-014  0.9118800E+02  0.7816164E-02  0.1184000E+00
        -11   -1    0    0    0    0  0.00000000000E+00  0.00000000000E+00  0.45593999997E+02  0.45594000000E+02  0.51100000000E-03 0. -1.
         11   -1    0    0    0    0 -0.00000000000E+00 -0.00000000000E+00 -0.45593999997E+02  0.45594000000E+02  0.51100000000E-03 0.  1.
         23    2    1    2    0    0 -0.71054273576E-14  0.00000000000E+00  0.00000000000E+00  0.91188000000E+02  0.91188000000E+02 0.  0.
    9900012    2    3    3    0    0  0.37959170952E+02 -0.10976569455E+02 -0.95802945943E+01  0.50528858582E+02  0.29999996145E+02 0.  0.
         12    1    3    3    0    0 -0.37959170952E+02  0.10976569455E+02  0.95802945943E+01  0.40659141418E+02  0.00000000000E+00 0. -1.
         11    1    4    4    0    0 -0.26238160710E+01 -0.44682643532E-02  0.11687215904E+01  0.28723407104E+01  0.51100000000E-03 0. -1.
        -11    1    4    4    0    0  0.25710410621E+02  0.16012906585E+01 -0.11400970922E+02  0.28170400854E+02  0.51100000000E-03 0.  1.
         12    1    4    4    0    0  0.14872576402E+02 -0.12573391849E+02  0.65195473696E+00  0.19486117017E+02  0.00000000000E+00 0. -1.
</event>
<event>
 8    1  0.9870402E-014  0.9118800E+02  0.7816164E-02  0.1184000E+00
        -11   -1    0    0    0    0  0.00000000000E+00  0.00000000000E+00  0.45593999997E+02  0.45594000000E+02  0.51100000000E-03 0. -1.
         11   -1    0    0    0    0 -0.00000000000E+00 -0.00000000000E+00 -0.45593999997E+02  0.45594000000E+02  0.51100000000E-03 0.  1.
         23    2    1    2    0    0 -0.71054273576E-14 -0.13322676296E-14 -0.35527136788E-14  0.91188000000E+02  0.91188000000E+02 0.  0.
    9900012    2    3    3    0    0  0.33093053340E+02  0.20668910160E+01  0.23531757147E+02  0.50528858196E+02  0.29999994972E+02 0.  0.
        -12    1    3    3    0    0 -0.33093053340E+02 -0.20668910160E+01 -0.23531757147E+02  0.40659141804E+02  0.00000000000E+00 0.  1.
         11    1    4    4    0    0  0.13746892393E+02  0.93896105952E+01  0.57701111961E+01  0.17619194677E+02  0.51100000000E-03 0. -1.
        -11    1    4    4    0    0  0.20373246576E+02 -0.61012183620E+01  0.75401150171E+01  0.22564294278E+02  0.51100000000E-03 0.  1.
        -12    1    4    4    0    0 -0.10270856281E+01 -0.12215012173E+01  0.10221530933E+02  0.10345369241E+02  0.00000000000E+00 0.  1.
</event>
<event>
 8    1  0.9870402E-014  0.9118800E+02  0.7816164E-02  0.1184000E+00
        -11   -1    0    0    0    0  0.00000000000E+00  0.00000000000E+00  0.45593999997E+02  0.45594000000E+02  0.51100000000E-03 0. -1.
         11   -1    0    0    0    0 -0.00000000000E+00 -0.00000000000E+00 -0.45593999997E+02  0.45594000000E+02  0.51100000000E-03 0.  1.
         23    2    1    2    0    0  0.44408920985E-15 -0.38857805862E-15  0.00000000000E+00  0.91188000000E+02  0.91188000000E+02 0.  0.
    9900012    2    3    3    0    0  0.23445116815E+01 -0.37333036893E+00  0.40589770423E+02  0.50528861131E+02  0.30000003894E+02 0.  0.
        -12    1    3    3    0    0 -0.23445116815E+01  0.37333036893E+00 -0.40589770423E+02  0.40659138869E+02  0.00000000000E+00 0.  1.
         11    1    4    4    0    0  0.32175365456E+01  0.23945041802E+00  0.43173088766E+00  0.32551911995E+01  0.51100000000E-03 0. -1.
        -11    1    4    4    0    0 -0.45234231938E+01 -0.29077712198E+01 -0.13483800822E+01  0.55438813086E+01  0.51100000000E-03 0.  1.
        -12    1    4    4    0    0  0.36503983297E+01  0.22949904329E+01  0.41506419617E+02  0.41729788623E+02  0.00000000000E+00 0.  1.
</event>
<event>
 8    1  0.9870402E-014  0.9118800E+02  0.7816164E-02  0.1184000E+00
        -11   -1    0    0    0    0  0.00000000000E+00  0.00000000000E+00  0.45593999997E+02  0.45594000000E+02  0.51100000000E-03 0. -1.
         11   -1    0    0    0    0 -0.00000000000E+00 -0.00000000000E+00 -0.45593999997E+02  0.45594000000E+02  0.51100000000E-03 0.  1.
         23    2    1    2    0    0  0.71054273576E-14  0.00000000000E+00  0.35527136788E-14  0.91188000000E+02  0.91188000000E+02 0.  0.
    9900012    2    3    3    0    0  0.26161861343E+02  0.92555877661E+01  0.29716294100E+02  0.50528843235E+02  0.29999949498E+02 0.  0.
        -12    1    3    3    0    0 -0.26161861343E+02 -0.92555877661E+01 -0.29716294100E+02  0.40659156765E+02  0.00000000000E+00 0.  1.
         11    1    4    4    0    0  0.97935200655E+01  0.49057061484E+00  0.13702561560E+01  0.99010755474E+01  0.51100000000E-03 0. -1.
        -11    1    4    4    0    0  0.11217403642E+02  0.33430270828E+01  0.41442967466E+00  0.11712289561E+02  0.51100000000E-03 0.  1.
        -12    1    4    4    0    0  0.51509376354E+01  0.54219900685E+01  0.27931608269E+02  0.28915478127E+02  0.00000000000E+00 0.  1.
</event>
<event>
 8    1  0.9870402E-014  0.9118800E+02  0.7816164E-02  0.1184000E+00
        -11   -1    0    0    0    0  0.00000000000E+00  0.00000000000E+00  0.45593999997E+02  0.45594000000E+02  0.51100000000E-03 0.  1.
         11   -1    0    0    0    0 -0.00000000000E+00 -0.00000000000E+00 -0.45593999997E+02  0.45594000000E+02  0.51100000000E-03 0. -1.
         23    2    1    2    0    0  0.00000000000E+00 -0.44408920985E-15  0.00000000000E+00  0.91188000000E+02  0.91188000000E+02 0.  0.
    9900012    2    3    3    0    0  0.39763577371E+02  0.21665762152E+01  0.82053915223E+01  0.50528873253E+02  0.30000040740E+02 0.  0.
         12    1    3    3    0    0 -0.39763577371E+02 -0.21665762152E+01 -0.82053915223E+01  0.40659126747E+02  0.00000000000E+00 0. -1.
         11    1    4    4    0    0  0.22032492939E+02  0.98096534912E+01  0.41719226866E+01  0.24475804091E+02  0.51100000000E-03 0. -1.
        -11    1    4    4    0    0  0.18754135778E+02 -0.49825814723E+01 -0.18728539763E+01  0.19494904698E+02  0.51100000000E-03 0.  1.
         12    1    4    4    0    0 -0.10230513464E+01 -0.26604958038E+01  0.59063228120E+01  0.65581644642E+01  0.00000000000E+00 0. -1.
</event>
<event>
 8    1  0.9870402E-014  0.9118800E+02  0.7816164E-02  0.1184000E+00
        -11   -1    0    0    0    0  0.00000000000E+00  0.00000000000E+00  0.45593999997E+02  0.45594000000E+02  0.51100000000E-03 0. -1.
         11   -1    0    0    0    0 -0.00000000000E+00 -0.00000000000E+00 -0.45593999997E+02  0.45594000000E+02  0.51100000000E-03 0.  1.
         23    2    1    2    0    0  0.17763568394E-14  0.00000000000E+00  0.00000000000E+00  0.91188000000E+02  0.91188000000E+02 0.  0.
    9900012    2    3    3    0    0  0.79236756655E+01 -0.37582103586E+02 -0.13340420211E+02  0.50528856410E+02  0.29999989545E+02 0.  0.
         12    1    3    3    0    0 -0.79236756655E+01  0.37582103586E+02  0.13340420211E+02  0.40659143590E+02  0.00000000000E+00 0. -1.
         11    1    4    4    0    0  0.23617385754E-01  0.21159752703E+00  0.15837680332E+01  0.15980152498E+01  0.51100000000E-03 0. -1.
        -11    1    4    4    0    0  0.81881438551E+01 -0.30685083761E+02  0.69637997976E+00  0.31766413247E+02  0.51100000000E-03 0.  1.
        -12    1    4    4    0    0 -0.28808557539E+00 -0.71086173522E+01 -0.15620568224E+02  0.17164427914E+02  0.00000000000E+00 0.  1.
</event>
<event>
 8    1  0.9870402E-014  0.9118800E+02  0.7816164E-02  0.1184000E+00
        -11   -1    0    0    0    0  0.00000000000E+00  0.00000000000E+00  0.45593999997E+02  0.45594000000E+02  0.51100000000E-03 0.  1.
         11   -1    0    0    0    0 -0.00000000000E+00 -0.00000000000E+00 -0.45593999997E+02  0.45594000000E+02  0.51100000000E-03 0. -1.
         23    2    1    2    0    0  0.71054273576E-14  0.00000000000E+00  0.88817841970E-15  0.91188000000E+02  0.91188000000E+02 0.  0.
    9900012    2    3    3    0    0  0.33988632657E+02 -0.21957013717E+02  0.39783867424E+01  0.50528866188E+02  0.30000019265E+02 0.  0.
        -12    1    3    3    0    0 -0.33988632657E+02  0.21957013717E+02 -0.39783867424E+01  0.40659133812E+02  0.00000000000E+00 0.  1.
         11    1    4    4    0    0  0.17914777048E+02 -0.26585232629E+02  0.55960249803E+01  0.32542730778E+02  0.51100000000E-03 0.  1.
        -11    1    4    4    0    0  0.36647180372E+01  0.31672980247E+01 -0.25175405154E+01  0.54589326409E+01  0.51100000000E-03 0. -1.
        -12    1    4    4    0    0  0.12409137572E+02  0.14609208873E+01  0.89990227758E+00  0.12527202769E+02  0.00000000000E+00 0.  1.
</event>
<event>
 8    1  0.9870402E-014  0.9118800E+02  0.7816164E-02  0.1184000E+00
        -11   -1    0    0    0    0  0.00000000000E+00  0.00000000000E+00  0.45593999997E+02  0.45594000000E+02  0.51100000000E-03 0. -1.
         11   -1    0    0    0    0 -0.00000000000E+00 -0.00000000000E+00 -0.45593999997E+02  0.45594000000E+02  0.51100000000E-03 0.  1.
         23    2    1    2    0    0 -0.88817841970E-15  0.71054273576E-14  0.00000000000E+00  0.91188000000E+02  0.91188000000E+02 0.  0.
    9900012    2    3    3    0    0 -0.57838690043E+01 -0.34176235507E+02  0.21253170761E+02  0.50528862263E+02  0.30000007335E+02 0.  0.
        -12    1    3    3    0    0  0.57838690043E+01  0.34176235507E+02 -0.21253170761E+02  0.40659137737E+02  0.00000000000E+00 0.  1.
         11    1    4    4    0    0  0.21788882314E+01 -0.10950935872E+02  0.41873000432E+01  0.11924933220E+02  0.51100000000E-03 0. -1.
        -11    1    4    4    0    0  0.41884431136E+01 -0.21417351261E+02  0.14048195843E+02  0.25953762684E+02  0.51100000000E-03 0.  1.
        -12    1    4    4    0    0 -0.12151200349E+02 -0.18079483745E+01  0.30176748753E+01  0.12650166359E+02  0.00000000000E+00 0.  1.
</event>
<event>
 8    1  0.9870402E-014  0.9118800E+02  0.7816164E-02  0.1184000E+00
        -11   -1    0    0    0    0  0.00000000000E+00  0.00000000000E+00  0.45593999997E+02  0.45594000000E+02  0.51100000000E-03 0. -1.
         11   -1    0    0    0    0 -0.00000000000E+00 -0.00000000000E+00 -0.45593999997E+02  0.45594000000E+02  0.51100000000E-03 0.  1.
         23    2    1    2    0    0  0.35527136788E-14 -0.17763568394E-14  0.00000000000E+00  0.91188000000E+02  0.91188000000E+02 0.  0.
    9900012    2    3    3    0    0 -0.23045036819E+02  0.13817977260E+02 -0.30514836663E+02  0.50528862354E+02  0.30000007610E+02 0.  0.
         12    1    3    3    0    0  0.23045036819E+02 -0.13817977260E+02  0.30514836663E+02  0.40659137646E+02  0.00000000000E+00 0. -1.
         11    1    4    4    0    0 -0.60184515552E+01  0.12092766332E+02 -0.25903757025E+01  0.13753792322E+02  0.51100000000E-03 0. -1.
        -11    1    4    4    0    0 -0.17970011845E+00  0.61715907845E+01 -0.10182287259E+02  0.11907972079E+02  0.51100000000E-03 0.  1.
         12    1    4    4    0    0 -0.16846885146E+02 -0.44463798570E+01 -0.17742173701E+02  0.24867097953E+02  0.00000000000E+00 0. -1.
</event>
<event>
 8    1  0.9870402E-014  0.9118800E+02  0.7816164E-02  0.1184000E+00
        -11   -1    0    0    0    0  0.00000000000E+00  0.00000000000E+00  0.45593999997E+02  0.45594000000E+02  0.51100000000E-03 0. -1.
         11   -1    0    0    0    0 -0.00000000000E+00 -0.00000000000E+00 -0.45593999997E+02  0.45594000000E+02  0.51100000000E-03 0.  1.
         23    2    1    2    0    0 -0.17763568394E-14  0.00000000000E+00  0.35527136788E-14  0.91188000000E+02  0.91188000000E+02 0.  0.
    9900012    2    3    3    0    0  0.46775408217E+01 -0.26460132436E+02 -0.30514714918E+02  0.50528858061E+02  0.29999994562E+02 0.  0.
         12    1    3    3    0    0 -0.46775408217E+01  0.26460132436E+02  0.30514714918E+02  0.40659141939E+02  0.00000000000E+00 0. -1.
         11    1    4    4    0    0  0.60224981413E+01 -0.85651031126E-02 -0.41814928216E+01  0.73318101244E+01  0.51100000000E-03 0. -1.
        -11    1    4    4    0    0  0.56354213239E+01 -0.19592611416E+02 -0.26468650837E+02  0.33409846946E+02  0.51100000000E-03 0.  1.
        -12    1    4    4    0    0 -0.69803786435E+01 -0.68589559172E+01  0.13542874018E+00  0.97872009903E+01  0.00000000000E+00 0.  1.
</event>
<event>
 8    1  0.9870402E-014  0.9118800E+02  0.7816164E-02  0.1184000E+00
        -11   -1    0    0    0    0  0.00000000000E+00  0.00000000000E+00  0.45593999997E+02  0.45594000000E+02  0.51100000000E-03 0. -1.
         11   -1    0    0    0    0 -0.00000000000E+00 -0.00000000000E+00 -0.45593999997E+02  0.45594000000E+02  0.51100000000E-03 0.  1.
         23    2    1    2    0    0  0.00000000000E+00 -0.35527136788E-14 -0.35527136788E-14  0.91188000000E+02  0.91188000000E+02 0.  0.
    9900012    2    3    3    0    0  0.22677765672E+02 -0.26850531757E+02 -0.20443413545E+02  0.50528864878E+02  0.30000015282E+02 0.  0.
         12    1    3    3    0    0 -0.22677765672E+02  0.26850531757E+02  0.20443413545E+02  0.40659135122E+02  0.00000000000E+00 0. -1.
         11    1    4    4    0    0  0.10560134845E+02 -0.13974767932E+02 -0.76441359889E+01  0.19111342234E+02  0.51100000000E-03 0. -1.
        -11    1    4    4    0    0  0.15242282525E+02 -0.85332023780E+01 -0.17181482156E+02  0.24501960100E+02  0.51100000000E-03 0.  1.
        -12    1    4    4    0    0 -0.31246516978E+01 -0.43425614466E+01  0.43822045994E+01  0.69155625441E+01  0.00000000000E+00 0.  1.
</event>
<event>
 8    1  0.9870402E-014  0.9118800E+02  0.7816164E-02  0.1184000E+00
        -11   -1    0    0    0    0  0.00000000000E+00  0.00000000000E+00  0.45593999997E+02  0.45594000000E+02  0.51100000000E-03 0. -1.
         11   -1    0    0    0    0 -0.00000000000E+00 -0.00000000000E+00 -0.45593999997E+02  0.45594000000E+02  0.51100000000E-03 0.  1.
         23    2    1    2    0    0  0.00000000000E+00  0.00000000000E+00  0.00000000000E+00  0.91188000000E+02  0.91188000000E+02 0.  0.
    9900012    2    3    3    0    0  0.90107882342E+01 -0.14083725564E+02  0.37062379592E+02  0.50528860666E+02  0.30000002482E+02 0.  0.
        -12    1    3    3    0    0 -0.90107882342E+01  0.14083725564E+02 -0.37062379592E+02  0.40659139334E+02  0.00000000000E+00 0.  1.
         11    1    4    4    0    0  0.21551094082E+01 -0.75617455073E+01  0.60650058417E+01  0.99301957583E+01  0.51100000000E-03 0. -1.
        -11    1    4    4    0    0 -0.22863432307E+01 -0.15147565062E+01 -0.35654661990E+01  0.44982665682E+01  0.51100000000E-03 0.  1.
        -12    1    4    4    0    0  0.91420220567E+01 -0.50072235501E+01  0.34562839949E+02  0.36100398340E+02  0.00000000000E+00 0.  1.
</event>
<event>
 8    1  0.9870402E-014  0.9118800E+02  0.7816164E-02  0.1184000E+00
        -11   -1    0    0    0    0  0.00000000000E+00  0.00000000000E+00  0.45593999997E+02  0.45594000000E+02  0.51100000000E-03 0. -1.
         11   -1    0    0    0    0 -0.00000000000E+00 -0.00000000000E+00 -0.45593999997E+02  0.45594000000E+02  0.51100000000E-03 0.  1.
         23    2    1    2    0    0 -0.17763568394E-14  0.00000000000E+00  0.00000000000E+00  0.91188000000E+02  0.91188000000E+02 0.  0.
    9900012    2    3    3    0    0  0.14072573628E+02  0.26502661132E+02 -0.27436053035E+02  0.50528863490E+02  0.30000011064E+02 0.  0.
         12    1    3    3    0    0 -0.14072573628E+02 -0.26502661132E+02  0.27436053035E+02  0.40659136510E+02  0.00000000000E+00 0. -1.
         11    1    4    4    0    0  0.78356204802E+01  0.32074024876E+01 -0.12330554045E+02  0.14957504550E+02  0.51100000000E-03 0.  1.
        -11    1    4    4    0    0 -0.58129007363E+01  0.35116095400E+01 -0.96040082536E+01  0.11762575880E+02  0.51100000000E-03 0. -1.
         12    1    4    4    0    0  0.12049853884E+02  0.19783649104E+02 -0.55014907366E+01  0.23808783061E+02  0.00000000000E+00 0. -1.
</event>
<event>
 8    1  0.9870402E-014  0.9118800E+02  0.7816164E-02  0.1184000E+00
        -11   -1    0    0    0    0  0.00000000000E+00  0.00000000000E+00  0.45593999997E+02  0.45594000000E+02  0.51100000000E-03 0. -1.
         11   -1    0    0    0    0 -0.00000000000E+00 -0.00000000000E+00 -0.45593999997E+02  0.45594000000E+02  0.51100000000E-03 0.  1.
         23    2    1    2    0    0 -0.88817841970E-15 -0.44408920985E-15 -0.71054273576E-14  0.91188000000E+02  0.91188000000E+02 0.  0.
    9900012    2    3    3    0    0 -0.45118783792E+01 -0.37376286794E+01  0.40234794985E+02  0.50528860288E+02  0.30000001331E+02 0.  0.
        -12    1    3    3    0    0  0.45118783792E+01  0.37376286794E+01 -0.40234794985E+02  0.40659139712E+02  0.00000000000E+00 0.  1.
         11    1    4    4    0    0 -0.13052696928E+02 -0.58367053156E+01  0.87440424765E+01  0.16760021036E+02  0.51100000000E-03 0. -1.
        -11    1    4    4    0    0  0.44091057642E+01 -0.25713420223E+01  0.20564182227E+02  0.21188147733E+02  0.51100000000E-03 0.  1.
        -12    1    4    4    0    0  0.41317127842E+01  0.46704186585E+01  0.10926570282E+02  0.12580691519E+02  0.00000000000E+00 0.  1.
</event>
<event>
 8    1  0.9870402E-014  0.9118800E+02  0.7816164E-02  0.1184000E+00
        -11   -1    0    0    0    0  0.00000000000E+00  0.00000000000E+00  0.45593999997E+02  0.45594000000E+02  0.51100000000E-03 0.  1.
         11   -1    0    0    0    0 -0.00000000000E+00 -0.00000000000E+00 -0.45593999997E+02  0.45594000000E+02  0.51100000000E-03 0. -1.
         23    2    1    2    0    0  0.00000000000E+00  0.10658141036E-13  0.17763568394E-14  0.91188000000E+02  0.91188000000E+02 0.  0.
    9900012    2    3    3    0    0  0.24831797908E+02  0.31084428744E+02  0.83848466329E+01  0.50528861412E+02  0.30000004748E+02 0.  0.
         12    1    3    3    0    0 -0.24831797908E+02 -0.31084428744E+02 -0.83848466329E+01  0.40659138588E+02  0.00000000000E+00 0. -1.
         11    1    4    4    0    0 -0.55977762973E+00  0.58223000838E+01  0.33506347829E+01  0.67408666334E+01  0.51100000000E-03 0. -1.
        -11    1    4    4    0    0  0.15446392365E+02  0.28810807488E+02  0.17804956956E+01  0.32738720659E+02  0.51100000000E-03 0.  1.
         12    1    4    4    0    0  0.99451831722E+01 -0.35486788281E+01  0.32537161544E+01  0.11049274119E+02  0.00000000000E+00 0. -1.
</event>
<event>
 8    1  0.9870402E-014  0.9118800E+02  0.7816164E-02  0.1184000E+00
        -11   -1    0    0    0    0  0.00000000000E+00  0.00000000000E+00  0.45593999997E+02  0.45594000000E+02  0.51100000000E-03 0. -1.
         11   -1    0    0    0    0 -0.00000000000E+00 -0.00000000000E+00 -0.45593999997E+02  0.45594000000E+02  0.51100000000E-03 0.  1.
         23    2    1    2    0    0  0.00000000000E+00  0.17763568394E-14  0.35527136788E-14  0.91188000000E+02  0.91188000000E+02 0.  0.
    9900012    2    3    3    0    0  0.25950894822E+02  0.12259376508E+02 -0.28799733312E+02  0.50528857200E+02  0.29999991944E+02 0.  0.
         12    1    3    3    0    0 -0.25950894822E+02 -0.12259376508E+02  0.28799733312E+02  0.40659142800E+02  0.00000000000E+00 0. -1.
         11    1    4    4    0    0 -0.32069439192E+01 -0.33214757097E+01 -0.23302644170E+01  0.51717330466E+01  0.51100000000E-03 0. -1.
        -11    1    4    4    0    0  0.13523563785E+01 -0.22025652821E+01 -0.59643398623E+01  0.65002701368E+01  0.51100000000E-03 0.  1.
        -12    1    4    4    0    0  0.27805482363E+02  0.17783417500E+02 -0.20505129032E+02  0.38856854016E+02  0.00000000000E+00 0.  1.
</event>
<event>
 8    1  0.9870402E-014  0.9118800E+02  0.7816164E-02  0.1184000E+00
        -11   -1    0    0    0    0  0.00000000000E+00  0.00000000000E+00  0.45593999997E+02  0.45594000000E+02  0.51100000000E-03 0. -1.
         11   -1    0    0    0    0 -0.00000000000E+00 -0.00000000000E+00 -0.45593999997E+02  0.45594000000E+02  0.51100000000E-03 0.  1.
         23    2    1    2    0    0  0.00000000000E+00  0.22204460493E-15 -0.17763568394E-14  0.91188000000E+02  0.91188000000E+02 0.  0.
    9900012    2    3    3    0    0 -0.39122452823E+02  0.10820086997E+01 -0.11019471275E+02  0.50528858286E+02  0.29999995247E+02 0.  0.
        -12    1    3    3    0    0  0.39122452823E+02 -0.10820086997E+01  0.11019471275E+02  0.40659141714E+02  0.00000000000E+00 0.  1.
         11    1    4    4    0    0 -0.26884361834E+02 -0.80981402975E+00 -0.17933970946E+02  0.32327264408E+02  0.51100000000E-03 0. -1.
        -11    1    4    4    0    0 -0.28270030613E+01  0.19445023126E+01 -0.29810839436E+01  0.45453159728E+01  0.51100000000E-03 0.  1.
         12    1    4    4    0    0 -0.94110879282E+01 -0.52679583152E-01  0.98955836155E+01  0.13656277905E+02  0.00000000000E+00 0. -1.
</event>
<event>
 8    1  0.9870402E-014  0.9118800E+02  0.7816164E-02  0.1184000E+00
        -11   -1    0    0    0    0  0.00000000000E+00  0.00000000000E+00  0.45593999997E+02  0.45594000000E+02  0.51100000000E-03 0. -1.
         11   -1    0    0    0    0 -0.00000000000E+00 -0.00000000000E+00 -0.45593999997E+02  0.45594000000E+02  0.51100000000E-03 0.  1.
         23    2    1    2    0    0 -0.35527136788E-14  0.00000000000E+00  0.17763568394E-14  0.91188000000E+02  0.91188000000E+02 0.  0.
    9900012    2    3    3    0    0 -0.23783248549E+02 -0.31280781791E+02  0.10442013635E+02  0.50528857489E+02  0.29999992824E+02 0.  0.
        -12    1    3    3    0    0  0.23783248549E+02  0.31280781791E+02 -0.10442013635E+02  0.40659142511E+02  0.00000000000E+00 0.  1.
         11    1    4    4    0    0 -0.40061491064E+01 -0.59293573606E+01  0.33150769691E+01  0.78864595950E+01  0.51100000000E-03 0. -1.
        -11    1    4    4    0    0 -0.10496616689E+02  0.36219273488E+01 -0.10096934228E+01  0.11149744423E+02  0.51100000000E-03 0.  1.
        -12    1    4    4    0    0 -0.92804827534E+01 -0.28973351779E+02  0.81366300887E+01  0.31492653471E+02  0.00000000000E+00 0.  1.
</event>
<event>
 8    1  0.9870402E-014  0.9118800E+02  0.7816164E-02  0.1184000E+00
        -11   -1    0    0    0    0  0.00000000000E+00  0.00000000000E+00  0.45593999997E+02  0.45594000000E+02  0.51100000000E-03 0. -1.
         11   -1    0    0    0    0 -0.00000000000E+00 -0.00000000000E+00 -0.45593999997E+02  0.45594000000E+02  0.51100000000E-03 0.  1.
         23    2    1    2    0    0 -0.35527136788E-14  0.00000000000E+00  0.00000000000E+00  0.91188000000E+02  0.91188000000E+02 0.  0.
    9900012    2    3    3    0    0  0.20370350777E+02  0.66113649042E+01  0.34561627299E+02  0.50528838446E+02  0.29999934942E+02 0.  0.
        -12    1    3    3    0    0 -0.20370350777E+02 -0.66113649042E+01 -0.34561627299E+02  0.40659161554E+02  0.00000000000E+00 0.  1.
         11    1    4    4    0    0  0.80030963430E+01  0.44342476111E+01  0.15498018676E+02  0.17997241069E+02  0.51100000000E-03 0. -1.
        -11    1    4    4    0    0  0.23100230712E+01  0.10017273049E+02  0.87403055127E+00  0.10317262020E+02  0.51100000000E-03 0.  1.
         12    1    4    4    0    0  0.10057231363E+02 -0.78401557554E+01  0.18189578071E+02  0.22214335357E+02  0.00000000000E+00 0. -1.
</event>
<event>
 8    1  0.9870402E-014  0.9118800E+02  0.7816164E-02  0.1184000E+00
        -11   -1    0    0    0    0  0.00000000000E+00  0.00000000000E+00  0.45593999997E+02  0.45594000000E+02  0.51100000000E-03 0. -1.
         11   -1    0    0    0    0 -0.00000000000E+00 -0.00000000000E+00 -0.45593999997E+02  0.45594000000E+02  0.51100000000E-03 0.  1.
         23    2    1    2    0    0  0.17763568394E-14 -0.17763568394E-14  0.71054273576E-14  0.91188000000E+02  0.91188000000E+02 0.  0.
    9900012    2    3    3    0    0 -0.14616078220E+02  0.10994211158E+02 -0.36313408066E+02  0.50528855557E+02  0.29999986950E+02 0.  0.
         12    1    3    3    0    0  0.14616078220E+02 -0.10994211158E+02  0.36313408066E+02  0.40659144443E+02  0.00000000000E+00 0. -1.
         11    1    4    4    0    0  0.93267756410E+00 -0.32874463319E+01 -0.15857684801E+02  0.16221694065E+02  0.51100000000E-03 0. -1.
        -11    1    4    4    0    0 -0.10021606781E+02  0.21422906539E+01 -0.18045968987E+02  0.20752807248E+02  0.51100000000E-03 0.  1.
         12    1    4    4    0    0 -0.55271490027E+01  0.12139366836E+02 -0.24097542774E+01  0.13554354243E+02  0.00000000000E+00 0. -1.
</event>
<event>
 8    1  0.9870402E-014  0.9118800E+02  0.7816164E-02  0.1184000E+00
        -11   -1    0    0    0    0  0.00000000000E+00  0.00000000000E+00  0.45593999997E+02  0.45594000000E+02  0.51100000000E-03 0. -1.
         11   -1    0    0    0    0 -0.00000000000E+00 -0.00000000000E+00 -0.45593999997E+02  0.45594000000E+02  0.51100000000E-03 0.  1.
         23    2    1    2    0    0  0.00000000000E+00  0.00000000000E+00  0.00000000000E+00  0.91188000000E+02  0.91188000000E+02 0.  0.
    9900012    2    3    3    0    0 -0.29414999883E+02 -0.20870379917E+02  0.18770779635E+02  0.50528964791E+02  0.30000318977E+02 0.  0.
        -12    1    3    3    0    0  0.29414999883E+02  0.20870379917E+02 -0.18770779635E+02  0.40659035209E+02  0.00000000000E+00 0.  1.
         11    1    4    4    0    0 -0.84080172056E+01 -0.14343313783E+02  0.12358622599E+02  0.20716200337E+02  0.51100000000E-03 0. -1.
        -11    1    4    4    0    0  0.17737880499E+01 -0.78752554412E+00 -0.37452760641E+01  0.42182476914E+01  0.51100000000E-03 0.  1.
         12    1    4    4    0    0 -0.22780770728E+02 -0.57395405904E+01  0.10157433100E+02  0.25594516763E+02  0.00000000000E+00 0. -1.
</event>
<event>
 8    1  0.9870402E-014  0.9118800E+02  0.7816164E-02  0.1184000E+00
        -11   -1    0    0    0    0  0.00000000000E+00  0.00000000000E+00  0.45593999997E+02  0.45594000000E+02  0.51100000000E-03 0. -1.
         11   -1    0    0    0    0 -0.00000000000E+00 -0.00000000000E+00 -0.45593999997E+02  0.45594000000E+02  0.51100000000E-03 0.  1.
         23    2    1    2    0    0  0.00000000000E+00  0.00000000000E+00 -0.35527136788E-14  0.91188000000E+02  0.91188000000E+02 0.  0.
    9900012    2    3    3    0    0  0.27340555434E+02 -0.96234846616E+01  0.28514001520E+02  0.50528859439E+02  0.29999998751E+02 0.  0.
        -12    1    3    3    0    0 -0.27340555434E+02  0.96234846616E+01 -0.28514001520E+02  0.40659140561E+02  0.00000000000E+00 0.  1.
         11    1    4    4    0    0  0.27186430561E+02 -0.10384547612E+02  0.17966205860E+02  0.34201248354E+02  0.51100000000E-03 0. -1.
        -11    1    4    4    0    0  0.19053529693E+01  0.60014261740E+01  0.81639207853E+01  0.10310047959E+02  0.51100000000E-03 0.  1.
        -12    1    4    4    0    0 -0.17512280961E+01 -0.52403632235E+01  0.23838748745E+01  0.60175631260E+01  0.00000000000E+00 0.  1.
</event>
<event>
 8    1  0.9870402E-014  0.9118800E+02  0.7816164E-02  0.1184000E+00
        -11   -1    0    0    0    0  0.00000000000E+00  0.00000000000E+00  0.45593999997E+02  0.45594000000E+02  0.51100000000E-03 0. -1.
         11   -1    0    0    0    0 -0.00000000000E+00 -0.00000000000E+00 -0.45593999997E+02  0.45594000000E+02  0.51100000000E-03 0.  1.
         23    2    1    2    0    0  0.72164496601E-15 -0.17763568394E-14  0.00000000000E+00  0.91188000000E+02  0.91188000000E+02 0.  0.
    9900012    2    3    3    0    0 -0.30346769693E+00 -0.99871434320E+01  0.39412335205E+02  0.50528839988E+02  0.29999939627E+02 0.  0.
        -12    1    3    3    0    0  0.30346769693E+00  0.99871434320E+01 -0.39412335205E+02  0.40659160012E+02  0.00000000000E+00 0.  1.
         11    1    4    4    0    0 -0.40900205392E+01 -0.33894014003E+01  0.16201602924E+02  0.17050168545E+02  0.51100000000E-03 0. -1.
        -11    1    4    4    0    0  0.10933420715E+02 -0.62180058571E+01  0.23121428452E+02  0.26321165234E+02  0.51100000000E-03 0.  1.
         12    1    4    4    0    0 -0.71468678724E+01 -0.37973617468E+00  0.89303829332E-01  0.71575062083E+01  0.00000000000E+00 0. -1.
</event>
<event>
 8    1  0.9870402E-014  0.9118800E+02  0.7816164E-02  0.1184000E+00
        -11   -1    0    0    0    0  0.00000000000E+00  0.00000000000E+00  0.45593999997E+02  0.45594000000E+02  0.51100000000E-03 0.  1.
         11   -1    0    0    0    0 -0.00000000000E+00 -0.00000000000E+00 -0.45593999997E+02  0.45594000000E+02  0.51100000000E-03 0. -1.
         23    2    1    2    0    0  0.00000000000E+00  0.35527136788E-14 -0.17763568394E-14  0.91188000000E+02  0.91188000000E+02 0.  0.
    9900012    2    3    3    0    0 -0.32176570478E+02  0.21940707016E+02 -0.11680733386E+02  0.50528857798E+02  0.29999993764E+02 0.  0.
         12    1    3    3    0    0  0.32176570478E+02 -0.21940707016E+02  0.11680733386E+02  0.40659142202E+02  0.00000000000E+00 0. -1.
         11    1    4    4    0    0 -0.92104784961E+01  0.29939485600E+01 -0.15533548341E+02  0.18305402657E+02  0.51100000000E-03 0. -1.
        -11    1    4    4    0    0 -0.66086466135E+01  0.21649516505E+01 -0.33328815135E+01  0.77116356990E+01  0.51100000000E-03 0.  1.
         12    1    4    4    0    0 -0.16357445369E+02  0.16781806806E+02  0.71856964682E+01  0.24511819443E+02  0.00000000000E+00 0. -1.
</event>
<event>
 8    1  0.9870402E-014  0.9118800E+02  0.7816164E-02  0.1184000E+00
        -11   -1    0    0    0    0  0.00000000000E+00  0.00000000000E+00  0.45593999997E+02  0.45594000000E+02  0.51100000000E-03 0. -1.
         11   -1    0    0    0    0 -0.00000000000E+00 -0.00000000000E+00 -0.45593999997E+02  0.45594000000E+02  0.51100000000E-03 0.  1.
         23    2    1    2    0    0  0.00000000000E+00  0.35527136788E-14  0.35527136788E-14  0.91188000000E+02  0.91188000000E+02 0.  0.
    9900012    2    3    3    0    0  0.23329592975E+02  0.20862300371E+02  0.25954969511E+02  0.50528856779E+02  0.29999990664E+02 0.  0.
        -12    1    3    3    0    0 -0.23329592975E+02 -0.20862300371E+02 -0.25954969511E+02  0.40659143221E+02  0.00000000000E+00 0.  1.
         11    1    4    4    0    0  0.20865740663E+02  0.51180607185E+01  0.19063188733E+02  0.28722444950E+02  0.51100000000E-03 0. -1.
        -11    1    4    4    0    0  0.75967538289E+01  0.11290631917E+02  0.62668032316E+01  0.14982051289E+02  0.51100000000E-03 0.  1.
         12    1    4    4    0    0 -0.51329015170E+01  0.44536077356E+01  0.62497754654E+00  0.68243605399E+01  0.00000000000E+00 0. -1.
</event>
<event>
 8    1  0.9870402E-014  0.9118800E+02  0.7816164E-02  0.1184000E+00
        -11   -1    0    0    0    0  0.00000000000E+00  0.00000000000E+00  0.45593999997E+02  0.45594000000E+02  0.51100000000E-03 0. -1.
         11   -1    0    0    0    0 -0.00000000000E+00 -0.00000000000E+00 -0.45593999997E+02  0.45594000000E+02  0.51100000000E-03 0.  1.
         23    2    1    2    0    0  0.00000000000E+00 -0.22204460493E-15 -0.71054273576E-14  0.91188000000E+02  0.91188000000E+02 0.  0.
    9900012    2    3    3    0    0  0.16824013841E+02 -0.12477403630E+01  0.36994079170E+02  0.50528853534E+02  0.29999980802E+02 0.  0.
        -12    1    3    3    0    0 -0.16824013841E+02  0.12477403630E+01 -0.36994079170E+02  0.40659146466E+02  0.00000000000E+00 0.  1.
         11    1    4    4    0    0  0.50482650565E+01 -0.78793785941E+01  0.13448850008E+02  0.16384173885E+02  0.51100000000E-03 0. -1.
        -11    1    4    4    0    0  0.16604493978E+02  0.10422058973E+01  0.12298670510E+02  0.20689434743E+02  0.51100000000E-03 0.  1.
        -12    1    4    4    0    0 -0.48287451939E+01  0.55894323338E+01  0.11246558651E+02  0.13455244905E+02  0.00000000000E+00 0.  1.
</event>
<event>
 8    1  0.9870402E-014  0.9118800E+02  0.7816164E-02  0.1184000E+00
        -11   -1    0    0    0    0  0.00000000000E+00  0.00000000000E+00  0.45593999997E+02  0.45594000000E+02  0.51100000000E-03 0. -1.
         11   -1    0    0    0    0 -0.00000000000E+00 -0.00000000000E+00 -0.45593999997E+02  0.45594000000E+02  0.51100000000E-03 0.  1.
         23    2    1    2    0    0  0.00000000000E+00  0.71054273576E-14  0.00000000000E+00  0.91188000000E+02  0.91188000000E+02 0.  0.
    9900012    2    3    3    0    0  0.16951539374E+02 -0.36509485027E+02 -0.57331261296E+01  0.50528856879E+02  0.29999990970E+02 0.  0.
         12    1    3    3    0    0 -0.16951539374E+02  0.36509485027E+02  0.57331261296E+01  0.40659143121E+02  0.00000000000E+00 0. -1.
         11    1    4    4    0    0  0.76637224226E+01 -0.81267968016E+01 -0.43743173867E+00  0.11178945139E+02  0.51100000000E-03 0. -1.
        -11    1    4    4    0    0  0.11289296498E+01 -0.23404640645E+01 -0.11141444928E+02  0.11440456701E+02  0.51100000000E-03 0.  1.
         12    1    4    4    0    0  0.81588873020E+01 -0.26042224161E+02  0.58457505368E+01  0.27909455039E+02  0.00000000000E+00 0. -1.
</event>
<event>
 8    1  0.9870402E-014  0.9118800E+02  0.7816164E-02  0.1184000E+00
        -11   -1    0    0    0    0  0.00000000000E+00  0.00000000000E+00  0.45593999997E+02  0.45594000000E+02  0.51100000000E-03 0. -1.
         11   -1    0    0    0    0 -0.00000000000E+00 -0.00000000000E+00 -0.45593999997E+02  0.45594000000E+02  0.51100000000E-03 0.  1.
         23    2    1    2    0    0  0.00000000000E+00  0.35527136788E-14  0.00000000000E+00  0.91188000000E+02  0.91188000000E+02 0.  0.
    9900012    2    3    3    0    0 -0.27937844686E+02  0.19064662217E+02  0.22565043475E+02  0.50528859599E+02  0.29999999237E+02 0.  0.
        -12    1    3    3    0    0  0.27937844686E+02 -0.19064662217E+02 -0.22565043475E+02  0.40659140401E+02  0.00000000000E+00 0.  1.
         11    1    4    4    0    0 -0.88487971651E+00  0.13242907002E+02  0.79085239144E+01  0.15449995105E+02  0.51100000000E-03 0. -1.
        -11    1    4    4    0    0 -0.11836362329E+02  0.10631411924E+02  0.74972259521E+01  0.17587916020E+02  0.51100000000E-03 0.  1.
        -12    1    4    4    0    0 -0.15216602640E+02 -0.48096567086E+01  0.71592936083E+01  0.17490948474E+02  0.00000000000E+00 0.  1.
</event>
<event>
 8    1  0.9870402E-014  0.9118800E+02  0.7816164E-02  0.1184000E+00
        -11   -1    0    0    0    0  0.00000000000E+00  0.00000000000E+00  0.45593999997E+02  0.45594000000E+02  0.51100000000E-03 0.  1.
         11   -1    0    0    0    0 -0.00000000000E+00 -0.00000000000E+00 -0.45593999997E+02  0.45594000000E+02  0.51100000000E-03 0. -1.
         23    2    1    2    0    0 -0.88817841970E-15  0.00000000000E+00  0.00000000000E+00  0.91188000000E+02  0.91188000000E+02 0.  0.
    9900012    2    3    3    0    0 -0.62431869539E+01 -0.30483809589E+02  0.26171088121E+02  0.50528857315E+02  0.29999992296E+02 0.  0.
        -12    1    3    3    0    0  0.62431869539E+01  0.30483809589E+02 -0.26171088121E+02  0.40659142685E+02  0.00000000000E+00 0.  1.
         11    1    4    4    0    0 -0.26354322504E+01 -0.69763664976E+01  0.71252286116E+00  0.74915206563E+01  0.51100000000E-03 0. -1.
        -11    1    4    4    0    0 -0.21886577632E+01  0.52747338571E+01  0.26991715661E+01  0.63165312848E+01  0.51100000000E-03 0.  1.
         12    1    4    4    0    0 -0.14190969403E+01 -0.28782176949E+02  0.22759393694E+02  0.36720805374E+02  0.00000000000E+00 0. -1.
</event>
<event>
 8    1  0.1697893E-013  0.9118800E+02  0.7816164E-02  0.1184000E+00
        -11   -1    0    0    0    0  0.00000000000E+00  0.00000000000E+00  0.45593999997E+02  0.45594000000E+02  0.51100000000E-03 0. -1.
         11   -1    0    0    0    0 -0.00000000000E+00 -0.00000000000E+00 -0.45593999997E+02  0.45594000000E+02  0.51100000000E-03 0.  1.
         23    2    1    2    0    0  0.00000000000E+00  0.00000000000E+00  0.00000000000E+00  0.91188000000E+02  0.91188000000E+02 0.  0.
    9900012    2    3    3    0    0  0.20094948318E+02  0.74886032997E+01 -0.34543886684E+02  0.50528853003E+02  0.29999979188E+02 0.  0.
         12    1    3    3    0    0 -0.20094948318E+02 -0.74886032997E+01  0.34543886684E+02  0.40659146997E+02  0.00000000000E+00 0. -1.
         11    1    4    4    0    0  0.78221244972E+01 -0.32507435797E+00  0.18700217032E+01  0.80491171205E+01  0.51100000000E-03 0. -1.
        -11    1    4    4    0    0  0.12211939836E+02 -0.16557602140E+01 -0.18745167404E+02  0.22433330509E+02  0.51100000000E-03 0.  1.
         12    1    4    4    0    0  0.60883983882E-01  0.94694378716E+01 -0.17668740984E+02  0.20046405374E+02  0.00000000000E+00 0. -1.
</event>
<event>
 8    1  0.9870402E-014  0.9118800E+02  0.7816164E-02  0.1184000E+00
        -11   -1    0    0    0    0  0.00000000000E+00  0.00000000000E+00  0.45593999997E+02  0.45594000000E+02  0.51100000000E-03 0.  1.
         11   -1    0    0    0    0 -0.00000000000E+00 -0.00000000000E+00 -0.45593999997E+02  0.45594000000E+02  0.51100000000E-03 0. -1.
         23    2    1    2    0    0  0.35527136788E-14  0.00000000000E+00  0.00000000000E+00  0.91188000000E+02  0.91188000000E+02 0.  0.
    9900012    2    3    3    0    0  0.31446341216E+02 -0.23920856111E+01  0.25662637538E+02  0.50528863083E+02  0.30000009827E+02 0.  0.
        -12    1    3    3    0    0 -0.31446341216E+02  0.23920856111E+01 -0.25662637538E+02  0.40659136917E+02  0.00000000000E+00 0.  1.
         11    1    4    4    0    0  0.22052099264E+02  0.13538607946E+01  0.13672244727E+01  0.22135883176E+02  0.51100000000E-03 0. -1.
        -11    1    4    4    0    0  0.30270182327E+01 -0.63911725647E+01  0.78776073837E+01  0.10586152487E+02  0.51100000000E-03 0.  1.
        -12    1    4    4    0    0  0.63672237193E+01  0.26452261590E+01  0.16417805682E+02  0.17806827419E+02  0.00000000000E+00 0.  1.
</event>
<event>
 8    1  0.9870402E-014  0.9118800E+02  0.7816164E-02  0.1184000E+00
        -11   -1    0    0    0    0  0.00000000000E+00  0.00000000000E+00  0.45593999997E+02  0.45594000000E+02  0.51100000000E-03 0. -1.
         11   -1    0    0    0    0 -0.00000000000E+00 -0.00000000000E+00 -0.45593999997E+02  0.45594000000E+02  0.51100000000E-03 0.  1.
         23    2    1    2    0    0  0.00000000000E+00 -0.16653345369E-15  0.00000000000E+00  0.91188000000E+02  0.91188000000E+02 0.  0.
    9900012    2    3    3    0    0 -0.11059739900E+02 -0.33251995523E+00  0.39124636946E+02  0.50528860408E+02  0.30000001696E+02 0.  0.
        -12    1    3    3    0    0  0.11059739900E+02  0.33251995523E+00 -0.39124636946E+02  0.40659139592E+02  0.00000000000E+00 0.  1.
         11    1    4    4    0    0 -0.19317591682E+01  0.43550566299E+01  0.23565651587E+02  0.24042423894E+02  0.51100000000E-03 0. -1.
        -11    1    4    4    0    0 -0.44731403224E+00  0.68056348279E+01  0.33191950991E+01  0.75851045887E+01  0.51100000000E-03 0.  1.
        -12    1    4    4    0    0 -0.86806666994E+01 -0.11493211413E+02  0.12239790261E+02  0.18901331925E+02  0.00000000000E+00 0.  1.
</event>
<event>
 8    1  0.9870402E-014  0.9118800E+02  0.7816164E-02  0.1184000E+00
        -11   -1    0    0    0    0  0.00000000000E+00  0.00000000000E+00  0.45593999997E+02  0.45594000000E+02  0.51100000000E-03 0. -1.
         11   -1    0    0    0    0 -0.00000000000E+00 -0.00000000000E+00 -0.45593999997E+02  0.45594000000E+02  0.51100000000E-03 0.  1.
         23    2    1    2    0    0  0.00000000000E+00  0.35527136788E-14  0.35527136788E-14  0.91188000000E+02  0.91188000000E+02 0.  0.
    9900012    2    3    3    0    0 -0.25207732072E+02 -0.24850878438E+02 -0.20004231020E+02  0.50528866044E+02  0.30000018827E+02 0.  0.
         12    1    3    3    0    0  0.25207732072E+02  0.24850878438E+02  0.20004231020E+02  0.40659133956E+02  0.00000000000E+00 0. -1.
         11    1    4    4    0    0 -0.12807294059E+02 -0.11326330516E+02 -0.25537391647E+01  0.17286819489E+02  0.51100000000E-03 0.  1.
        -11    1    4    4    0    0 -0.50504174892E-01 -0.15121090861E+02 -0.58194021837E+01  0.16202326424E+02  0.51100000000E-03 0. -1.
        -12    1    4    4    0    0 -0.12349933838E+02  0.15965429401E+01 -0.11631089672E+02  0.17039720131E+02  0.00000000000E+00 0.  1.
</event>
<event>
 8    1  0.9870402E-014  0.9118800E+02  0.7816164E-02  0.1184000E+00
        -11   -1    0    0    0    0  0.00000000000E+00  0.00000000000E+00  0.45593999997E+02  0.45594000000E+02  0.51100000000E-03 0. -1.
         11   -1    0    0    0    0 -0.00000000000E+00 -0.00000000000E+00 -0.45593999997E+02  0.45594000000E+02  0.51100000000E-03 0.  1.
         23    2    1    2    0    0 -0.44408920985E-15  0.00000000000E+00 -0.71054273576E-14  0.91188000000E+02  0.91188000000E+02 0.  0.
    9900012    2    3    3    0    0  0.25651037652E+01 -0.11356855030E+02 -0.38956484699E+02  0.50528860638E+02  0.30000002396E+02 0.  0.
         12    1    3    3    0    0 -0.25651037652E+01  0.11356855030E+02  0.38956484699E+02  0.40659139362E+02  0.00000000000E+00 0. -1.
         11    1    4    4    0    0 -0.11816628440E+01 -0.85483308124E+01 -0.30188528051E+02  0.31397731015E+02  0.51100000000E-03 0. -1.
        -11    1    4    4    0    0  0.40272379289E+01 -0.86964870607E+01 -0.91151927224E+01  0.13226272005E+02  0.51100000000E-03 0.  1.
         12    1    4    4    0    0 -0.28047131973E+00  0.58879628426E+01  0.34723607381E+00  0.59048576179E+01  0.00000000000E+00 0. -1.
</event>
<event>
 8    1  0.9870402E-014  0.9118800E+02  0.7816164E-02  0.1184000E+00
        -11   -1    0    0    0    0  0.00000000000E+00  0.00000000000E+00  0.45593999997E+02  0.45594000000E+02  0.51100000000E-03 0. -1.
         11   -1    0    0    0    0 -0.00000000000E+00 -0.00000000000E+00 -0.45593999997E+02  0.45594000000E+02  0.51100000000E-03 0.  1.
         23    2    1    2    0    0 -0.71054273576E-14  0.44408920985E-15 -0.35527136788E-14  0.91188000000E+02  0.91188000000E+02 0.  0.
    9900012    2    3    3    0    0 -0.32989598850E+02  0.28770035855E+01 -0.23591805159E+02  0.50528879836E+02  0.30000060748E+02 0.  0.
         12    1    3    3    0    0  0.32989598850E+02 -0.28770035855E+01  0.23591805159E+02  0.40659120164E+02  0.00000000000E+00 0. -1.
         11    1    4    4    0    0 -0.25446069049E+02  0.12339534073E+01 -0.17872266233E+02  0.31119816381E+02  0.51100000000E-03 0.  1.
        -11    1    4    4    0    0 -0.12022473931E+02  0.75784131274E+00  0.56555793447E-01  0.12046468432E+02  0.51100000000E-03 0. -1.
         12    1    4    4    0    0  0.44789441296E+01  0.88520886542E+00 -0.57760947197E+01  0.73625950223E+01  0.00000000000E+00 0. -1.
</event>
<event>
 8    1  0.9870402E-014  0.9118800E+02  0.7816164E-02  0.1184000E+00
        -11   -1    0    0    0    0  0.00000000000E+00  0.00000000000E+00  0.45593999997E+02  0.45594000000E+02  0.51100000000E-03 0. -1.
         11   -1    0    0    0    0 -0.00000000000E+00 -0.00000000000E+00 -0.45593999997E+02  0.45594000000E+02  0.51100000000E-03 0.  1.
         23    2    1    2    0    0  0.35527136788E-14  0.00000000000E+00  0.17763568394E-14  0.91188000000E+02  0.91188000000E+02 0.  0.
    9900012    2    3    3    0    0  0.23383933378E+02  0.31729481716E+02  0.99798530169E+01  0.50528858144E+02  0.29999994815E+02 0.  0.
        -12    1    3    3    0    0 -0.23383933378E+02 -0.31729481716E+02 -0.99798530169E+01  0.40659141856E+02  0.00000000000E+00 0.  1.
         11    1    4    4    0    0  0.10159243411E+02 -0.17529765479E+01  0.75198220006E+01  0.12760520234E+02  0.51100000000E-03 0. -1.
        -11    1    4    4    0    0  0.10976443698E+02  0.22130795006E+02  0.64433416714E+01  0.25529807207E+02  0.51100000000E-03 0.  1.
        -12    1    4    4    0    0  0.22482462695E+01  0.11351663258E+02 -0.39833106551E+01  0.12238530703E+02  0.00000000000E+00 0.  1.
</event>
<event>
 8    1  0.9870402E-014  0.9118800E+02  0.7816164E-02  0.1184000E+00
        -11   -1    0    0    0    0  0.00000000000E+00  0.00000000000E+00  0.45593999997E+02  0.45594000000E+02  0.51100000000E-03 0. -1.
         11   -1    0    0    0    0 -0.00000000000E+00 -0.00000000000E+00 -0.45593999997E+02  0.45594000000E+02  0.51100000000E-03 0.  1.
         23    2    1    2    0    0 -0.77715611724E-15 -0.35527136788E-14  0.00000000000E+00  0.91188000000E+02  0.91188000000E+02 0.  0.
    9900012    2    3    3    0    0 -0.37965928509E+00  0.19450503069E+02  0.35702937945E+02  0.50528856026E+02  0.29999988377E+02 0.  0.
        -12    1    3    3    0    0  0.37965928509E+00 -0.19450503069E+02 -0.35702937945E+02  0.40659143974E+02  0.00000000000E+00 0.  1.
         11    1    4    4    0    0  0.21482908800E+01  0.79894984285E+01  0.22240070344E+02  0.23729053247E+02  0.51100000000E-03 0. -1.
        -11    1    4    4    0    0  0.57913102421E+01  0.13361291212E+02  0.95302245760E+01  0.17403693800E+02  0.51100000000E-03 0.  1.
        -12    1    4    4    0    0 -0.83192604072E+01 -0.19002865714E+01  0.39326430250E+01  0.93961089786E+01  0.00000000000E+00 0.  1.
</event>
<event>
 8    1  0.9870402E-014  0.9118800E+02  0.7816164E-02  0.1184000E+00
        -11   -1    0    0    0    0  0.00000000000E+00  0.00000000000E+00  0.45593999997E+02  0.45594000000E+02  0.51100000000E-03 0. -1.
         11   -1    0    0    0    0 -0.00000000000E+00 -0.00000000000E+00 -0.45593999997E+02  0.45594000000E+02  0.51100000000E-03 0.  1.
         23    2    1    2    0    0  0.35527136788E-14  0.35527136788E-14 -0.17763568394E-14  0.91188000000E+02  0.91188000000E+02 0.  0.
    9900012    2    3    3    0    0  0.24998141627E+02  0.31020792012E+02  0.81221868877E+01  0.50528849225E+02  0.29999967706E+02 0.  0.
        -12    1    3    3    0    0 -0.24998141627E+02 -0.31020792012E+02 -0.81221868877E+01  0.40659150775E+02  0.00000000000E+00 0.  1.
         11    1    4    4    0    0  0.70579245697E+01  0.27962645487E+01 -0.77342943965E+00  0.76309624568E+01  0.51100000000E-03 0. -1.
        -11    1    4    4    0    0  0.94552233962E+01  0.89269287518E+01 -0.85265294831E+01  0.15549694907E+02  0.51100000000E-03 0.  1.
         12    1    4    4    0    0  0.84849936614E+01  0.19297598711E+02  0.17422145810E+02  0.27348191862E+02  0.00000000000E+00 0. -1.
</event>
<event>
 8    1  0.9870402E-014  0.9118800E+02  0.7816164E-02  0.1184000E+00
        -11   -1    0    0    0    0  0.00000000000E+00  0.00000000000E+00  0.45593999997E+02  0.45594000000E+02  0.51100000000E-03 0. -1.
         11   -1    0    0    0    0 -0.00000000000E+00 -0.00000000000E+00 -0.45593999997E+02  0.45594000000E+02  0.51100000000E-03 0.  1.
         23    2    1    2    0    0  0.00000000000E+00 -0.17763568394E-14  0.35527136788E-14  0.91188000000E+02  0.91188000000E+02 0.  0.
    9900012    2    3    3    0    0 -0.34120211331E+02  0.11282037376E+02 -0.19018197697E+02  0.50528867787E+02  0.30000024126E+02 0.  0.
         12    1    3    3    0    0  0.34120211331E+02 -0.11282037376E+02  0.19018197697E+02  0.40659132213E+02  0.00000000000E+00 0. -1.
         11    1    4    4    0    0  0.70894252555E+00 -0.36455753350E+01 -0.45432193190E+01  0.58680202001E+01  0.51100000000E-03 0. -1.
        -11    1    4    4    0    0 -0.21472884121E+02  0.14210010270E+01 -0.13974323237E+02  0.25659027779E+02  0.51100000000E-03 0.  1.
         12    1    4    4    0    0 -0.13356269736E+02  0.13506611684E+02 -0.50065514100E+00  0.19001819808E+02  0.00000000000E+00 0. -1.
</event>
<event>
 8    1  0.1221515E-013  0.9118800E+02  0.7816164E-02  0.1184000E+00
        -11   -1    0    0    0    0  0.00000000000E+00  0.00000000000E+00  0.45593999997E+02  0.45594000000E+02  0.51100000000E-03 0. -1.
         11   -1    0    0    0    0 -0.00000000000E+00 -0.00000000000E+00 -0.45593999997E+02  0.45594000000E+02  0.51100000000E-03 0.  1.
         23    2    1    2    0    0 -0.17763568394E-14  0.00000000000E+00  0.35527136788E-14  0.91188000000E+02  0.91188000000E+02 0.  0.
    9900012    2    3    3    0    0  0.13548769118E+02  0.26619681889E+02 -0.27586008961E+02  0.50528874347E+02  0.30000044065E+02 0.  0.
         12    1    3    3    0    0 -0.13548769118E+02 -0.26619681889E+02  0.27586008961E+02  0.40659125653E+02  0.00000000000E+00 0. -1.
         11    1    4    4    0    0 -0.42274545373E+01  0.26875145613E+01 -0.98617406057E+01  0.11061104575E+02  0.51100000000E-03 0. -1.
        -11    1    4    4    0    0  0.98162193834E+01  0.68721061613E+01 -0.16778911823E+02  0.20618338641E+02  0.51100000000E-03 0.  1.
         12    1    4    4    0    0  0.79600042720E+01  0.17060061166E+02 -0.94535653217E+00  0.18849431131E+02  0.00000000000E+00 0. -1.
</event>
<event>
 8    1  0.9870402E-014  0.9118800E+02  0.7816164E-02  0.1184000E+00
        -11   -1    0    0    0    0  0.00000000000E+00  0.00000000000E+00  0.45593999997E+02  0.45594000000E+02  0.51100000000E-03 0.  1.
         11   -1    0    0    0    0 -0.00000000000E+00 -0.00000000000E+00 -0.45593999997E+02  0.45594000000E+02  0.51100000000E-03 0. -1.
         23    2    1    2    0    0  0.00000000000E+00  0.26645352591E-14  0.00000000000E+00  0.91188000000E+02  0.91188000000E+02 0.  0.
    9900012    2    3    3    0    0  0.31375770290E+02  0.62506933477E+01  0.25092948390E+02  0.50528853581E+02  0.29999980945E+02 0.  0.
        -12    1    3    3    0    0 -0.31375770290E+02 -0.62506933477E+01 -0.25092948390E+02  0.40659146419E+02  0.00000000000E+00 0.  1.
         11    1    4    4    0    0  0.14096924679E+02  0.14156475164E+02  0.16512605726E+02  0.25919012763E+02  0.51100000000E-03 0. -1.
        -11    1    4    4    0    0  0.13376680988E+02 -0.39420129270E+01  0.11725623939E+02  0.18219915400E+02  0.51100000000E-03 0.  1.
        -12    1    4    4    0    0  0.39021646226E+01 -0.39637688893E+01 -0.31452812749E+01  0.63899254180E+01  0.00000000000E+00 0.  1.
</event>
<event>
 8    1  0.9870402E-014  0.9118800E+02  0.7816164E-02  0.1184000E+00
        -11   -1    0    0    0    0  0.00000000000E+00  0.00000000000E+00  0.45593999997E+02  0.45594000000E+02  0.51100000000E-03 0. -1.
         11   -1    0    0    0    0 -0.00000000000E+00 -0.00000000000E+00 -0.45593999997E+02  0.45594000000E+02  0.51100000000E-03 0.  1.
         23    2    1    2    0    0  0.00000000000E+00  0.00000000000E+00  0.00000000000E+00  0.91188000000E+02  0.91188000000E+02 0.  0.
    9900012    2    3    3    0    0 -0.10245096096E+02  0.79892616910E+01  0.38527585408E+02  0.50528866539E+02  0.30000020333E+02 0.  0.
        -12    1    3    3    0    0  0.10245096096E+02 -0.79892616910E+01 -0.38527585408E+02  0.40659133461E+02  0.00000000000E+00 0.  1.
         11    1    4    4    0    0 -0.68511400848E+01 -0.40982242793E+01  0.36491889986E+01  0.87778211028E+01  0.51100000000E-03 0. -1.
        -11    1    4    4    0    0  0.48951308301E+01 -0.29740413277E+01  0.78262512774E+01  0.96983213486E+01  0.51100000000E-03 0.  1.
        -12    1    4    4    0    0 -0.82890868412E+01  0.15061527298E+02  0.27052145132E+02  0.32052724088E+02  0.00000000000E+00 0.  1.
</event>
<event>
 8    1  0.9870402E-014  0.9118800E+02  0.7816164E-02  0.1184000E+00
        -11   -1    0    0    0    0  0.00000000000E+00  0.00000000000E+00  0.45593999997E+02  0.45594000000E+02  0.51100000000E-03 0. -1.
         11   -1    0    0    0    0 -0.00000000000E+00 -0.00000000000E+00 -0.45593999997E+02  0.45594000000E+02  0.51100000000E-03 0.  1.
         23    2    1    2    0    0  0.00000000000E+00  0.35527136788E-14  0.71054273576E-14  0.91188000000E+02  0.91188000000E+02 0.  0.
    9900012    2    3    3    0    0 -0.76925490770E+01  0.13648760142E+02  0.37519352641E+02  0.50528858502E+02  0.29999995904E+02 0.  0.
        -12    1    3    3    0    0  0.76925490770E+01 -0.13648760142E+02 -0.37519352641E+02  0.40659141498E+02  0.00000000000E+00 0.  1.
         11    1    4    4    0    0 -0.12926115561E+01  0.17357213714E+02  0.25157359344E+02  0.30591443934E+02  0.51100000000E-03 0. -1.
        -11    1    4    4    0    0 -0.60309411727E+01 -0.26094838122E+00 -0.10124157475E+01  0.61208930225E+01  0.51100000000E-03 0.  1.
         12    1    4    4    0    0 -0.36899634815E+00 -0.34475051903E+01  0.13374409044E+02  0.13816521546E+02  0.00000000000E+00 0. -1.
</event>
<event>
 8    1  0.9870402E-014  0.9118800E+02  0.7816164E-02  0.1184000E+00
        -11   -1    0    0    0    0  0.00000000000E+00  0.00000000000E+00  0.45593999997E+02  0.45594000000E+02  0.51100000000E-03 0.  1.
         11   -1    0    0    0    0 -0.00000000000E+00 -0.00000000000E+00 -0.45593999997E+02  0.45594000000E+02  0.51100000000E-03 0. -1.
         23    2    1    2    0    0  0.00000000000E+00 -0.35527136788E-14  0.00000000000E+00  0.91188000000E+02  0.91188000000E+02 0.  0.
    9900012    2    3    3    0    0  0.29873802455E+02 -0.22024426342E+02 -0.16602597941E+02  0.50528859734E+02  0.29999999647E+02 0.  0.
         12    1    3    3    0    0 -0.29873802455E+02  0.22024426342E+02  0.16602597941E+02  0.40659140266E+02  0.00000000000E+00 0. -1.
         11    1    4    4    0    0 -0.15173649906E+01 -0.93014392159E+01  0.27495105531E+01  0.98172794879E+01  0.51100000000E-03 0. -1.
        -11    1    4    4    0    0  0.80852440075E+01 -0.79551009178E+01 -0.26584867920E+01  0.11649993715E+02  0.51100000000E-03 0.  1.
         12    1    4    4    0    0  0.23305923438E+02 -0.47678862084E+01 -0.16693621702E+02  0.29061586531E+02  0.00000000000E+00 0. -1.
</event>
<event>
 8    1  0.9870402E-014  0.9118800E+02  0.7816164E-02  0.1184000E+00
        -11   -1    0    0    0    0  0.00000000000E+00  0.00000000000E+00  0.45593999997E+02  0.45594000000E+02  0.51100000000E-03 0. -1.
         11   -1    0    0    0    0 -0.00000000000E+00 -0.00000000000E+00 -0.45593999997E+02  0.45594000000E+02  0.51100000000E-03 0.  1.
         23    2    1    2    0    0  0.00000000000E+00 -0.17763568394E-14  0.00000000000E+00  0.91188000000E+02  0.91188000000E+02 0.  0.
    9900012    2    3    3    0    0  0.36695828509E+02  0.15540234252E+02  0.80673927913E+01  0.50528861581E+02  0.30000005260E+02 0.  0.
        -12    1    3    3    0    0 -0.36695828509E+02 -0.15540234252E+02 -0.80673927913E+01  0.40659138419E+02  0.00000000000E+00 0.  1.
         11    1    4    4    0    0  0.74077215102E+01  0.24473751716E+01 -0.77347038545E+01  0.10985883086E+02  0.51100000000E-03 0. -1.
        -11    1    4    4    0    0  0.24660396416E+02  0.56177932032E+01  0.52906933790E+01  0.25839624389E+02  0.51100000000E-03 0.  1.
        -12    1    4    4    0    0  0.46277105825E+01  0.74750658772E+01  0.10511403267E+02  0.13703354106E+02  0.00000000000E+00 0.  1.
</event>
<event>
 8    1  0.9870402E-014  0.9118800E+02  0.7816164E-02  0.1184000E+00
        -11   -1    0    0    0    0  0.00000000000E+00  0.00000000000E+00  0.45593999997E+02  0.45594000000E+02  0.51100000000E-03 0. -1.
         11   -1    0    0    0    0 -0.00000000000E+00 -0.00000000000E+00 -0.45593999997E+02  0.45594000000E+02  0.51100000000E-03 0.  1.
         23    2    1    2    0    0  0.17763568394E-14  0.00000000000E+00  0.00000000000E+00  0.91188000000E+02  0.91188000000E+02 0.  0.
    9900012    2    3    3    0    0 -0.11123821036E+02  0.84978082259E+01 -0.38173473647E+02  0.50528853066E+02  0.29999979380E+02 0.  0.
         12    1    3    3    0    0  0.11123821036E+02 -0.84978082259E+01  0.38173473647E+02  0.40659146934E+02  0.00000000000E+00 0. -1.
         11    1    4    4    0    0  0.52218340709E+00 -0.23782919692E+01 -0.11846184377E+00  0.24378231419E+01  0.51100000000E-03 0. -1.
        -11    1    4    4    0    0  0.73248032863E+01  0.14821269207E+01 -0.55845933088E+01  0.93293690075E+01  0.51100000000E-03 0.  1.
        -12    1    4    4    0    0 -0.18970807729E+02  0.93939732744E+01 -0.32470418495E+02  0.38761660917E+02  0.00000000000E+00 0.  1.
</event>
<event>
 8    1  0.9870402E-014  0.9118800E+02  0.7816164E-02  0.1184000E+00
        -11   -1    0    0    0    0  0.00000000000E+00  0.00000000000E+00  0.45593999997E+02  0.45594000000E+02  0.51100000000E-03 0. -1.
         11   -1    0    0    0    0 -0.00000000000E+00 -0.00000000000E+00 -0.45593999997E+02  0.45594000000E+02  0.51100000000E-03 0.  1.
         23    2    1    2    0    0 -0.88817841970E-15  0.00000000000E+00  0.71054273576E-14  0.91188000000E+02  0.91188000000E+02 0.  0.
    9900012    2    3    3    0    0 -0.63361792021E+01 -0.13364723351E+02  0.37873506619E+02  0.50528862027E+02  0.30000006616E+02 0.  0.
        -12    1    3    3    0    0  0.63361792021E+01  0.13364723351E+02 -0.37873506619E+02  0.40659137973E+02  0.00000000000E+00 0.  1.
         11    1    4    4    0    0 -0.15038068728E+02  0.71320786520E+00  0.10619308009E+02  0.18423405749E+02  0.51100000000E-03 0. -1.
        -11    1    4    4    0    0  0.18627019561E+01 -0.83144038578E+00  0.38392868059E+01  0.43475366740E+01  0.51100000000E-03 0.  1.
         12    1    4    4    0    0  0.68391875701E+01 -0.13246490830E+02  0.23414911804E+02  0.27757919604E+02  0.00000000000E+00 0. -1.
</event>
<event>
 8    1  0.9870402E-014  0.9118800E+02  0.7816164E-02  0.1184000E+00
        -11   -1    0    0    0    0  0.00000000000E+00  0.00000000000E+00  0.45593999997E+02  0.45594000000E+02  0.51100000000E-03 0. -1.
         11   -1    0    0    0    0 -0.00000000000E+00 -0.00000000000E+00 -0.45593999997E+02  0.45594000000E+02  0.51100000000E-03 0.  1.
         23    2    1    2    0    0  0.00000000000E+00  0.00000000000E+00  0.00000000000E+00  0.91188000000E+02  0.91188000000E+02 0.  0.
    9900012    2    3    3    0    0 -0.13669166312E+02  0.23234429223E+02 -0.30438160548E+02  0.50528850642E+02  0.29999972012E+02 0.  0.
         12    1    3    3    0    0  0.13669166312E+02 -0.23234429223E+02  0.30438160548E+02  0.40659149358E+02  0.00000000000E+00 0. -1.
         11    1    4    4    0    0 -0.13691105367E+02  0.13497448434E+02 -0.20804370857E+02  0.28327536557E+02  0.51100000000E-03 0. -1.
        -11    1    4    4    0    0 -0.46228157391E+01  0.33734015932E+01  0.36279962866E+01  0.67758852546E+01  0.51100000000E-03 0.  1.
        -12    1    4    4    0    0  0.46447547943E+01  0.63635791964E+01 -0.13261785977E+02  0.15425428830E+02  0.00000000000E+00 0.  1.
</event>
<event>
 8    1  0.9870402E-014  0.9118800E+02  0.7816164E-02  0.1184000E+00
        -11   -1    0    0    0    0  0.00000000000E+00  0.00000000000E+00  0.45593999997E+02  0.45594000000E+02  0.51100000000E-03 0. -1.
         11   -1    0    0    0    0 -0.00000000000E+00 -0.00000000000E+00 -0.45593999997E+02  0.45594000000E+02  0.51100000000E-03 0.  1.
         23    2    1    2    0    0  0.00000000000E+00 -0.44408920985E-15  0.00000000000E+00  0.91188000000E+02  0.91188000000E+02 0.  0.
    9900012    2    3    3    0    0 -0.61656056939E+01 -0.24423172144E+01 -0.40114660984E+02  0.50528860402E+02  0.30000001678E+02 0.  0.
         12    1    3    3    0    0  0.61656056939E+01  0.24423172144E+01  0.40114660984E+02  0.40659139598E+02  0.00000000000E+00 0. -1.
         11    1    4    4    0    0 -0.32576715960E+01 -0.63102272284E+01 -0.22369184484E+01  0.74454816035E+01  0.51100000000E-03 0. -1.
        -11    1    4    4    0    0  0.21312335198E+01 -0.72625525723E+01 -0.20396888128E+02  0.21755915787E+02  0.51100000000E-03 0.  1.
        -12    1    4    4    0    0 -0.50391676177E+01  0.11130462586E+02 -0.17480854408E+02  0.21327463011E+02  0.00000000000E+00 0.  1.
</event>
<event>
 8    1  0.9870402E-014  0.9118800E+02  0.7816164E-02  0.1184000E+00
        -11   -1    0    0    0    0  0.00000000000E+00  0.00000000000E+00  0.45593999997E+02  0.45594000000E+02  0.51100000000E-03 0. -1.
         11   -1    0    0    0    0 -0.00000000000E+00 -0.00000000000E+00 -0.45593999997E+02  0.45594000000E+02  0.51100000000E-03 0.  1.
         23    2    1    2    0    0  0.00000000000E+00  0.00000000000E+00 -0.71054273576E-14  0.91188000000E+02  0.91188000000E+02 0.  0.
    9900012    2    3    3    0    0  0.88654113513E+01  0.60674784815E+01  0.39214202575E+02  0.50528886665E+02  0.30000081508E+02 0.  0.
        -12    1    3    3    0    0 -0.88654113513E+01 -0.60674784815E+01 -0.39214202575E+02  0.40659113335E+02  0.00000000000E+00 0.  1.
         11    1    4    4    0    0 -0.47907100936E+01  0.65832179804E+01  0.56647389629E+01  0.99186153246E+01  0.51100000000E-03 0. -1.
        -11    1    4    4    0    0 -0.37421754976E+01 -0.18232849010E+01  0.13015015858E+02  0.13664511822E+02  0.51100000000E-03 0.  1.
        -12    1    4    4    0    0  0.17398296943E+02  0.13075454020E+01  0.20534447754E+02  0.26945759518E+02  0.00000000000E+00 0.  1.
</event>
<event>
 8    1  0.9870402E-014  0.9118800E+02  0.7816164E-02  0.1184000E+00
        -11   -1    0    0    0    0  0.00000000000E+00  0.00000000000E+00  0.45593999997E+02  0.45594000000E+02  0.51100000000E-03 0. -1.
         11   -1    0    0    0    0 -0.00000000000E+00 -0.00000000000E+00 -0.45593999997E+02  0.45594000000E+02  0.51100000000E-03 0.  1.
         23    2    1    2    0    0 -0.71054273576E-14  0.00000000000E+00  0.00000000000E+00  0.91188000000E+02  0.91188000000E+02 0.  0.
    9900012    2    3    3    0    0 -0.21165418840E+02  0.11224436450E+01  0.34697709829E+02  0.50528857095E+02  0.29999991626E+02 0.  0.
        -12    1    3    3    0    0  0.21165418840E+02 -0.11224436450E+01 -0.34697709829E+02  0.40659142905E+02  0.00000000000E+00 0.  1.
         11    1    4    4    0    0  0.66146034882E+01 -0.28303499481E+00  0.97566769150E+01  0.11790921626E+02  0.51100000000E-03 0. -1.
        -11    1    4    4    0    0 -0.13209794003E+02  0.27467718576E+01  0.18127247553E+02  0.22597356423E+02  0.51100000000E-03 0.  1.
        -12    1    4    4    0    0 -0.14570228326E+02 -0.13412932178E+01  0.68137853608E+01  0.16140579045E+02  0.00000000000E+00 0.  1.
</event>
<event>
 8    1  0.9870402E-014  0.9118800E+02  0.7816164E-02  0.1184000E+00
        -11   -1    0    0    0    0  0.00000000000E+00  0.00000000000E+00  0.45593999997E+02  0.45594000000E+02  0.51100000000E-03 0. -1.
         11   -1    0    0    0    0 -0.00000000000E+00 -0.00000000000E+00 -0.45593999997E+02  0.45594000000E+02  0.51100000000E-03 0.  1.
         23    2    1    2    0    0 -0.17763568394E-14  0.00000000000E+00 -0.71054273576E-14  0.91188000000E+02  0.91188000000E+02 0.  0.
    9900012    2    3    3    0    0 -0.95552994374E+01  0.62613342364E+01 -0.39021228729E+02  0.50528876236E+02  0.30000049806E+02 0.  0.
         12    1    3    3    0    0  0.95552994374E+01 -0.62613342364E+01  0.39021228729E+02  0.40659123764E+02  0.00000000000E+00 0. -1.
         11    1    4    4    0    0  0.40256207350E+01  0.65636896615E+01 -0.63161925125E+01  0.99590126212E+01  0.51100000000E-03 0. -1.
        -11    1    4    4    0    0 -0.49472199507E+01  0.92566587587E+01 -0.10178187336E+02  0.14620404041E+02  0.51100000000E-03 0.  1.
         12    1    4    4    0    0 -0.86337002216E+01 -0.95590141838E+01 -0.22526848880E+02  0.25949459573E+02  0.00000000000E+00 0. -1.
</event>
<event>
 8    1  0.9870402E-014  0.9118800E+02  0.7816164E-02  0.1184000E+00
        -11   -1    0    0    0    0  0.00000000000E+00  0.00000000000E+00  0.45593999997E+02  0.45594000000E+02  0.51100000000E-03 0. -1.
         11   -1    0    0    0    0 -0.00000000000E+00 -0.00000000000E+00 -0.45593999997E+02  0.45594000000E+02  0.51100000000E-03 0.  1.
         23    2    1    2    0    0 -0.17763568394E-14  0.00000000000E+00  0.00000000000E+00  0.91188000000E+02  0.91188000000E+02 0.  0.
    9900012    2    3    3    0    0  0.93775737941E+01 -0.37890918378E+02  0.11380020205E+02  0.50528862704E+02  0.30000008675E+02 0.  0.
        -12    1    3    3    0    0 -0.93775737941E+01  0.37890918378E+02 -0.11380020205E+02  0.40659137296E+02  0.00000000000E+00 0.  1.
         11    1    4    4    0    0  0.84416489859E+01 -0.28816846752E+02  0.23816848571E+01  0.30122159905E+02  0.51100000000E-03 0. -1.
        -11    1    4    4    0    0 -0.88521221050E+00 -0.58144232884E+01 -0.38482269529E+01  0.70285112063E+01  0.51100000000E-03 0.  1.
         12    1    4    4    0    0  0.18211370187E+01 -0.32596483374E+01  0.12846562301E+02  0.13378191592E+02  0.00000000000E+00 0. -1.
</event>
<event>
 8    1  0.9870402E-014  0.9118800E+02  0.7816164E-02  0.1184000E+00
        -11   -1    0    0    0    0  0.00000000000E+00  0.00000000000E+00  0.45593999997E+02  0.45594000000E+02  0.51100000000E-03 0. -1.
         11   -1    0    0    0    0 -0.00000000000E+00 -0.00000000000E+00 -0.45593999997E+02  0.45594000000E+02  0.51100000000E-03 0.  1.
         23    2    1    2    0    0 -0.88817841970E-15  0.00000000000E+00  0.00000000000E+00  0.91188000000E+02  0.91188000000E+02 0.  0.
    9900012    2    3    3    0    0 -0.43244986058E+01  0.39611534165E+02  0.80864513165E+01  0.50528860536E+02  0.30000002085E+02 0.  0.
        -12    1    3    3    0    0  0.43244986058E+01 -0.39611534165E+02 -0.80864513165E+01  0.40659139464E+02  0.00000000000E+00 0.  1.
         11    1    4    4    0    0 -0.66143257241E+01  0.63185511285E+01  0.87015496638E+01  0.12624989503E+02  0.51100000000E-03 0. -1.
        -11    1    4    4    0    0  0.94963683237E+01  0.13758989708E+02 -0.28651404514E+01  0.16961716870E+02  0.51100000000E-03 0.  1.
         12    1    4    4    0    0 -0.72065412054E+01  0.19533993328E+02  0.22500421041E+01  0.20942154163E+02  0.00000000000E+00 0. -1.
</event>
<event>
 8    1  0.9870402E-014  0.9118800E+02  0.7816164E-02  0.1184000E+00
        -11   -1    0    0    0    0  0.00000000000E+00  0.00000000000E+00  0.45593999997E+02  0.45594000000E+02  0.51100000000E-03 0. -1.
         11   -1    0    0    0    0 -0.00000000000E+00 -0.00000000000E+00 -0.45593999997E+02  0.45594000000E+02  0.51100000000E-03 0.  1.
         23    2    1    2    0    0 -0.35527136788E-14 -0.35527136788E-14 -0.71054273576E-14  0.91188000000E+02  0.91188000000E+02 0.  0.
    9900012    2    3    3    0    0 -0.16111991459E+02 -0.69483713592E+01 -0.36678179632E+02  0.50528868253E+02  0.30000025542E+02 0.  0.
         12    1    3    3    0    0  0.16111991459E+02  0.69483713592E+01  0.36678179632E+02  0.40659131747E+02  0.00000000000E+00 0. -1.
         11    1    4    4    0    0 -0.43613545601E+01 -0.56039638471E+01 -0.75121054193E+01  0.10337192679E+02  0.51100000000E-03 0. -1.
        -11    1    4    4    0    0 -0.17559635428E+02 -0.70750410497E+01 -0.16435107140E+02  0.25070096712E+02  0.51100000000E-03 0.  1.
         12    1    4    4    0    0  0.58089985292E+01  0.57306335376E+01 -0.12730967073E+02  0.15121578861E+02  0.00000000000E+00 0. -1.
</event>
<event>
 8    1  0.9870402E-014  0.9118800E+02  0.7816164E-02  0.1184000E+00
        -11   -1    0    0    0    0  0.00000000000E+00  0.00000000000E+00  0.45593999997E+02  0.45594000000E+02  0.51100000000E-03 0. -1.
         11   -1    0    0    0    0 -0.00000000000E+00 -0.00000000000E+00 -0.45593999997E+02  0.45594000000E+02  0.51100000000E-03 0.  1.
         23    2    1    2    0    0  0.00000000000E+00  0.35527136788E-14 -0.35527136788E-14  0.91188000000E+02  0.91188000000E+02 0.  0.
    9900012    2    3    3    0    0  0.22495489622E+02 -0.28512296164E+02 -0.18280261975E+02  0.50528855103E+02  0.29999985570E+02 0.  0.
         12    1    3    3    0    0 -0.22495489622E+02  0.28512296164E+02  0.18280261975E+02  0.40659144897E+02  0.00000000000E+00 0. -1.
         11    1    4    4    0    0  0.33903902840E+01  0.33898644801E+01  0.21047542840E+01  0.52360212307E+01  0.51100000000E-03 0. -1.
        -11    1    4    4    0    0  0.45248628217E+01 -0.17018789317E+01  0.17155706682E+01  0.51297132895E+01  0.51100000000E-03 0.  1.
        -12    1    4    4    0    0  0.14580236516E+02 -0.30200281713E+02 -0.22100586927E+02  0.40163120583E+02  0.00000000000E+00 0.  1.
</event>
<event>
 8    1  0.9870402E-014  0.9118800E+02  0.7816164E-02  0.1184000E+00
        -11   -1    0    0    0    0  0.00000000000E+00  0.00000000000E+00  0.45593999997E+02  0.45594000000E+02  0.51100000000E-03 0.  1.
         11   -1    0    0    0    0 -0.00000000000E+00 -0.00000000000E+00 -0.45593999997E+02  0.45594000000E+02  0.51100000000E-03 0. -1.
         23    2    1    2    0    0 -0.35527136788E-14  0.00000000000E+00 -0.35527136788E-14  0.91188000000E+02  0.91188000000E+02 0.  0.
    9900012    2    3    3    0    0 -0.30000900130E+02 -0.18226460828E+02 -0.20516059005E+02  0.50528849000E+02  0.29999967022E+02 0.  0.
         12    1    3    3    0    0  0.30000900130E+02  0.18226460828E+02  0.20516059005E+02  0.40659151000E+02  0.00000000000E+00 0. -1.
         11    1    4    4    0    0 -0.63015649264E+01  0.15763186961E+01 -0.71498052853E+01  0.96599284175E+01  0.51100000000E-03 0. -1.
        -11    1    4    4    0    0 -0.13672033043E+02 -0.14494061721E+02 -0.19578025881E+02  0.27933875677E+02  0.51100000000E-03 0.  1.
        -12    1    4    4    0    0 -0.10027302161E+02 -0.53087178028E+01  0.62117721612E+01  0.12935044906E+02  0.00000000000E+00 0.  1.
</event>
<event>
 8    1  0.9870402E-014  0.9118800E+02  0.7816164E-02  0.1184000E+00
        -11   -1    0    0    0    0  0.00000000000E+00  0.00000000000E+00  0.45593999997E+02  0.45594000000E+02  0.51100000000E-03 0. -1.
         11   -1    0    0    0    0 -0.00000000000E+00 -0.00000000000E+00 -0.45593999997E+02  0.45594000000E+02  0.51100000000E-03 0.  1.
         23    2    1    2    0    0  0.00000000000E+00  0.88817841970E-15  0.17763568394E-14  0.91188000000E+02  0.91188000000E+02 0.  0.
    9900012    2    3    3    0    0 -0.37976879747E+02 -0.72609667712E+01 -0.12577861689E+02  0.50528835739E+02  0.29999926712E+02 0.  0.
         12    1    3    3    0    0  0.37976879747E+02  0.72609667712E+01  0.12577861689E+02  0.40659164261E+02  0.00000000000E+00 0. -1.
         11    1    4    4    0    0  0.40869343903E+01 -0.15663828944E+01 -0.23909656205E+01  0.49873144017E+01  0.51100000000E-03 0. -1.
        -11    1    4    4    0    0 -0.95748616107E+01 -0.40938350070E+01 -0.76365351773E+01  0.12913331472E+02  0.51100000000E-03 0.  1.
        -12    1    4    4    0    0 -0.32488952526E+02 -0.16007488699E+01 -0.25503608914E+01  0.32628189865E+02  0.00000000000E+00 0.  1.
</event>
<event>
 8    1  0.9870402E-014  0.9118800E+02  0.7816164E-02  0.1184000E+00
        -11   -1    0    0    0    0  0.00000000000E+00  0.00000000000E+00  0.45593999997E+02  0.45594000000E+02  0.51100000000E-03 0. -1.
         11   -1    0    0    0    0 -0.00000000000E+00 -0.00000000000E+00 -0.45593999997E+02  0.45594000000E+02  0.51100000000E-03 0.  1.
         23    2    1    2    0    0 -0.88817841970E-15  0.17763568394E-14  0.00000000000E+00  0.91188000000E+02  0.91188000000E+02 0.  0.
    9900012    2    3    3    0    0 -0.64132749613E+01  0.11874121458E+02 -0.38354153561E+02  0.50528856483E+02  0.29999989766E+02 0.  0.
         12    1    3    3    0    0  0.64132749613E+01 -0.11874121458E+02  0.38354153561E+02  0.40659143517E+02  0.00000000000E+00 0. -1.
         11    1    4    4    0    0 -0.44917837085E-01  0.89271648234E+01 -0.12224625471E+01  0.90105884567E+01  0.51100000000E-03 0. -1.
        -11    1    4    4    0    0  0.26764150695E+01  0.78418453274E+01 -0.16993922112E+02  0.18906377886E+02  0.51100000000E-03 0.  1.
        -12    1    4    4    0    0 -0.90447721937E+01 -0.48948886927E+01 -0.20137768902E+02  0.22611890140E+02  0.00000000000E+00 0.  1.
</event>
<event>
 8    1  0.9870402E-014  0.9118800E+02  0.7816164E-02  0.1184000E+00
        -11   -1    0    0    0    0  0.00000000000E+00  0.00000000000E+00  0.45593999997E+02  0.45594000000E+02  0.51100000000E-03 0. -1.
         11   -1    0    0    0    0 -0.00000000000E+00 -0.00000000000E+00 -0.45593999997E+02  0.45594000000E+02  0.51100000000E-03 0.  1.
         23    2    1    2    0    0 -0.22204460493E-15  0.00000000000E+00  0.00000000000E+00  0.91188000000E+02  0.91188000000E+02 0.  0.
    9900012    2    3    3    0    0 -0.13092008154E+01 -0.16447210619E+02 -0.37161011826E+02  0.50528861497E+02  0.30000005005E+02 0.  0.
         12    1    3    3    0    0  0.13092008154E+01  0.16447210619E+02  0.37161011826E+02  0.40659138503E+02  0.00000000000E+00 0. -1.
         11    1    4    4    0    0 -0.72221153282E+01 -0.23466514247E+00 -0.95191185312E+01  0.11951051645E+02  0.51100000000E-03 0. -1.
        -11    1    4    4    0    0 -0.40788233149E+01 -0.71629312404E+01 -0.48266391526E+00  0.82569575696E+01  0.51100000000E-03 0.  1.
         12    1    4    4    0    0  0.99917378278E+01 -0.90496142358E+01 -0.27159229380E+02  0.30320852282E+02  0.00000000000E+00 0. -1.
</event>
<event>
 8    1  0.9870402E-014  0.9118800E+02  0.7816164E-02  0.1184000E+00
        -11   -1    0    0    0    0  0.00000000000E+00  0.00000000000E+00  0.45593999997E+02  0.45594000000E+02  0.51100000000E-03 0. -1.
         11   -1    0    0    0    0 -0.00000000000E+00 -0.00000000000E+00 -0.45593999997E+02  0.45594000000E+02  0.51100000000E-03 0.  1.
         23    2    1    2    0    0 -0.35527136788E-14  0.88817841970E-15  0.00000000000E+00  0.91188000000E+02  0.91188000000E+02 0.  0.
    9900012    2    3    3    0    0  0.18024624286E+02  0.69615009965E+01 -0.35774529400E+02  0.50528849362E+02  0.29999968122E+02 0.  0.
         12    1    3    3    0    0 -0.18024624286E+02 -0.69615009965E+01  0.35774529400E+02  0.40659150638E+02  0.00000000000E+00 0. -1.
         11    1    4    4    0    0  0.15866890804E+02  0.50854281686E+01 -0.22554470875E+02  0.28041468581E+02  0.51100000000E-03 0. -1.
        -11    1    4    4    0    0  0.73895232715E+01  0.64647848973E+01 -0.11860026508E+02  0.15396711564E+02  0.51100000000E-03 0.  1.
         12    1    4    4    0    0 -0.52317897901E+01 -0.45887120694E+01 -0.13600320166E+01  0.70906692173E+01  0.00000000000E+00 0. -1.
</event>
<event>
 8    1  0.9870402E-014  0.9118800E+02  0.7816164E-02  0.1184000E+00
        -11   -1    0    0    0    0  0.00000000000E+00  0.00000000000E+00  0.45593999997E+02  0.45594000000E+02  0.51100000000E-03 0. -1.
         11   -1    0    0    0    0 -0.00000000000E+00 -0.00000000000E+00 -0.45593999997E+02  0.45594000000E+02  0.51100000000E-03 0.  1.
         23    2    1    2    0    0  0.00000000000E+00  0.35527136788E-14  0.00000000000E+00  0.91188000000E+02  0.91188000000E+02 0.  0.
    9900012    2    3    3    0    0  0.11135686993E+02  0.20040116480E+02  0.33579108327E+02  0.50528852083E+02  0.29999976390E+02 0.  0.
        -12    1    3    3    0    0 -0.11135686993E+02 -0.20040116480E+02 -0.33579108327E+02  0.40659147917E+02  0.00000000000E+00 0.  1.
         11    1    4    4    0    0  0.69985928841E+01  0.18747349472E+01  0.23397864704E+02  0.24493978984E+02  0.51100000000E-03 0. -1.
        -11    1    4    4    0    0  0.66202528794E+01  0.10939968217E+01  0.29267094124E+01  0.73205331417E+01  0.51100000000E-03 0.  1.
         12    1    4    4    0    0 -0.24831587703E+01  0.17071384711E+02  0.72545342104E+01  0.18714339957E+02  0.00000000000E+00 0. -1.
</event>
<event>
 8    1  0.9870402E-014  0.9118800E+02  0.7816164E-02  0.1184000E+00
        -11   -1    0    0    0    0  0.00000000000E+00  0.00000000000E+00  0.45593999997E+02  0.45594000000E+02  0.51100000000E-03 0. -1.
         11   -1    0    0    0    0 -0.00000000000E+00 -0.00000000000E+00 -0.45593999997E+02  0.45594000000E+02  0.51100000000E-03 0.  1.
         23    2    1    2    0    0  0.17763568394E-14  0.00000000000E+00  0.00000000000E+00  0.91188000000E+02  0.91188000000E+02 0.  0.
    9900012    2    3    3    0    0  0.84413872639E+01  0.29446735739E+02 -0.26735740244E+02  0.50528842716E+02  0.29999947919E+02 0.  0.
         12    1    3    3    0    0 -0.84413872639E+01 -0.29446735739E+02  0.26735740244E+02  0.40659157284E+02  0.00000000000E+00 0. -1.
         11    1    4    4    0    0 -0.23353940533E+01  0.12677779543E+01  0.25342838384E+01  0.36720459093E+01  0.51100000000E-03 0. -1.
        -11    1    4    4    0    0  0.33901973985E+01  0.16007198821E+02 -0.25220247777E+01  0.16555496421E+02  0.51100000000E-03 0.  1.
        -12    1    4    4    0    0  0.73865839187E+01  0.12171758964E+02 -0.26747999305E+02  0.30301300386E+02  0.00000000000E+00 0.  1.
</event>
<event>
 8    1  0.9870403E-014  0.9118800E+02  0.7816164E-02  0.1184000E+00
        -11   -1    0    0    0    0  0.00000000000E+00  0.00000000000E+00  0.45593999997E+02  0.45594000000E+02  0.51100000000E-03 0. -1.
         11   -1    0    0    0    0 -0.00000000000E+00 -0.00000000000E+00 -0.45593999997E+02  0.45594000000E+02  0.51100000000E-03 0.  1.
         23    2    1    2    0    0 -0.35527136788E-14  0.00000000000E+00  0.71054273576E-14  0.91188000000E+02  0.91188000000E+02 0.  0.
    9900012    2    3    3    0    0  0.22756763918E+02 -0.57960505549E+01 -0.33191888527E+02  0.50528856255E+02  0.29999989073E+02 0.  0.
         12    1    3    3    0    0 -0.22756763918E+02  0.57960505549E+01  0.33191888527E+02  0.40659143745E+02  0.00000000000E+00 0. -1.
         11    1    4    4    0    0  0.21962771970E+01  0.41798849179E+01 -0.20010027510E+01  0.51282632269E+01  0.51100000000E-03 0. -1.
        -11    1    4    4    0    0  0.20751390783E+02  0.17095824854E+00 -0.27818668714E+02  0.34706307429E+02  0.51100000000E-03 0.  1.
         12    1    4    4    0    0 -0.19090406175E+00 -0.10146893721E+02 -0.33722170627E+01  0.10694285599E+02  0.00000000000E+00 0. -1.
</event>
<event>
 8    1  0.9870402E-014  0.9118800E+02  0.7816164E-02  0.1184000E+00
        -11   -1    0    0    0    0  0.00000000000E+00  0.00000000000E+00  0.45593999997E+02  0.45594000000E+02  0.51100000000E-03 0. -1.
         11   -1    0    0    0    0 -0.00000000000E+00 -0.00000000000E+00 -0.45593999997E+02  0.45594000000E+02  0.51100000000E-03 0.  1.
         23    2    1    2    0    0  0.22204460493E-15 -0.33306690739E-15 -0.71054273576E-14  0.91188000000E+02  0.91188000000E+02 0.  0.
    9900012    2    3    3    0    0  0.13962776959E+01 -0.64738680274E+00  0.40630017857E+02  0.50528842949E+02  0.29999948627E+02 0.  0.
        -12    1    3    3    0    0 -0.13962776959E+01  0.64738680274E+00 -0.40630017857E+02  0.40659157051E+02  0.00000000000E+00 0.  1.
         11    1    4    4    0    0  0.65297391803E+01 -0.37839034040E+01  0.68007090422E+01  0.10158989245E+02  0.51100000000E-03 0. -1.
        -11    1    4    4    0    0 -0.70037810640E+01 -0.79193254730E+01  0.19426324696E+02  0.22116752849E+02  0.51100000000E-03 0.  1.
        -12    1    4    4    0    0  0.18703195796E+01  0.11055842074E+02  0.14402984119E+02  0.18253100855E+02  0.00000000000E+00 0.  1.
</event>
<event>
 8    1  0.9870402E-014  0.9118800E+02  0.7816164E-02  0.1184000E+00
        -11   -1    0    0    0    0  0.00000000000E+00  0.00000000000E+00  0.45593999997E+02  0.45594000000E+02  0.51100000000E-03 0. -1.
         11   -1    0    0    0    0 -0.00000000000E+00 -0.00000000000E+00 -0.45593999997E+02  0.45594000000E+02  0.51100000000E-03 0.  1.
         23    2    1    2    0    0 -0.22204460493E-15  0.00000000000E+00  0.00000000000E+00  0.91188000000E+02  0.91188000000E+02 0.  0.
    9900012    2    3    3    0    0 -0.14338886956E+01  0.11339385205E+02  0.39019585801E+02  0.50528858719E+02  0.29999996563E+02 0.  0.
        -12    1    3    3    0    0  0.14338886956E+01 -0.11339385205E+02 -0.39019585801E+02  0.40659141281E+02  0.00000000000E+00 0.  1.
         11    1    4    4    0    0  0.43809836937E+01 -0.14056413740E+01  0.13277920069E+02  0.14052473356E+02  0.51100000000E-03 0. -1.
        -11    1    4    4    0    0  0.40575169441E+01  0.14514518918E+01  0.19928452410E+02  0.20389050298E+02  0.51100000000E-03 0.  1.
        -12    1    4    4    0    0 -0.98723893334E+01  0.11293574687E+02  0.58132133218E+01  0.16087335065E+02  0.00000000000E+00 0.  1.
</event>
<event>
 8    1  0.9870402E-014  0.9118800E+02  0.7816164E-02  0.1184000E+00
        -11   -1    0    0    0    0  0.00000000000E+00  0.00000000000E+00  0.45593999997E+02  0.45594000000E+02  0.51100000000E-03 0. -1.
         11   -1    0    0    0    0 -0.00000000000E+00 -0.00000000000E+00 -0.45593999997E+02  0.45594000000E+02  0.51100000000E-03 0.  1.
         23    2    1    2    0    0  0.00000000000E+00  0.00000000000E+00  0.00000000000E+00  0.91188000000E+02  0.91188000000E+02 0.  0.
    9900012    2    3    3    0    0  0.21818345440E+02 -0.23221219721E+02 -0.25256690954E+02  0.50528859810E+02  0.29999999877E+02 0.  0.
         12    1    3    3    0    0 -0.21818345440E+02  0.23221219721E+02  0.25256690954E+02  0.40659140190E+02  0.00000000000E+00 0. -1.
         11    1    4    4    0    0  0.83422651301E+01 -0.11211465700E+02 -0.26416524317E+02  0.29885165348E+02  0.51100000000E-03 0. -1.
        -11    1    4    4    0    0  0.54886055135E+01 -0.71454704304E+00  0.35907914606E+01  0.65976625811E+01  0.51100000000E-03 0.  1.
        -12    1    4    4    0    0  0.79874747964E+01 -0.11295206979E+02 -0.24309580975E+01  0.14046031880E+02  0.00000000000E+00 0.  1.
</event>
<event>
 8    1  0.9870402E-014  0.9118800E+02  0.7816164E-02  0.1184000E+00
        -11   -1    0    0    0    0  0.00000000000E+00  0.00000000000E+00  0.45593999997E+02  0.45594000000E+02  0.51100000000E-03 0. -1.
         11   -1    0    0    0    0 -0.00000000000E+00 -0.00000000000E+00 -0.45593999997E+02  0.45594000000E+02  0.51100000000E-03 0.  1.
         23    2    1    2    0    0  0.35527136788E-14  0.00000000000E+00 -0.88817841970E-15  0.91188000000E+02  0.91188000000E+02 0.  0.
    9900012    2    3    3    0    0 -0.22370923940E+02 -0.33612376425E+02 -0.47870229625E+01  0.50528859875E+02  0.30000000075E+02 0.  0.
         12    1    3    3    0    0  0.22370923940E+02  0.33612376425E+02  0.47870229625E+01  0.40659140125E+02  0.00000000000E+00 0. -1.
         11    1    4    4    0    0  0.20728392757E+01 -0.25288804731E-01 -0.53245688225E+01  0.57138722065E+01  0.51100000000E-03 0. -1.
        -11    1    4    4    0    0 -0.39114995653E+00 -0.59695927032E+01 -0.49731897251E+01  0.77795662883E+01  0.51100000000E-03 0.  1.
        -12    1    4    4    0    0 -0.24052613259E+02 -0.27617494917E+02  0.55107355850E+01  0.37035421380E+02  0.00000000000E+00 0.  1.
</event>
<event>
 8    1  0.9870402E-014  0.9118800E+02  0.7816164E-02  0.1184000E+00
        -11   -1    0    0    0    0  0.00000000000E+00  0.00000000000E+00  0.45593999997E+02  0.45594000000E+02  0.51100000000E-03 0. -1.
         11   -1    0    0    0    0 -0.00000000000E+00 -0.00000000000E+00 -0.45593999997E+02  0.45594000000E+02  0.51100000000E-03 0.  1.
         23    2    1    2    0    0  0.71054273576E-14 -0.17763568394E-14  0.00000000000E+00  0.91188000000E+02  0.91188000000E+02 0.  0.
    9900012    2    3    3    0    0 -0.29040099155E+02  0.92263709278E+01 -0.26920463727E+02  0.50528872529E+02  0.30000038539E+02 0.  0.
         12    1    3    3    0    0  0.29040099155E+02 -0.92263709278E+01  0.26920463727E+02  0.40659127471E+02  0.00000000000E+00 0. -1.
         11    1    4    4    0    0 -0.87116055084E+01 -0.66387933440E+01 -0.86315315861E+01  0.13945213709E+02  0.51100000000E-03 0. -1.
        -11    1    4    4    0    0 -0.12212470785E+01  0.11533058604E+02 -0.37587229228E+01  0.12191426638E+02  0.51100000000E-03 0.  1.
         12    1    4    4    0    0 -0.19107246568E+02  0.43321056678E+01 -0.14530209218E+02  0.24392232183E+02  0.00000000000E+00 0. -1.
</event>
<event>
 8    1  0.9870402E-014  0.9118800E+02  0.7816164E-02  0.1184000E+00
        -11   -1    0    0    0    0  0.00000000000E+00  0.00000000000E+00  0.45593999997E+02  0.45594000000E+02  0.51100000000E-03 0. -1.
         11   -1    0    0    0    0 -0.00000000000E+00 -0.00000000000E+00 -0.45593999997E+02  0.45594000000E+02  0.51100000000E-03 0.  1.
         23    2    1    2    0    0 -0.88817841970E-15  0.00000000000E+00 -0.35527136788E-14  0.91188000000E+02  0.91188000000E+02 0.  0.
    9900012    2    3    3    0    0  0.65692464078E+01 -0.32657053546E+02  0.23313687924E+02  0.50528853559E+02  0.29999980879E+02 0.  0.
        -12    1    3    3    0    0 -0.65692464078E+01  0.32657053546E+02 -0.23313687924E+02  0.40659146441E+02  0.00000000000E+00 0.  1.
         11    1    4    4    0    0  0.13331565459E+01  0.30993052363E+01  0.31171435257E+01  0.45934282779E+01  0.51100000000E-03 0. -1.
        -11    1    4    4    0    0 -0.72821242038E+01 -0.81935371943E+01  0.46964003593E+01  0.11925584316E+02  0.51100000000E-03 0.  1.
        -12    1    4    4    0    0  0.12518214066E+02 -0.27562821588E+02  0.15500144039E+02  0.34009840966E+02  0.00000000000E+00 0.  1.
</event>
<event>
 8    1  0.9870402E-014  0.9118800E+02  0.7816164E-02  0.1184000E+00
        -11   -1    0    0    0    0  0.00000000000E+00  0.00000000000E+00  0.45593999997E+02  0.45594000000E+02  0.51100000000E-03 0. -1.
         11   -1    0    0    0    0 -0.00000000000E+00 -0.00000000000E+00 -0.45593999997E+02  0.45594000000E+02  0.51100000000E-03 0.  1.
         23    2    1    2    0    0  0.00000000000E+00 -0.35527136788E-14 -0.17763568394E-14  0.91188000000E+02  0.91188000000E+02 0.  0.
    9900012    2    3    3    0    0  0.32741880846E+02 -0.23456369774E+02 -0.55613083582E+01  0.50528927274E+02  0.30000204940E+02 0.  0.
         12    1    3    3    0    0 -0.32741880846E+02  0.23456369774E+02  0.55613083582E+01  0.40659072726E+02  0.00000000000E+00 0. -1.
         11    1    4    4    0    0  0.12224200779E+02 -0.14009783389E+02 -0.11367938279E+02  0.21793006591E+02  0.51100000000E-03 0. -1.
        -11    1    4    4    0    0  0.22041048648E+02 -0.53901388239E+01  0.16807002188E+01  0.22752717982E+02  0.51100000000E-03 0.  1.
        -12    1    4    4    0    0 -0.15233685816E+01 -0.40564475615E+01  0.41259297022E+01  0.59832027011E+01  0.00000000000E+00 0.  1.
</event>
<event>
 8    1  0.9870402E-014  0.9118800E+02  0.7816164E-02  0.1184000E+00
        -11   -1    0    0    0    0  0.00000000000E+00  0.00000000000E+00  0.45593999997E+02  0.45594000000E+02  0.51100000000E-03 0. -1.
         11   -1    0    0    0    0 -0.00000000000E+00 -0.00000000000E+00 -0.45593999997E+02  0.45594000000E+02  0.51100000000E-03 0.  1.
         23    2    1    2    0    0 -0.17763568394E-14  0.00000000000E+00 -0.71054273576E-14  0.91188000000E+02  0.91188000000E+02 0.  0.
    9900012    2    3    3    0    0 -0.14311262822E+02 -0.22907391008E+02  0.30390865182E+02  0.50528862124E+02  0.30000006912E+02 0.  0.
        -12    1    3    3    0    0  0.14311262822E+02  0.22907391008E+02 -0.30390865182E+02  0.40659137876E+02  0.00000000000E+00 0.  1.
         11    1    4    4    0    0 -0.29207925309E+01 -0.14966925021E+02  0.22043984416E+02  0.26804423567E+02  0.51100000000E-03 0. -1.
        -11    1    4    4    0    0 -0.13897912431E+01 -0.11506537021E+02  0.43574514232E+01  0.12382216970E+02  0.51100000000E-03 0.  1.
        -12    1    4    4    0    0 -0.10000679048E+02  0.35660710347E+01  0.39894293430E+01  0.11342221587E+02  0.00000000000E+00 0.  1.
</event>
<event>
 8    1  0.9870402E-014  0.9118800E+02  0.7816164E-02  0.1184000E+00
        -11   -1    0    0    0    0  0.00000000000E+00  0.00000000000E+00  0.45593999997E+02  0.45594000000E+02  0.51100000000E-03 0. -1.
         11   -1    0    0    0    0 -0.00000000000E+00 -0.00000000000E+00 -0.45593999997E+02  0.45594000000E+02  0.51100000000E-03 0.  1.
         23    2    1    2    0    0 -0.35527136788E-14  0.35527136788E-14  0.71054273576E-14  0.91188000000E+02  0.91188000000E+02 0.  0.
    9900012    2    3    3    0    0 -0.90101841991E+01  0.19194778620E+02  0.34692112310E+02  0.50528860780E+02  0.30000002827E+02 0.  0.
        -12    1    3    3    0    0  0.90101841991E+01 -0.19194778620E+02 -0.34692112310E+02  0.40659139220E+02  0.00000000000E+00 0.  1.
         11    1    4    4    0    0 -0.14559777120E+02  0.59607771660E+01  0.17734049587E+02  0.23706844776E+02  0.51100000000E-03 0. -1.
        -11    1    4    4    0    0 -0.28300616127E+01  0.79592057713E+01  0.16751560858E+01  0.86118728169E+01  0.51100000000E-03 0.  1.
         12    1    4    4    0    0  0.83796545340E+01  0.52747956827E+01  0.15282906638E+02  0.18210143187E+02  0.00000000000E+00 0. -1.
</event>
<event>
 8    1  0.9870402E-014  0.9118800E+02  0.7816164E-02  0.1184000E+00
        -11   -1    0    0    0    0  0.00000000000E+00  0.00000000000E+00  0.45593999997E+02  0.45594000000E+02  0.51100000000E-03 0. -1.
         11   -1    0    0    0    0 -0.00000000000E+00 -0.00000000000E+00 -0.45593999997E+02  0.45594000000E+02  0.51100000000E-03 0.  1.
         23    2    1    2    0    0 -0.44408920985E-15  0.88817841970E-15 -0.71054273576E-14  0.91188000000E+02  0.91188000000E+02 0.  0.
    9900012    2    3    3    0    0 -0.22297448599E+01  0.70328056412E+01 -0.39984163631E+02  0.50528862544E+02  0.30000008190E+02 0.  0.
         12    1    3    3    0    0  0.22297448599E+01 -0.70328056412E+01  0.39984163631E+02  0.40659137456E+02  0.00000000000E+00 0. -1.
         11    1    4    4    0    0 -0.13404812331E+01  0.10634742694E+02 -0.14249445550E+01  0.10813191451E+02  0.51100000000E-03 0. -1.
        -11    1    4    4    0    0 -0.35574517536E+01 -0.34503884206E+01 -0.11468921112E+02  0.12493870295E+02  0.51100000000E-03 0.  1.
        -12    1    4    4    0    0  0.26681881268E+01 -0.15154863257E+00 -0.27090297965E+02  0.27221800798E+02  0.00000000000E+00 0.  1.
</event>
<event>
 8    1  0.9870402E-014  0.9118800E+02  0.7816164E-02  0.1184000E+00
        -11   -1    0    0    0    0  0.00000000000E+00  0.00000000000E+00  0.45593999997E+02  0.45594000000E+02  0.51100000000E-03 0. -1.
         11   -1    0    0    0    0 -0.00000000000E+00 -0.00000000000E+00 -0.45593999997E+02  0.45594000000E+02  0.51100000000E-03 0.  1.
         23    2    1    2    0    0  0.00000000000E+00 -0.88817841970E-15 -0.71054273576E-14  0.91188000000E+02  0.91188000000E+02 0.  0.
    9900012    2    3    3    0    0 -0.17165350268E+02 -0.78011455466E+01 -0.36023028401E+02  0.50528859615E+02  0.29999999286E+02 0.  0.
         12    1    3    3    0    0  0.17165350268E+02  0.78011455466E+01  0.36023028401E+02  0.40659140385E+02  0.00000000000E+00 0. -1.
         11    1    4    4    0    0  0.38080815700E+01 -0.17165935121E+01 -0.17034731842E+01  0.45110973920E+01  0.51100000000E-03 0. -1.
        -11    1    4    4    0    0 -0.12601026502E+02  0.66783150495E+01 -0.10430680318E+02  0.17668753577E+02  0.51100000000E-03 0.  1.
        -12    1    4    4    0    0 -0.83724053364E+01 -0.12762867084E+02 -0.23888874898E+02  0.28349008646E+02  0.00000000000E+00 0.  1.
</event>
<event>
 8    1  0.9870402E-014  0.9118800E+02  0.7816164E-02  0.1184000E+00
        -11   -1    0    0    0    0  0.00000000000E+00  0.00000000000E+00  0.45593999997E+02  0.45594000000E+02  0.51100000000E-03 0.  1.
         11   -1    0    0    0    0 -0.00000000000E+00 -0.00000000000E+00 -0.45593999997E+02  0.45594000000E+02  0.51100000000E-03 0. -1.
         23    2    1    2    0    0 -0.71054273576E-14  0.62450045135E-15  0.00000000000E+00  0.91188000000E+02  0.91188000000E+02 0.  0.
    9900012    2    3    3    0    0 -0.37557052595E+02 -0.12232692352E+00  0.15576252390E+02  0.50528846025E+02  0.29999957976E+02 0.  0.
         12    1    3    3    0    0  0.37557052595E+02  0.12232692352E+00 -0.15576252390E+02  0.40659153975E+02  0.00000000000E+00 0. -1.
         11    1    4    4    0    0 -0.36237107975E+02  0.84449819053E+00  0.13017814176E+02  0.38513694419E+02  0.51100000000E-03 0. -1.
        -11    1    4    4    0    0 -0.31550273423E+01  0.35522436799E+01  0.47047447120E+01  0.66863484622E+01  0.51100000000E-03 0.  1.
        -12    1    4    4    0    0  0.18350827227E+01 -0.45190687940E+01 -0.21463064975E+01  0.53288031438E+01  0.00000000000E+00 0.  1.
</event>
<event>
 8    1  0.9870402E-014  0.9118800E+02  0.7816164E-02  0.1184000E+00
        -11   -1    0    0    0    0  0.00000000000E+00  0.00000000000E+00  0.45593999997E+02  0.45594000000E+02  0.51100000000E-03 0. -1.
         11   -1    0    0    0    0 -0.00000000000E+00 -0.00000000000E+00 -0.45593999997E+02  0.45594000000E+02  0.51100000000E-03 0.  1.
         23    2    1    2    0    0 -0.35527136788E-14 -0.35527136788E-14  0.35527136788E-14  0.91188000000E+02  0.91188000000E+02 0.  0.
    9900012    2    3    3    0    0  0.27829408231E+02 -0.18187065303E+02  0.23407733130E+02  0.50528840182E+02  0.29999940216E+02 0.  0.
        -12    1    3    3    0    0 -0.27829408231E+02  0.18187065303E+02 -0.23407733130E+02  0.40659159818E+02  0.00000000000E+00 0.  1.
         11    1    4    4    0    0  0.31930599632E+01  0.18304390251E+01 -0.24431014940E+01  0.44175654069E+01  0.51100000000E-03 0. -1.
        -11    1    4    4    0    0  0.21538637640E+02 -0.66000293699E+01  0.87776180380E+01  0.24176845902E+02  0.51100000000E-03 0.  1.
         12    1    4    4    0    0  0.30977106279E+01 -0.13417474958E+02  0.17073216586E+02  0.21934428873E+02  0.00000000000E+00 0. -1.
</event>
<event>
 8    1  0.9870402E-014  0.9118800E+02  0.7816164E-02  0.1184000E+00
        -11   -1    0    0    0    0  0.00000000000E+00  0.00000000000E+00  0.45593999997E+02  0.45594000000E+02  0.51100000000E-03 0. -1.
         11   -1    0    0    0    0 -0.00000000000E+00 -0.00000000000E+00 -0.45593999997E+02  0.45594000000E+02  0.51100000000E-03 0.  1.
         23    2    1    2    0    0  0.35527136788E-14  0.35527136788E-14  0.35527136788E-14  0.91188000000E+02  0.91188000000E+02 0.  0.
    9900012    2    3    3    0    0 -0.31537982878E+02 -0.15101094545E+02 -0.20747953388E+02  0.50528868304E+02  0.30000025696E+02 0.  0.
         12    1    3    3    0    0  0.31537982878E+02  0.15101094545E+02  0.20747953388E+02  0.40659131696E+02  0.00000000000E+00 0. -1.
         11    1    4    4    0    0 -0.48547998860E+01 -0.11561114941E+02  0.25911105192E+01  0.12803996040E+02  0.51100000000E-03 0. -1.
        -11    1    4    4    0    0 -0.17414553150E+02 -0.82023530021E+01 -0.15714092287E+02  0.24849103663E+02  0.51100000000E-03 0.  1.
         12    1    4    4    0    0 -0.92686298423E+01  0.46623733978E+01 -0.76249716200E+01  0.12875768601E+02  0.00000000000E+00 0. -1.
</event>
<event>
 8    1  0.9870402E-014  0.9118800E+02  0.7816164E-02  0.1184000E+00
        -11   -1    0    0    0    0  0.00000000000E+00  0.00000000000E+00  0.45593999997E+02  0.45594000000E+02  0.51100000000E-03 0. -1.
         11   -1    0    0    0    0 -0.00000000000E+00 -0.00000000000E+00 -0.45593999997E+02  0.45594000000E+02  0.51100000000E-03 0.  1.
         23    2    1    2    0    0  0.00000000000E+00  0.13322676296E-14 -0.35527136788E-14  0.91188000000E+02  0.91188000000E+02 0.  0.
    9900012    2    3    3    0    0 -0.26559129191E+02  0.37695889747E+01 -0.30554366365E+02  0.50528850373E+02  0.29999971194E+02 0.  0.
         12    1    3    3    0    0  0.26559129191E+02 -0.37695889747E+01  0.30554366365E+02  0.40659149627E+02  0.00000000000E+00 0. -1.
         11    1    4    4    0    0  0.54760254389E+00 -0.12814957097E+01 -0.66026701281E+01  0.67481369934E+01  0.51100000000E-03 0.  1.
        -11    1    4    4    0    0 -0.54420576191E+01 -0.60353131909E+01  0.18268215940E+01  0.83293621508E+01  0.51100000000E-03 0. -1.
        -12    1    4    4    0    0 -0.21664674116E+02  0.11086397875E+02 -0.25778517831E+02  0.35451351229E+02  0.00000000000E+00 0.  1.
</event>
<event>
 8    1  0.9870402E-014  0.9118800E+02  0.7816164E-02  0.1184000E+00
        -11   -1    0    0    0    0  0.00000000000E+00  0.00000000000E+00  0.45593999997E+02  0.45594000000E+02  0.51100000000E-03 0. -1.
         11   -1    0    0    0    0 -0.00000000000E+00 -0.00000000000E+00 -0.45593999997E+02  0.45594000000E+02  0.51100000000E-03 0.  1.
         23    2    1    2    0    0  0.00000000000E+00 -0.88817841970E-15  0.00000000000E+00  0.91188000000E+02  0.91188000000E+02 0.  0.
    9900012    2    3    3    0    0  0.13599480192E+02  0.20143045314E+01 -0.38264366585E+02  0.50528867762E+02  0.30000024049E+02 0.  0.
         12    1    3    3    0    0 -0.13599480192E+02 -0.20143045314E+01  0.38264366585E+02  0.40659132238E+02  0.00000000000E+00 0. -1.
         11    1    4    4    0    0  0.74898868042E+01  0.10283228804E+02 -0.17071794859E+02  0.21290593673E+02  0.51100000000E-03 0. -1.
        -11    1    4    4    0    0  0.48049643987E+00 -0.19301358077E+01 -0.20647763564E+02  0.20743346921E+02  0.51100000000E-03 0.  1.
         12    1    4    4    0    0  0.56290969480E+01 -0.63387884649E+01 -0.54480816230E+00  0.84949271678E+01  0.00000000000E+00 0. -1.
</event>
<event>
 8    1  0.9870402E-014  0.9118800E+02  0.7816164E-02  0.1184000E+00
        -11   -1    0    0    0    0  0.00000000000E+00  0.00000000000E+00  0.45593999997E+02  0.45594000000E+02  0.51100000000E-03 0. -1.
         11   -1    0    0    0    0 -0.00000000000E+00 -0.00000000000E+00 -0.45593999997E+02  0.45594000000E+02  0.51100000000E-03 0.  1.
         23    2    1    2    0    0  0.44408920985E-15 -0.17763568394E-14  0.00000000000E+00  0.91188000000E+02  0.91188000000E+02 0.  0.
    9900012    2    3    3    0    0 -0.20293102239E+01 -0.69290244027E+01 -0.40012946671E+02  0.50528863506E+02  0.30000011112E+02 0.  0.
         12    1    3    3    0    0  0.20293102239E+01  0.69290244027E+01  0.40012946671E+02  0.40659136494E+02  0.00000000000E+00 0. -1.
         11    1    4    4    0    0  0.35178788766E+01 -0.97304556262E+01 -0.13383714299E+02  0.16916886451E+02  0.51100000000E-03 0. -1.
        -11    1    4    4    0    0 -0.78994757822E+01 -0.42611360820E+01 -0.24153250748E+02  0.25767004488E+02  0.51100000000E-03 0.  1.
         12    1    4    4    0    0  0.23522866817E+01  0.70625673054E+01 -0.24759816241E+01  0.78449725672E+01  0.00000000000E+00 0. -1.
</event>
<event>
 8    1  0.9870402E-014  0.9118800E+02  0.7816164E-02  0.1184000E+00
        -11   -1    0    0    0    0  0.00000000000E+00  0.00000000000E+00  0.45593999997E+02  0.45594000000E+02  0.51100000000E-03 0. -1.
         11   -1    0    0    0    0 -0.00000000000E+00 -0.00000000000E+00 -0.45593999997E+02  0.45594000000E+02  0.51100000000E-03 0.  1.
         23    2    1    2    0    0  0.00000000000E+00  0.17763568394E-14  0.00000000000E+00  0.91188000000E+02  0.91188000000E+02 0.  0.
    9900012    2    3    3    0    0 -0.33468170452E+02 -0.12964614144E+02 -0.19104087379E+02  0.50528858249E+02  0.29999995135E+02 0.  0.
         12    1    3    3    0    0  0.33468170452E+02  0.12964614144E+02  0.19104087379E+02  0.40659141751E+02  0.00000000000E+00 0. -1.
         11    1    4    4    0    0 -0.74134393038E+01  0.69361894681E+01 -0.21507299437E+01  0.10377641649E+02  0.51100000000E-03 0. -1.
        -11    1    4    4    0    0 -0.35429056726E-01 -0.21497053121E+01  0.23689478702E+01  0.31991252585E+01  0.51100000000E-03 0.  1.
        -12    1    4    4    0    0 -0.26019302091E+02 -0.17751098300E+02 -0.19322305306E+02  0.36952091342E+02  0.00000000000E+00 0.  1.
</event>
<event>
 8    1  0.9870402E-014  0.9118800E+02  0.7816164E-02  0.1184000E+00
        -11   -1    0    0    0    0  0.00000000000E+00  0.00000000000E+00  0.45593999997E+02  0.45594000000E+02  0.51100000000E-03 0. -1.
         11   -1    0    0    0    0 -0.00000000000E+00 -0.00000000000E+00 -0.45593999997E+02  0.45594000000E+02  0.51100000000E-03 0.  1.
         23    2    1    2    0    0 -0.17763568394E-14 -0.17763568394E-14  0.00000000000E+00  0.91188000000E+02  0.91188000000E+02 0.  0.
    9900012    2    3    3    0    0 -0.10125225831E+02 -0.13981413848E+02  0.36812573822E+02  0.50528859297E+02  0.29999998318E+02 0.  0.
        -12    1    3    3    0    0  0.10125225831E+02  0.13981413848E+02 -0.36812573822E+02  0.40659140703E+02  0.00000000000E+00 0.  1.
         11    1    4    4    0    0 -0.63854571679E+01 -0.10180213183E+02  0.98481963156E+01  0.15536980873E+02  0.51100000000E-03 0. -1.
        -11    1    4    4    0    0  0.31598477470E+00  0.55787118698E+01 -0.57540616723E+00  0.56172025976E+01  0.51100000000E-03 0.  1.
         12    1    4    4    0    0 -0.40557534381E+01 -0.93799125342E+01  0.27539783674E+02  0.29374675826E+02  0.00000000000E+00 0. -1.
</event>
<event>
 8    1  0.9870402E-014  0.9118800E+02  0.7816164E-02  0.1184000E+00
        -11   -1    0    0    0    0  0.00000000000E+00  0.00000000000E+00  0.45593999997E+02  0.45594000000E+02  0.51100000000E-03 0. -1.
         11   -1    0    0    0    0 -0.00000000000E+00 -0.00000000000E+00 -0.45593999997E+02  0.45594000000E+02  0.51100000000E-03 0.  1.
         23    2    1    2    0    0  0.35527136788E-14  0.00000000000E+00  0.00000000000E+00  0.91188000000E+02  0.91188000000E+02 0.  0.
    9900012    2    3    3    0    0 -0.24245181577E+02  0.20152402335E+02 -0.25675228303E+02  0.50528862060E+02  0.30000006718E+02 0.  0.
         12    1    3    3    0    0  0.24245181577E+02 -0.20152402335E+02  0.25675228303E+02  0.40659137940E+02  0.00000000000E+00 0. -1.
         11    1    4    4    0    0 -0.66350107676E+01 -0.49136718123E+01 -0.68309276652E+01  0.10715834620E+02  0.51100000000E-03 0. -1.
        -11    1    4    4    0    0 -0.16851556975E+02  0.95240498399E+01 -0.85869997821E+01  0.21175907616E+02  0.51100000000E-03 0.  1.
        -12    1    4    4    0    0 -0.75861383487E+00  0.15542024308E+02 -0.10257300856E+02  0.18637119825E+02  0.00000000000E+00 0.  1.
</event>
<event>
 8    1  0.9870402E-014  0.9118800E+02  0.7816164E-02  0.1184000E+00
        -11   -1    0    0    0    0  0.00000000000E+00  0.00000000000E+00  0.45593999997E+02  0.45594000000E+02  0.51100000000E-03 0. -1.
         11   -1    0    0    0    0 -0.00000000000E+00 -0.00000000000E+00 -0.45593999997E+02  0.45594000000E+02  0.51100000000E-03 0.  1.
         23    2    1    2    0    0 -0.35527136788E-14  0.00000000000E+00  0.00000000000E+00  0.91188000000E+02  0.91188000000E+02 0.  0.
    9900012    2    3    3    0    0  0.19925012964E+02  0.14167461841E+02 -0.32487549503E+02  0.50528880613E+02  0.30000063112E+02 0.  0.
         12    1    3    3    0    0 -0.19925012964E+02 -0.14167461841E+02  0.32487549503E+02  0.40659119387E+02  0.00000000000E+00 0. -1.
         11    1    4    4    0    0  0.45352006372E+00  0.14096595545E+01 -0.41892498583E+01  0.44432685204E+01  0.51100000000E-03 0.  1.
        -11    1    4    4    0    0  0.12666097948E+02  0.62171657830E+01  0.20913712651E+01  0.14263836147E+02  0.51100000000E-03 0. -1.
         12    1    4    4    0    0  0.68053949514E+01  0.65406365031E+01 -0.30389670910E+02  0.31821775945E+02  0.00000000000E+00 0. -1.
</event>
<event>
 8    1  0.9870402E-014  0.9118800E+02  0.7816164E-02  0.1184000E+00
        -11   -1    0    0    0    0  0.00000000000E+00  0.00000000000E+00  0.45593999997E+02  0.45594000000E+02  0.51100000000E-03 0. -1.
         11   -1    0    0    0    0 -0.00000000000E+00 -0.00000000000E+00 -0.45593999997E+02  0.45594000000E+02  0.51100000000E-03 0.  1.
         23    2    1    2    0    0  0.00000000000E+00  0.00000000000E+00  0.00000000000E+00  0.91188000000E+02  0.91188000000E+02 0.  0.
    9900012    2    3    3    0    0  0.35560777676E+02  0.48363212068E+01 -0.19110372375E+02  0.50528865184E+02  0.30000016212E+02 0.  0.
         12    1    3    3    0    0 -0.35560777676E+02 -0.48363212068E+01  0.19110372375E+02  0.40659134816E+02  0.00000000000E+00 0. -1.
         11    1    4    4    0    0  0.26484251417E+02 -0.31854017743E+01 -0.69630240961E+01  0.27568932921E+02  0.51100000000E-03 0. -1.
        -11    1    4    4    0    0  0.25410015041E+01 -0.33994318042E+01 -0.81808518036E+01  0.92162444482E+01  0.51100000000E-03 0.  1.
         12    1    4    4    0    0  0.65355247539E+01  0.11421154785E+02 -0.39664964754E+01  0.13743687814E+02  0.00000000000E+00 0. -1.
</event>
<event>
 8    1  0.9870402E-014  0.9118800E+02  0.7816164E-02  0.1184000E+00
        -11   -1    0    0    0    0  0.00000000000E+00  0.00000000000E+00  0.45593999997E+02  0.45594000000E+02  0.51100000000E-03 0. -1.
         11   -1    0    0    0    0 -0.00000000000E+00 -0.00000000000E+00 -0.45593999997E+02  0.45594000000E+02  0.51100000000E-03 0.  1.
         23    2    1    2    0    0  0.00000000000E+00  0.00000000000E+00  0.00000000000E+00  0.91188000000E+02  0.91188000000E+02 0.  0.
    9900012    2    3    3    0    0 -0.72071914515E+01  0.87113612654E+01  0.39055544822E+02  0.50528843527E+02  0.29999950386E+02 0.  0.
        -12    1    3    3    0    0  0.72071914515E+01 -0.87113612654E+01 -0.39055544822E+02  0.40659156473E+02  0.00000000000E+00 0.  1.
         11    1    4    4    0    0  0.26900972824E+01 -0.40564280960E+01  0.15367668473E+02  0.16120064108E+02  0.51100000000E-03 0. -1.
        -11    1    4    4    0    0  0.28727231489E+01  0.10323517084E+02  0.16144586700E+02  0.19377183057E+02  0.51100000000E-03 0.  1.
        -12    1    4    4    0    0 -0.12770011883E+02  0.24442722774E+01  0.75432896495E+01  0.15031596362E+02  0.00000000000E+00 0.  1.
</event>
<event>
 8    1  0.9870402E-014  0.9118800E+02  0.7816164E-02  0.1184000E+00
        -11   -1    0    0    0    0  0.00000000000E+00  0.00000000000E+00  0.45593999997E+02  0.45594000000E+02  0.51100000000E-03 0. -1.
         11   -1    0    0    0    0 -0.00000000000E+00 -0.00000000000E+00 -0.45593999997E+02  0.45594000000E+02  0.51100000000E-03 0.  1.
         23    2    1    2    0    0 -0.35527136788E-14 -0.71054273576E-14  0.00000000000E+00  0.91188000000E+02  0.91188000000E+02 0.  0.
    9900012    2    3    3    0    0  0.14973549440E+02  0.33541053839E+02 -0.17434325143E+02  0.50528866110E+02  0.30000019028E+02 0.  0.
         12    1    3    3    0    0 -0.14973549440E+02 -0.33541053839E+02  0.17434325143E+02  0.40659133890E+02  0.00000000000E+00 0. -1.
         11    1    4    4    0    0  0.10142010701E+02  0.79587770917E+01 -0.50881267680E+00  0.12901992267E+02  0.51100000000E-03 0. -1.
        -11    1    4    4    0    0  0.81380006576E+01  0.24289342248E+01 -0.10236600091E+02  0.13300930714E+02  0.51100000000E-03 0.  1.
        -12    1    4    4    0    0 -0.33064619181E+01  0.23153342523E+02 -0.66889123756E+01  0.24325943130E+02  0.00000000000E+00 0.  1.
</event>
<event>
 8    1  0.9870402E-014  0.9118800E+02  0.7816164E-02  0.1184000E+00
        -11   -1    0    0    0    0  0.00000000000E+00  0.00000000000E+00  0.45593999997E+02  0.45594000000E+02  0.51100000000E-03 0. -1.
         11   -1    0    0    0    0 -0.00000000000E+00 -0.00000000000E+00 -0.45593999997E+02  0.45594000000E+02  0.51100000000E-03 0.  1.
         23    2    1    2    0    0 -0.17763568394E-14  0.00000000000E+00  0.00000000000E+00  0.91188000000E+02  0.91188000000E+02 0.  0.
    9900012    2    3    3    0    0  0.14635696935E+02  0.23938091671E+02 -0.29426686341E+02  0.50528859248E+02  0.29999998171E+02 0.  0.
         12    1    3    3    0    0 -0.14635696935E+02 -0.23938091671E+02  0.29426686341E+02  0.40659140752E+02  0.00000000000E+00 0. -1.
         11    1    4    4    0    0  0.10170763907E+02  0.16383462794E+02 -0.99129160047E+01  0.21682439797E+02  0.51100000000E-03 0. -1.
        -11    1    4    4    0    0 -0.22084058367E+00  0.12843765532E+02 -0.17082961901E+02  0.21373784671E+02  0.51100000000E-03 0.  1.
        -12    1    4    4    0    0  0.46857736123E+01 -0.52891366550E+01 -0.24308084357E+01  0.74726347798E+01  0.00000000000E+00 0.  1.
</event>
<event>
 8    1  0.9870402E-014  0.9118800E+02  0.7816164E-02  0.1184000E+00
        -11   -1    0    0    0    0  0.00000000000E+00  0.00000000000E+00  0.45593999997E+02  0.45594000000E+02  0.51100000000E-03 0.  1.
         11   -1    0    0    0    0 -0.00000000000E+00 -0.00000000000E+00 -0.45593999997E+02  0.45594000000E+02  0.51100000000E-03 0. -1.
         23    2    1    2    0    0  0.00000000000E+00  0.00000000000E+00  0.13322676296E-14  0.91188000000E+02  0.91188000000E+02 0.  0.
    9900012    2    3    3    0    0 -0.65661267722E+01  0.40046120289E+02 -0.25218722400E+01  0.50528860675E+02  0.30000002509E+02 0.  0.
         12    1    3    3    0    0  0.65661267722E+01 -0.40046120289E+02  0.25218722400E+01  0.40659139325E+02  0.00000000000E+00 0. -1.
         11    1    4    4    0    0 -0.34624859287E+01  0.25910174209E+02 -0.37283974926E+01  0.26405054147E+02  0.51100000000E-03 0. -1.
        -11    1    4    4    0    0  0.21451782961E+01  0.97698446529E+01  0.92148611106E+01  0.13600195587E+02  0.51100000000E-03 0.  1.
        -12    1    4    4    0    0 -0.52488191396E+01  0.43661014270E+01 -0.80083358581E+01  0.10523610941E+02  0.00000000000E+00 0.  1.
</event>
<event>
 8    1  0.9870402E-014  0.9118800E+02  0.7816164E-02  0.1184000E+00
        -11   -1    0    0    0    0  0.00000000000E+00  0.00000000000E+00  0.45593999997E+02  0.45594000000E+02  0.51100000000E-03 0.  1.
         11   -1    0    0    0    0 -0.00000000000E+00 -0.00000000000E+00 -0.45593999997E+02  0.45594000000E+02  0.51100000000E-03 0. -1.
         23    2    1    2    0    0 -0.44408920985E-15  0.00000000000E+00 -0.35527136788E-14  0.91188000000E+02  0.91188000000E+02 0.  0.
    9900012    2    3    3    0    0  0.25509668013E+01 -0.31242734293E+02 -0.25894986156E+02  0.50528853603E+02  0.29999981012E+02 0.  0.
         12    1    3    3    0    0 -0.25509668013E+01  0.31242734293E+02  0.25894986156E+02  0.40659146397E+02  0.00000000000E+00 0. -1.
         11    1    4    4    0    0  0.15527928872E+01  0.24004520034E+01 -0.82762560995E+01  0.87561264756E+01  0.51100000000E-03 0. -1.
        -11    1    4    4    0    0  0.79113969044E+01 -0.18451602557E+02 -0.45775905994E+01  0.20591410196E+02  0.51100000000E-03 0.  1.
         12    1    4    4    0    0 -0.69132229904E+01 -0.15191583739E+02 -0.13041139457E+02  0.21181316931E+02  0.00000000000E+00 0. -1.
</event>
<event>
 8    1  0.9870402E-014  0.9118800E+02  0.7816164E-02  0.1184000E+00
        -11   -1    0    0    0    0  0.00000000000E+00  0.00000000000E+00  0.45593999997E+02  0.45594000000E+02  0.51100000000E-03 0. -1.
         11   -1    0    0    0    0 -0.00000000000E+00 -0.00000000000E+00 -0.45593999997E+02  0.45594000000E+02  0.51100000000E-03 0.  1.
         23    2    1    2    0    0 -0.13322676296E-14  0.00000000000E+00  0.00000000000E+00  0.91188000000E+02  0.91188000000E+02 0.  0.
    9900012    2    3    3    0    0 -0.11187891118E+01  0.23889593801E+02  0.32881619307E+02  0.50528864872E+02  0.30000015266E+02 0.  0.
        -12    1    3    3    0    0  0.11187891118E+01 -0.23889593801E+02 -0.32881619307E+02  0.40659135128E+02  0.00000000000E+00 0.  1.
         11    1    4    4    0    0 -0.36363348047E+01  0.43916598021E+01  0.30804120022E+01  0.64806284413E+01  0.51100000000E-03 0. -1.
        -11    1    4    4    0    0  0.10516218835E+02  0.90681172321E+01  0.30129138209E+01  0.14209125894E+02  0.51100000000E-03 0.  1.
         12    1    4    4    0    0 -0.79986731424E+01  0.10429816767E+02  0.26788293484E+02  0.29839110537E+02  0.00000000000E+00 0. -1.
</event>
<event>
 8    1  0.9870402E-014  0.9118800E+02  0.7816164E-02  0.1184000E+00
        -11   -1    0    0    0    0  0.00000000000E+00  0.00000000000E+00  0.45593999997E+02  0.45594000000E+02  0.51100000000E-03 0. -1.
         11   -1    0    0    0    0 -0.00000000000E+00 -0.00000000000E+00 -0.45593999997E+02  0.45594000000E+02  0.51100000000E-03 0.  1.
         23    2    1    2    0    0 -0.17763568394E-14  0.35527136788E-14 -0.71054273576E-14  0.91188000000E+02  0.91188000000E+02 0.  0.
    9900012    2    3    3    0    0  0.14417101359E+02 -0.18844725734E+02  0.33018158441E+02  0.50528741688E+02  0.29999640834E+02 0.  0.
        -12    1    3    3    0    0 -0.14417101359E+02  0.18844725734E+02 -0.33018158441E+02  0.40659258312E+02  0.00000000000E+00 0.  1.
         11    1    4    4    0    0  0.15037602419E+02 -0.22320706925E+02  0.30267178593E+02  0.40502414056E+02  0.51100000000E-03 0. -1.
        -11    1    4    4    0    0  0.41771365163E+01  0.19032482157E+01  0.14218945087E+01  0.48054768235E+01  0.51100000000E-03 0.  1.
        -12    1    4    4    0    0 -0.47976375765E+01  0.15727329752E+01  0.13290853397E+01  0.52208508087E+01  0.00000000000E+00 0.  1.
</event>
<event>
 8    1  0.9870402E-014  0.9118800E+02  0.7816164E-02  0.1184000E+00
        -11   -1    0    0    0    0  0.00000000000E+00  0.00000000000E+00  0.45593999997E+02  0.45594000000E+02  0.51100000000E-03 0.  1.
         11   -1    0    0    0    0 -0.00000000000E+00 -0.00000000000E+00 -0.45593999997E+02  0.45594000000E+02  0.51100000000E-03 0. -1.
         23    2    1    2    0    0  0.35527136788E-14 -0.35527136788E-14  0.35527136788E-14  0.91188000000E+02  0.91188000000E+02 0.  0.
    9900012    2    3    3    0    0 -0.21720226563E+02  0.18572181664E+02 -0.28921811309E+02  0.50528863965E+02  0.30000012507E+02 0.  0.
         12    1    3    3    0    0  0.21720226563E+02 -0.18572181664E+02  0.28921811309E+02  0.40659136035E+02  0.00000000000E+00 0. -1.
         11    1    4    4    0    0 -0.41136364827E+00  0.10100393911E+02 -0.55937937135E+01  0.11553255194E+02  0.51100000000E-03 0. -1.
        -11    1    4    4    0    0 -0.14782204752E+02  0.12352421781E+02 -0.61951659404E+01  0.20235512904E+02  0.51100000000E-03 0.  1.
         12    1    4    4    0    0 -0.65266581628E+01 -0.38806340282E+01 -0.17132851655E+02  0.18740095866E+02  0.00000000000E+00 0. -1.
</event>
<event>
 8    1  0.9870402E-014  0.9118800E+02  0.7816164E-02  0.1184000E+00
        -11   -1    0    0    0    0  0.00000000000E+00  0.00000000000E+00  0.45593999997E+02  0.45594000000E+02  0.51100000000E-03 0. -1.
         11   -1    0    0    0    0 -0.00000000000E+00 -0.00000000000E+00 -0.45593999997E+02  0.45594000000E+02  0.51100000000E-03 0.  1.
         23    2    1    2    0    0  0.00000000000E+00  0.00000000000E+00  0.00000000000E+00  0.91188000000E+02  0.91188000000E+02 0.  0.
    9900012    2    3    3    0    0 -0.12326329352E+02 -0.20791042053E+02  0.32694965467E+02  0.50528848609E+02  0.29999965833E+02 0.  0.
        -12    1    3    3    0    0  0.12326329352E+02  0.20791042053E+02 -0.32694965467E+02  0.40659151391E+02  0.00000000000E+00 0.  1.
         11    1    4    4    0    0  0.25286610802E+00 -0.12871829630E+02  0.18411956995E+02  0.22466599652E+02  0.51100000000E-03 0. -1.
        -11    1    4    4    0    0 -0.45822837081E+01  0.11228856660E+01  0.15239784126E+02  0.15953344999E+02  0.51100000000E-03 0.  1.
        -12    1    4    4    0    0 -0.79969117517E+01 -0.90420980888E+01 -0.95677565389E+00  0.12108903958E+02  0.00000000000E+00 0.  1.
</event>
<event>
 8    1  0.9870402E-014  0.9118800E+02  0.7816164E-02  0.1184000E+00
        -11   -1    0    0    0    0  0.00000000000E+00  0.00000000000E+00  0.45593999997E+02  0.45594000000E+02  0.51100000000E-03 0. -1.
         11   -1    0    0    0    0 -0.00000000000E+00 -0.00000000000E+00 -0.45593999997E+02  0.45594000000E+02  0.51100000000E-03 0.  1.
         23    2    1    2    0    0 -0.44408920985E-15 -0.35527136788E-14 -0.35527136788E-14  0.91188000000E+02  0.91188000000E+02 0.  0.
    9900012    2    3    3    0    0 -0.13987780064E+01  0.28109934192E+02  0.29343515534E+02  0.50528845015E+02  0.29999954909E+02 0.  0.
        -12    1    3    3    0    0  0.13987780064E+01 -0.28109934192E+02 -0.29343515534E+02  0.40659154985E+02  0.00000000000E+00 0.  1.
         11    1    4    4    0    0 -0.23821881088E+01  0.10802192299E+02  0.24158648520E+01  0.11322481261E+02  0.51100000000E-03 0. -1.
        -11    1    4    4    0    0 -0.69366912034E+01  0.17434677510E+02  0.24621272152E+02  0.30956303193E+02  0.51100000000E-03 0.  1.
        -12    1    4    4    0    0  0.79201013057E+01 -0.12693561824E+00  0.23063785305E+01  0.82500605616E+01  0.00000000000E+00 0.  1.
</event>
<event>
 8    1  0.9870402E-014  0.9118800E+02  0.7816164E-02  0.1184000E+00
        -11   -1    0    0    0    0  0.00000000000E+00  0.00000000000E+00  0.45593999997E+02  0.45594000000E+02  0.51100000000E-03 0. -1.
         11   -1    0    0    0    0 -0.00000000000E+00 -0.00000000000E+00 -0.45593999997E+02  0.45594000000E+02  0.51100000000E-03 0.  1.
         23    2    1    2    0    0  0.00000000000E+00  0.35527136788E-14  0.17763568394E-14  0.91188000000E+02  0.91188000000E+02 0.  0.
    9900012    2    3    3    0    0 -0.32110373741E+02  0.23205138143E+02  0.91438584972E+01  0.50528872043E+02  0.30000037061E+02 0.  0.
        -12    1    3    3    0    0  0.32110373741E+02 -0.23205138143E+02 -0.91438584972E+01  0.40659127957E+02  0.00000000000E+00 0.  1.
         11    1    4    4    0    0 -0.57866008456E+00  0.17149893811E+01  0.28651661283E+01  0.33889841066E+01  0.51100000000E-03 0. -1.
        -11    1    4    4    0    0 -0.35157804847E+02  0.23540606722E+02  0.70755962545E+01  0.42898665121E+02  0.51100000000E-03 0.  1.
         12    1    4    4    0    0  0.36260911908E+01 -0.20504579595E+01 -0.79690388560E+00  0.42412228155E+01  0.00000000000E+00 0. -1.
</event>
<event>
 8    1  0.9870402E-014  0.9118800E+02  0.7816164E-02  0.1184000E+00
        -11   -1    0    0    0    0  0.00000000000E+00  0.00000000000E+00  0.45593999997E+02  0.45594000000E+02  0.51100000000E-03 0. -1.
         11   -1    0    0    0    0 -0.00000000000E+00 -0.00000000000E+00 -0.45593999997E+02  0.45594000000E+02  0.51100000000E-03 0.  1.
         23    2    1    2    0    0  0.35527136788E-14 -0.35527136788E-14  0.35527136788E-14  0.91188000000E+02  0.91188000000E+02 0.  0.
    9900012    2    3    3    0    0 -0.22471976194E+02 -0.20618971993E+02  0.26889274579E+02  0.50528870552E+02  0.30000032529E+02 0.  0.
        -12    1    3    3    0    0  0.22471976194E+02  0.20618971993E+02 -0.26889274579E+02  0.40659129448E+02  0.00000000000E+00 0.  1.
         11    1    4    4    0    0 -0.84645153572E+01 -0.11526115433E+02  0.82667757661E+01  0.16517836996E+02  0.51100000000E-03 0. -1.
        -11    1    4    4    0    0 -0.79379575591E+01 -0.10142152193E+02  0.23064573051E+02  0.26416830840E+02  0.51100000000E-03 0.  1.
        -12    1    4    4    0    0 -0.60695032774E+01  0.10492956326E+01 -0.44420742382E+01  0.75942027163E+01  0.00000000000E+00 0.  1.
</event>
<event>
 8    1  0.9870402E-014  0.9118800E+02  0.7816164E-02  0.1184000E+00
        -11   -1    0    0    0    0  0.00000000000E+00  0.00000000000E+00  0.45593999997E+02  0.45594000000E+02  0.51100000000E-03 0.  1.
         11   -1    0    0    0    0 -0.00000000000E+00 -0.00000000000E+00 -0.45593999997E+02  0.45594000000E+02  0.51100000000E-03 0. -1.
         23    2    1    2    0    0  0.00000000000E+00  0.35527136788E-14  0.17763568394E-14  0.91188000000E+02  0.91188000000E+02 0.  0.
    9900012    2    3    3    0    0 -0.29840279056E+02 -0.23172089268E+02 -0.15025908450E+02  0.50528857118E+02  0.29999991694E+02 0.  0.
        -12    1    3    3    0    0  0.29840279056E+02  0.23172089268E+02  0.15025908450E+02  0.40659142882E+02  0.00000000000E+00 0.  1.
         11    1    4    4    0    0 -0.18372207467E+02 -0.12452792937E+02 -0.81254442048E-01  0.22194969288E+02  0.51100000000E-03 0. -1.
        -11    1    4    4    0    0 -0.73666581326E+01  0.21647716100E+01  0.63590076038E+00  0.77044310760E+01  0.51100000000E-03 0.  1.
         12    1    4    4    0    0 -0.41014134559E+01 -0.12884067941E+02 -0.15580554769E+02  0.20629456754E+02  0.00000000000E+00 0. -1.
</event>
<event>
 8    1  0.9870402E-014  0.9118800E+02  0.7816164E-02  0.1184000E+00
        -11   -1    0    0    0    0  0.00000000000E+00  0.00000000000E+00  0.45593999997E+02  0.45594000000E+02  0.51100000000E-03 0. -1.
         11   -1    0    0    0    0 -0.00000000000E+00 -0.00000000000E+00 -0.45593999997E+02  0.45594000000E+02  0.51100000000E-03 0.  1.
         23    2    1    2    0    0  0.00000000000E+00  0.00000000000E+00  0.00000000000E+00  0.91188000000E+02  0.91188000000E+02 0.  0.
    9900012    2    3    3    0    0  0.84233452473E+01 -0.14850010743E+02  0.36901087366E+02  0.50528858187E+02  0.29999994944E+02 0.  0.
        -12    1    3    3    0    0 -0.84233452473E+01  0.14850010743E+02 -0.36901087366E+02  0.40659141813E+02  0.00000000000E+00 0.  1.
         11    1    4    4    0    0  0.16576021746E+01  0.50860264058E+01  0.13924179283E+02  0.14916369483E+02  0.51100000000E-03 0. -1.
        -11    1    4    4    0    0  0.65905206349E+01 -0.14828739135E+02  0.25253711741E+02  0.30017935031E+02  0.51100000000E-03 0.  1.
        -12    1    4    4    0    0  0.17522243786E+00 -0.51072980132E+01 -0.22768036585E+01  0.55945536728E+01  0.00000000000E+00 0.  1.
</event>
<event>
 8    1  0.9870402E-014  0.9118800E+02  0.7816164E-02  0.1184000E+00
        -11   -1    0    0    0    0  0.00000000000E+00  0.00000000000E+00  0.45593999997E+02  0.45594000000E+02  0.51100000000E-03 0. -1.
         11   -1    0    0    0    0 -0.00000000000E+00 -0.00000000000E+00 -0.45593999997E+02  0.45594000000E+02  0.51100000000E-03 0.  1.
         23    2    1    2    0    0 -0.44408920985E-15  0.00000000000E+00  0.00000000000E+00  0.91188000000E+02  0.91188000000E+02 0.  0.
    9900012    2    3    3    0    0 -0.10625901061E+01  0.60809653538E+01 -0.40187787620E+02  0.50528861899E+02  0.30000006228E+02 0.  0.
         12    1    3    3    0    0  0.10625901061E+01 -0.60809653538E+01  0.40187787620E+02  0.40659138101E+02  0.00000000000E+00 0. -1.
         11    1    4    4    0    0  0.10385644359E+02 -0.90073492029E+00 -0.79068715069E+01  0.13084018857E+02  0.51100000000E-03 0. -1.
        -11    1    4    4    0    0  0.31164566332E+00 -0.57342100671E+00 -0.15889720404E+02  0.15903117602E+02  0.51100000000E-03 0.  1.
         12    1    4    4    0    0 -0.11759880129E+02  0.75551212808E+01 -0.16391195708E+02  0.21541725440E+02  0.00000000000E+00 0. -1.
</event>
<event>
 8    1  0.9870402E-014  0.9118800E+02  0.7816164E-02  0.1184000E+00
        -11   -1    0    0    0    0  0.00000000000E+00  0.00000000000E+00  0.45593999997E+02  0.45594000000E+02  0.51100000000E-03 0. -1.
         11   -1    0    0    0    0 -0.00000000000E+00 -0.00000000000E+00 -0.45593999997E+02  0.45594000000E+02  0.51100000000E-03 0.  1.
         23    2    1    2    0    0  0.71054273576E-14 -0.35527136788E-14  0.35527136788E-14  0.91188000000E+02  0.91188000000E+02 0.  0.
    9900012    2    3    3    0    0 -0.30814455375E+02  0.19848887443E+02 -0.17597065946E+02  0.50528859297E+02  0.29999998320E+02 0.  0.
         12    1    3    3    0    0  0.30814455375E+02 -0.19848887443E+02  0.17597065946E+02  0.40659140703E+02  0.00000000000E+00 0. -1.
         11    1    4    4    0    0 -0.44367031258E+01  0.89802606900E+00  0.76888666102E+01  0.89224130961E+01  0.51100000000E-03 0. -1.
        -11    1    4    4    0    0 -0.22971246279E+01  0.41751203669E+01 -0.31115483745E+01  0.56912340650E+01  0.51100000000E-03 0.  1.
        -12    1    4    4    0    0 -0.24080627621E+02  0.14775741007E+02 -0.22174384182E+02  0.35915212136E+02  0.00000000000E+00 0.  1.
</event>
<event>
 8    1  0.9870402E-014  0.9118800E+02  0.7816164E-02  0.1184000E+00
        -11   -1    0    0    0    0  0.00000000000E+00  0.00000000000E+00  0.45593999997E+02  0.45594000000E+02  0.51100000000E-03 0. -1.
         11   -1    0    0    0    0 -0.00000000000E+00 -0.00000000000E+00 -0.45593999997E+02  0.45594000000E+02  0.51100000000E-03 0.  1.
         23    2    1    2    0    0  0.00000000000E+00 -0.35527136788E-14  0.00000000000E+00  0.91188000000E+02  0.91188000000E+02 0.  0.
    9900012    2    3    3    0    0  0.15775172648E+02  0.17675060699E+02  0.33043939729E+02  0.50528858400E+02  0.29999995594E+02 0.  0.
        -12    1    3    3    0    0 -0.15775172648E+02 -0.17675060699E+02 -0.33043939729E+02  0.40659141600E+02  0.00000000000E+00 0.  1.
         11    1    4    4    0    0  0.61523719495E+01  0.12371730315E+02  0.13828469267E+02  0.19548349141E+02  0.51100000000E-03 0. -1.
        -11    1    4    4    0    0  0.23046368284E+01  0.21423652542E+01  0.22234704443E+02  0.22456249948E+02  0.51100000000E-03 0.  1.
        -12    1    4    4    0    0  0.73181638697E+01  0.31609651302E+01 -0.30192339810E+01  0.85242593116E+01  0.00000000000E+00 0.  1.
</event>
<event>
 8    1  0.9870402E-014  0.9118800E+02  0.7816164E-02  0.1184000E+00
        -11   -1    0    0    0    0  0.00000000000E+00  0.00000000000E+00  0.45593999997E+02  0.45594000000E+02  0.51100000000E-03 0. -1.
         11   -1    0    0    0    0 -0.00000000000E+00 -0.00000000000E+00 -0.45593999997E+02  0.45594000000E+02  0.51100000000E-03 0.  1.
         23    2    1    2    0    0  0.00000000000E+00  0.00000000000E+00  0.00000000000E+00  0.91188000000E+02  0.91188000000E+02 0.  0.
    9900012    2    3    3    0    0 -0.71410624614E+01 -0.17892758028E+02 -0.35805296237E+02  0.50528870625E+02  0.30000032751E+02 0.  0.
         12    1    3    3    0    0  0.71410624614E+01  0.17892758028E+02  0.35805296237E+02  0.40659129375E+02  0.00000000000E+00 0. -1.
         11    1    4    4    0    0 -0.13974886417E+02 -0.16286363974E+02 -0.15203529092E+02  0.26300007585E+02  0.51100000000E-03 0. -1.
        -11    1    4    4    0    0  0.59081879025E+01 -0.53868172857E+01 -0.17541720737E+02  0.19277874661E+02  0.51100000000E-03 0.  1.
        -12    1    4    4    0    0  0.92563605336E+00  0.37804232313E+01 -0.30600464080E+01  0.49509883791E+01  0.00000000000E+00 0.  1.
</event>
<event>
 8    1  0.9870402E-014  0.9118800E+02  0.7816164E-02  0.1184000E+00
        -11   -1    0    0    0    0  0.00000000000E+00  0.00000000000E+00  0.45593999997E+02  0.45594000000E+02  0.51100000000E-03 0. -1.
         11   -1    0    0    0    0 -0.00000000000E+00 -0.00000000000E+00 -0.45593999997E+02  0.45594000000E+02  0.51100000000E-03 0.  1.
         23    2    1    2    0    0  0.00000000000E+00  0.00000000000E+00  0.00000000000E+00  0.91188000000E+02  0.91188000000E+02 0.  0.
    9900012    2    3    3    0    0  0.16207456734E+02 -0.89124031077E+01  0.36208467958E+02  0.50528859149E+02  0.29999997868E+02 0.  0.
        -12    1    3    3    0    0 -0.16207456734E+02  0.89124031077E+01 -0.36208467958E+02  0.40659140851E+02  0.00000000000E+00 0.  1.
         11    1    4    4    0    0  0.25399322066E+01 -0.27093187030E+01  0.23312653226E+02  0.23606597894E+02  0.51100000000E-03 0. -1.
        -11    1    4    4    0    0 -0.31801270499E+01 -0.40887907522E+01 -0.62412285680E+00  0.52173697847E+01  0.51100000000E-03 0.  1.
         12    1    4    4    0    0  0.16847651577E+02 -0.21142936525E+01  0.13519937589E+02  0.21704891470E+02  0.00000000000E+00 0. -1.
</event>
<event>
 8    1  0.9870402E-014  0.9118800E+02  0.7816164E-02  0.1184000E+00
        -11   -1    0    0    0    0  0.00000000000E+00  0.00000000000E+00  0.45593999997E+02  0.45594000000E+02  0.51100000000E-03 0. -1.
         11   -1    0    0    0    0 -0.00000000000E+00 -0.00000000000E+00 -0.45593999997E+02  0.45594000000E+02  0.51100000000E-03 0.  1.
         23    2    1    2    0    0 -0.35527136788E-14  0.00000000000E+00  0.00000000000E+00  0.91188000000E+02  0.91188000000E+02 0.  0.
    9900012    2    3    3    0    0 -0.21272951616E+02 -0.81944795051E+01 -0.33667159609E+02  0.50528860795E+02  0.30000002872E+02 0.  0.
         12    1    3    3    0    0  0.21272951616E+02  0.81944795051E+01  0.33667159609E+02  0.40659139205E+02  0.00000000000E+00 0. -1.
         11    1    4    4    0    0  0.53041646260E+01 -0.44125573436E+01 -0.19506996355E+01  0.71700804751E+01  0.51100000000E-03 0. -1.
        -11    1    4    4    0    0 -0.97277192408E+01 -0.66796085766E+01 -0.85751772133E+01  0.14586958451E+02  0.51100000000E-03 0.  1.
         12    1    4    4    0    0 -0.16849397001E+02  0.28976864151E+01 -0.23141282760E+02  0.28771821868E+02  0.00000000000E+00 0. -1.
</event>
<event>
 8    1  0.9870402E-014  0.9118800E+02  0.7816164E-02  0.1184000E+00
        -11   -1    0    0    0    0  0.00000000000E+00  0.00000000000E+00  0.45593999997E+02  0.45594000000E+02  0.51100000000E-03 0. -1.
         11   -1    0    0    0    0 -0.00000000000E+00 -0.00000000000E+00 -0.45593999997E+02  0.45594000000E+02  0.51100000000E-03 0.  1.
         23    2    1    2    0    0  0.00000000000E+00 -0.35527136788E-14  0.00000000000E+00  0.91188000000E+02  0.91188000000E+02 0.  0.
    9900012    2    3    3    0    0 -0.10166840221E+02  0.26236963079E+02 -0.29349998965E+02  0.50528864361E+02  0.30000013710E+02 0.  0.
         12    1    3    3    0    0  0.10166840221E+02 -0.26236963079E+02  0.29349998965E+02  0.40659135639E+02  0.00000000000E+00 0. -1.
         11    1    4    4    0    0 -0.15157437540E+02  0.16617120300E+02 -0.12443875414E+02  0.25704603390E+02  0.51100000000E-03 0. -1.
        -11    1    4    4    0    0  0.54132700356E+01  0.10416705485E+02 -0.47969866087E+01  0.12681574288E+02  0.51100000000E-03 0.  1.
        -12    1    4    4    0    0 -0.42267271696E+00 -0.79686270563E+00 -0.12109136942E+02  0.12142686683E+02  0.00000000000E+00 0.  1.
</event>
<event>
 8    1  0.9870402E-014  0.9118800E+02  0.7816164E-02  0.1184000E+00
        -11   -1    0    0    0    0  0.00000000000E+00  0.00000000000E+00  0.45593999997E+02  0.45594000000E+02  0.51100000000E-03 0. -1.
         11   -1    0    0    0    0 -0.00000000000E+00 -0.00000000000E+00 -0.45593999997E+02  0.45594000000E+02  0.51100000000E-03 0.  1.
         23    2    1    2    0    0 -0.44408920985E-15  0.00000000000E+00  0.00000000000E+00  0.91188000000E+02  0.91188000000E+02 0.  0.
    9900012    2    3    3    0    0  0.28169669185E+01 -0.85923085482E+01 -0.39640922243E+02  0.50528858530E+02  0.29999995988E+02 0.  0.
         12    1    3    3    0    0 -0.28169669185E+01  0.85923085482E+01  0.39640922243E+02  0.40659141470E+02  0.00000000000E+00 0. -1.
         11    1    4    4    0    0 -0.58868156091E+01 -0.64145274078E+01 -0.72948612695E+01  0.11358510513E+02  0.51100000000E-03 0. -1.
        -11    1    4    4    0    0  0.11829610406E+01  0.36766175744E-02  0.28646877545E+01  0.30993300136E+01  0.51100000000E-03 0.  1.
        -12    1    4    4    0    0  0.75208214870E+01 -0.21814577580E+01 -0.35210748728E+02  0.36071018003E+02  0.00000000000E+00 0.  1.
</event>
<event>
 8    1  0.9870402E-014  0.9118800E+02  0.7816164E-02  0.1184000E+00
        -11   -1    0    0    0    0  0.00000000000E+00  0.00000000000E+00  0.45593999997E+02  0.45594000000E+02  0.51100000000E-03 0. -1.
         11   -1    0    0    0    0 -0.00000000000E+00 -0.00000000000E+00 -0.45593999997E+02  0.45594000000E+02  0.51100000000E-03 0.  1.
         23    2    1    2    0    0  0.88817841970E-15  0.17763568394E-14  0.00000000000E+00  0.91188000000E+02  0.91188000000E+02 0.  0.
    9900012    2    3    3    0    0 -0.57932775999E+01 -0.10037317454E+02  0.38972487165E+02  0.50528873560E+02  0.30000041672E+02 0.  0.
        -12    1    3    3    0    0  0.57932775999E+01  0.10037317454E+02 -0.38972487165E+02  0.40659126440E+02  0.00000000000E+00 0.  1.
         11    1    4    4    0    0  0.79682583256E+01 -0.78742394525E+01  0.97195528525E+01  0.14831267499E+02  0.51100000000E-03 0. -1.
        -11    1    4    4    0    0 -0.27170273759E+01  0.56325725549E+01  0.13894924923E+02  0.15237357062E+02  0.51100000000E-03 0.  1.
         12    1    4    4    0    0 -0.11044508550E+02 -0.77956505563E+01  0.15358009390E+02  0.20460248999E+02  0.00000000000E+00 0. -1.
</event>
<event>
 8    1  0.9870402E-014  0.9118800E+02  0.7816164E-02  0.1184000E+00
        -11   -1    0    0    0    0  0.00000000000E+00  0.00000000000E+00  0.45593999997E+02  0.45594000000E+02  0.51100000000E-03 0. -1.
         11   -1    0    0    0    0 -0.00000000000E+00 -0.00000000000E+00 -0.45593999997E+02  0.45594000000E+02  0.51100000000E-03 0.  1.
         23    2    1    2    0    0 -0.17763568394E-14  0.00000000000E+00 -0.17763568394E-14  0.91188000000E+02  0.91188000000E+02 0.  0.
    9900012    2    3    3    0    0  0.15244011328E+02  0.35676752584E+02  0.12163686884E+02  0.50528857917E+02  0.29999994125E+02 0.  0.
        -12    1    3    3    0    0 -0.15244011328E+02 -0.35676752584E+02 -0.12163686884E+02  0.40659142083E+02  0.00000000000E+00 0.  1.
         11    1    4    4    0    0 -0.57892876676E-01  0.21373003337E+02  0.15148883994E+02  0.26197276762E+02  0.51100000000E-03 0. -1.
        -11    1    4    4    0    0  0.38918080081E+01 -0.12900083878E+01  0.17173346749E+01  0.44451692723E+01  0.51100000000E-03 0.  1.
        -12    1    4    4    0    0  0.11410096197E+02  0.15593757635E+02 -0.47025317850E+01  0.19886411883E+02  0.00000000000E+00 0.  1.
</event>
<event>
 8    1  0.9870402E-014  0.9118800E+02  0.7816164E-02  0.1184000E+00
        -11   -1    0    0    0    0  0.00000000000E+00  0.00000000000E+00  0.45593999997E+02  0.45594000000E+02  0.51100000000E-03 0. -1.
         11   -1    0    0    0    0 -0.00000000000E+00 -0.00000000000E+00 -0.45593999997E+02  0.45594000000E+02  0.51100000000E-03 0.  1.
         23    2    1    2    0    0 -0.88817841970E-15  0.00000000000E+00  0.71054273576E-14  0.91188000000E+02  0.91188000000E+02 0.  0.
    9900012    2    3    3    0    0  0.53255909261E+01  0.32609243845E+01 -0.40176746097E+02  0.50528850064E+02  0.29999970255E+02 0.  0.
         12    1    3    3    0    0 -0.53255909261E+01 -0.32609243845E+01  0.40176746097E+02  0.40659149936E+02  0.00000000000E+00 0. -1.
         11    1    4    4    0    0  0.49671683816E+00  0.52026773540E+01 -0.98687184002E+01  0.11167192234E+02  0.51100000000E-03 0. -1.
        -11    1    4    4    0    0  0.69802340852E+01 -0.33831698894E+01 -0.33987962067E+02  0.34861885665E+02  0.51100000000E-03 0.  1.
         12    1    4    4    0    0 -0.21513599973E+01  0.14414169199E+01  0.36799343697E+01  0.44997721653E+01  0.00000000000E+00 0. -1.
</event>
<event>
 8    1  0.9870402E-014  0.9118800E+02  0.7816164E-02  0.1184000E+00
        -11   -1    0    0    0    0  0.00000000000E+00  0.00000000000E+00  0.45593999997E+02  0.45594000000E+02  0.51100000000E-03 0. -1.
         11   -1    0    0    0    0 -0.00000000000E+00 -0.00000000000E+00 -0.45593999997E+02  0.45594000000E+02  0.51100000000E-03 0.  1.
         23    2    1    2    0    0  0.00000000000E+00  0.00000000000E+00  0.71054273576E-14  0.91188000000E+02  0.91188000000E+02 0.  0.
    9900012    2    3    3    0    0 -0.16509249849E+02  0.42937132514E+01  0.36907658728E+02  0.50528848794E+02  0.29999966393E+02 0.  0.
        -12    1    3    3    0    0  0.16509249849E+02 -0.42937132514E+01 -0.36907658728E+02  0.40659151206E+02  0.00000000000E+00 0.  1.
         11    1    4    4    0    0  0.43228068113E+01  0.32459219697E+01  0.89427449019E+01  0.10449658119E+02  0.51100000000E-03 0. -1.
        -11    1    4    4    0    0 -0.15416261474E+02  0.95955322399E+01  0.21167558341E+02  0.27889081792E+02  0.51100000000E-03 0.  1.
         12    1    4    4    0    0 -0.54157951857E+01 -0.85477409583E+01  0.67973554849E+01  0.12190108883E+02  0.00000000000E+00 0. -1.
</event>
<event>
 8    1  0.9870402E-014  0.9118800E+02  0.7816164E-02  0.1184000E+00
        -11   -1    0    0    0    0  0.00000000000E+00  0.00000000000E+00  0.45593999997E+02  0.45594000000E+02  0.51100000000E-03 0. -1.
         11   -1    0    0    0    0 -0.00000000000E+00 -0.00000000000E+00 -0.45593999997E+02  0.45594000000E+02  0.51100000000E-03 0.  1.
         23    2    1    2    0    0 -0.35527136788E-14 -0.88817841970E-15  0.35527136788E-14  0.91188000000E+02  0.91188000000E+02 0.  0.
    9900012    2    3    3    0    0 -0.29227280077E+02 -0.59016571794E+01  0.27642390918E+02  0.50528865309E+02  0.30000016592E+02 0.  0.
        -12    1    3    3    0    0  0.29227280077E+02  0.59016571794E+01 -0.27642390918E+02  0.40659134691E+02  0.00000000000E+00 0.  1.
         11    1    4    4    0    0 -0.85712371763E+01  0.93992346766E+00  0.16969936571E+01  0.87880231333E+01  0.51100000000E-03 0. -1.
        -11    1    4    4    0    0  0.24781001617E+01 -0.12275128468E+01 -0.31210945958E+01  0.41700119829E+01  0.51100000000E-03 0.  1.
        -12    1    4    4    0    0 -0.23134143063E+02 -0.56140678003E+01  0.29066491857E+02  0.37570830193E+02  0.00000000000E+00 0.  1.
</event>
<event>
 8    1  0.9870402E-014  0.9118800E+02  0.7816164E-02  0.1184000E+00
        -11   -1    0    0    0    0  0.00000000000E+00  0.00000000000E+00  0.45593999997E+02  0.45594000000E+02  0.51100000000E-03 0. -1.
         11   -1    0    0    0    0 -0.00000000000E+00 -0.00000000000E+00 -0.45593999997E+02  0.45594000000E+02  0.51100000000E-03 0.  1.
         23    2    1    2    0    0 -0.44408920985E-15  0.00000000000E+00  0.00000000000E+00  0.91188000000E+02  0.91188000000E+02 0.  0.
    9900012    2    3    3    0    0  0.22731212785E+01  0.27033475342E+02  0.30285154557E+02  0.50528850280E+02  0.29999970910E+02 0.  0.
        -12    1    3    3    0    0 -0.22731212785E+01 -0.27033475342E+02 -0.30285154557E+02  0.40659149720E+02  0.00000000000E+00 0.  1.
         11    1    4    4    0    0  0.65928769648E+00 -0.36231375093E+00  0.14674462786E+02  0.14693733012E+02  0.51100000000E-03 0. -1.
        -11    1    4    4    0    0 -0.65149609939E+01  0.43886495219E+01  0.38089203603E+01  0.87299963317E+01  0.51100000000E-03 0.  1.
        -12    1    4    4    0    0  0.81287945760E+01  0.23007139571E+02  0.11801771411E+02  0.27105120936E+02  0.00000000000E+00 0.  1.
</event>
<event>
 8    1  0.9870402E-014  0.9118800E+02  0.7816164E-02  0.1184000E+00
        -11   -1    0    0    0    0  0.00000000000E+00  0.00000000000E+00  0.45593999997E+02  0.45594000000E+02  0.51100000000E-03 0. -1.
         11   -1    0    0    0    0 -0.00000000000E+00 -0.00000000000E+00 -0.45593999997E+02  0.45594000000E+02  0.51100000000E-03 0.  1.
         23    2    1    2    0    0  0.00000000000E+00 -0.35527136788E-14  0.71054273576E-14  0.91188000000E+02  0.91188000000E+02 0.  0.
    9900012    2    3    3    0    0 -0.11301582473E+02  0.19282641328E+02  0.33964960576E+02  0.50528873473E+02  0.30000041410E+02 0.  0.
        -12    1    3    3    0    0  0.11301582473E+02 -0.19282641328E+02 -0.33964960576E+02  0.40659126527E+02  0.00000000000E+00 0.  1.
         11    1    4    4    0    0 -0.80908670990E+01  0.11312739802E+02  0.19997008002E+02  0.24358171966E+02  0.51100000000E-03 0. -1.
        -11    1    4    4    0    0  0.37841469041E+01  0.12934504107E+02  0.95892866563E+01  0.16540120409E+02  0.51100000000E-03 0.  1.
        -12    1    4    4    0    0 -0.69948622776E+01 -0.49646025814E+01  0.43786659177E+01  0.96305810984E+01  0.00000000000E+00 0.  1.
</event>
<event>
 8    1  0.9870402E-014  0.9118800E+02  0.7816164E-02  0.1184000E+00
        -11   -1    0    0    0    0  0.00000000000E+00  0.00000000000E+00  0.45593999997E+02  0.45594000000E+02  0.51100000000E-03 0. -1.
         11   -1    0    0    0    0 -0.00000000000E+00 -0.00000000000E+00 -0.45593999997E+02  0.45594000000E+02  0.51100000000E-03 0.  1.
         23    2    1    2    0    0  0.22204460493E-15 -0.35527136788E-14  0.00000000000E+00  0.91188000000E+02  0.91188000000E+02 0.  0.
    9900012    2    3    3    0    0 -0.19364751264E+01 -0.21420739303E+02  0.34504608504E+02  0.50528855688E+02  0.29999987348E+02 0.  0.
        -12    1    3    3    0    0  0.19364751264E+01  0.21420739303E+02 -0.34504608504E+02  0.40659144312E+02  0.00000000000E+00 0.  1.
         11    1    4    4    0    0 -0.85438364901E+01 -0.16239437704E+02  0.93371169277E+01  0.20588788981E+02  0.51100000000E-03 0. -1.
        -11    1    4    4    0    0 -0.38725427829E+01  0.10589630013E+01  0.65766649194E+01  0.77052262762E+01  0.51100000000E-03 0.  1.
         12    1    4    4    0    0  0.10479904147E+02 -0.62402646003E+01  0.18590826657E+02  0.22234840431E+02  0.00000000000E+00 0. -1.
</event>
<event>
 8    1  0.9870402E-014  0.9118800E+02  0.7816164E-02  0.1184000E+00
        -11   -1    0    0    0    0  0.00000000000E+00  0.00000000000E+00  0.45593999997E+02  0.45594000000E+02  0.51100000000E-03 0. -1.
         11   -1    0    0    0    0 -0.00000000000E+00 -0.00000000000E+00 -0.45593999997E+02  0.45594000000E+02  0.51100000000E-03 0.  1.
         23    2    1    2    0    0  0.00000000000E+00 -0.13322676296E-14  0.00000000000E+00  0.91188000000E+02  0.91188000000E+02 0.  0.
    9900012    2    3    3    0    0  0.36767742168E+02 -0.30213141186E+01 -0.17093003411E+02  0.50528856271E+02  0.29999989121E+02 0.  0.
         12    1    3    3    0    0 -0.36767742168E+02  0.30213141186E+01  0.17093003411E+02  0.40659143729E+02  0.00000000000E+00 0. -1.
         11    1    4    4    0    0  0.10549153981E+02 -0.12521752551E+02 -0.53048987267E+01  0.17211068747E+02  0.51100000000E-03 0. -1.
        -11    1    4    4    0    0  0.44474784265E+01  0.67139561851E+00 -0.84715836592E+01  0.95915883141E+01  0.51100000000E-03 0.  1.
        -12    1    4    4    0    0  0.21771109761E+02  0.88290428135E+01 -0.33165210256E+01  0.23726199210E+02  0.00000000000E+00 0.  1.
</event>
<event>
 8    1  0.9870402E-014  0.9118800E+02  0.7816164E-02  0.1184000E+00
        -11   -1    0    0    0    0  0.00000000000E+00  0.00000000000E+00  0.45593999997E+02  0.45594000000E+02  0.51100000000E-03 0. -1.
         11   -1    0    0    0    0 -0.00000000000E+00 -0.00000000000E+00 -0.45593999997E+02  0.45594000000E+02  0.51100000000E-03 0.  1.
         23    2    1    2    0    0  0.17763568394E-14  0.00000000000E+00  0.00000000000E+00  0.91188000000E+02  0.91188000000E+02 0.  0.
    9900012    2    3    3    0    0  0.13289284888E+02 -0.15597877670E+02  0.35117896125E+02  0.50528861926E+02  0.30000006312E+02 0.  0.
        -12    1    3    3    0    0 -0.13289284888E+02  0.15597877670E+02 -0.35117896125E+02  0.40659138074E+02  0.00000000000E+00 0.  1.
         11    1    4    4    0    0  0.10431577147E+01  0.77913287264E+00  0.15338726736E+02  0.15393887235E+02  0.51100000000E-03 0. -1.
        -11    1    4    4    0    0 -0.57695326302E+01 -0.37530690283E+01  0.63304087904E+01  0.93513159297E+01  0.51100000000E-03 0.  1.
        -12    1    4    4    0    0  0.18015659804E+02 -0.12623941515E+02  0.13448760598E+02  0.25783658762E+02  0.00000000000E+00 0.  1.
</event>
<event>
 8    1  0.1465113E-013  0.9118800E+02  0.7816164E-02  0.1184000E+00
        -11   -1    0    0    0    0  0.00000000000E+00  0.00000000000E+00  0.45593999997E+02  0.45594000000E+02  0.51100000000E-03 0. -1.
         11   -1    0    0    0    0 -0.00000000000E+00 -0.00000000000E+00 -0.45593999997E+02  0.45594000000E+02  0.51100000000E-03 0.  1.
         23    2    1    2    0    0  0.00000000000E+00  0.22204460493E-15 -0.71054273576E-14  0.91188000000E+02  0.91188000000E+02 0.  0.
    9900012    2    3    3    0    0  0.24483085232E+02  0.11606259408E+01 -0.32440663950E+02  0.50528865816E+02  0.30000018135E+02 0.  0.
         12    1    3    3    0    0 -0.24483085232E+02 -0.11606259408E+01  0.32440663950E+02  0.40659134184E+02  0.00000000000E+00 0. -1.
         11    1    4    4    0    0  0.35959697688E+00 -0.46926161488E+01  0.54341155632E+00  0.47376421020E+01  0.51100000000E-03 0. -1.
        -11    1    4    4    0    0  0.21462873297E+02 -0.30853124276E+01 -0.18189631809E+02  0.28302593319E+02  0.51100000000E-03 0.  1.
         12    1    4    4    0    0  0.26606149585E+01  0.89385545173E+01 -0.14794443697E+02  0.17488630396E+02  0.00000000000E+00 0. -1.
</event>
<event>
 8    1  0.9870402E-014  0.9118800E+02  0.7816164E-02  0.1184000E+00
        -11   -1    0    0    0    0  0.00000000000E+00  0.00000000000E+00  0.45593999997E+02  0.45594000000E+02  0.51100000000E-03 0. -1.
         11   -1    0    0    0    0 -0.00000000000E+00 -0.00000000000E+00 -0.45593999997E+02  0.45594000000E+02  0.51100000000E-03 0.  1.
         23    2    1    2    0    0  0.00000000000E+00  0.00000000000E+00  0.00000000000E+00  0.91188000000E+02  0.91188000000E+02 0.  0.
    9900012    2    3    3    0    0 -0.25410457575E+02 -0.18057843049E+02 -0.26103415898E+02  0.50528863618E+02  0.30000011454E+02 0.  0.
         12    1    3    3    0    0  0.25410457575E+02  0.18057843049E+02  0.26103415898E+02  0.40659136382E+02  0.00000000000E+00 0. -1.
         11    1    4    4    0    0 -0.14690777417E+01 -0.41776235948E+01 -0.32636425437E+01  0.55010990925E+01  0.51100000000E-03 0.  1.
        -11    1    4    4    0    0 -0.14140972807E+02 -0.23002660341E+01  0.33940341877E+01  0.14723376110E+02  0.51100000000E-03 0. -1.
         12    1    4    4    0    0 -0.98004070268E+01 -0.11579953420E+02 -0.26233807542E+02  0.30304388416E+02  0.00000000000E+00 0. -1.
</event>
<event>
 8    1  0.9870402E-014  0.9118800E+02  0.7816164E-02  0.1184000E+00
        -11   -1    0    0    0    0  0.00000000000E+00  0.00000000000E+00  0.45593999997E+02  0.45594000000E+02  0.51100000000E-03 0. -1.
         11   -1    0    0    0    0 -0.00000000000E+00 -0.00000000000E+00 -0.45593999997E+02  0.45594000000E+02  0.51100000000E-03 0.  1.
         23    2    1    2    0    0  0.00000000000E+00  0.17763568394E-14  0.00000000000E+00  0.91188000000E+02  0.91188000000E+02 0.  0.
    9900012    2    3    3    0    0 -0.20771547309E+02 -0.13813654937E+02 -0.32107508494E+02  0.50528851681E+02  0.29999975170E+02 0.  0.
         12    1    3    3    0    0  0.20771547309E+02  0.13813654937E+02  0.32107508494E+02  0.40659148319E+02  0.00000000000E+00 0. -1.
         11    1    4    4    0    0 -0.66817486095E+00 -0.92532149382E+01 -0.58430870043E+01  0.10964037137E+02  0.51100000000E-03 0. -1.
        -11    1    4    4    0    0 -0.17882777201E+01 -0.12189273130E+01 -0.19708272062E+02  0.19826742267E+02  0.51100000000E-03 0.  1.
        -12    1    4    4    0    0 -0.18315094728E+02 -0.33415126856E+01 -0.65561494281E+01  0.19738072277E+02  0.00000000000E+00 0.  1.
</event>
<event>
 8    1  0.9870402E-014  0.9118800E+02  0.7816164E-02  0.1184000E+00
        -11   -1    0    0    0    0  0.00000000000E+00  0.00000000000E+00  0.45593999997E+02  0.45594000000E+02  0.51100000000E-03 0. -1.
         11   -1    0    0    0    0 -0.00000000000E+00 -0.00000000000E+00 -0.45593999997E+02  0.45594000000E+02  0.51100000000E-03 0.  1.
         23    2    1    2    0    0  0.00000000000E+00 -0.27755575616E-15 -0.71054273576E-14  0.91188000000E+02  0.91188000000E+02 0.  0.
    9900012    2    3    3    0    0 -0.22623137757E+02 -0.17865167003E+00  0.33783550340E+02  0.50528849099E+02  0.29999967322E+02 0.  0.
        -12    1    3    3    0    0  0.22623137757E+02  0.17865167003E+00 -0.33783550340E+02  0.40659150901E+02  0.00000000000E+00 0.  1.
         11    1    4    4    0    0 -0.13474913853E+02 -0.70107123850E+01  0.14890087805E+02  0.21270592530E+02  0.51100000000E-03 0. -1.
        -11    1    4    4    0    0 -0.15170694938E+02  0.56222229718E+01  0.13156944622E+02  0.20853406630E+02  0.51100000000E-03 0.  1.
        -12    1    4    4    0    0  0.60224710341E+01  0.12098377432E+01  0.57365179137E+01  0.84048499389E+01  0.00000000000E+00 0.  1.
</event>
<event>
 8    1  0.9870402E-014  0.9118800E+02  0.7816164E-02  0.1184000E+00
        -11   -1    0    0    0    0  0.00000000000E+00  0.00000000000E+00  0.45593999997E+02  0.45594000000E+02  0.51100000000E-03 0. -1.
         11   -1    0    0    0    0 -0.00000000000E+00 -0.00000000000E+00 -0.45593999997E+02  0.45594000000E+02  0.51100000000E-03 0.  1.
         23    2    1    2    0    0  0.17763568394E-14  0.00000000000E+00  0.00000000000E+00  0.91188000000E+02  0.91188000000E+02 0.  0.
    9900012    2    3    3    0    0 -0.18661975169E+01 -0.20970191906E+02 -0.34784104876E+02  0.50528860882E+02  0.30000003138E+02 0.  0.
         12    1    3    3    0    0  0.18661975169E+01  0.20970191906E+02  0.34784104876E+02  0.40659139118E+02  0.00000000000E+00 0. -1.
         11    1    4    4    0    0 -0.57249017131E+00 -0.47006414043E+01 -0.44982906469E+00  0.47566922390E+01  0.51100000000E-03 0. -1.
        -11    1    4    4    0    0 -0.94532782042E+01 -0.16762982712E+02 -0.31877950867E+02  0.37236619207E+02  0.51100000000E-03 0.  1.
         12    1    4    4    0    0  0.81595708585E+01  0.49343221085E+00 -0.24563249444E+01  0.85355494360E+01  0.00000000000E+00 0. -1.
</event>
<event>
 8    1  0.9870402E-014  0.9118800E+02  0.7816164E-02  0.1184000E+00
        -11   -1    0    0    0    0  0.00000000000E+00  0.00000000000E+00  0.45593999997E+02  0.45594000000E+02  0.51100000000E-03 0. -1.
         11   -1    0    0    0    0 -0.00000000000E+00 -0.00000000000E+00 -0.45593999997E+02  0.45594000000E+02  0.51100000000E-03 0.  1.
         23    2    1    2    0    0  0.00000000000E+00  0.00000000000E+00  0.35527136788E-14  0.91188000000E+02  0.91188000000E+02 0.  0.
    9900012    2    3    3    0    0  0.27143488408E+02 -0.17008411936E+02  0.25042186049E+02  0.50528854391E+02  0.29999983407E+02 0.  0.
        -12    1    3    3    0    0 -0.27143488408E+02  0.17008411936E+02 -0.25042186049E+02  0.40659145609E+02  0.00000000000E+00 0.  1.
         11    1    4    4    0    0  0.18842726931E+02 -0.13291948931E+02  0.11194827487E+02  0.25632955883E+02  0.51100000000E-03 0. -1.
        -11    1    4    4    0    0  0.76803608966E+01  0.13722582894E+01 -0.21536253786E+01  0.80937716083E+01  0.51100000000E-03 0.  1.
         12    1    4    4    0    0  0.62040058066E+00 -0.50887212938E+01  0.16000983941E+02  0.16802126900E+02  0.00000000000E+00 0. -1.
</event>
<event>
 8    1  0.9870402E-014  0.9118800E+02  0.7816164E-02  0.1184000E+00
        -11   -1    0    0    0    0  0.00000000000E+00  0.00000000000E+00  0.45593999997E+02  0.45594000000E+02  0.51100000000E-03 0. -1.
         11   -1    0    0    0    0 -0.00000000000E+00 -0.00000000000E+00 -0.45593999997E+02  0.45594000000E+02  0.51100000000E-03 0.  1.
         23    2    1    2    0    0  0.00000000000E+00  0.00000000000E+00  0.71054273576E-14  0.91188000000E+02  0.91188000000E+02 0.  0.
    9900012    2    3    3    0    0 -0.10505225992E+02  0.16575390378E+02  0.35609862970E+02  0.50528859821E+02  0.29999999913E+02 0.  0.
        -12    1    3    3    0    0  0.10505225992E+02 -0.16575390378E+02 -0.35609862970E+02  0.40659140179E+02  0.00000000000E+00 0.  1.
         11    1    4    4    0    0 -0.12959533418E+02  0.20653791550E+02  0.15518470825E+02  0.28902448837E+02  0.51100000000E-03 0. -1.
        -11    1    4    4    0    0 -0.10728530638E+00 -0.11955015378E+01  0.33121144666E-01  0.12007628139E+01  0.51100000000E-03 0.  1.
         12    1    4    4    0    0  0.25615927322E+01 -0.28828996339E+01  0.20058271001E+02  0.20425648170E+02  0.00000000000E+00 0. -1.
</event>
<event>
 8    1  0.9870402E-014  0.9118800E+02  0.7816164E-02  0.1184000E+00
        -11   -1    0    0    0    0  0.00000000000E+00  0.00000000000E+00  0.45593999997E+02  0.45594000000E+02  0.51100000000E-03 0.  1.
         11   -1    0    0    0    0 -0.00000000000E+00 -0.00000000000E+00 -0.45593999997E+02  0.45594000000E+02  0.51100000000E-03 0. -1.
         23    2    1    2    0    0  0.00000000000E+00  0.00000000000E+00  0.00000000000E+00  0.91188000000E+02  0.91188000000E+02 0.  0.
    9900012    2    3    3    0    0  0.32027953363E+02  0.19141356508E+02  0.16155052925E+02  0.50528842844E+02  0.29999948310E+02 0.  0.
        -12    1    3    3    0    0 -0.32027953363E+02 -0.19141356508E+02 -0.16155052925E+02  0.40659157156E+02  0.00000000000E+00 0.  1.
         11    1    4    4    0    0  0.55387351089E+01  0.32464883774E+01  0.32441420236E+01  0.71931725352E+01  0.51100000000E-03 0. -1.
        -11    1    4    4    0    0  0.72228597677E+01  0.25207258535E+01  0.17803410275E+02  0.19377439968E+02  0.51100000000E-03 0.  1.
         12    1    4    4    0    0  0.19266358486E+02  0.13374142277E+02 -0.48924993727E+01  0.23958230341E+02  0.00000000000E+00 0. -1.
</event>
<event>
 8    1  0.9870402E-014  0.9118800E+02  0.7816164E-02  0.1184000E+00
        -11   -1    0    0    0    0  0.00000000000E+00  0.00000000000E+00  0.45593999997E+02  0.45594000000E+02  0.51100000000E-03 0. -1.
         11   -1    0    0    0    0 -0.00000000000E+00 -0.00000000000E+00 -0.45593999997E+02  0.45594000000E+02  0.51100000000E-03 0.  1.
         23    2    1    2    0    0  0.83266726847E-15 -0.88817841970E-15  0.00000000000E+00  0.91188000000E+02  0.91188000000E+02 0.  0.
    9900012    2    3    3    0    0  0.46895394351E+00  0.71901362373E+01 -0.40015591286E+02  0.50528861755E+02  0.30000005789E+02 0.  0.
         12    1    3    3    0    0 -0.46895394351E+00 -0.71901362373E+01  0.40015591286E+02  0.40659138245E+02  0.00000000000E+00 0. -1.
         11    1    4    4    0    0  0.49402218317E+01  0.14846443614E+02 -0.23778694657E+02  0.28464873083E+02  0.51100000000E-03 0. -1.
        -11    1    4    4    0    0  0.35424468060E+01 -0.43470090805E+01 -0.97055185968E+01  0.11209036926E+02  0.51100000000E-03 0.  1.
        -12    1    4    4    0    0 -0.80137146942E+01 -0.33092982964E+01 -0.65313780314E+01  0.10854951746E+02  0.00000000000E+00 0.  1.
</event>
<event>
 8    1  0.9870402E-014  0.9118800E+02  0.7816164E-02  0.1184000E+00
        -11   -1    0    0    0    0  0.00000000000E+00  0.00000000000E+00  0.45593999997E+02  0.45594000000E+02  0.51100000000E-03 0.  1.
         11   -1    0    0    0    0 -0.00000000000E+00 -0.00000000000E+00 -0.45593999997E+02  0.45594000000E+02  0.51100000000E-03 0. -1.
         23    2    1    2    0    0 -0.17763568394E-14  0.71054273576E-14  0.17763568394E-14  0.91188000000E+02  0.91188000000E+02 0.  0.
    9900012    2    3    3    0    0 -0.14667346073E+02  0.36551170802E+02  0.10101843239E+02  0.50528851403E+02  0.29999974325E+02 0.  0.
        -12    1    3    3    0    0  0.14667346073E+02 -0.36551170802E+02 -0.10101843239E+02  0.40659148597E+02  0.00000000000E+00 0.  1.
         11    1    4    4    0    0 -0.11551323815E+02  0.14630155282E+02 -0.49419950278E+01  0.19284652981E+02  0.51100000000E-03 0. -1.
        -11    1    4    4    0    0  0.11876725352E+01  0.20854242550E+02  0.69472882417E+01  0.22013060045E+02  0.51100000000E-03 0.  1.
         12    1    4    4    0    0 -0.43036947930E+01  0.10667729691E+01  0.80965500246E+01  0.92311383772E+01  0.00000000000E+00 0. -1.
</event>
<event>
 8    1  0.9870402E-014  0.9118800E+02  0.7816164E-02  0.1184000E+00
        -11   -1    0    0    0    0  0.00000000000E+00  0.00000000000E+00  0.45593999997E+02  0.45594000000E+02  0.51100000000E-03 0. -1.
         11   -1    0    0    0    0 -0.00000000000E+00 -0.00000000000E+00 -0.45593999997E+02  0.45594000000E+02  0.51100000000E-03 0.  1.
         23    2    1    2    0    0 -0.35527136788E-14 -0.51347814889E-15  0.71054273576E-14  0.91188000000E+02  0.91188000000E+02 0.  0.
    9900012    2    3    3    0    0 -0.11804888501E+02 -0.86638775830E-01  0.38907624988E+02  0.50528853661E+02  0.29999981188E+02 0.  0.
        -12    1    3    3    0    0  0.11804888501E+02  0.86638775830E-01 -0.38907624988E+02  0.40659146339E+02  0.00000000000E+00 0.  1.
         11    1    4    4    0    0 -0.13209981307E+02  0.34230509740E+00  0.39749945819E+02  0.41888888405E+02  0.51100000000E-03 0. -1.
        -11    1    4    4    0    0 -0.12811567184E+01 -0.38091344231E+01  0.65144616770E+00  0.40712712955E+01  0.51100000000E-03 0.  1.
        -12    1    4    4    0    0  0.26862495245E+01  0.33801905499E+01 -0.14937669984E+01  0.45686939608E+01  0.00000000000E+00 0.  1.
</event>
<event>
 8    1  0.9870402E-014  0.9118800E+02  0.7816164E-02  0.1184000E+00
        -11   -1    0    0    0    0  0.00000000000E+00  0.00000000000E+00  0.45593999997E+02  0.45594000000E+02  0.51100000000E-03 0. -1.
         11   -1    0    0    0    0 -0.00000000000E+00 -0.00000000000E+00 -0.45593999997E+02  0.45594000000E+02  0.51100000000E-03 0.  1.
         23    2    1    2    0    0 -0.88817841970E-15  0.88817841970E-15  0.71054273576E-14  0.91188000000E+02  0.91188000000E+02 0.  0.
    9900012    2    3    3    0    0  0.34791474580E+01  0.26198014928E+01 -0.40425223681E+02  0.50528849289E+02  0.29999967897E+02 0.  0.
         12    1    3    3    0    0 -0.34791474580E+01 -0.26198014928E+01  0.40425223681E+02  0.40659150711E+02  0.00000000000E+00 0. -1.
         11    1    4    4    0    0 -0.12332905521E+01 -0.43492619425E+01 -0.32779809862E+01  0.55841064314E+01  0.51100000000E-03 0. -1.
        -11    1    4    4    0    0 -0.62609198188E+01  0.54067682106E+01 -0.26128608950E+01  0.86752119155E+01  0.51100000000E-03 0.  1.
        -12    1    4    4    0    0  0.10973357829E+02  0.15622952247E+01 -0.34534381800E+02  0.36269530942E+02  0.00000000000E+00 0.  1.
</event>
<event>
 8    1  0.9870402E-014  0.9118800E+02  0.7816164E-02  0.1184000E+00
        -11   -1    0    0    0    0  0.00000000000E+00  0.00000000000E+00  0.45593999997E+02  0.45594000000E+02  0.51100000000E-03 0. -1.
         11   -1    0    0    0    0 -0.00000000000E+00 -0.00000000000E+00 -0.45593999997E+02  0.45594000000E+02  0.51100000000E-03 0.  1.
         23    2    1    2    0    0  0.17763568394E-14  0.00000000000E+00  0.00000000000E+00  0.91188000000E+02  0.91188000000E+02 0.  0.
    9900012    2    3    3    0    0 -0.97041628791E+01  0.25855164731E+02  0.29841334533E+02  0.50528861210E+02  0.30000004135E+02 0.  0.
        -12    1    3    3    0    0  0.97041628791E+01 -0.25855164731E+02 -0.29841334533E+02  0.40659138790E+02  0.00000000000E+00 0.  1.
         11    1    4    4    0    0 -0.20774109126E+01  0.91003990409E+01  0.17557070118E+02  0.19884255334E+02  0.51100000000E-03 0. -1.
        -11    1    4    4    0    0  0.28031785397E+01  0.17389869647E+02  0.72925553786E+01  0.19064279175E+02  0.51100000000E-03 0.  1.
        -12    1    4    4    0    0 -0.10429930506E+02 -0.63510395705E+00  0.49917090358E+01  0.11580326701E+02  0.00000000000E+00 0.  1.
</event>
<event>
 8    1  0.9870402E-014  0.9118800E+02  0.7816164E-02  0.1184000E+00
        -11   -1    0    0    0    0  0.00000000000E+00  0.00000000000E+00  0.45593999997E+02  0.45594000000E+02  0.51100000000E-03 0. -1.
         11   -1    0    0    0    0 -0.00000000000E+00 -0.00000000000E+00 -0.45593999997E+02  0.45594000000E+02  0.51100000000E-03 0.  1.
         23    2    1    2    0    0  0.71054273576E-14  0.88817841970E-15  0.00000000000E+00  0.91188000000E+02  0.91188000000E+02 0.  0.
    9900012    2    3    3    0    0  0.35033965129E+02 -0.50454538562E+01 -0.20008261614E+02  0.50528857731E+02  0.29999993559E+02 0.  0.
         12    1    3    3    0    0 -0.35033965129E+02  0.50454538562E+01  0.20008261614E+02  0.40659142269E+02  0.00000000000E+00 0. -1.
         11    1    4    4    0    0  0.21885596769E+01 -0.23683995242E+01 -0.68432227713E+01  0.75649724338E+01  0.51100000000E-03 0. -1.
        -11    1    4    4    0    0  0.21736694041E+01 -0.26398260274E+01  0.59217959157E+01  0.68382152102E+01  0.51100000000E-03 0.  1.
        -12    1    4    4    0    0  0.30671736048E+02 -0.37228304690E-01 -0.19086834758E+02  0.36125670087E+02  0.00000000000E+00 0.  1.
</event>
<event>
 8    1  0.9870402E-014  0.9118800E+02  0.7816164E-02  0.1184000E+00
        -11   -1    0    0    0    0  0.00000000000E+00  0.00000000000E+00  0.45593999997E+02  0.45594000000E+02  0.51100000000E-03 0. -1.
         11   -1    0    0    0    0 -0.00000000000E+00 -0.00000000000E+00 -0.45593999997E+02  0.45594000000E+02  0.51100000000E-03 0.  1.
         23    2    1    2    0    0  0.35527136788E-14  0.88817841970E-15  0.00000000000E+00  0.91188000000E+02  0.91188000000E+02 0.  0.
    9900012    2    3    3    0    0 -0.17838053273E+02 -0.43859055154E+01  0.36273011196E+02  0.50528884749E+02  0.30000075683E+02 0.  0.
        -12    1    3    3    0    0  0.17838053273E+02  0.43859055154E+01 -0.36273011196E+02  0.40659115251E+02  0.00000000000E+00 0.  1.
         11    1    4    4    0    0 -0.67022753249E+01  0.48566775416E+01  0.50426140432E+01  0.96920466324E+01  0.51100000000E-03 0. -1.
        -11    1    4    4    0    0 -0.12363522901E+02 -0.93230130666E+01  0.77347614196E+01  0.17309009378E+02  0.51100000000E-03 0.  1.
         12    1    4    4    0    0  0.12277449522E+01  0.80430009627E-01  0.23495635733E+02  0.23527828739E+02  0.00000000000E+00 0. -1.
</event>
<event>
 8    1  0.9870402E-014  0.9118800E+02  0.7816164E-02  0.1184000E+00
        -11   -1    0    0    0    0  0.00000000000E+00  0.00000000000E+00  0.45593999997E+02  0.45594000000E+02  0.51100000000E-03 0. -1.
         11   -1    0    0    0    0 -0.00000000000E+00 -0.00000000000E+00 -0.45593999997E+02  0.45594000000E+02  0.51100000000E-03 0.  1.
         23    2    1    2    0    0  0.00000000000E+00  0.00000000000E+00  0.00000000000E+00  0.91188000000E+02  0.91188000000E+02 0.  0.
    9900012    2    3    3    0    0 -0.10301896209E+01  0.21007719391E+02 -0.34796265768E+02  0.50528859871E+02  0.30000000063E+02 0.  0.
         12    1    3    3    0    0  0.10301896209E+01 -0.21007719391E+02  0.34796265768E+02  0.40659140129E+02  0.00000000000E+00 0. -1.
         11    1    4    4    0    0 -0.55096012000E+00  0.39455892606E+01 -0.20602050770E+01  0.44850503773E+01  0.51100000000E-03 0. -1.
        -11    1    4    4    0    0 -0.11272971089E+01  0.13226322420E+01 -0.30005847460E+02  0.30056131435E+02  0.51100000000E-03 0.  1.
        -12    1    4    4    0    0  0.64806760801E+00  0.15739497888E+02 -0.27302132312E+01  0.15987678058E+02  0.00000000000E+00 0.  1.
</event>
<event>
 8    1  0.9870402E-014  0.9118800E+02  0.7816164E-02  0.1184000E+00
        -11   -1    0    0    0    0  0.00000000000E+00  0.00000000000E+00  0.45593999997E+02  0.45594000000E+02  0.51100000000E-03 0. -1.
         11   -1    0    0    0    0 -0.00000000000E+00 -0.00000000000E+00 -0.45593999997E+02  0.45594000000E+02  0.51100000000E-03 0.  1.
         23    2    1    2    0    0  0.00000000000E+00  0.00000000000E+00  0.00000000000E+00  0.91188000000E+02  0.91188000000E+02 0.  0.
    9900012    2    3    3    0    0  0.24958506639E+02 -0.20844227561E+02 -0.24408136524E+02  0.50528855827E+02  0.29999987772E+02 0.  0.
         12    1    3    3    0    0 -0.24958506639E+02  0.20844227561E+02  0.24408136524E+02  0.40659144173E+02  0.00000000000E+00 0. -1.
         11    1    4    4    0    0  0.55862656394E+01  0.87121375200E+00  0.72703201713E+00  0.57003467447E+01  0.51100000000E-03 0. -1.
        -11    1    4    4    0    0  0.23076700408E+02 -0.14683662526E+02 -0.12907506974E+02  0.30244797626E+02  0.51100000000E-03 0.  1.
         12    1    4    4    0    0 -0.37044594085E+01 -0.70317787875E+01 -0.12227661567E+02  0.14583711456E+02  0.00000000000E+00 0. -1.
</event>
<event>
 8    1  0.9870402E-014  0.9118800E+02  0.7816164E-02  0.1184000E+00
        -11   -1    0    0    0    0  0.00000000000E+00  0.00000000000E+00  0.45593999997E+02  0.45594000000E+02  0.51100000000E-03 0. -1.
         11   -1    0    0    0    0 -0.00000000000E+00 -0.00000000000E+00 -0.45593999997E+02  0.45594000000E+02  0.51100000000E-03 0.  1.
         23    2    1    2    0    0  0.17763568394E-14 -0.44408920985E-15  0.71054273576E-14  0.91188000000E+02  0.91188000000E+02 0.  0.
    9900012    2    3    3    0    0  0.13201559252E+02  0.26359574593E+01  0.38365826576E+02  0.50528854814E+02  0.29999984692E+02 0.  0.
        -12    1    3    3    0    0 -0.13201559252E+02 -0.26359574593E+01 -0.38365826576E+02  0.40659145186E+02  0.00000000000E+00 0.  1.
         11    1    4    4    0    0  0.64424167646E+01 -0.62088467032E+01  0.13130841380E+02  0.15889414928E+02  0.51100000000E-03 0. -1.
        -11    1    4    4    0    0  0.13132745720E+02  0.19501449157E+01  0.95344943824E+01  0.16345600592E+02  0.51100000000E-03 0.  1.
        -12    1    4    4    0    0 -0.63736032324E+01  0.68946592467E+01  0.15700490814E+02  0.18293839293E+02  0.00000000000E+00 0.  1.
</event>
<event>
 8    1  0.9870402E-014  0.9118800E+02  0.7816164E-02  0.1184000E+00
        -11   -1    0    0    0    0  0.00000000000E+00  0.00000000000E+00  0.45593999997E+02  0.45594000000E+02  0.51100000000E-03 0. -1.
         11   -1    0    0    0    0 -0.00000000000E+00 -0.00000000000E+00 -0.45593999997E+02  0.45594000000E+02  0.51100000000E-03 0.  1.
         23    2    1    2    0    0  0.22204460493E-14  0.00000000000E+00  0.00000000000E+00  0.91188000000E+02  0.91188000000E+02 0.  0.
    9900012    2    3    3    0    0 -0.22486909784E+01  0.29968376934E+02  0.27386234913E+02  0.50528854782E+02  0.29999984596E+02 0.  0.
        -12    1    3    3    0    0  0.22486909784E+01 -0.29968376934E+02 -0.27386234913E+02  0.40659145218E+02  0.00000000000E+00 0.  1.
         11    1    4    4    0    0  0.83652943565E+01  0.53195967985E+01  0.80907543987E+01  0.12795959002E+02  0.51100000000E-03 0.  1.
        -11    1    4    4    0    0 -0.14824973853E+02  0.11985239812E+02  0.10745116086E+02  0.21883403370E+02  0.51100000000E-03 0. -1.
         12    1    4    4    0    0  0.42109885185E+01  0.12663540323E+02  0.85503644275E+01  0.15849492410E+02  0.00000000000E+00 0. -1.
</event>
<event>
 8    1  0.9870402E-014  0.9118800E+02  0.7816164E-02  0.1184000E+00
        -11   -1    0    0    0    0  0.00000000000E+00  0.00000000000E+00  0.45593999997E+02  0.45594000000E+02  0.51100000000E-03 0.  1.
         11   -1    0    0    0    0 -0.00000000000E+00 -0.00000000000E+00 -0.45593999997E+02  0.45594000000E+02  0.51100000000E-03 0. -1.
         23    2    1    2    0    0  0.00000000000E+00  0.00000000000E+00  0.17763568394E-14  0.91188000000E+02  0.91188000000E+02 0.  0.
    9900012    2    3    3    0    0  0.28956610810E+02  0.28104265751E+02 -0.49830137106E+01  0.50528862176E+02  0.30000007070E+02 0.  0.
        -12    1    3    3    0    0 -0.28956610810E+02 -0.28104265751E+02  0.49830137106E+01  0.40659137824E+02  0.00000000000E+00 0.  1.
         11    1    4    4    0    0  0.82330292543E+01  0.15577195688E+02 -0.26319270391E+01  0.17814568094E+02  0.51100000000E-03 0. -1.
        -11    1    4    4    0    0  0.94895896437E+01  0.60923018409E+01  0.98138973233E+01  0.14949282065E+02  0.51100000000E-03 0.  1.
         12    1    4    4    0    0  0.11233991912E+02  0.64347682222E+01 -0.12164983995E+02  0.17765012016E+02  0.00000000000E+00 0. -1.
</event>
<event>
 8    1  0.9870402E-014  0.9118800E+02  0.7816164E-02  0.1184000E+00
        -11   -1    0    0    0    0  0.00000000000E+00  0.00000000000E+00  0.45593999997E+02  0.45594000000E+02  0.51100000000E-03 0. -1.
         11   -1    0    0    0    0 -0.00000000000E+00 -0.00000000000E+00 -0.45593999997E+02  0.45594000000E+02  0.51100000000E-03 0.  1.
         23    2    1    2    0    0 -0.35527136788E-14  0.00000000000E+00  0.71054273576E-14  0.91188000000E+02  0.91188000000E+02 0.  0.
    9900012    2    3    3    0    0 -0.18897999741E+02 -0.58985528700E+01 -0.35513913625E+02  0.50528863498E+02  0.30000011087E+02 0.  0.
         12    1    3    3    0    0  0.18897999741E+02  0.58985528700E+01  0.35513913625E+02  0.40659136502E+02  0.00000000000E+00 0. -1.
         11    1    4    4    0    0 -0.80279995411E+00  0.61513731611E+01 -0.59991509400E+01  0.86298141228E+01  0.51100000000E-03 0. -1.
        -11    1    4    4    0    0 -0.17465250535E+02  0.56310668104E-01 -0.15320580476E+02  0.23232699661E+02  0.51100000000E-03 0.  1.
        -12    1    4    4    0    0 -0.62994925214E+00 -0.12106236699E+02 -0.14194182208E+02  0.18666349714E+02  0.00000000000E+00 0.  1.
</event>
<event>
 8    1  0.9870402E-014  0.9118800E+02  0.7816164E-02  0.1184000E+00
        -11   -1    0    0    0    0  0.00000000000E+00  0.00000000000E+00  0.45593999997E+02  0.45594000000E+02  0.51100000000E-03 0. -1.
         11   -1    0    0    0    0 -0.00000000000E+00 -0.00000000000E+00 -0.45593999997E+02  0.45594000000E+02  0.51100000000E-03 0.  1.
         23    2    1    2    0    0  0.00000000000E+00  0.88817841970E-15  0.00000000000E+00  0.91188000000E+02  0.91188000000E+02 0.  0.
    9900012    2    3    3    0    0  0.23505286144E+02 -0.64463358190E+01  0.32543985964E+02  0.50528871325E+02  0.30000034879E+02 0.  0.
        -12    1    3    3    0    0 -0.23505286144E+02  0.64463358190E+01 -0.32543985964E+02  0.40659128675E+02  0.00000000000E+00 0.  1.
         11    1    4    4    0    0  0.12653575420E+02  0.43607763176E+01  0.24152004189E+02  0.27612472682E+02  0.51100000000E-03 0. -1.
        -11    1    4    4    0    0  0.11245773506E+02 -0.11631410250E+01  0.24062257673E+01  0.11558989640E+02  0.51100000000E-03 0.  1.
         12    1    4    4    0    0 -0.39406278163E+00 -0.96439711116E+01  0.59857560077E+01  0.11357409003E+02  0.00000000000E+00 0. -1.
</event>
<event>
 8    1  0.9870402E-014  0.9118800E+02  0.7816164E-02  0.1184000E+00
        -11   -1    0    0    0    0  0.00000000000E+00  0.00000000000E+00  0.45593999997E+02  0.45594000000E+02  0.51100000000E-03 0. -1.
         11   -1    0    0    0    0 -0.00000000000E+00 -0.00000000000E+00 -0.45593999997E+02  0.45594000000E+02  0.51100000000E-03 0.  1.
         23    2    1    2    0    0  0.00000000000E+00  0.00000000000E+00  0.00000000000E+00  0.91188000000E+02  0.91188000000E+02 0.  0.
    9900012    2    3    3    0    0  0.27033124626E+02 -0.20415771015E+02 -0.22484932751E+02  0.50528859158E+02  0.29999997898E+02 0.  0.
         12    1    3    3    0    0 -0.27033124626E+02  0.20415771015E+02  0.22484932751E+02  0.40659140842E+02  0.00000000000E+00 0. -1.
         11    1    4    4    0    0 -0.29250070237E+01 -0.26033216792E+01 -0.46446359768E+01  0.60749974051E+01  0.51100000000E-03 0. -1.
        -11    1    4    4    0    0  0.19683405094E+02 -0.13070425831E+02 -0.22109647512E+02  0.32359063350E+02  0.51100000000E-03 0.  1.
        -12    1    4    4    0    0  0.10274726555E+02 -0.47420235046E+01  0.42693507376E+01  0.12094798404E+02  0.00000000000E+00 0.  1.
</event>
<event>
 8    1  0.9870402E-014  0.9118800E+02  0.7816164E-02  0.1184000E+00
        -11   -1    0    0    0    0  0.00000000000E+00  0.00000000000E+00  0.45593999997E+02  0.45594000000E+02  0.51100000000E-03 0. -1.
         11   -1    0    0    0    0 -0.00000000000E+00 -0.00000000000E+00 -0.45593999997E+02  0.45594000000E+02  0.51100000000E-03 0.  1.
         23    2    1    2    0    0 -0.17763568394E-14  0.00000000000E+00  0.00000000000E+00  0.91188000000E+02  0.91188000000E+02 0.  0.
    9900012    2    3    3    0    0  0.97516511469E+01 -0.22126462217E+02  0.32687767821E+02  0.50528865781E+02  0.30000018027E+02 0.  0.
        -12    1    3    3    0    0 -0.97516511469E+01  0.22126462217E+02 -0.32687767821E+02  0.40659134219E+02  0.00000000000E+00 0.  1.
         11    1    4    4    0    0  0.51277898145E+01 -0.14275697845E+02  0.22720288236E+02  0.27318515244E+02  0.51100000000E-03 0. -1.
        -11    1    4    4    0    0 -0.38075795271E+01 -0.30471460224E+01  0.12298825669E+02  0.13230414727E+02  0.51100000000E-03 0.  1.
         12    1    4    4    0    0  0.84314408595E+01 -0.48036183496E+01 -0.23313460839E+01  0.99799358104E+01  0.00000000000E+00 0. -1.
</event>
<event>
 8    1  0.9870402E-014  0.9118800E+02  0.7816164E-02  0.1184000E+00
        -11   -1    0    0    0    0  0.00000000000E+00  0.00000000000E+00  0.45593999997E+02  0.45594000000E+02  0.51100000000E-03 0. -1.
         11   -1    0    0    0    0 -0.00000000000E+00 -0.00000000000E+00 -0.45593999997E+02  0.45594000000E+02  0.51100000000E-03 0.  1.
         23    2    1    2    0    0  0.00000000000E+00 -0.17763568394E-14  0.00000000000E+00  0.91188000000E+02  0.91188000000E+02 0.  0.
    9900012    2    3    3    0    0  0.25150833027E+01  0.15600431662E+02 -0.37462862116E+02  0.50528866340E+02  0.30000019728E+02 0.  0.
         12    1    3    3    0    0 -0.25150833027E+01 -0.15600431662E+02  0.37462862116E+02  0.40659133660E+02  0.00000000000E+00 0. -1.
         11    1    4    4    0    0  0.58903100477E+01 -0.37688803166E+01 -0.84177026000E+01  0.10943396576E+02  0.51100000000E-03 0. -1.
        -11    1    4    4    0    0 -0.34093690639E+01  0.17961724762E+00 -0.16051261048E+02  0.16410333369E+02  0.51100000000E-03 0.  1.
         12    1    4    4    0    0  0.34142318845E-01  0.19189694731E+02 -0.12993898467E+02  0.23175136395E+02  0.00000000000E+00 0. -1.
</event>
<event>
 8    1  0.9870402E-014  0.9118800E+02  0.7816164E-02  0.1184000E+00
        -11   -1    0    0    0    0  0.00000000000E+00  0.00000000000E+00  0.45593999997E+02  0.45594000000E+02  0.51100000000E-03 0. -1.
         11   -1    0    0    0    0 -0.00000000000E+00 -0.00000000000E+00 -0.45593999997E+02  0.45594000000E+02  0.51100000000E-03 0.  1.
         23    2    1    2    0    0  0.00000000000E+00  0.35527136788E-14  0.00000000000E+00  0.91188000000E+02  0.91188000000E+02 0.  0.
    9900012    2    3    3    0    0 -0.32988424371E+02 -0.22276913397E+02 -0.82866759490E+01  0.50528855749E+02  0.29999987533E+02 0.  0.
         12    1    3    3    0    0  0.32988424371E+02  0.22276913397E+02  0.82866759490E+01  0.40659144251E+02  0.00000000000E+00 0. -1.
         11    1    4    4    0    0 -0.13094599294E+02 -0.14907074013E+02 -0.91675008887E+00  0.19862774662E+02  0.51100000000E-03 0. -1.
        -11    1    4    4    0    0 -0.71323589766E+01 -0.10246905452E+02 -0.11473146076E+02  0.16955904490E+02  0.51100000000E-03 0.  1.
        -12    1    4    4    0    0 -0.12761466100E+02  0.28770660678E+01  0.41032202155E+01  0.13710176597E+02  0.00000000000E+00 0.  1.
</event>
<event>
 8    1  0.9870402E-014  0.9118800E+02  0.7816164E-02  0.1184000E+00
        -11   -1    0    0    0    0  0.00000000000E+00  0.00000000000E+00  0.45593999997E+02  0.45594000000E+02  0.51100000000E-03 0. -1.
         11   -1    0    0    0    0 -0.00000000000E+00 -0.00000000000E+00 -0.45593999997E+02  0.45594000000E+02  0.51100000000E-03 0.  1.
         23    2    1    2    0    0  0.00000000000E+00  0.17763568394E-14  0.71054273576E-14  0.91188000000E+02  0.91188000000E+02 0.  0.
    9900012    2    3    3    0    0 -0.47954116376E+01 -0.13861121273E+02 -0.37921482458E+02  0.50528862189E+02  0.30000007109E+02 0.  0.
         12    1    3    3    0    0  0.47954116376E+01  0.13861121273E+02  0.37921482458E+02  0.40659137811E+02  0.00000000000E+00 0. -1.
         11    1    4    4    0    0  0.11293046873E+01 -0.86197280235E+01 -0.27130887563E+01  0.91069144685E+01  0.51100000000E-03 0. -1.
        -11    1    4    4    0    0  0.76256200011E+00  0.44332011945E+01 -0.21318108476E+00  0.45033565338E+01  0.51100000000E-03 0.  1.
        -12    1    4    4    0    0 -0.66872783251E+01 -0.96745944437E+01 -0.34995212617E+02  0.36918591186E+02  0.00000000000E+00 0.  1.
</event>
<event>
 8    1  0.9870402E-014  0.9118800E+02  0.7816164E-02  0.1184000E+00
        -11   -1    0    0    0    0  0.00000000000E+00  0.00000000000E+00  0.45593999997E+02  0.45594000000E+02  0.51100000000E-03 0. -1.
         11   -1    0    0    0    0 -0.00000000000E+00 -0.00000000000E+00 -0.45593999997E+02  0.45594000000E+02  0.51100000000E-03 0.  1.
         23    2    1    2    0    0  0.00000000000E+00  0.35527136788E-14  0.35527136788E-14  0.91188000000E+02  0.91188000000E+02 0.  0.
    9900012    2    3    3    0    0  0.80628918101E+01  0.25162792657E+02  0.30902899367E+02  0.50528861446E+02  0.30000004852E+02 0.  0.
        -12    1    3    3    0    0 -0.80628918101E+01 -0.25162792657E+02 -0.30902899367E+02  0.40659138554E+02  0.00000000000E+00 0.  1.
         11    1    4    4    0    0  0.57969506491E+01  0.15562098518E+02  0.13593873626E+02  0.21461056534E+02  0.51100000000E-03 0. -1.
        -11    1    4    4    0    0  0.14429166044E+01  0.11875986847E+02  0.38272443192E+00  0.11969442350E+02  0.51100000000E-03 0.  1.
         12    1    4    4    0    0  0.82302455658E+00 -0.22752927077E+01  0.16926301309E+02  0.17098362563E+02  0.00000000000E+00 0. -1.
</event>
<event>
 8    1  0.9870402E-014  0.9118800E+02  0.7816164E-02  0.1184000E+00
        -11   -1    0    0    0    0  0.00000000000E+00  0.00000000000E+00  0.45593999997E+02  0.45594000000E+02  0.51100000000E-03 0.  1.
         11   -1    0    0    0    0 -0.00000000000E+00 -0.00000000000E+00 -0.45593999997E+02  0.45594000000E+02  0.51100000000E-03 0. -1.
         23    2    1    2    0    0 -0.35527136788E-14  0.00000000000E+00  0.35527136788E-14  0.91188000000E+02  0.91188000000E+02 0.  0.
    9900012    2    3    3    0    0  0.25252541114E+02  0.17390801128E+02 -0.26702681940E+02  0.50528880243E+02  0.30000061987E+02 0.  0.
         12    1    3    3    0    0 -0.25252541114E+02 -0.17390801128E+02  0.26702681940E+02  0.40659119757E+02  0.00000000000E+00 0. -1.
         11    1    4    4    0    0 -0.23219515424E+01 -0.12181058927E+01 -0.21071208166E+01  0.33638072668E+01  0.51100000000E-03 0. -1.
        -11    1    4    4    0    0  0.20499689985E+02  0.10409952159E+02 -0.32372436906E+01  0.23218185554E+02  0.51100000000E-03 0.  1.
         12    1    4    4    0    0  0.70748026710E+01  0.81989548623E+01 -0.21358317433E+02  0.23946887423E+02  0.00000000000E+00 0. -1.
</event>
<event>
 8    1  0.9870402E-014  0.9118800E+02  0.7816164E-02  0.1184000E+00
        -11   -1    0    0    0    0  0.00000000000E+00  0.00000000000E+00  0.45593999997E+02  0.45594000000E+02  0.51100000000E-03 0. -1.
         11   -1    0    0    0    0 -0.00000000000E+00 -0.00000000000E+00 -0.45593999997E+02  0.45594000000E+02  0.51100000000E-03 0.  1.
         23    2    1    2    0    0  0.17763568394E-14  0.00000000000E+00 -0.35527136788E-14  0.91188000000E+02  0.91188000000E+02 0.  0.
    9900012    2    3    3    0    0 -0.12124025816E+02  0.24151344297E+02  0.30379054149E+02  0.50528851406E+02  0.29999974335E+02 0.  0.
        -12    1    3    3    0    0  0.12124025816E+02 -0.24151344297E+02 -0.30379054149E+02  0.40659148594E+02  0.00000000000E+00 0.  1.
         11    1    4    4    0    0 -0.47322253900E+01  0.90095641166E+01  0.19733178335E+02  0.22202804557E+02  0.51100000000E-03 0. -1.
        -11    1    4    4    0    0 -0.41866360215E+00  0.17961710601E+02  0.10485690088E+02  0.20802596564E+02  0.51100000000E-03 0.  1.
        -12    1    4    4    0    0 -0.69731368234E+01 -0.28199304203E+01  0.16018572618E+00  0.75234502856E+01  0.00000000000E+00 0.  1.
</event>
<event>
 8    1  0.9870402E-014  0.9118800E+02  0.7816164E-02  0.1184000E+00
        -11   -1    0    0    0    0  0.00000000000E+00  0.00000000000E+00  0.45593999997E+02  0.45594000000E+02  0.51100000000E-03 0. -1.
         11   -1    0    0    0    0 -0.00000000000E+00 -0.00000000000E+00 -0.45593999997E+02  0.45594000000E+02  0.51100000000E-03 0.  1.
         23    2    1    2    0    0  0.00000000000E+00  0.88817841970E-15  0.00000000000E+00  0.91188000000E+02  0.91188000000E+02 0.  0.
    9900012    2    3    3    0    0 -0.30459248555E+02 -0.69656747330E+01 -0.26016914403E+02  0.50528852418E+02  0.29999977410E+02 0.  0.
         12    1    3    3    0    0  0.30459248555E+02  0.69656747330E+01  0.26016914403E+02  0.40659147582E+02  0.00000000000E+00 0. -1.
         11    1    4    4    0    0  0.90765977225E+00 -0.82606579704E+01 -0.53201240957E+00  0.83273857741E+01  0.51100000000E-03 0. -1.
        -11    1    4    4    0    0 -0.56727728914E+01 -0.41730895186E+01 -0.31261293904E+01  0.77050446874E+01  0.51100000000E-03 0.  1.
        -12    1    4    4    0    0 -0.25694135436E+02  0.54680727560E+01 -0.22358772603E+02  0.34496421956E+02  0.00000000000E+00 0.  1.
</event>
<event>
 8    1  0.9870402E-014  0.9118800E+02  0.7816164E-02  0.1184000E+00
        -11   -1    0    0    0    0  0.00000000000E+00  0.00000000000E+00  0.45593999997E+02  0.45594000000E+02  0.51100000000E-03 0. -1.
         11   -1    0    0    0    0 -0.00000000000E+00 -0.00000000000E+00 -0.45593999997E+02  0.45594000000E+02  0.51100000000E-03 0.  1.
         23    2    1    2    0    0  0.17763568394E-14  0.00000000000E+00  0.00000000000E+00  0.91188000000E+02  0.91188000000E+02 0.  0.
    9900012    2    3    3    0    0 -0.14398842911E+02  0.14603305421E+02  0.35108150722E+02  0.50528862607E+02  0.30000008380E+02 0.  0.
        -12    1    3    3    0    0  0.14398842911E+02 -0.14603305421E+02 -0.35108150722E+02  0.40659137393E+02  0.00000000000E+00 0.  1.
         11    1    4    4    0    0 -0.64570351502E+01  0.15810132652E+02  0.27229146553E+02  0.32141562184E+02  0.51100000000E-03 0. -1.
        -11    1    4    4    0    0 -0.46587891413E+01 -0.33871256372E+01  0.11610013585E+02  0.12960299073E+02  0.51100000000E-03 0.  1.
        -12    1    4    4    0    0 -0.32830186198E+01  0.21802984059E+01 -0.37310094153E+01  0.54270013501E+01  0.00000000000E+00 0.  1.
</event>
<event>
 8    1  0.9870402E-014  0.9118800E+02  0.7816164E-02  0.1184000E+00
        -11   -1    0    0    0    0  0.00000000000E+00  0.00000000000E+00  0.45593999997E+02  0.45594000000E+02  0.51100000000E-03 0. -1.
         11   -1    0    0    0    0 -0.00000000000E+00 -0.00000000000E+00 -0.45593999997E+02  0.45594000000E+02  0.51100000000E-03 0.  1.
         23    2    1    2    0    0  0.17763568394E-14  0.00000000000E+00  0.00000000000E+00  0.91188000000E+02  0.91188000000E+02 0.  0.
    9900012    2    3    3    0    0  0.96866834484E+01 -0.83471914331E+01  0.38596091248E+02  0.50528859568E+02  0.29999999143E+02 0.  0.
        -12    1    3    3    0    0 -0.96866834484E+01  0.83471914331E+01 -0.38596091248E+02  0.40659140432E+02  0.00000000000E+00 0.  1.
         11    1    4    4    0    0  0.13735238735E+02 -0.10563961103E+02  0.33901868502E+02  0.38073491375E+02  0.51100000000E-03 0. -1.
        -11    1    4    4    0    0 -0.11303058514E+01 -0.42610553923E+01  0.14119054053E+01  0.46290022152E+01  0.51100000000E-03 0.  1.
        -12    1    4    4    0    0 -0.29182494348E+01  0.64778250619E+01  0.32823173407E+01  0.78263659779E+01  0.00000000000E+00 0.  1.
</event>
<event>
 8    1  0.9870402E-014  0.9118800E+02  0.7816164E-02  0.1184000E+00
        -11   -1    0    0    0    0  0.00000000000E+00  0.00000000000E+00  0.45593999997E+02  0.45594000000E+02  0.51100000000E-03 0. -1.
         11   -1    0    0    0    0 -0.00000000000E+00 -0.00000000000E+00 -0.45593999997E+02  0.45594000000E+02  0.51100000000E-03 0.  1.
         23    2    1    2    0    0 -0.35527136788E-14  0.00000000000E+00  0.35527136788E-14  0.91188000000E+02  0.91188000000E+02 0.  0.
    9900012    2    3    3    0    0 -0.29074791920E+02  0.25666064146E+02  0.12209750093E+02  0.50528826727E+02  0.29999899318E+02 0.  0.
        -12    1    3    3    0    0  0.29074791920E+02 -0.25666064146E+02 -0.12209750093E+02  0.40659173273E+02  0.00000000000E+00 0.  1.
         11    1    4    4    0    0 -0.78531561620E+00  0.50668260844E+01  0.48211888548E+01  0.70379904391E+01  0.51100000000E-03 0. -1.
        -11    1    4    4    0    0 -0.28115260114E+02  0.13343521526E+02  0.13576240763E+02  0.33953375849E+02  0.51100000000E-03 0.  1.
        -12    1    4    4    0    0 -0.17421618904E+00  0.72557165357E+01 -0.61876795244E+01  0.95374604389E+01  0.00000000000E+00 0.  1.
</event>
<event>
 8    1  0.9870402E-014  0.9118800E+02  0.7816164E-02  0.1184000E+00
        -11   -1    0    0    0    0  0.00000000000E+00  0.00000000000E+00  0.45593999997E+02  0.45594000000E+02  0.51100000000E-03 0. -1.
         11   -1    0    0    0    0 -0.00000000000E+00 -0.00000000000E+00 -0.45593999997E+02  0.45594000000E+02  0.51100000000E-03 0.  1.
         23    2    1    2    0    0 -0.22204460493E-15 -0.17763568394E-14  0.00000000000E+00  0.91188000000E+02  0.91188000000E+02 0.  0.
    9900012    2    3    3    0    0 -0.16342687345E+01 -0.14569806374E+02  0.37923808412E+02  0.50528864046E+02  0.30000012755E+02 0.  0.
        -12    1    3    3    0    0  0.16342687345E+01  0.14569806374E+02 -0.37923808412E+02  0.40659135954E+02  0.00000000000E+00 0.  1.
         11    1    4    4    0    0 -0.39854459566E+01 -0.30016994182E+01  0.12421337269E+02  0.13385947807E+02  0.51100000000E-03 0. -1.
        -11    1    4    4    0    0 -0.16527654584E+01 -0.18142022015E+02  0.12708471484E+02  0.22211930222E+02  0.51100000000E-03 0.  1.
        -12    1    4    4    0    0  0.40039426805E+01  0.65739150595E+01  0.12793999658E+02  0.14930986017E+02  0.00000000000E+00 0.  1.
</event>
<event>
 8    1  0.9870402E-014  0.9118800E+02  0.7816164E-02  0.1184000E+00
        -11   -1    0    0    0    0  0.00000000000E+00  0.00000000000E+00  0.45593999997E+02  0.45594000000E+02  0.51100000000E-03 0.  1.
         11   -1    0    0    0    0 -0.00000000000E+00 -0.00000000000E+00 -0.45593999997E+02  0.45594000000E+02  0.51100000000E-03 0. -1.
         23    2    1    2    0    0  0.71054273576E-14  0.00000000000E+00  0.00000000000E+00  0.91188000000E+02  0.91188000000E+02 0.  0.
    9900012    2    3    3    0    0  0.28893245566E+02 -0.19490918594E+02 -0.20939218327E+02  0.50528850831E+02  0.29999972586E+02 0.  0.
         12    1    3    3    0    0 -0.28893245566E+02  0.19490918594E+02  0.20939218327E+02  0.40659149169E+02  0.00000000000E+00 0. -1.
         11    1    4    4    0    0  0.11155002957E+02 -0.10704561027E+01 -0.12420806637E+02  0.16728909259E+02  0.51100000000E-03 0. -1.
        -11    1    4    4    0    0  0.13377527109E+02 -0.40666236672E-02 -0.93050391787E+00  0.13409850331E+02  0.51100000000E-03 0.  1.
        -12    1    4    4    0    0  0.43607154997E+01 -0.18416395868E+02 -0.75879077726E+01  0.20390091241E+02  0.00000000000E+00 0.  1.
</event>
<event>
 8    1  0.9870402E-014  0.9118800E+02  0.7816164E-02  0.1184000E+00
        -11   -1    0    0    0    0  0.00000000000E+00  0.00000000000E+00  0.45593999997E+02  0.45594000000E+02  0.51100000000E-03 0. -1.
         11   -1    0    0    0    0 -0.00000000000E+00 -0.00000000000E+00 -0.45593999997E+02  0.45594000000E+02  0.51100000000E-03 0.  1.
         23    2    1    2    0    0  0.00000000000E+00  0.88817841970E-15  0.71054273576E-14  0.91188000000E+02  0.91188000000E+02 0.  0.
    9900012    2    3    3    0    0 -0.16672902889E+02  0.28529468095E+01  0.36973501107E+02  0.50528870885E+02  0.30000033543E+02 0.  0.
        -12    1    3    3    0    0  0.16672902889E+02 -0.28529468095E+01 -0.36973501107E+02  0.40659129115E+02  0.00000000000E+00 0.  1.
         11    1    4    4    0    0 -0.12361373590E+01 -0.45612913985E+01  0.17160943295E+02  0.17799758139E+02  0.51100000000E-03 0. -1.
        -11    1    4    4    0    0 -0.64004547703E+01  0.12855936214E+02  0.16032394747E+02  0.21523907610E+02  0.51100000000E-03 0.  1.
         12    1    4    4    0    0 -0.90363107600E+01 -0.54416980064E+01  0.37801630656E+01  0.11205205136E+02  0.00000000000E+00 0. -1.
</event>
<event>
 8    1  0.9870402E-014  0.9118800E+02  0.7816164E-02  0.1184000E+00
        -11   -1    0    0    0    0  0.00000000000E+00  0.00000000000E+00  0.45593999997E+02  0.45594000000E+02  0.51100000000E-03 0. -1.
         11   -1    0    0    0    0 -0.00000000000E+00 -0.00000000000E+00 -0.45593999997E+02  0.45594000000E+02  0.51100000000E-03 0.  1.
         23    2    1    2    0    0  0.88817841970E-15  0.88817841970E-15  0.00000000000E+00  0.91188000000E+02  0.91188000000E+02 0.  0.
    9900012    2    3    3    0    0 -0.58945451964E+01 -0.12841078040E+01  0.40209092701E+02  0.50528859186E+02  0.29999997982E+02 0.  0.
        -12    1    3    3    0    0  0.58945451964E+01  0.12841078040E+01 -0.40209092701E+02  0.40659140814E+02  0.00000000000E+00 0.  1.
         11    1    4    4    0    0  0.88684969631E+01 -0.48476316927E+01  0.33857786653E+01  0.10658952521E+02  0.51100000000E-03 0. -1.
        -11    1    4    4    0    0 -0.12260606309E+01  0.21726478977E-01  0.20777899500E+01  0.24126558080E+01  0.51100000000E-03 0.  1.
         12    1    4    4    0    0 -0.13536981529E+02  0.35417974097E+01  0.34745524085E+02  0.37457250857E+02  0.00000000000E+00 0. -1.
</event>
<event>
 8    1  0.9870402E-014  0.9118800E+02  0.7816164E-02  0.1184000E+00
        -11   -1    0    0    0    0  0.00000000000E+00  0.00000000000E+00  0.45593999997E+02  0.45594000000E+02  0.51100000000E-03 0. -1.
         11   -1    0    0    0    0 -0.00000000000E+00 -0.00000000000E+00 -0.45593999997E+02  0.45594000000E+02  0.51100000000E-03 0.  1.
         23    2    1    2    0    0 -0.17763568394E-14  0.00000000000E+00  0.88817841970E-15  0.91188000000E+02  0.91188000000E+02 0.  0.
    9900012    2    3    3    0    0  0.10451908547E+02 -0.38879697482E+02 -0.56827272645E+01  0.50528847798E+02  0.29999963368E+02 0.  0.
         12    1    3    3    0    0 -0.10451908547E+02  0.38879697482E+02  0.56827272645E+01  0.40659152202E+02  0.00000000000E+00 0. -1.
         11    1    4    4    0    0 -0.48000005117E+01 -0.14405079954E+02  0.30455462976E+01  0.15486177253E+02  0.51100000000E-03 0. -1.
        -11    1    4    4    0    0  0.13901572673E+01 -0.10126395234E+02 -0.10937673143E+02  0.14970274270E+02  0.51100000000E-03 0.  1.
         12    1    4    4    0    0  0.13861751792E+02 -0.14348222294E+02  0.22093995813E+01  0.20072396276E+02  0.00000000000E+00 0. -1.
</event>
<event>
 8    1  0.9870402E-014  0.9118800E+02  0.7816164E-02  0.1184000E+00
        -11   -1    0    0    0    0  0.00000000000E+00  0.00000000000E+00  0.45593999997E+02  0.45594000000E+02  0.51100000000E-03 0. -1.
         11   -1    0    0    0    0 -0.00000000000E+00 -0.00000000000E+00 -0.45593999997E+02  0.45594000000E+02  0.51100000000E-03 0.  1.
         23    2    1    2    0    0  0.17763568394E-14  0.00000000000E+00 -0.35527136788E-14  0.91188000000E+02  0.91188000000E+02 0.  0.
    9900012    2    3    3    0    0 -0.13718318280E+02 -0.32892142497E+02  0.19572455070E+02  0.50528852297E+02  0.29999977041E+02 0.  0.
        -12    1    3    3    0    0  0.13718318280E+02  0.32892142497E+02 -0.19572455070E+02  0.40659147703E+02  0.00000000000E+00 0.  1.
         11    1    4    4    0    0 -0.51005594575E+01 -0.17809712967E+02  0.24377683688E+01  0.18685403331E+02  0.51100000000E-03 0. -1.
        -11    1    4    4    0    0  0.16073897017E+01 -0.40687566670E+01 -0.39882485787E+01  0.59198487696E+01  0.51100000000E-03 0.  1.
        -12    1    4    4    0    0 -0.10225148524E+02 -0.11013672863E+02  0.21122935280E+02  0.25923600196E+02  0.00000000000E+00 0.  1.
</event>
<event>
 8    1  0.9870402E-014  0.9118800E+02  0.7816164E-02  0.1184000E+00
        -11   -1    0    0    0    0  0.00000000000E+00  0.00000000000E+00  0.45593999997E+02  0.45594000000E+02  0.51100000000E-03 0. -1.
         11   -1    0    0    0    0 -0.00000000000E+00 -0.00000000000E+00 -0.45593999997E+02  0.45594000000E+02  0.51100000000E-03 0.  1.
         23    2    1    2    0    0  0.00000000000E+00  0.00000000000E+00  0.00000000000E+00  0.91188000000E+02  0.91188000000E+02 0.  0.
    9900012    2    3    3    0    0 -0.22087049739E+02  0.35100221892E+01  0.33955961732E+02  0.50528863769E+02  0.30000011912E+02 0.  0.
        -12    1    3    3    0    0  0.22087049739E+02 -0.35100221892E+01 -0.33955961732E+02  0.40659136231E+02  0.00000000000E+00 0.  1.
         11    1    4    4    0    0 -0.59645143342E+00  0.38740739962E+01 -0.36178106505E+00  0.39363802459E+01  0.51100000000E-03 0. -1.
        -11    1    4    4    0    0  0.47908668844E+01 -0.19659974099E+01  0.53214305435E+01  0.74253063648E+01  0.51100000000E-03 0.  1.
         12    1    4    4    0    0 -0.26281465190E+02  0.16019456029E+01  0.28996312253E+02  0.39167177158E+02  0.00000000000E+00 0. -1.
</event>
<event>
 8    1  0.9870402E-014  0.9118800E+02  0.7816164E-02  0.1184000E+00
        -11   -1    0    0    0    0  0.00000000000E+00  0.00000000000E+00  0.45593999997E+02  0.45594000000E+02  0.51100000000E-03 0. -1.
         11   -1    0    0    0    0 -0.00000000000E+00 -0.00000000000E+00 -0.45593999997E+02  0.45594000000E+02  0.51100000000E-03 0.  1.
         23    2    1    2    0    0  0.35527136788E-14  0.00000000000E+00  0.35527136788E-14  0.91188000000E+02  0.91188000000E+02 0.  0.
    9900012    2    3    3    0    0  0.22199045271E+02  0.19934951699E+02  0.27621735078E+02  0.50528927718E+02  0.30000206289E+02 0.  0.
        -12    1    3    3    0    0 -0.22199045271E+02 -0.19934951699E+02 -0.27621735078E+02  0.40659072282E+02  0.00000000000E+00 0.  1.
         11    1    4    4    0    0  0.60189817997E+01  0.78843745917E+01  0.16866385706E+02  0.19566974003E+02  0.51100000000E-03 0. -1.
        -11    1    4    4    0    0  0.18095039689E+01  0.14242440928E+02  0.38251569168E+01  0.14857767461E+02  0.51100000000E-03 0.  1.
        -12    1    4    4    0    0  0.14370559502E+02 -0.21918638216E+01  0.69301924550E+01  0.16104186253E+02  0.00000000000E+00 0.  1.
</event>
<event>
 8    1  0.9870402E-014  0.9118800E+02  0.7816164E-02  0.1184000E+00
        -11   -1    0    0    0    0  0.00000000000E+00  0.00000000000E+00  0.45593999997E+02  0.45594000000E+02  0.51100000000E-03 0. -1.
         11   -1    0    0    0    0 -0.00000000000E+00 -0.00000000000E+00 -0.45593999997E+02  0.45594000000E+02  0.51100000000E-03 0.  1.
         23    2    1    2    0    0  0.00000000000E+00  0.71054273576E-14  0.00000000000E+00  0.91188000000E+02  0.91188000000E+02 0.  0.
    9900012    2    3    3    0    0 -0.23258168004E+02 -0.26360082180E+02  0.20429620346E+02  0.50528859590E+02  0.29999999210E+02 0.  0.
        -12    1    3    3    0    0  0.23258168004E+02  0.26360082180E+02 -0.20429620346E+02  0.40659140410E+02  0.00000000000E+00 0.  1.
         11    1    4    4    0    0 -0.99071962619E+01 -0.25583151140E+02  0.60328056289E+01  0.28089943112E+02  0.51100000000E-03 0. -1.
        -11    1    4    4    0    0 -0.28256365216E+01 -0.59177200434E+00  0.11007500187E+02  0.11379783675E+02  0.51100000000E-03 0.  1.
        -12    1    4    4    0    0 -0.10525335220E+02 -0.18515903511E+00  0.33893145296E+01  0.11059132803E+02  0.00000000000E+00 0.  1.
</event>
<event>
 8    1  0.9870402E-014  0.9118800E+02  0.7816164E-02  0.1184000E+00
        -11   -1    0    0    0    0  0.00000000000E+00  0.00000000000E+00  0.45593999997E+02  0.45594000000E+02  0.51100000000E-03 0. -1.
         11   -1    0    0    0    0 -0.00000000000E+00 -0.00000000000E+00 -0.45593999997E+02  0.45594000000E+02  0.51100000000E-03 0.  1.
         23    2    1    2    0    0  0.00000000000E+00  0.00000000000E+00  0.71054273576E-14  0.91188000000E+02  0.91188000000E+02 0.  0.
    9900012    2    3    3    0    0  0.42004234794E+01  0.32446090733E+02  0.24140697130E+02  0.50528860570E+02  0.30000002188E+02 0.  0.
        -12    1    3    3    0    0 -0.42004234794E+01 -0.32446090733E+02 -0.24140697130E+02  0.40659139430E+02  0.00000000000E+00 0.  1.
         11    1    4    4    0    0  0.76057720878E+01  0.94205185591E+01  0.11356420955E+02  0.16600067354E+02  0.51100000000E-03 0. -1.
        -11    1    4    4    0    0 -0.67149434262E+01  0.19070171102E+02  0.17650201514E+02  0.26838247052E+02  0.51100000000E-03 0.  1.
        -12    1    4    4    0    0  0.33095948178E+01  0.39554010724E+01 -0.48659253395E+01  0.70905461645E+01  0.00000000000E+00 0.  1.
</event>
<event>
 8    1  0.9870402E-014  0.9118800E+02  0.7816164E-02  0.1184000E+00
        -11   -1    0    0    0    0  0.00000000000E+00  0.00000000000E+00  0.45593999997E+02  0.45594000000E+02  0.51100000000E-03 0. -1.
         11   -1    0    0    0    0 -0.00000000000E+00 -0.00000000000E+00 -0.45593999997E+02  0.45594000000E+02  0.51100000000E-03 0.  1.
         23    2    1    2    0    0  0.35527136788E-14  0.35527136788E-14  0.00000000000E+00  0.91188000000E+02  0.91188000000E+02 0.  0.
    9900012    2    3    3    0    0  0.25664521469E+02  0.22062584032E+02 -0.22533103060E+02  0.50528855765E+02  0.29999987584E+02 0.  0.
         12    1    3    3    0    0 -0.25664521469E+02 -0.22062584032E+02  0.22533103060E+02  0.40659144235E+02  0.00000000000E+00 0. -1.
         11    1    4    4    0    0  0.69329919892E+01  0.90603099293E+01  0.62216616692E+01  0.12994793885E+02  0.51100000000E-03 0. -1.
        -11    1    4    4    0    0  0.56798226744E+01  0.10409163111E+01 -0.37087964508E+01  0.68628757642E+01  0.51100000000E-03 0.  1.
         12    1    4    4    0    0  0.13051706805E+02  0.11961357792E+02 -0.25045968278E+02  0.30671186116E+02  0.00000000000E+00 0. -1.
</event>
<event>
 8    1  0.9870402E-014  0.9118800E+02  0.7816164E-02  0.1184000E+00
        -11   -1    0    0    0    0  0.00000000000E+00  0.00000000000E+00  0.45593999997E+02  0.45594000000E+02  0.51100000000E-03 0. -1.
         11   -1    0    0    0    0 -0.00000000000E+00 -0.00000000000E+00 -0.45593999997E+02  0.45594000000E+02  0.51100000000E-03 0.  1.
         23    2    1    2    0    0 -0.35527136788E-14 -0.35527136788E-14  0.35527136788E-14  0.91188000000E+02  0.91188000000E+02 0.  0.
    9900012    2    3    3    0    0  0.13821486240E+02  0.26826812383E+02 -0.27248009155E+02  0.50528863911E+02  0.30000012345E+02 0.  0.
         12    1    3    3    0    0 -0.13821486240E+02 -0.26826812383E+02  0.27248009155E+02  0.40659136089E+02  0.00000000000E+00 0. -1.
         11    1    4    4    0    0 -0.80958493998E+01  0.51531182728E+01 -0.13807495356E+01  0.96955595495E+01  0.51100000000E-03 0. -1.
        -11    1    4    4    0    0  0.54902108062E+01  0.99587736419E+01 -0.82695993602E+01  0.14060791620E+02  0.51100000000E-03 0.  1.
        -12    1    4    4    0    0  0.16427124834E+02  0.11714920468E+02 -0.17597660260E+02  0.26772512742E+02  0.00000000000E+00 0.  1.
</event>
<event>
 8    1  0.9870402E-014  0.9118800E+02  0.7816164E-02  0.1184000E+00
        -11   -1    0    0    0    0  0.00000000000E+00  0.00000000000E+00  0.45593999997E+02  0.45594000000E+02  0.51100000000E-03 0. -1.
         11   -1    0    0    0    0 -0.00000000000E+00 -0.00000000000E+00 -0.45593999997E+02  0.45594000000E+02  0.51100000000E-03 0.  1.
         23    2    1    2    0    0 -0.71054273576E-14 -0.26645352591E-14  0.35527136788E-14  0.91188000000E+02  0.91188000000E+02 0.  0.
    9900012    2    3    3    0    0 -0.34458290522E+02 -0.17460755174E+01  0.21511465774E+02  0.50528859267E+02  0.29999998227E+02 0.  0.
        -12    1    3    3    0    0  0.34458290522E+02  0.17460755174E+01 -0.21511465774E+02  0.40659140733E+02  0.00000000000E+00 0.  1.
         11    1    4    4    0    0 -0.13328679407E+02 -0.30438331104E+00  0.15555065927E+02  0.20486737666E+02  0.51100000000E-03 0. -1.
        -11    1    4    4    0    0 -0.79449360467E+01 -0.90834831620E+01  0.82682360382E+01  0.14628581701E+02  0.51100000000E-03 0.  1.
         12    1    4    4    0    0 -0.13184675068E+02  0.76417909556E+01 -0.23118361910E+01  0.15413539900E+02  0.00000000000E+00 0. -1.
</event>
<event>
 8    1  0.9870402E-014  0.9118800E+02  0.7816164E-02  0.1184000E+00
        -11   -1    0    0    0    0  0.00000000000E+00  0.00000000000E+00  0.45593999997E+02  0.45594000000E+02  0.51100000000E-03 0. -1.
         11   -1    0    0    0    0 -0.00000000000E+00 -0.00000000000E+00 -0.45593999997E+02  0.45594000000E+02  0.51100000000E-03 0.  1.
         23    2    1    2    0    0  0.17763568394E-14 -0.17763568394E-14  0.00000000000E+00  0.91188000000E+02  0.91188000000E+02 0.  0.
    9900012    2    3    3    0    0 -0.15169922576E+02  0.10502781276E+02 -0.36231658723E+02  0.50528830563E+02  0.29999910978E+02 0.  0.
         12    1    3    3    0    0  0.15169922576E+02 -0.10502781276E+02  0.36231658723E+02  0.40659169437E+02  0.00000000000E+00 0. -1.
         11    1    4    4    0    0  0.20268161325E+01  0.47334721049E+01 -0.17760143584E+01  0.54468311031E+01  0.51100000000E-03 0. -1.
        -11    1    4    4    0    0  0.22900758059E+00  0.70145047008E+01 -0.23347169063E+02  0.24379212952E+02  0.51100000000E-03 0.  1.
         12    1    4    4    0    0 -0.17425746289E+02 -0.12451955294E+01 -0.11108475302E+02  0.20702786507E+02  0.00000000000E+00 0. -1.
</event>
<event>
 8    1  0.9870402E-014  0.9118800E+02  0.7816164E-02  0.1184000E+00
        -11   -1    0    0    0    0  0.00000000000E+00  0.00000000000E+00  0.45593999997E+02  0.45594000000E+02  0.51100000000E-03 0. -1.
         11   -1    0    0    0    0 -0.00000000000E+00 -0.00000000000E+00 -0.45593999997E+02  0.45594000000E+02  0.51100000000E-03 0.  1.
         23    2    1    2    0    0  0.00000000000E+00  0.00000000000E+00  0.00000000000E+00  0.91188000000E+02  0.91188000000E+02 0.  0.
    9900012    2    3    3    0    0  0.49463107581E+01 -0.12150059197E+02 -0.38484746431E+02  0.50528860358E+02  0.30000001543E+02 0.  0.
         12    1    3    3    0    0 -0.49463107581E+01  0.12150059197E+02  0.38484746431E+02  0.40659139642E+02  0.00000000000E+00 0. -1.
         11    1    4    4    0    0  0.41136016189E+01  0.48181706516E+01 -0.29478433832E+01  0.69875795223E+01  0.51100000000E-03 0. -1.
        -11    1    4    4    0    0  0.49977629503E+01 -0.89465049330E+01 -0.44593454864E+01  0.11176016618E+02  0.51100000000E-03 0.  1.
         12    1    4    4    0    0 -0.41650538112E+01 -0.80217249155E+01 -0.31077557561E+02  0.32365264217E+02  0.00000000000E+00 0. -1.
</event>
<event>
 8    1  0.9870402E-014  0.9118800E+02  0.7816164E-02  0.1184000E+00
        -11   -1    0    0    0    0  0.00000000000E+00  0.00000000000E+00  0.45593999997E+02  0.45594000000E+02  0.51100000000E-03 0. -1.
         11   -1    0    0    0    0 -0.00000000000E+00 -0.00000000000E+00 -0.45593999997E+02  0.45594000000E+02  0.51100000000E-03 0.  1.
         23    2    1    2    0    0  0.00000000000E+00  0.00000000000E+00  0.00000000000E+00  0.91188000000E+02  0.91188000000E+02 0.  0.
    9900012    2    3    3    0    0 -0.34965420552E+02 -0.10418554466E+02 -0.17945433968E+02  0.50528861890E+02  0.30000006201E+02 0.  0.
         12    1    3    3    0    0  0.34965420552E+02  0.10418554466E+02  0.17945433968E+02  0.40659138110E+02  0.00000000000E+00 0. -1.
         11    1    4    4    0    0 -0.10806684821E+02 -0.51158460009E+01 -0.23110483965E+01  0.12177736328E+02  0.51100000000E-03 0. -1.
        -11    1    4    4    0    0 -0.25179724042E+02  0.39053179291E+01 -0.92852458878E+01  0.27119841489E+02  0.51100000000E-03 0.  1.
         12    1    4    4    0    0  0.10209883103E+01 -0.92080263938E+01 -0.63491396840E+01  0.11231284073E+02  0.00000000000E+00 0. -1.
</event>
<event>
 8    1  0.9870402E-014  0.9118800E+02  0.7816164E-02  0.1184000E+00
        -11   -1    0    0    0    0  0.00000000000E+00  0.00000000000E+00  0.45593999997E+02  0.45594000000E+02  0.51100000000E-03 0. -1.
         11   -1    0    0    0    0 -0.00000000000E+00 -0.00000000000E+00 -0.45593999997E+02  0.45594000000E+02  0.51100000000E-03 0.  1.
         23    2    1    2    0    0  0.00000000000E+00  0.71054273576E-14  0.00000000000E+00  0.91188000000E+02  0.91188000000E+02 0.  0.
    9900012    2    3    3    0    0  0.21385672474E+02 -0.34463288904E+02 -0.28461225183E+01  0.50528859790E+02  0.29999999817E+02 0.  0.
         12    1    3    3    0    0 -0.21385672474E+02  0.34463288904E+02  0.28461225183E+01  0.40659140210E+02  0.00000000000E+00 0. -1.
         11    1    4    4    0    0  0.85400922909E+01 -0.12775894783E+02 -0.37876965166E+01  0.15827296327E+02  0.51100000000E-03 0. -1.
        -11    1    4    4    0    0  0.12242027132E+02 -0.26832712344E+02  0.43946175088E+00  0.29496691457E+02  0.51100000000E-03 0.  1.
         12    1    4    4    0    0  0.60355305099E+00  0.51453182225E+01  0.50211224740E+00  0.52048720066E+01  0.00000000000E+00 0. -1.
</event>
<event>
 8    1  0.9870402E-014  0.9118800E+02  0.7816164E-02  0.1184000E+00
        -11   -1    0    0    0    0  0.00000000000E+00  0.00000000000E+00  0.45593999997E+02  0.45594000000E+02  0.51100000000E-03 0. -1.
         11   -1    0    0    0    0 -0.00000000000E+00 -0.00000000000E+00 -0.45593999997E+02  0.45594000000E+02  0.51100000000E-03 0.  1.
         23    2    1    2    0    0 -0.17763568394E-14  0.00000000000E+00  0.00000000000E+00  0.91188000000E+02  0.91188000000E+02 0.  0.
    9900012    2    3    3    0    0  0.14856951856E+02 -0.28423569822E+02 -0.24990750596E+02  0.50528856437E+02  0.29999989626E+02 0.  0.
         12    1    3    3    0    0 -0.14856951856E+02  0.28423569822E+02  0.24990750596E+02  0.40659143563E+02  0.00000000000E+00 0. -1.
         11    1    4    4    0    0 -0.17317486172E+01 -0.92813877905E+01 -0.26552823535E+01  0.98078355017E+01  0.51100000000E-03 0. -1.
        -11    1    4    4    0    0 -0.12904557869E+01 -0.86462277008E+01 -0.17304028488E+02  0.19386901035E+02  0.51100000000E-03 0.  1.
        -12    1    4    4    0    0  0.17879156260E+02 -0.10495954331E+02 -0.50314397552E+01  0.21334119900E+02  0.00000000000E+00 0.  1.
</event>
<event>
 8    1  0.9870402E-014  0.9118800E+02  0.7816164E-02  0.1184000E+00
        -11   -1    0    0    0    0  0.00000000000E+00  0.00000000000E+00  0.45593999997E+02  0.45594000000E+02  0.51100000000E-03 0. -1.
         11   -1    0    0    0    0 -0.00000000000E+00 -0.00000000000E+00 -0.45593999997E+02  0.45594000000E+02  0.51100000000E-03 0.  1.
         23    2    1    2    0    0  0.00000000000E+00 -0.17763568394E-14  0.71054273576E-14  0.91188000000E+02  0.91188000000E+02 0.  0.
    9900012    2    3    3    0    0  0.10870451724E+02 -0.15792090600E+02  0.35855385756E+02  0.50528861619E+02  0.30000005377E+02 0.  0.
        -12    1    3    3    0    0 -0.10870451724E+02  0.15792090600E+02 -0.35855385756E+02  0.40659138381E+02  0.00000000000E+00 0.  1.
         11    1    4    4    0    0 -0.93618049889E+00  0.15181901855E+01  0.22274599074E+01  0.28535790275E+01  0.51100000000E-03 0.  1.
        -11    1    4    4    0    0  0.11722845780E+02  0.30147606488E+01  0.19394915768E+02  0.22862122667E+02  0.51100000000E-03 0. -1.
         12    1    4    4    0    0  0.83786442924E-01 -0.20325041434E+02  0.14233010081E+02  0.24813159924E+02  0.00000000000E+00 0. -1.
</event>
<event>
 8    1  0.9870402E-014  0.9118800E+02  0.7816164E-02  0.1184000E+00
        -11   -1    0    0    0    0  0.00000000000E+00  0.00000000000E+00  0.45593999997E+02  0.45594000000E+02  0.51100000000E-03 0. -1.
         11   -1    0    0    0    0 -0.00000000000E+00 -0.00000000000E+00 -0.45593999997E+02  0.45594000000E+02  0.51100000000E-03 0.  1.
         23    2    1    2    0    0  0.17763568394E-14  0.35527136788E-14 -0.71054273576E-14  0.91188000000E+02  0.91188000000E+02 0.  0.
    9900012    2    3    3    0    0  0.87670861414E+01  0.21856768697E+02 -0.33144903195E+02  0.50528871319E+02  0.30000034860E+02 0.  0.
         12    1    3    3    0    0 -0.87670861414E+01 -0.21856768697E+02  0.33144903195E+02  0.40659128681E+02  0.00000000000E+00 0. -1.
         11    1    4    4    0    0  0.63442488053E+01  0.93403151022E+01 -0.67670391194E+00  0.11311450285E+02  0.51100000000E-03 0. -1.
        -11    1    4    4    0    0 -0.57506230850E+01 -0.12403257419E+01 -0.10553719457E+02  0.12082593615E+02  0.51100000000E-03 0.  1.
        -12    1    4    4    0    0  0.81734604211E+01  0.13756779337E+02 -0.21914479826E+02  0.27134827419E+02  0.00000000000E+00 0.  1.
</event>
<event>
 8    1  0.9870402E-014  0.9118800E+02  0.7816164E-02  0.1184000E+00
        -11   -1    0    0    0    0  0.00000000000E+00  0.00000000000E+00  0.45593999997E+02  0.45594000000E+02  0.51100000000E-03 0. -1.
         11   -1    0    0    0    0 -0.00000000000E+00 -0.00000000000E+00 -0.45593999997E+02  0.45594000000E+02  0.51100000000E-03 0.  1.
         23    2    1    2    0    0  0.00000000000E+00  0.00000000000E+00  0.00000000000E+00  0.91188000000E+02  0.91188000000E+02 0.  0.
    9900012    2    3    3    0    0 -0.15927722593E+02  0.24487746290E+02  0.28281124613E+02  0.50528879563E+02  0.30000059920E+02 0.  0.
        -12    1    3    3    0    0  0.15927722593E+02 -0.24487746290E+02 -0.28281124613E+02  0.40659120437E+02  0.00000000000E+00 0.  1.
         11    1    4    4    0    0 -0.37153448149E+01  0.19764571423E+02  0.30454921333E+02  0.36495812147E+02  0.51100000000E-03 0. -1.
        -11    1    4    4    0    0 -0.12875492656E+00  0.24369437054E+00 -0.10629353740E+01  0.10980877231E+01  0.51100000000E-03 0.  1.
         12    1    4    4    0    0 -0.12083622851E+02  0.44794804961E+01 -0.11108613458E+01  0.12934979693E+02  0.00000000000E+00 0. -1.
</event>
<event>
 8    1  0.9870402E-014  0.9118800E+02  0.7816164E-02  0.1184000E+00
        -11   -1    0    0    0    0  0.00000000000E+00  0.00000000000E+00  0.45593999997E+02  0.45594000000E+02  0.51100000000E-03 0. -1.
         11   -1    0    0    0    0 -0.00000000000E+00 -0.00000000000E+00 -0.45593999997E+02  0.45594000000E+02  0.51100000000E-03 0.  1.
         23    2    1    2    0    0 -0.35527136788E-14  0.00000000000E+00 -0.35527136788E-14  0.91188000000E+02  0.91188000000E+02 0.  0.
    9900012    2    3    3    0    0 -0.29332926382E+02 -0.57159268609E+01 -0.27569413209E+02  0.50528868987E+02  0.30000027773E+02 0.  0.
         12    1    3    3    0    0  0.29332926382E+02  0.57159268609E+01  0.27569413209E+02  0.40659131013E+02  0.00000000000E+00 0. -1.
         11    1    4    4    0    0  0.13800921793E+01 -0.24185007493E+01  0.12538286232E+01  0.30538314909E+01  0.51100000000E-03 0. -1.
        -11    1    4    4    0    0 -0.15450297731E+02 -0.84778681902E+01 -0.43187794461E+01  0.18144911275E+02  0.51100000000E-03 0.  1.
         12    1    4    4    0    0 -0.15262720831E+02  0.51804420785E+01 -0.24504462386E+02  0.29330126221E+02  0.00000000000E+00 0. -1.
</event>
<event>
 8    1  0.9870402E-014  0.9118800E+02  0.7816164E-02  0.1184000E+00
        -11   -1    0    0    0    0  0.00000000000E+00  0.00000000000E+00  0.45593999997E+02  0.45594000000E+02  0.51100000000E-03 0. -1.
         11   -1    0    0    0    0 -0.00000000000E+00 -0.00000000000E+00 -0.45593999997E+02  0.45594000000E+02  0.51100000000E-03 0.  1.
         23    2    1    2    0    0  0.71054273576E-14  0.35527136788E-14  0.35527136788E-14  0.91188000000E+02  0.91188000000E+02 0.  0.
    9900012    2    3    3    0    0  0.26801447408E+02  0.19665914862E+02  0.23411515175E+02  0.50528870234E+02  0.30000031564E+02 0.  0.
        -12    1    3    3    0    0 -0.26801447408E+02 -0.19665914862E+02 -0.23411515175E+02  0.40659129766E+02  0.00000000000E+00 0.  1.
         11    1    4    4    0    0  0.81638564087E+01  0.17255889142E+01  0.75842188040E+01  0.11275929394E+02  0.51100000000E-03 0. -1.
        -11    1    4    4    0    0  0.23416363155E+02  0.19344105745E+02  0.10962968585E+02  0.32290976618E+02  0.51100000000E-03 0.  1.
         12    1    4    4    0    0 -0.47787721555E+01 -0.14037797972E+01  0.48643277860E+01  0.69619642230E+01  0.00000000000E+00 0. -1.
</event>
<event>
 8    1  0.9870402E-014  0.9118800E+02  0.7816164E-02  0.1184000E+00
        -11   -1    0    0    0    0  0.00000000000E+00  0.00000000000E+00  0.45593999997E+02  0.45594000000E+02  0.51100000000E-03 0. -1.
         11   -1    0    0    0    0 -0.00000000000E+00 -0.00000000000E+00 -0.45593999997E+02  0.45594000000E+02  0.51100000000E-03 0.  1.
         23    2    1    2    0    0  0.00000000000E+00  0.00000000000E+00 -0.35527136788E-14  0.91188000000E+02  0.91188000000E+02 0.  0.
    9900012    2    3    3    0    0  0.23099127592E+02 -0.10991585637E+02 -0.31603498328E+02  0.50528858877E+02  0.29999997042E+02 0.  0.
         12    1    3    3    0    0 -0.23099127592E+02  0.10991585637E+02  0.31603498328E+02  0.40659141123E+02  0.00000000000E+00 0. -1.
         11    1    4    4    0    0  0.18711507126E+01  0.35800194857E+01  0.54328381820E+00  0.40758927949E+01  0.51100000000E-03 0. -1.
        -11    1    4    4    0    0  0.18918512799E+02 -0.10505897260E+02 -0.10037167681E+02  0.23854323279E+02  0.51100000000E-03 0.  1.
        -12    1    4    4    0    0  0.23094640808E+01 -0.40657078623E+01 -0.22109614465E+02  0.22598642803E+02  0.00000000000E+00 0.  1.
</event>
<event>
 8    1  0.9870402E-014  0.9118800E+02  0.7816164E-02  0.1184000E+00
        -11   -1    0    0    0    0  0.00000000000E+00  0.00000000000E+00  0.45593999997E+02  0.45594000000E+02  0.51100000000E-03 0. -1.
         11   -1    0    0    0    0 -0.00000000000E+00 -0.00000000000E+00 -0.45593999997E+02  0.45594000000E+02  0.51100000000E-03 0.  1.
         23    2    1    2    0    0  0.00000000000E+00  0.44408920985E-15  0.35527136788E-14  0.91188000000E+02  0.91188000000E+02 0.  0.
    9900012    2    3    3    0    0  0.34680206150E+02 -0.33632653690E+01 -0.20955609210E+02  0.50528858224E+02  0.29999995059E+02 0.  0.
         12    1    3    3    0    0 -0.34680206150E+02  0.33632653690E+01  0.20955609210E+02  0.40659141776E+02  0.00000000000E+00 0. -1.
         11    1    4    4    0    0  0.13014495788E+02 -0.85965639011E+00  0.36250601477E+01  0.13537251237E+02  0.51100000000E-03 0. -1.
        -11    1    4    4    0    0 -0.19014698822E+01 -0.34436760615E+01 -0.23618211689E+01  0.45883212643E+01  0.51100000000E-03 0.  1.
        -12    1    4    4    0    0  0.23567180245E+02  0.94006708253E+00 -0.22218848189E+02  0.32403285723E+02  0.00000000000E+00 0.  1.
</event>
<event>
 8    1  0.9870402E-014  0.9118800E+02  0.7816164E-02  0.1184000E+00
        -11   -1    0    0    0    0  0.00000000000E+00  0.00000000000E+00  0.45593999997E+02  0.45594000000E+02  0.51100000000E-03 0. -1.
         11   -1    0    0    0    0 -0.00000000000E+00 -0.00000000000E+00 -0.45593999997E+02  0.45594000000E+02  0.51100000000E-03 0.  1.
         23    2    1    2    0    0  0.00000000000E+00  0.00000000000E+00  0.00000000000E+00  0.91188000000E+02  0.91188000000E+02 0.  0.
    9900012    2    3    3    0    0  0.16674144872E+02 -0.35990413098E+02  0.89346826726E+01  0.50528862077E+02  0.30000006770E+02 0.  0.
        -12    1    3    3    0    0 -0.16674144872E+02  0.35990413098E+02 -0.89346826726E+01  0.40659137923E+02  0.00000000000E+00 0.  1.
         11    1    4    4    0    0  0.17007745361E+01 -0.27387852588E+02  0.25276860579E+01  0.27556783203E+02  0.51100000000E-03 0. -1.
        -11    1    4    4    0    0  0.84178808999E+00 -0.72154690528E+00  0.66977167035E+01  0.67888619390E+01  0.51100000000E-03 0.  1.
        -12    1    4    4    0    0  0.14131582246E+02 -0.78810136044E+01 -0.29072008876E+00  0.16183216935E+02  0.00000000000E+00 0.  1.
</event>
<event>
 8    1  0.9870402E-014  0.9118800E+02  0.7816164E-02  0.1184000E+00
        -11   -1    0    0    0    0  0.00000000000E+00  0.00000000000E+00  0.45593999997E+02  0.45594000000E+02  0.51100000000E-03 0. -1.
         11   -1    0    0    0    0 -0.00000000000E+00 -0.00000000000E+00 -0.45593999997E+02  0.45594000000E+02  0.51100000000E-03 0.  1.
         23    2    1    2    0    0 -0.35527136788E-14 -0.35527136788E-14 -0.35527136788E-14  0.91188000000E+02  0.91188000000E+02 0.  0.
    9900012    2    3    3    0    0  0.11649751046E+02  0.23473369369E+02  0.31087788848E+02  0.50528851160E+02  0.29999973586E+02 0.  0.
        -12    1    3    3    0    0 -0.11649751046E+02 -0.23473369369E+02 -0.31087788848E+02  0.40659148840E+02  0.00000000000E+00 0.  1.
         11    1    4    4    0    0  0.98186046716E+01 -0.12776300807E+01  0.44852750468E+01  0.10869913929E+02  0.51100000000E-03 0.  1.
        -11    1    4    4    0    0  0.56209294939E+01  0.14225412982E+02  0.64303469376E+01  0.16592365259E+02  0.51100000000E-03 0. -1.
        -12    1    4    4    0    0 -0.37897831191E+01  0.10525586467E+02  0.20172166863E+02  0.23066571972E+02  0.00000000000E+00 0.  1.
</event>
<event>
 8    1  0.9870402E-014  0.9118800E+02  0.7816164E-02  0.1184000E+00
        -11   -1    0    0    0    0  0.00000000000E+00  0.00000000000E+00  0.45593999997E+02  0.45594000000E+02  0.51100000000E-03 0. -1.
         11   -1    0    0    0    0 -0.00000000000E+00 -0.00000000000E+00 -0.45593999997E+02  0.45594000000E+02  0.51100000000E-03 0.  1.
         23    2    1    2    0    0  0.00000000000E+00 -0.71054273576E-14  0.00000000000E+00  0.91188000000E+02  0.91188000000E+02 0.  0.
    9900012    2    3    3    0    0 -0.31047102648E+02 -0.19565175980E+02  0.17505656945E+02  0.50528847045E+02  0.29999961077E+02 0.  0.
        -12    1    3    3    0    0  0.31047102648E+02  0.19565175980E+02 -0.17505656945E+02  0.40659152955E+02  0.00000000000E+00 0.  1.
         11    1    4    4    0    0 -0.16158556672E+02 -0.24993350034E+02  0.12568958090E+02  0.32307045786E+02  0.51100000000E-03 0. -1.
        -11    1    4    4    0    0 -0.60786264935E+01 -0.15076078123E+01  0.10223147417E+01  0.63456842858E+01  0.51100000000E-03 0.  1.
         12    1    4    4    0    0 -0.88099194817E+01  0.69357818662E+01  0.39143841142E+01  0.11876116973E+02  0.00000000000E+00 0. -1.
</event>
<event>
 8    1  0.9870402E-014  0.9118800E+02  0.7816164E-02  0.1184000E+00
        -11   -1    0    0    0    0  0.00000000000E+00  0.00000000000E+00  0.45593999997E+02  0.45594000000E+02  0.51100000000E-03 0. -1.
         11   -1    0    0    0    0 -0.00000000000E+00 -0.00000000000E+00 -0.45593999997E+02  0.45594000000E+02  0.51100000000E-03 0.  1.
         23    2    1    2    0    0  0.00000000000E+00  0.00000000000E+00 -0.35527136788E-14  0.91188000000E+02  0.91188000000E+02 0.  0.
    9900012    2    3    3    0    0  0.68347830013E+01 -0.35704393433E+02 -0.18211218855E+02  0.50528850214E+02  0.29999970712E+02 0.  0.
         12    1    3    3    0    0 -0.68347830013E+01  0.35704393433E+02  0.18211218855E+02  0.40659149786E+02  0.00000000000E+00 0. -1.
         11    1    4    4    0    0 -0.49380993934E+01  0.19463770472E-01 -0.59833491923E+01  0.77579425285E+01  0.51100000000E-03 0. -1.
        -11    1    4    4    0    0 -0.33313152142E+01 -0.14842891153E+02 -0.47649775909E+01  0.15940956387E+02  0.51100000000E-03 0.  1.
        -12    1    4    4    0    0  0.15104197609E+02 -0.20880966050E+02 -0.74628920717E+01  0.26829951298E+02  0.00000000000E+00 0.  1.
</event>
<event>
 8    1  0.9870402E-014  0.9118800E+02  0.7816164E-02  0.1184000E+00
        -11   -1    0    0    0    0  0.00000000000E+00  0.00000000000E+00  0.45593999997E+02  0.45594000000E+02  0.51100000000E-03 0. -1.
         11   -1    0    0    0    0 -0.00000000000E+00 -0.00000000000E+00 -0.45593999997E+02  0.45594000000E+02  0.51100000000E-03 0.  1.
         23    2    1    2    0    0  0.11102230246E-15  0.00000000000E+00  0.00000000000E+00  0.91188000000E+02  0.91188000000E+02 0.  0.
    9900012    2    3    3    0    0  0.48999773596E+00 -0.10811431531E+02 -0.39192323595E+02  0.50528863532E+02  0.30000011191E+02 0.  0.
         12    1    3    3    0    0 -0.48999773596E+00  0.10811431531E+02  0.39192323595E+02  0.40659136468E+02  0.00000000000E+00 0. -1.
         11    1    4    4    0    0 -0.22494347973E+01 -0.62275503116E+01 -0.26686782374E+01  0.71389203376E+01  0.51100000000E-03 0. -1.
        -11    1    4    4    0    0  0.48155285138E+01 -0.88165076049E+01 -0.37284855253E+02  0.38614512204E+02  0.51100000000E-03 0.  1.
         12    1    4    4    0    0 -0.20760959806E+01  0.42326263856E+01  0.76120989525E+00  0.47754309905E+01  0.00000000000E+00 0. -1.
</event>
<event>
 8    1  0.9870402E-014  0.9118800E+02  0.7816164E-02  0.1184000E+00
        -11   -1    0    0    0    0  0.00000000000E+00  0.00000000000E+00  0.45593999997E+02  0.45594000000E+02  0.51100000000E-03 0.  1.
         11   -1    0    0    0    0 -0.00000000000E+00 -0.00000000000E+00 -0.45593999997E+02  0.45594000000E+02  0.51100000000E-03 0. -1.
         23    2    1    2    0    0  0.17763568394E-14 -0.71054273576E-14 -0.22204460493E-15  0.91188000000E+02  0.91188000000E+02 0.  0.
    9900012    2    3    3    0    0 -0.12389764782E+02  0.38694494976E+02 -0.15478019589E+01  0.50528857072E+02  0.29999991555E+02 0.  0.
         12    1    3    3    0    0  0.12389764782E+02 -0.38694494976E+02  0.15478019589E+01  0.40659142928E+02  0.00000000000E+00 0. -1.
         11    1    4    4    0    0  0.67630032451E+01  0.11447434074E+02 -0.55984062454E+01  0.14426507288E+02  0.51100000000E-03 0. -1.
        -11    1    4    4    0    0 -0.59063456170E+01  0.38594151264E+00  0.90787630318E+00  0.59881640794E+01  0.51100000000E-03 0.  1.
        -12    1    4    4    0    0 -0.13246422410E+02  0.26861119389E+02  0.31427279834E+01  0.30114185704E+02  0.00000000000E+00 0.  1.
</event>
<event>
 8    1  0.9870402E-014  0.9118800E+02  0.7816164E-02  0.1184000E+00
        -11   -1    0    0    0    0  0.00000000000E+00  0.00000000000E+00  0.45593999997E+02  0.45594000000E+02  0.51100000000E-03 0.  1.
         11   -1    0    0    0    0 -0.00000000000E+00 -0.00000000000E+00 -0.45593999997E+02  0.45594000000E+02  0.51100000000E-03 0. -1.
         23    2    1    2    0    0  0.71054273576E-14  0.00000000000E+00  0.17763568394E-14  0.91188000000E+02  0.91188000000E+02 0.  0.
    9900012    2    3    3    0    0 -0.37790434348E+02 -0.39601018883E+01 -0.14469428722E+02  0.50528884138E+02  0.30000073825E+02 0.  0.
         12    1    3    3    0    0  0.37790434348E+02  0.39601018883E+01  0.14469428722E+02  0.40659115862E+02  0.00000000000E+00 0. -1.
         11    1    4    4    0    0 -0.84758867076E+01 -0.24384457880E+01  0.45357512528E+01  0.99176465469E+01  0.51100000000E-03 0. -1.
        -11    1    4    4    0    0 -0.21413325707E+02 -0.98802909804E+01 -0.86027081717E+01  0.25102933212E+02  0.51100000000E-03 0.  1.
         12    1    4    4    0    0 -0.79012219331E+01  0.83586348802E+01 -0.10402471804E+02  0.15508304379E+02  0.00000000000E+00 0. -1.
</event>
<event>
 8    1  0.9870402E-014  0.9118800E+02  0.7816164E-02  0.1184000E+00
        -11   -1    0    0    0    0  0.00000000000E+00  0.00000000000E+00  0.45593999997E+02  0.45594000000E+02  0.51100000000E-03 0. -1.
         11   -1    0    0    0    0 -0.00000000000E+00 -0.00000000000E+00 -0.45593999997E+02  0.45594000000E+02  0.51100000000E-03 0.  1.
         23    2    1    2    0    0  0.17763568394E-14 -0.88817841970E-15  0.00000000000E+00  0.91188000000E+02  0.91188000000E+02 0.  0.
    9900012    2    3    3    0    0  0.11773487164E+02 -0.68388224270E+01 -0.38311630130E+02  0.50528862092E+02  0.30000006816E+02 0.  0.
         12    1    3    3    0    0 -0.11773487164E+02  0.68388224270E+01  0.38311630130E+02  0.40659137908E+02  0.00000000000E+00 0. -1.
         11    1    4    4    0    0 -0.32192248676E+01 -0.71591702808E+01 -0.25388827625E+02  0.26574606231E+02  0.51100000000E-03 0. -1.
        -11    1    4    4    0    0  0.77250156088E+01 -0.62776508708E+01 -0.41331793690E+01  0.10778123147E+02  0.51100000000E-03 0.  1.
        -12    1    4    4    0    0  0.72676964225E+01  0.65979987246E+01 -0.87896231356E+01  0.13176132715E+02  0.00000000000E+00 0.  1.
</event>
<event>
 8    1  0.9870402E-014  0.9118800E+02  0.7816164E-02  0.1184000E+00
        -11   -1    0    0    0    0  0.00000000000E+00  0.00000000000E+00  0.45593999997E+02  0.45594000000E+02  0.51100000000E-03 0. -1.
         11   -1    0    0    0    0 -0.00000000000E+00 -0.00000000000E+00 -0.45593999997E+02  0.45594000000E+02  0.51100000000E-03 0.  1.
         23    2    1    2    0    0  0.00000000000E+00  0.00000000000E+00  0.00000000000E+00  0.91188000000E+02  0.91188000000E+02 0.  0.
    9900012    2    3    3    0    0  0.43434282307E+01  0.34038006416E+02 -0.21810888021E+02  0.50528854832E+02  0.29999984746E+02 0.  0.
         12    1    3    3    0    0 -0.43434282307E+01 -0.34038006416E+02  0.21810888021E+02  0.40659145168E+02  0.00000000000E+00 0. -1.
         11    1    4    4    0    0 -0.34829260527E+01  0.20431275683E+02 -0.77479680034E+01  0.22126879770E+02  0.51100000000E-03 0. -1.
        -11    1    4    4    0    0  0.34215996973E-01  0.97264813022E+01 -0.16683045650E+02  0.19311385804E+02  0.51100000000E-03 0.  1.
         12    1    4    4    0    0  0.77921382864E+01  0.38802494309E+01  0.26201256325E+01  0.90905892576E+01  0.00000000000E+00 0. -1.
</event>
<event>
 8    1  0.9870402E-014  0.9118800E+02  0.7816164E-02  0.1184000E+00
        -11   -1    0    0    0    0  0.00000000000E+00  0.00000000000E+00  0.45593999997E+02  0.45594000000E+02  0.51100000000E-03 0. -1.
         11   -1    0    0    0    0 -0.00000000000E+00 -0.00000000000E+00 -0.45593999997E+02  0.45594000000E+02  0.51100000000E-03 0.  1.
         23    2    1    2    0    0  0.00000000000E+00  0.00000000000E+00  0.35527136788E-14  0.91188000000E+02  0.91188000000E+02 0.  0.
    9900012    2    3    3    0    0  0.30974016980E+02  0.14134831044E+02  0.22225755377E+02  0.50528838934E+02  0.29999936425E+02 0.  0.
        -12    1    3    3    0    0 -0.30974016980E+02 -0.14134831044E+02 -0.22225755377E+02  0.40659161066E+02  0.00000000000E+00 0.  1.
         11    1    4    4    0    0  0.14210610940E+02  0.49097799389E+01  0.26040531703E+01  0.15258718672E+02  0.51100000000E-03 0. -1.
        -11    1    4    4    0    0  0.10435007442E+02  0.13464487683E+01  0.22435573333E+02  0.24780178685E+02  0.51100000000E-03 0.  1.
         12    1    4    4    0    0  0.63283985972E+01  0.78786023363E+01 -0.28138711262E+01  0.10489941577E+02  0.00000000000E+00 0. -1.
</event>
<event>
 8    1  0.9870402E-014  0.9118800E+02  0.7816164E-02  0.1184000E+00
        -11   -1    0    0    0    0  0.00000000000E+00  0.00000000000E+00  0.45593999997E+02  0.45594000000E+02  0.51100000000E-03 0.  1.
         11   -1    0    0    0    0 -0.00000000000E+00 -0.00000000000E+00 -0.45593999997E+02  0.45594000000E+02  0.51100000000E-03 0. -1.
         23    2    1    2    0    0  0.00000000000E+00  0.00000000000E+00  0.17763568394E-14  0.91188000000E+02  0.91188000000E+02 0.  0.
    9900012    2    3    3    0    0  0.32913813806E+02  0.20945745985E+02 -0.11450912737E+02  0.50528845844E+02  0.29999957428E+02 0.  0.
         12    1    3    3    0    0 -0.32913813806E+02 -0.20945745985E+02  0.11450912737E+02  0.40659154156E+02  0.00000000000E+00 0. -1.
         11    1    4    4    0    0  0.91543830296E+01  0.12566129132E+02  0.26544044917E+01  0.15772006641E+02  0.51100000000E-03 0.  1.
        -11    1    4    4    0    0  0.13553896859E+02 -0.14970695441E+01 -0.15311602706E+02  0.20503524453E+02  0.51100000000E-03 0. -1.
         12    1    4    4    0    0  0.10205533918E+02  0.98766863972E+01  0.12062854772E+01  0.14253314751E+02  0.00000000000E+00 0. -1.
</event>
<event>
 8    1  0.9870402E-014  0.9118800E+02  0.7816164E-02  0.1184000E+00
        -11   -1    0    0    0    0  0.00000000000E+00  0.00000000000E+00  0.45593999997E+02  0.45594000000E+02  0.51100000000E-03 0. -1.
         11   -1    0    0    0    0 -0.00000000000E+00 -0.00000000000E+00 -0.45593999997E+02  0.45594000000E+02  0.51100000000E-03 0.  1.
         23    2    1    2    0    0  0.33306690739E-15  0.44408920985E-15  0.00000000000E+00  0.91188000000E+02  0.91188000000E+02 0.  0.
    9900012    2    3    3    0    0  0.40375386410E+00  0.10456251781E+01  0.40643692070E+02  0.50528855219E+02  0.29999985925E+02 0.  0.
        -12    1    3    3    0    0 -0.40375386410E+00 -0.10456251781E+01 -0.40643692070E+02  0.40659144781E+02  0.00000000000E+00 0.  1.
         11    1    4    4    0    0 -0.41343456219E+01  0.78623342260E+01  0.39288695871E+01  0.97131421124E+01  0.51100000000E-03 0.  1.
        -11    1    4    4    0    0 -0.18635682944E+01  0.34083584641E+01  0.18936236193E+02  0.19330567390E+02  0.51100000000E-03 0. -1.
        -12    1    4    4    0    0  0.64016677804E+01 -0.10225067512E+02  0.17778586290E+02  0.21485145717E+02  0.00000000000E+00 0.  1.
</event>
<event>
 8    1  0.9870402E-014  0.9118800E+02  0.7816164E-02  0.1184000E+00
        -11   -1    0    0    0    0  0.00000000000E+00  0.00000000000E+00  0.45593999997E+02  0.45594000000E+02  0.51100000000E-03 0. -1.
         11   -1    0    0    0    0 -0.00000000000E+00 -0.00000000000E+00 -0.45593999997E+02  0.45594000000E+02  0.51100000000E-03 0.  1.
         23    2    1    2    0    0  0.00000000000E+00 -0.17763568394E-14  0.35527136788E-14  0.91188000000E+02  0.91188000000E+02 0.  0.
    9900012    2    3    3    0    0 -0.26789794217E+02  0.14338700855E+02 -0.27016169295E+02  0.50528870401E+02  0.30000032071E+02 0.  0.
         12    1    3    3    0    0  0.26789794217E+02 -0.14338700855E+02  0.27016169295E+02  0.40659129599E+02  0.00000000000E+00 0. -1.
         11    1    4    4    0    0  0.15043777643E+00 -0.10656840804E+01 -0.20400538884E+01  0.23065416130E+01  0.51100000000E-03 0. -1.
        -11    1    4    4    0    0 -0.14358167412E+02 -0.20856907780E+01 -0.22168895902E+02  0.26494660277E+02  0.51100000000E-03 0.  1.
        -12    1    4    4    0    0 -0.12582064581E+02  0.17490075713E+02 -0.28072195049E+01  0.21727668511E+02  0.00000000000E+00 0.  1.
</event>
<event>
 8    1  0.9870402E-014  0.9118800E+02  0.7816164E-02  0.1184000E+00
        -11   -1    0    0    0    0  0.00000000000E+00  0.00000000000E+00  0.45593999997E+02  0.45594000000E+02  0.51100000000E-03 0. -1.
         11   -1    0    0    0    0 -0.00000000000E+00 -0.00000000000E+00 -0.45593999997E+02  0.45594000000E+02  0.51100000000E-03 0.  1.
         23    2    1    2    0    0  0.00000000000E+00  0.71054273576E-14  0.00000000000E+00  0.91188000000E+02  0.91188000000E+02 0.  0.
    9900012    2    3    3    0    0  0.39384434830E+01 -0.39767824672E+02 -0.74949711088E+01  0.50528858247E+02  0.29999995127E+02 0.  0.
         12    1    3    3    0    0 -0.39384434830E+01  0.39767824672E+02  0.74949711088E+01  0.40659141753E+02  0.00000000000E+00 0. -1.
         11    1    4    4    0    0  0.32101448632E+01 -0.26868344744E+02  0.32998762991E+01  0.27259900279E+02  0.51100000000E-03 0. -1.
        -11    1    4    4    0    0 -0.54253201956E+01 -0.95546759860E+01 -0.73632518970E+00  0.11012179960E+02  0.51100000000E-03 0.  1.
         12    1    4    4    0    0  0.61536188154E+01 -0.33448039413E+01 -0.10058522218E+02  0.12256778008E+02  0.00000000000E+00 0. -1.
</event>
<event>
 8    1  0.9870402E-014  0.9118800E+02  0.7816164E-02  0.1184000E+00
        -11   -1    0    0    0    0  0.00000000000E+00  0.00000000000E+00  0.45593999997E+02  0.45594000000E+02  0.51100000000E-03 0. -1.
         11   -1    0    0    0    0 -0.00000000000E+00 -0.00000000000E+00 -0.45593999997E+02  0.45594000000E+02  0.51100000000E-03 0.  1.
         23    2    1    2    0    0  0.22204460493E-15  0.00000000000E+00 -0.44408920985E-15  0.91188000000E+02  0.91188000000E+02 0.  0.
    9900012    2    3    3    0    0 -0.15229048878E+01 -0.40489998164E+02  0.33773352775E+01  0.50528861000E+02  0.30000003497E+02 0.  0.
        -12    1    3    3    0    0  0.15229048878E+01  0.40489998164E+02 -0.33773352775E+01  0.40659139000E+02  0.00000000000E+00 0.  1.
         11    1    4    4    0    0 -0.54240922812E+01 -0.18680166153E+01  0.16510443803E+01  0.59696072699E+01  0.51100000000E-03 0. -1.
        -11    1    4    4    0    0  0.21776788271E+01 -0.16182249261E+02 -0.10035257116E+02  0.19165434037E+02  0.51100000000E-03 0.  1.
        -12    1    4    4    0    0  0.17235085663E+01 -0.22439732288E+02  0.11761548013E+02  0.25393819693E+02  0.00000000000E+00 0.  1.
</event>
<event>
 8    1  0.9870402E-014  0.9118800E+02  0.7816164E-02  0.1184000E+00
        -11   -1    0    0    0    0  0.00000000000E+00  0.00000000000E+00  0.45593999997E+02  0.45594000000E+02  0.51100000000E-03 0. -1.
         11   -1    0    0    0    0 -0.00000000000E+00 -0.00000000000E+00 -0.45593999997E+02  0.45594000000E+02  0.51100000000E-03 0.  1.
         23    2    1    2    0    0  0.00000000000E+00  0.00000000000E+00  0.00000000000E+00  0.91188000000E+02  0.91188000000E+02 0.  0.
    9900012    2    3    3    0    0  0.32369402810E+02 -0.13201322344E+02  0.20763240121E+02  0.50528864615E+02  0.30000014484E+02 0.  0.
        -12    1    3    3    0    0 -0.32369402810E+02  0.13201322344E+02 -0.20763240121E+02  0.40659135385E+02  0.00000000000E+00 0.  1.
         11    1    4    4    0    0  0.19232563624E+02 -0.95499425384E+01  0.60019997979E+01  0.22296118673E+02  0.51100000000E-03 0. -1.
        -11    1    4    4    0    0  0.49097175763E+01 -0.11398904121E+02  0.53054926997E+01  0.13497725545E+02  0.51100000000E-03 0.  1.
         12    1    4    4    0    0  0.82271216098E+01  0.77475243149E+01  0.94557476238E+01  0.14735020398E+02  0.00000000000E+00 0. -1.
</event>
<event>
 8    1  0.9870402E-014  0.9118800E+02  0.7816164E-02  0.1184000E+00
        -11   -1    0    0    0    0  0.00000000000E+00  0.00000000000E+00  0.45593999997E+02  0.45594000000E+02  0.51100000000E-03 0. -1.
         11   -1    0    0    0    0 -0.00000000000E+00 -0.00000000000E+00 -0.45593999997E+02  0.45594000000E+02  0.51100000000E-03 0.  1.
         23    2    1    2    0    0 -0.35527136788E-14  0.00000000000E+00  0.00000000000E+00  0.91188000000E+02  0.91188000000E+02 0.  0.
    9900012    2    3    3    0    0 -0.27487814641E+02 -0.65343688726E+01 -0.29238498464E+02  0.50528834702E+02  0.29999923560E+02 0.  0.
         12    1    3    3    0    0  0.27487814641E+02  0.65343688726E+01  0.29238498464E+02  0.40659165298E+02  0.00000000000E+00 0. -1.
         11    1    4    4    0    0 -0.25701861633E+01  0.58648425375E+01 -0.95239837735E+00  0.64737390922E+01  0.51100000000E-03 0. -1.
        -11    1    4    4    0    0  0.27600241642E+01 -0.24865880432E+01 -0.64141396986E+01  0.74122899173E+01  0.51100000000E-03 0.  1.
        -12    1    4    4    0    0 -0.27677652642E+02 -0.99126233669E+01 -0.21871960388E+02  0.36642805692E+02  0.00000000000E+00 0.  1.
</event>
<event>
 8    1  0.9870402E-014  0.9118800E+02  0.7816164E-02  0.1184000E+00
        -11   -1    0    0    0    0  0.00000000000E+00  0.00000000000E+00  0.45593999997E+02  0.45594000000E+02  0.51100000000E-03 0. -1.
         11   -1    0    0    0    0 -0.00000000000E+00 -0.00000000000E+00 -0.45593999997E+02  0.45594000000E+02  0.51100000000E-03 0.  1.
         23    2    1    2    0    0  0.00000000000E+00  0.00000000000E+00  0.00000000000E+00  0.91188000000E+02  0.91188000000E+02 0.  0.
    9900012    2    3    3    0    0 -0.17005930398E+02  0.52996769210E+01 -0.36549664240E+02  0.50528853425E+02  0.29999980471E+02 0.  0.
         12    1    3    3    0    0  0.17005930398E+02 -0.52996769210E+01  0.36549664240E+02  0.40659146575E+02  0.00000000000E+00 0. -1.
         11    1    4    4    0    0 -0.41363288475E+01 -0.87467921125E+01 -0.11597209674E+02  0.15103339401E+02  0.51100000000E-03 0. -1.
        -11    1    4    4    0    0  0.55417880115E+00  0.34346395559E+01 -0.15481720924E+02  0.15867814785E+02  0.51100000000E-03 0.  1.
         12    1    4    4    0    0 -0.13423780352E+02  0.10611829478E+02 -0.94707336418E+01  0.19557699239E+02  0.00000000000E+00 0. -1.
</event>
<event>
 8    1  0.9870402E-014  0.9118800E+02  0.7816164E-02  0.1184000E+00
        -11   -1    0    0    0    0  0.00000000000E+00  0.00000000000E+00  0.45593999997E+02  0.45594000000E+02  0.51100000000E-03 0. -1.
         11   -1    0    0    0    0 -0.00000000000E+00 -0.00000000000E+00 -0.45593999997E+02  0.45594000000E+02  0.51100000000E-03 0.  1.
         23    2    1    2    0    0  0.00000000000E+00  0.88817841970E-15  0.71054273576E-14  0.91188000000E+02  0.91188000000E+02 0.  0.
    9900012    2    3    3    0    0  0.17873196533E+02 -0.63080182969E+01 -0.35971145063E+02  0.50528861712E+02  0.30000005660E+02 0.  0.
         12    1    3    3    0    0 -0.17873196533E+02  0.63080182969E+01  0.35971145063E+02  0.40659138288E+02  0.00000000000E+00 0. -1.
         11    1    4    4    0    0  0.34639471476E+01  0.60319524406E+01 -0.78433074667E+00  0.69998967898E+01  0.51100000000E-03 0. -1.
        -11    1    4    4    0    0  0.16136259149E+02 -0.38605916379E+01 -0.26514265276E+02  0.31277616446E+02  0.51100000000E-03 0.  1.
        -12    1    4    4    0    0 -0.17270097638E+01 -0.84793790996E+01 -0.86725490405E+01  0.12251348477E+02  0.00000000000E+00 0.  1.
</event>
<event>
 8    1  0.9870402E-014  0.9118800E+02  0.7816164E-02  0.1184000E+00
        -11   -1    0    0    0    0  0.00000000000E+00  0.00000000000E+00  0.45593999997E+02  0.45594000000E+02  0.51100000000E-03 0. -1.
         11   -1    0    0    0    0 -0.00000000000E+00 -0.00000000000E+00 -0.45593999997E+02  0.45594000000E+02  0.51100000000E-03 0.  1.
         23    2    1    2    0    0  0.00000000000E+00  0.00000000000E+00  0.00000000000E+00  0.91188000000E+02  0.91188000000E+02 0.  0.
    9900012    2    3    3    0    0  0.14041010453E+02 -0.78772525673E+01  0.37335832417E+02  0.50528862469E+02  0.30000007960E+02 0.  0.
        -12    1    3    3    0    0 -0.14041010453E+02  0.78772525673E+01 -0.37335832417E+02  0.40659137531E+02  0.00000000000E+00 0.  1.
         11    1    4    4    0    0 -0.54887606978E+00  0.17135609148E+00 -0.31393097377E+01  0.31915346999E+01  0.51100000000E-03 0. -1.
        -11    1    4    4    0    0 -0.34092949951E+00 -0.11103561934E+01 -0.17020333862E+01  0.20605925625E+01  0.51100000000E-03 0.  1.
         12    1    4    4    0    0  0.14930816022E+02 -0.69382524654E+01  0.42177175541E+02  0.45276735206E+02  0.00000000000E+00 0. -1.
</event>
<event>
 8    1  0.9870402E-014  0.9118800E+02  0.7816164E-02  0.1184000E+00
        -11   -1    0    0    0    0  0.00000000000E+00  0.00000000000E+00  0.45593999997E+02  0.45594000000E+02  0.51100000000E-03 0. -1.
         11   -1    0    0    0    0 -0.00000000000E+00 -0.00000000000E+00 -0.45593999997E+02  0.45594000000E+02  0.51100000000E-03 0.  1.
         23    2    1    2    0    0  0.00000000000E+00  0.00000000000E+00  0.00000000000E+00  0.91188000000E+02  0.91188000000E+02 0.  0.
    9900012    2    3    3    0    0 -0.19601583250E+02 -0.32941036190E+02  0.13558460679E+02  0.50528858504E+02  0.29999995910E+02 0.  0.
        -12    1    3    3    0    0  0.19601583250E+02  0.32941036190E+02 -0.13558460679E+02  0.40659141496E+02  0.00000000000E+00 0.  1.
         11    1    4    4    0    0 -0.21371249596E+02 -0.14309760307E+02 -0.39900338922E+00  0.25722728341E+02  0.51100000000E-03 0. -1.
        -11    1    4    4    0    0  0.12403564279E+01  0.32122445011E+00  0.31851781048E-01  0.12816723500E+01  0.51100000000E-03 0.  1.
         12    1    4    4    0    0  0.52930991750E+00 -0.18952500333E+02  0.13925612287E+02  0.23524457814E+02  0.00000000000E+00 0. -1.
</event>
<event>
 8    1  0.9870402E-014  0.9118800E+02  0.7816164E-02  0.1184000E+00
        -11   -1    0    0    0    0  0.00000000000E+00  0.00000000000E+00  0.45593999997E+02  0.45594000000E+02  0.51100000000E-03 0. -1.
         11   -1    0    0    0    0 -0.00000000000E+00 -0.00000000000E+00 -0.45593999997E+02  0.45594000000E+02  0.51100000000E-03 0.  1.
         23    2    1    2    0    0 -0.44408920985E-15 -0.35527136788E-14  0.71054273576E-14  0.91188000000E+02  0.91188000000E+02 0.  0.
    9900012    2    3    3    0    0 -0.27727299646E+01 -0.23766511826E+02  0.32872934220E+02  0.50528869167E+02  0.30000028319E+02 0.  0.
        -12    1    3    3    0    0  0.27727299646E+01  0.23766511826E+02 -0.32872934220E+02  0.40659130833E+02  0.00000000000E+00 0.  1.
         11    1    4    4    0    0  0.70326916865E+01 -0.10515213681E+02  0.75108029414E+01  0.14711921431E+02  0.51100000000E-03 0. -1.
        -11    1    4    4    0    0 -0.16300473865E+01  0.77558022914E+00  0.17826916628E+02  0.17918078466E+02  0.51100000000E-03 0.  1.
         12    1    4    4    0    0 -0.81753742646E+01 -0.14026878375E+02  0.75352146506E+01  0.17898869270E+02  0.00000000000E+00 0. -1.
</event>
<event>
 8    1  0.9870402E-014  0.9118800E+02  0.7816164E-02  0.1184000E+00
        -11   -1    0    0    0    0  0.00000000000E+00  0.00000000000E+00  0.45593999997E+02  0.45594000000E+02  0.51100000000E-03 0.  1.
         11   -1    0    0    0    0 -0.00000000000E+00 -0.00000000000E+00 -0.45593999997E+02  0.45594000000E+02  0.51100000000E-03 0. -1.
         23    2    1    2    0    0  0.00000000000E+00 -0.17763568394E-14 -0.35527136788E-14  0.91188000000E+02  0.91188000000E+02 0.  0.
    9900012    2    3    3    0    0  0.32885545836E+02 -0.12834318079E+02 -0.20173910289E+02  0.50528862013E+02  0.30000006574E+02 0.  0.
         12    1    3    3    0    0 -0.32885545836E+02  0.12834318079E+02  0.20173910289E+02  0.40659137987E+02  0.00000000000E+00 0. -1.
         11    1    4    4    0    0  0.46022464768E+01 -0.67251342147E+01 -0.12174781950E+02  0.14650372645E+02  0.51100000000E-03 0. -1.
        -11    1    4    4    0    0  0.12952863248E+02 -0.12305903806E+02 -0.91644239042E+00  0.17889991664E+02  0.51100000000E-03 0.  1.
         12    1    4    4    0    0  0.15330436112E+02  0.61967199424E+01 -0.70826859484E+01  0.17988497704E+02  0.00000000000E+00 0. -1.
</event>
<event>
 8    1  0.9870402E-014  0.9118800E+02  0.7816164E-02  0.1184000E+00
        -11   -1    0    0    0    0  0.00000000000E+00  0.00000000000E+00  0.45593999997E+02  0.45594000000E+02  0.51100000000E-03 0. -1.
         11   -1    0    0    0    0 -0.00000000000E+00 -0.00000000000E+00 -0.45593999997E+02  0.45594000000E+02  0.51100000000E-03 0.  1.
         23    2    1    2    0    0  0.71054273576E-14  0.00000000000E+00 -0.17763568394E-14  0.91188000000E+02  0.91188000000E+02 0.  0.
    9900012    2    3    3    0    0 -0.33081338779E+02  0.18142128738E+02  0.15154340892E+02  0.50528857628E+02  0.29999993245E+02 0.  0.
        -12    1    3    3    0    0  0.33081338779E+02 -0.18142128738E+02 -0.15154340892E+02  0.40659142372E+02  0.00000000000E+00 0.  1.
         11    1    4    4    0    0 -0.41033957041E+01  0.22422054167E+01  0.47632378423E+01  0.66748615295E+01  0.51100000000E-03 0. -1.
        -11    1    4    4    0    0 -0.15994700960E+02 -0.24786558851E+01 -0.45868238197E+01  0.16822994585E+02  0.51100000000E-03 0.  1.
        -12    1    4    4    0    0 -0.12983242115E+02  0.18378579206E+02  0.14977926870E+02  0.27031001513E+02  0.00000000000E+00 0.  1.
</event>
<event>
 8    1  0.9870402E-014  0.9118800E+02  0.7816164E-02  0.1184000E+00
        -11   -1    0    0    0    0  0.00000000000E+00  0.00000000000E+00  0.45593999997E+02  0.45594000000E+02  0.51100000000E-03 0. -1.
         11   -1    0    0    0    0 -0.00000000000E+00 -0.00000000000E+00 -0.45593999997E+02  0.45594000000E+02  0.51100000000E-03 0.  1.
         23    2    1    2    0    0  0.35527136788E-14  0.00000000000E+00  0.00000000000E+00  0.91188000000E+02  0.91188000000E+02 0.  0.
    9900012    2    3    3    0    0  0.19758180236E+02  0.20225364221E+02  0.29218400833E+02  0.50528855993E+02  0.29999988277E+02 0.  0.
        -12    1    3    3    0    0 -0.19758180236E+02 -0.20225364221E+02 -0.29218400833E+02  0.40659144007E+02  0.00000000000E+00 0.  1.
         11    1    4    4    0    0  0.17056004954E+02  0.15620805278E+02  0.21084937706E+02  0.31296828287E+02  0.51100000000E-03 0. -1.
        -11    1    4    4    0    0  0.53133519392E+01  0.10021300783E+01 -0.37252844276E+01  0.65661037040E+01  0.51100000000E-03 0.  1.
         12    1    4    4    0    0 -0.26111766574E+01  0.36024288653E+01  0.11858747554E+02  0.12665924002E+02  0.00000000000E+00 0. -1.
</event>
<event>
 8    1  0.9870402E-014  0.9118800E+02  0.7816164E-02  0.1184000E+00
        -11   -1    0    0    0    0  0.00000000000E+00  0.00000000000E+00  0.45593999997E+02  0.45594000000E+02  0.51100000000E-03 0. -1.
         11   -1    0    0    0    0 -0.00000000000E+00 -0.00000000000E+00 -0.45593999997E+02  0.45594000000E+02  0.51100000000E-03 0.  1.
         23    2    1    2    0    0  0.88817841970E-15  0.00000000000E+00  0.00000000000E+00  0.91188000000E+02  0.91188000000E+02 0.  0.
    9900012    2    3    3    0    0  0.47138581298E+01 -0.15085669610E+02  0.37461577346E+02  0.50528835433E+02  0.29999925781E+02 0.  0.
        -12    1    3    3    0    0 -0.47138581298E+01  0.15085669610E+02 -0.37461577346E+02  0.40659164567E+02  0.00000000000E+00 0.  1.
         11    1    4    4    0    0  0.27925759900E+01 -0.85721683976E+01  0.12826842616E+02  0.15678279353E+02  0.51100000000E-03 0. -1.
        -11    1    4    4    0    0 -0.10080620623E+02 -0.65414073245E+01  0.16246435123E+02  0.20207809788E+02  0.51100000000E-03 0.  1.
        -12    1    4    4    0    0  0.12001902763E+02  0.27906112107E-01  0.83882996067E+01  0.14642746292E+02  0.00000000000E+00 0.  1.
</event>
<event>
 8    1  0.9870402E-014  0.9118800E+02  0.7816164E-02  0.1184000E+00
        -11   -1    0    0    0    0  0.00000000000E+00  0.00000000000E+00  0.45593999997E+02  0.45594000000E+02  0.51100000000E-03 0. -1.
         11   -1    0    0    0    0 -0.00000000000E+00 -0.00000000000E+00 -0.45593999997E+02  0.45594000000E+02  0.51100000000E-03 0.  1.
         23    2    1    2    0    0 -0.35527136788E-14  0.71054273576E-14 -0.17763568394E-14  0.91188000000E+02  0.91188000000E+02 0.  0.
    9900012    2    3    3    0    0  0.18585378796E+02 -0.33467069602E+02  0.13700485714E+02  0.50528876036E+02  0.30000049199E+02 0.  0.
        -12    1    3    3    0    0 -0.18585378796E+02  0.33467069602E+02 -0.13700485714E+02  0.40659123964E+02  0.00000000000E+00 0.  1.
         11    1    4    4    0    0 -0.52011769606E+01 -0.10471218097E+01  0.15224204316E+00  0.53077192617E+01  0.51100000000E-03 0. -1.
        -11    1    4    4    0    0  0.88807278521E+01 -0.68901528537E+01 -0.25979976843E+01  0.11536512721E+02  0.51100000000E-03 0.  1.
         12    1    4    4    0    0  0.14905827905E+02 -0.25529794938E+02  0.16146241355E+02  0.33684644053E+02  0.00000000000E+00 0. -1.
</event>
<event>
 8    1  0.9870402E-014  0.9118800E+02  0.7816164E-02  0.1184000E+00
        -11   -1    0    0    0    0  0.00000000000E+00  0.00000000000E+00  0.45593999997E+02  0.45594000000E+02  0.51100000000E-03 0. -1.
         11   -1    0    0    0    0 -0.00000000000E+00 -0.00000000000E+00 -0.45593999997E+02  0.45594000000E+02  0.51100000000E-03 0.  1.
         23    2    1    2    0    0 -0.17763568394E-14  0.00000000000E+00  0.00000000000E+00  0.91188000000E+02  0.91188000000E+02 0.  0.
    9900012    2    3    3    0    0  0.12389410809E+02  0.32830333287E+02  0.20538707696E+02  0.50528846077E+02  0.29999958135E+02 0.  0.
        -12    1    3    3    0    0 -0.12389410809E+02 -0.32830333287E+02 -0.20538707696E+02  0.40659153923E+02  0.00000000000E+00 0.  1.
         11    1    4    4    0    0  0.73158574565E+01  0.18798026567E+02  0.52486273567E+01  0.20843120269E+02  0.51100000000E-03 0. -1.
        -11    1    4    4    0    0 -0.18846941240E+01  0.31683133705E+01 -0.46511984815E+01  0.59349750741E+01  0.51100000000E-03 0.  1.
        -12    1    4    4    0    0  0.69582474763E+01  0.10863993349E+02  0.19941278820E+02  0.23750750734E+02  0.00000000000E+00 0.  1.
</event>
<event>
 8    1  0.9870402E-014  0.9118800E+02  0.7816164E-02  0.1184000E+00
        -11   -1    0    0    0    0  0.00000000000E+00  0.00000000000E+00  0.45593999997E+02  0.45594000000E+02  0.51100000000E-03 0. -1.
         11   -1    0    0    0    0 -0.00000000000E+00 -0.00000000000E+00 -0.45593999997E+02  0.45594000000E+02  0.51100000000E-03 0.  1.
         23    2    1    2    0    0  0.00000000000E+00  0.17763568394E-14  0.00000000000E+00  0.91188000000E+02  0.91188000000E+02 0.  0.
    9900012    2    3    3    0    0 -0.14197882274E+02  0.13513124963E+02  0.35622763330E+02  0.50528859889E+02  0.30000000117E+02 0.  0.
        -12    1    3    3    0    0  0.14197882274E+02 -0.13513124963E+02 -0.35622763330E+02  0.40659140111E+02  0.00000000000E+00 0.  1.
         11    1    4    4    0    0 -0.32618488776E+01  0.19158980507E+01  0.27335930596E+01  0.46672105928E+01  0.51100000000E-03 0. -1.
        -11    1    4    4    0    0  0.37289179586E+01  0.89390072187E+01  0.28831995104E+02  0.30415368173E+02  0.51100000000E-03 0.  1.
        -12    1    4    4    0    0 -0.14664951355E+02  0.26582196937E+01  0.40571751667E+01  0.15446281123E+02  0.00000000000E+00 0.  1.
</event>
<event>
 8    1  0.9870402E-014  0.9118800E+02  0.7816164E-02  0.1184000E+00
        -11   -1    0    0    0    0  0.00000000000E+00  0.00000000000E+00  0.45593999997E+02  0.45594000000E+02  0.51100000000E-03 0. -1.
         11   -1    0    0    0    0 -0.00000000000E+00 -0.00000000000E+00 -0.45593999997E+02  0.45594000000E+02  0.51100000000E-03 0.  1.
         23    2    1    2    0    0  0.17763568394E-14  0.71054273576E-14 -0.44408920985E-15  0.91188000000E+02  0.91188000000E+02 0.  0.
    9900012    2    3    3    0    0  0.12778777031E+02  0.38546941583E+02 -0.20004143351E+01  0.50528861971E+02  0.30000006446E+02 0.  0.
        -12    1    3    3    0    0 -0.12778777031E+02 -0.38546941583E+02  0.20004143351E+01  0.40659138029E+02  0.00000000000E+00 0.  1.
         11    1    4    4    0    0  0.89716942325E+00  0.13697669394E+02  0.44003028473E+01  0.14415052037E+02  0.51100000000E-03 0. -1.
        -11    1    4    4    0    0  0.17362484022E+02  0.24136132847E+02 -0.36982040190E+01  0.29961399725E+02  0.51100000000E-03 0.  1.
        -12    1    4    4    0    0 -0.54808764141E+01  0.71313934106E+00 -0.27025131634E+01  0.61524102094E+01  0.00000000000E+00 0.  1.
</event>
<event>
 8    1  0.9870402E-014  0.9118800E+02  0.7816164E-02  0.1184000E+00
        -11   -1    0    0    0    0  0.00000000000E+00  0.00000000000E+00  0.45593999997E+02  0.45594000000E+02  0.51100000000E-03 0. -1.
         11   -1    0    0    0    0 -0.00000000000E+00 -0.00000000000E+00 -0.45593999997E+02  0.45594000000E+02  0.51100000000E-03 0.  1.
         23    2    1    2    0    0  0.00000000000E+00  0.88817841970E-15  0.00000000000E+00  0.91188000000E+02  0.91188000000E+02 0.  0.
    9900012    2    3    3    0    0 -0.81006501913E+01 -0.78177318216E+01 -0.39069514535E+02  0.50528875189E+02  0.30000046626E+02 0.  0.
         12    1    3    3    0    0  0.81006501913E+01  0.78177318216E+01  0.39069514535E+02  0.40659124811E+02  0.00000000000E+00 0. -1.
         11    1    4    4    0    0  0.59998242611E+01  0.16528666982E+01  0.23154917838E+00  0.62276379767E+01  0.51100000000E-03 0. -1.
        -11    1    4    4    0    0 -0.26717834594E+00 -0.86596701987E+00 -0.15103549028E+02  0.15130713026E+02  0.51100000000E-03 0.  1.
        -12    1    4    4    0    0 -0.13833296106E+02 -0.86046315000E+01 -0.24197514685E+02  0.29170524187E+02  0.00000000000E+00 0.  1.
</event>
<event>
 8    1  0.9870402E-014  0.9118800E+02  0.7816164E-02  0.1184000E+00
        -11   -1    0    0    0    0  0.00000000000E+00  0.00000000000E+00  0.45593999997E+02  0.45594000000E+02  0.51100000000E-03 0. -1.
         11   -1    0    0    0    0 -0.00000000000E+00 -0.00000000000E+00 -0.45593999997E+02  0.45594000000E+02  0.51100000000E-03 0.  1.
         23    2    1    2    0    0  0.88817841970E-15  0.00000000000E+00  0.00000000000E+00  0.91188000000E+02  0.91188000000E+02 0.  0.
    9900012    2    3    3    0    0  0.69056256711E+01  0.21378348617E+02 -0.33888711872E+02  0.50528852839E+02  0.29999978690E+02 0.  0.
         12    1    3    3    0    0 -0.69056256711E+01 -0.21378348617E+02  0.33888711872E+02  0.40659147161E+02  0.00000000000E+00 0. -1.
         11    1    4    4    0    0  0.18114466897E+02  0.15635523578E+02 -0.20588790946E+02  0.31567417084E+02  0.51100000000E-03 0. -1.
        -11    1    4    4    0    0 -0.12767690214E+01  0.58317252204E+00 -0.45299042236E+01  0.47423898892E+01  0.51100000000E-03 0.  1.
         12    1    4    4    0    0 -0.99320722041E+01  0.51596525166E+01 -0.87700167028E+01  0.14219045866E+02  0.00000000000E+00 0. -1.
</event>
<event>
 8    1  0.9870402E-014  0.9118800E+02  0.7816164E-02  0.1184000E+00
        -11   -1    0    0    0    0  0.00000000000E+00  0.00000000000E+00  0.45593999997E+02  0.45594000000E+02  0.51100000000E-03 0. -1.
         11   -1    0    0    0    0 -0.00000000000E+00 -0.00000000000E+00 -0.45593999997E+02  0.45594000000E+02  0.51100000000E-03 0.  1.
         23    2    1    2    0    0  0.00000000000E+00 -0.44408920985E-15  0.71054273576E-14  0.91188000000E+02  0.91188000000E+02 0.  0.
    9900012    2    3    3    0    0 -0.15264513196E+02  0.36448554476E+01 -0.37508332373E+02  0.50528864105E+02  0.30000012933E+02 0.  0.
         12    1    3    3    0    0  0.15264513196E+02 -0.36448554476E+01  0.37508332373E+02  0.40659135895E+02  0.00000000000E+00 0. -1.
         11    1    4    4    0    0 -0.12193698374E+02  0.66669630383E+01 -0.95078483734E+01  0.16838463622E+02  0.51100000000E-03 0. -1.
        -11    1    4    4    0    0 -0.83979503869E+01 -0.39476753977E+01 -0.60353366442E+01  0.11069552855E+02  0.51100000000E-03 0.  1.
         12    1    4    4    0    0  0.53271355640E+01  0.92556780703E+00 -0.21965147355E+02  0.22620847628E+02  0.00000000000E+00 0. -1.
</event>
<event>
 8    1  0.9870402E-014  0.9118800E+02  0.7816164E-02  0.1184000E+00
        -11   -1    0    0    0    0  0.00000000000E+00  0.00000000000E+00  0.45593999997E+02  0.45594000000E+02  0.51100000000E-03 0. -1.
         11   -1    0    0    0    0 -0.00000000000E+00 -0.00000000000E+00 -0.45593999997E+02  0.45594000000E+02  0.51100000000E-03 0.  1.
         23    2    1    2    0    0  0.00000000000E+00  0.00000000000E+00  0.00000000000E+00  0.91188000000E+02  0.91188000000E+02 0.  0.
    9900012    2    3    3    0    0 -0.23170342189E+02  0.24846252296E+01 -0.33318653473E+02  0.50528796995E+02  0.29999808947E+02 0.  0.
         12    1    3    3    0    0  0.23170342189E+02 -0.24846252296E+01  0.33318653473E+02  0.40659203005E+02  0.00000000000E+00 0. -1.
         11    1    4    4    0    0 -0.96534828231E+01 -0.33722962966E+01 -0.12918115323E+02  0.16475430698E+02  0.51100000000E-03 0.  1.
        -11    1    4    4    0    0  0.16542908180E+01 -0.62909218141E+01 -0.10216229125E+02  0.12111305181E+02  0.51100000000E-03 0. -1.
        -12    1    4    4    0    0 -0.15171150184E+02  0.12147843340E+02 -0.10184309025E+02  0.21942061116E+02  0.00000000000E+00 0.  1.
</event>
<event>
 8    1  0.9870402E-014  0.9118800E+02  0.7816164E-02  0.1184000E+00
        -11   -1    0    0    0    0  0.00000000000E+00  0.00000000000E+00  0.45593999997E+02  0.45594000000E+02  0.51100000000E-03 0. -1.
         11   -1    0    0    0    0 -0.00000000000E+00 -0.00000000000E+00 -0.45593999997E+02  0.45594000000E+02  0.51100000000E-03 0.  1.
         23    2    1    2    0    0  0.17763568394E-14  0.00000000000E+00 -0.71054273576E-14  0.91188000000E+02  0.91188000000E+02 0.  0.
    9900012    2    3    3    0    0  0.13587186516E+02 -0.92466907288E+01  0.37189419023E+02  0.50528858173E+02  0.29999994902E+02 0.  0.
        -12    1    3    3    0    0 -0.13587186516E+02  0.92466907288E+01 -0.37189419023E+02  0.40659141827E+02  0.00000000000E+00 0.  1.
         11    1    4    4    0    0  0.15449464854E+02 -0.38948584751E+01  0.20031831388E+02  0.25595510462E+02  0.51100000000E-03 0. -1.
        -11    1    4    4    0    0 -0.41512483797E+01  0.17024698360E+01  0.16928962881E+02  0.17513453433E+02  0.51100000000E-03 0.  1.
         12    1    4    4    0    0  0.22889700411E+01 -0.70543020896E+01  0.22862475475E+00  0.74198942781E+01  0.00000000000E+00 0. -1.
</event>
<event>
 8    1  0.9870402E-014  0.9118800E+02  0.7816164E-02  0.1184000E+00
        -11   -1    0    0    0    0  0.00000000000E+00  0.00000000000E+00  0.45593999997E+02  0.45594000000E+02  0.51100000000E-03 0. -1.
         11   -1    0    0    0    0 -0.00000000000E+00 -0.00000000000E+00 -0.45593999997E+02  0.45594000000E+02  0.51100000000E-03 0.  1.
         23    2    1    2    0    0 -0.71054273576E-14  0.00000000000E+00  0.00000000000E+00  0.91188000000E+02  0.91188000000E+02 0.  0.
    9900012    2    3    3    0    0  0.35635511582E+02  0.10561399089E+02 -0.16484356898E+02  0.50528845326E+02  0.29999955854E+02 0.  0.
         12    1    3    3    0    0 -0.35635511582E+02 -0.10561399089E+02  0.16484356898E+02  0.40659154674E+02  0.00000000000E+00 0. -1.
         11    1    4    4    0    0  0.14329068250E+02  0.56984997236E+01 -0.10265519503E+02  0.18525009769E+02  0.51100000000E-03 0. -1.
        -11    1    4    4    0    0  0.24486533432E+02 -0.38104375019E+00 -0.20227699299E+01  0.24572893853E+02  0.51100000000E-03 0.  1.
         12    1    4    4    0    0 -0.31800901002E+01  0.52439431152E+01 -0.41960674656E+01  0.74309417046E+01  0.00000000000E+00 0. -1.
</event>
<event>
 8    1  0.9870402E-014  0.9118800E+02  0.7816164E-02  0.1184000E+00
        -11   -1    0    0    0    0  0.00000000000E+00  0.00000000000E+00  0.45593999997E+02  0.45594000000E+02  0.51100000000E-03 0. -1.
         11   -1    0    0    0    0 -0.00000000000E+00 -0.00000000000E+00 -0.45593999997E+02  0.45594000000E+02  0.51100000000E-03 0.  1.
         23    2    1    2    0    0  0.00000000000E+00  0.00000000000E+00  0.00000000000E+00  0.91188000000E+02  0.91188000000E+02 0.  0.
    9900012    2    3    3    0    0 -0.32464336522E+02 -0.22778227311E+02  0.89657658581E+01  0.50528859051E+02  0.29999997573E+02 0.  0.
        -12    1    3    3    0    0  0.32464336522E+02  0.22778227311E+02 -0.89657658581E+01  0.40659140949E+02  0.00000000000E+00 0.  1.
         11    1    4    4    0    0 -0.16884337854E+02 -0.12198455307E+02  0.14560314387E+02  0.25414285981E+02  0.51100000000E-03 0. -1.
        -11    1    4    4    0    0 -0.10934557934E+02 -0.72114404797E+01  0.42065258627E+01  0.13757335901E+02  0.51100000000E-03 0.  1.
        -12    1    4    4    0    0 -0.46454407346E+01 -0.33683315247E+01 -0.98010743919E+01  0.11357237169E+02  0.00000000000E+00 0.  1.
</event>
<event>
 8    1  0.9870402E-014  0.9118800E+02  0.7816164E-02  0.1184000E+00
        -11   -1    0    0    0    0  0.00000000000E+00  0.00000000000E+00  0.45593999997E+02  0.45594000000E+02  0.51100000000E-03 0. -1.
         11   -1    0    0    0    0 -0.00000000000E+00 -0.00000000000E+00 -0.45593999997E+02  0.45594000000E+02  0.51100000000E-03 0.  1.
         23    2    1    2    0    0  0.00000000000E+00  0.17763568394E-14 -0.35527136788E-14  0.91188000000E+02  0.91188000000E+02 0.  0.
    9900012    2    3    3    0    0 -0.25202456299E+02  0.13334541306E+02  0.28986059496E+02  0.50528862768E+02  0.30000008871E+02 0.  0.
        -12    1    3    3    0    0  0.25202456299E+02 -0.13334541306E+02 -0.28986059496E+02  0.40659137232E+02  0.00000000000E+00 0.  1.
         11    1    4    4    0    0  0.36578250937E+00  0.73672838978E+01  0.43273388216E+01  0.85519898511E+01  0.51100000000E-03 0.  1.
        -11    1    4    4    0    0 -0.85534086824E+01  0.12541460233E+02  0.14980705000E+02  0.21327694377E+02  0.51100000000E-03 0. -1.
        -12    1    4    4    0    0 -0.17014830126E+02 -0.65742028255E+01  0.96780156742E+01  0.20649178540E+02  0.00000000000E+00 0.  1.
</event>
<event>
 8    1  0.9870402E-014  0.9118800E+02  0.7816164E-02  0.1184000E+00
        -11   -1    0    0    0    0  0.00000000000E+00  0.00000000000E+00  0.45593999997E+02  0.45594000000E+02  0.51100000000E-03 0. -1.
         11   -1    0    0    0    0 -0.00000000000E+00 -0.00000000000E+00 -0.45593999997E+02  0.45594000000E+02  0.51100000000E-03 0.  1.
         23    2    1    2    0    0  0.17763568394E-14  0.00000000000E+00  0.00000000000E+00  0.91188000000E+02  0.91188000000E+02 0.  0.
    9900012    2    3    3    0    0 -0.12333527397E+02  0.21456086750E+02  0.32259665042E+02  0.50528861479E+02  0.30000004951E+02 0.  0.
        -12    1    3    3    0    0  0.12333527397E+02 -0.21456086750E+02 -0.32259665042E+02  0.40659138521E+02  0.00000000000E+00 0.  1.
         11    1    4    4    0    0 -0.11324045165E+02  0.66735591880E+01  0.26657159419E+02  0.29721617380E+02  0.51100000000E-03 0. -1.
        -11    1    4    4    0    0  0.29723714490E+01  0.59678202420E+00  0.52577832212E+01  0.60692195114E+01  0.51100000000E-03 0.  1.
         12    1    4    4    0    0 -0.39818536819E+01  0.14185745538E+02  0.34472240129E+00  0.14738024587E+02  0.00000000000E+00 0. -1.
</event>
<event>
 8    1  0.9870402E-014  0.9118800E+02  0.7816164E-02  0.1184000E+00
        -11   -1    0    0    0    0  0.00000000000E+00  0.00000000000E+00  0.45593999997E+02  0.45594000000E+02  0.51100000000E-03 0. -1.
         11   -1    0    0    0    0 -0.00000000000E+00 -0.00000000000E+00 -0.45593999997E+02  0.45594000000E+02  0.51100000000E-03 0.  1.
         23    2    1    2    0    0  0.00000000000E+00 -0.17763568394E-14  0.00000000000E+00  0.91188000000E+02  0.91188000000E+02 0.  0.
    9900012    2    3    3    0    0 -0.12991852879E+02  0.95149920185E+01 -0.37334195139E+02  0.50528862761E+02  0.30000008847E+02 0.  0.
         12    1    3    3    0    0  0.12991852879E+02 -0.95149920185E+01  0.37334195139E+02  0.40659137239E+02  0.00000000000E+00 0. -1.
         11    1    4    4    0    0 -0.13587932537E+01  0.55234397499E+01 -0.19255710580E+01  0.60052085674E+01  0.51100000000E-03 0. -1.
        -11    1    4    4    0    0  0.50804871370E+01  0.58935304037E+01 -0.20928924708E+02  0.22328567797E+02  0.51100000000E-03 0.  1.
        -12    1    4    4    0    0 -0.16713546763E+02 -0.19019781351E+01 -0.14479699374E+02  0.22195086397E+02  0.00000000000E+00 0.  1.
</event>
<event>
 8    1  0.9870402E-014  0.9118800E+02  0.7816164E-02  0.1184000E+00
        -11   -1    0    0    0    0  0.00000000000E+00  0.00000000000E+00  0.45593999997E+02  0.45594000000E+02  0.51100000000E-03 0. -1.
         11   -1    0    0    0    0 -0.00000000000E+00 -0.00000000000E+00 -0.45593999997E+02  0.45594000000E+02  0.51100000000E-03 0.  1.
         23    2    1    2    0    0  0.00000000000E+00  0.41633363423E-16 -0.35527136788E-14  0.91188000000E+02  0.91188000000E+02 0.  0.
    9900012    2    3    3    0    0 -0.36427036649E+02 -0.86927385378E-01 -0.18061839837E+02  0.50528848340E+02  0.29999965014E+02 0.  0.
         12    1    3    3    0    0  0.36427036649E+02  0.86927385378E-01  0.18061839837E+02  0.40659151660E+02  0.00000000000E+00 0. -1.
         11    1    4    4    0    0 -0.18577956665E+02 -0.38881731159E+01 -0.41236074631E+01  0.19423246453E+02  0.51100000000E-03 0. -1.
        -11    1    4    4    0    0 -0.15057036674E+02 -0.40170575129E+00 -0.18806054193E+02  0.24094468151E+02  0.51100000000E-03 0.  1.
        -12    1    4    4    0    0 -0.27920433105E+01  0.42029514818E+01  0.48678218183E+01  0.70111337358E+01  0.00000000000E+00 0.  1.
</event>
<event>
 8    1  0.9870402E-014  0.9118800E+02  0.7816164E-02  0.1184000E+00
        -11   -1    0    0    0    0  0.00000000000E+00  0.00000000000E+00  0.45593999997E+02  0.45594000000E+02  0.51100000000E-03 0.  1.
         11   -1    0    0    0    0 -0.00000000000E+00 -0.00000000000E+00 -0.45593999997E+02  0.45594000000E+02  0.51100000000E-03 0. -1.
         23    2    1    2    0    0  0.88817841970E-15 -0.71054273576E-14  0.00000000000E+00  0.91188000000E+02  0.91188000000E+02 0.  0.
    9900012    2    3    3    0    0  0.50453320940E+01 -0.40295679924E+02  0.19928561065E+01  0.50528823029E+02  0.29999888079E+02 0.  0.
        -12    1    3    3    0    0 -0.50453320940E+01  0.40295679924E+02 -0.19928561065E+01  0.40659176971E+02  0.00000000000E+00 0.  1.
         11    1    4    4    0    0  0.68593879208E+01 -0.15449203221E+02  0.20745766567E+01  0.17030353824E+02  0.51100000000E-03 0. -1.
        -11    1    4    4    0    0  0.76242312765E+01 -0.18799735674E+02  0.54392700003E+01  0.21003443107E+02  0.51100000000E-03 0.  1.
        -12    1    4    4    0    0 -0.94382871034E+01 -0.60467410293E+01 -0.55209905506E+01  0.12495026098E+02  0.00000000000E+00 0.  1.
</event>
<event>
 8    1  0.9870402E-014  0.9118800E+02  0.7816164E-02  0.1184000E+00
        -11   -1    0    0    0    0  0.00000000000E+00  0.00000000000E+00  0.45593999997E+02  0.45594000000E+02  0.51100000000E-03 0. -1.
         11   -1    0    0    0    0 -0.00000000000E+00 -0.00000000000E+00 -0.45593999997E+02  0.45594000000E+02  0.51100000000E-03 0.  1.
         23    2    1    2    0    0  0.00000000000E+00 -0.88817841970E-15  0.00000000000E+00  0.91188000000E+02  0.91188000000E+02 0.  0.
    9900012    2    3    3    0    0  0.35273177592E+02 -0.57668457209E+01 -0.19383292894E+02  0.50528860677E+02  0.30000002515E+02 0.  0.
         12    1    3    3    0    0 -0.35273177592E+02  0.57668457209E+01  0.19383292894E+02  0.40659139323E+02  0.00000000000E+00 0. -1.
         11    1    4    4    0    0  0.25641073799E+00  0.23106700129E+01  0.46148810291E+01  0.51674045273E+01  0.51100000000E-03 0. -1.
        -11    1    4    4    0    0  0.98662869493E+01 -0.75350364117E+01 -0.12780211297E+02  0.17817244258E+02  0.51100000000E-03 0.  1.
        -12    1    4    4    0    0  0.25150479905E+02 -0.54247932213E+00 -0.11217962627E+02  0.27544211892E+02  0.00000000000E+00 0.  1.
</event>
<event>
 8    1  0.9870402E-014  0.9118800E+02  0.7816164E-02  0.1184000E+00
        -11   -1    0    0    0    0  0.00000000000E+00  0.00000000000E+00  0.45593999997E+02  0.45594000000E+02  0.51100000000E-03 0. -1.
         11   -1    0    0    0    0 -0.00000000000E+00 -0.00000000000E+00 -0.45593999997E+02  0.45594000000E+02  0.51100000000E-03 0.  1.
         23    2    1    2    0    0  0.00000000000E+00  0.00000000000E+00  0.00000000000E+00  0.91188000000E+02  0.91188000000E+02 0.  0.
    9900012    2    3    3    0    0  0.10288208845E+02 -0.11029697121E+02 -0.37757956621E+02  0.50528871283E+02  0.30000034751E+02 0.  0.
         12    1    3    3    0    0 -0.10288208845E+02  0.11029697121E+02  0.37757956621E+02  0.40659128717E+02  0.00000000000E+00 0. -1.
         11    1    4    4    0    0  0.58488625127E+01  0.64182319496E+00 -0.29172782177E+01  0.65674684748E+01  0.51100000000E-03 0. -1.
        -11    1    4    4    0    0  0.95000407903E+01  0.29828362815E+00 -0.36673538966E+01  0.10187700084E+02  0.51100000000E-03 0.  1.
        -12    1    4    4    0    0 -0.50606944584E+01 -0.11969803944E+02 -0.31173324507E+02  0.33773702724E+02  0.00000000000E+00 0.  1.
</event>
<event>
 8    1  0.9870402E-014  0.9118800E+02  0.7816164E-02  0.1184000E+00
        -11   -1    0    0    0    0  0.00000000000E+00  0.00000000000E+00  0.45593999997E+02  0.45594000000E+02  0.51100000000E-03 0. -1.
         11   -1    0    0    0    0 -0.00000000000E+00 -0.00000000000E+00 -0.45593999997E+02  0.45594000000E+02  0.51100000000E-03 0.  1.
         23    2    1    2    0    0  0.00000000000E+00  0.00000000000E+00  0.00000000000E+00  0.91188000000E+02  0.91188000000E+02 0.  0.
    9900012    2    3    3    0    0 -0.17175349732E+01  0.21521647631E+02  0.34453364398E+02  0.50528861280E+02  0.30000004345E+02 0.  0.
        -12    1    3    3    0    0  0.17175349732E+01 -0.21521647631E+02 -0.34453364398E+02  0.40659138720E+02  0.00000000000E+00 0.  1.
         11    1    4    4    0    0 -0.53033471622E+01  0.67222438253E+01  0.21429241454E+02  0.23076534461E+02  0.51100000000E-03 0. -1.
        -11    1    4    4    0    0  0.55120228513E+01  0.13263339831E+02  0.17319653588E+02  0.22500421775E+02  0.51100000000E-03 0.  1.
        -12    1    4    4    0    0 -0.19262106623E+01  0.15360639746E+01 -0.42955306438E+01  0.49519050437E+01  0.00000000000E+00 0.  1.
</event>
<event>
 8    1  0.9870402E-014  0.9118800E+02  0.7816164E-02  0.1184000E+00
        -11   -1    0    0    0    0  0.00000000000E+00  0.00000000000E+00  0.45593999997E+02  0.45594000000E+02  0.51100000000E-03 0. -1.
         11   -1    0    0    0    0 -0.00000000000E+00 -0.00000000000E+00 -0.45593999997E+02  0.45594000000E+02  0.51100000000E-03 0.  1.
         23    2    1    2    0    0  0.35527136788E-14  0.71054273576E-14  0.35527136788E-14  0.91188000000E+02  0.91188000000E+02 0.  0.
    9900012    2    3    3    0    0 -0.29948195092E+02 -0.16088877931E+02 -0.22302908748E+02  0.50528854399E+02  0.29999983432E+02 0.  0.
         12    1    3    3    0    0  0.29948195092E+02  0.16088877931E+02  0.22302908748E+02  0.40659145601E+02  0.00000000000E+00 0. -1.
         11    1    4    4    0    0 -0.98335701044E-01 -0.30717989015E+01 -0.30146758184E+01  0.43051003417E+01  0.51100000000E-03 0. -1.
        -11    1    4    4    0    0 -0.30626691472E+02 -0.18288455950E+02 -0.12964365087E+02  0.37954401772E+02  0.51100000000E-03 0.  1.
        -12    1    4    4    0    0  0.77683208047E+00  0.52713769203E+01 -0.63238678434E+01  0.82693522852E+01  0.00000000000E+00 0.  1.
</event>
<event>
 8    1  0.1108282E-013  0.9118800E+02  0.7816164E-02  0.1184000E+00
        -11   -1    0    0    0    0  0.00000000000E+00  0.00000000000E+00  0.45593999997E+02  0.45594000000E+02  0.51100000000E-03 0.  1.
         11   -1    0    0    0    0 -0.00000000000E+00 -0.00000000000E+00 -0.45593999997E+02  0.45594000000E+02  0.51100000000E-03 0. -1.
         23    2    1    2    0    0  0.00000000000E+00 -0.44408920985E-15 -0.35527136788E-14  0.91188000000E+02  0.91188000000E+02 0.  0.
    9900012    2    3    3    0    0  0.36624411416E+02  0.15357327978E+01 -0.17591467911E+02  0.50528859207E+02  0.29999998045E+02 0.  0.
         12    1    3    3    0    0 -0.36624411416E+02 -0.15357327978E+01  0.17591467911E+02  0.40659140793E+02  0.00000000000E+00 0. -1.
         11    1    4    4    0    0  0.26414771010E+02  0.47149572472E+01 -0.12473805504E+02  0.29589977583E+02  0.51100000000E-03 0. -1.
        -11    1    4    4    0    0  0.14988704696E+02 -0.18971409409E+01 -0.52346961277E+01  0.15989448272E+02  0.51100000000E-03 0.  1.
         12    1    4    4    0    0 -0.47790642903E+01 -0.12820835085E+01  0.11703372114E+00  0.49494333520E+01  0.00000000000E+00 0. -1.
</event>
<event>
 8    1  0.9870402E-014  0.9118800E+02  0.7816164E-02  0.1184000E+00
        -11   -1    0    0    0    0  0.00000000000E+00  0.00000000000E+00  0.45593999997E+02  0.45594000000E+02  0.51100000000E-03 0. -1.
         11   -1    0    0    0    0 -0.00000000000E+00 -0.00000000000E+00 -0.45593999997E+02  0.45594000000E+02  0.51100000000E-03 0.  1.
         23    2    1    2    0    0  0.00000000000E+00 -0.88817841970E-15  0.00000000000E+00  0.91188000000E+02  0.91188000000E+02 0.  0.
    9900012    2    3    3    0    0  0.35632024348E+02  0.55190005215E+01  0.18790011944E+02  0.50528867265E+02  0.30000022540E+02 0.  0.
        -12    1    3    3    0    0 -0.35632024348E+02 -0.55190005215E+01 -0.18790011944E+02  0.40659132735E+02  0.00000000000E+00 0.  1.
         11    1    4    4    0    0  0.16167643839E+01  0.44010906946E+01  0.11400501198E+01  0.48252710713E+01  0.51100000000E-03 0. -1.
        -11    1    4    4    0    0  0.98345791424E+00 -0.77664601958E+01  0.19544917384E+01  0.80687751027E+01  0.51100000000E-03 0.  1.
        -12    1    4    4    0    0  0.33031802050E+02  0.88843700228E+01  0.15695470086E+02  0.37634821091E+02  0.00000000000E+00 0.  1.
</event>
<event>
 8    1  0.9870402E-014  0.9118800E+02  0.7816164E-02  0.1184000E+00
        -11   -1    0    0    0    0  0.00000000000E+00  0.00000000000E+00  0.45593999997E+02  0.45594000000E+02  0.51100000000E-03 0.  1.
         11   -1    0    0    0    0 -0.00000000000E+00 -0.00000000000E+00 -0.45593999997E+02  0.45594000000E+02  0.51100000000E-03 0. -1.
         23    2    1    2    0    0  0.35527136788E-14  0.00000000000E+00  0.17763568394E-14  0.91188000000E+02  0.91188000000E+02 0.  0.
    9900012    2    3    3    0    0  0.19814742928E+02 -0.33592685604E+02  0.11492327683E+02  0.50528853933E+02  0.29999982013E+02 0.  0.
         12    1    3    3    0    0 -0.19814742928E+02  0.33592685604E+02 -0.11492327683E+02  0.40659146067E+02  0.00000000000E+00 0. -1.
         11    1    4    4    0    0  0.10003482175E+02 -0.17729042021E+02 -0.84784699396E+01  0.22051599474E+02  0.51100000000E-03 0. -1.
        -11    1    4    4    0    0  0.12437936631E+01 -0.69597006825E+01  0.35059893807E+01  0.78915409183E+01  0.51100000000E-03 0.  1.
         12    1    4    4    0    0  0.85674670903E+01 -0.89039429004E+01  0.16464808242E+02  0.20585713540E+02  0.00000000000E+00 0. -1.
</event>
<event>
 8    1  0.9870402E-014  0.9118800E+02  0.7816164E-02  0.1184000E+00
        -11   -1    0    0    0    0  0.00000000000E+00  0.00000000000E+00  0.45593999997E+02  0.45594000000E+02  0.51100000000E-03 0. -1.
         11   -1    0    0    0    0 -0.00000000000E+00 -0.00000000000E+00 -0.45593999997E+02  0.45594000000E+02  0.51100000000E-03 0.  1.
         23    2    1    2    0    0  0.00000000000E+00  0.00000000000E+00  0.71054273576E-14  0.91188000000E+02  0.91188000000E+02 0.  0.
    9900012    2    3    3    0    0  0.16926744535E+02 -0.41782389630E+01 -0.36731316118E+02  0.50528905751E+02  0.30000139521E+02 0.  0.
         12    1    3    3    0    0 -0.16926744535E+02  0.41782389630E+01  0.36731316118E+02  0.40659094249E+02  0.00000000000E+00 0. -1.
         11    1    4    4    0    0  0.45204191953E+01 -0.29052528461E+01 -0.43235436637E+01  0.68969351073E+01  0.51100000000E-03 0. -1.
        -11    1    4    4    0    0  0.43316602052E+01 -0.32144801178E+01 -0.34619901275E+02  0.35037604472E+02  0.51100000000E-03 0.  1.
        -12    1    4    4    0    0  0.80746651343E+01  0.19414940009E+01  0.22121288207E+01  0.85943661724E+01  0.00000000000E+00 0.  1.
</event>
<event>
 8    1  0.9870402E-014  0.9118800E+02  0.7816164E-02  0.1184000E+00
        -11   -1    0    0    0    0  0.00000000000E+00  0.00000000000E+00  0.45593999997E+02  0.45594000000E+02  0.51100000000E-03 0. -1.
         11   -1    0    0    0    0 -0.00000000000E+00 -0.00000000000E+00 -0.45593999997E+02  0.45594000000E+02  0.51100000000E-03 0.  1.
         23    2    1    2    0    0  0.00000000000E+00  0.00000000000E+00  0.00000000000E+00  0.91188000000E+02  0.91188000000E+02 0.  0.
    9900012    2    3    3    0    0 -0.36407394529E+02 -0.12482849963E+02  0.13109001943E+02  0.50528857713E+02  0.29999993505E+02 0.  0.
         12    1    3    3    0    0  0.36407394529E+02  0.12482849963E+02 -0.13109001943E+02  0.40659142287E+02  0.00000000000E+00 0. -1.
         11    1    4    4    0    0 -0.15615545663E+02 -0.18520687151E+01 -0.26215146986E+01  0.15942012560E+02  0.51100000000E-03 0. -1.
        -11    1    4    4    0    0 -0.16841130766E+02 -0.16099126322E+02  0.87715975842E+01  0.24894707836E+02  0.51100000000E-03 0.  1.
         12    1    4    4    0    0 -0.39507180998E+01  0.54683450733E+01  0.69589190569E+01  0.96921373177E+01  0.00000000000E+00 0. -1.
</event>
<event>
 8    1  0.9870402E-014  0.9118800E+02  0.7816164E-02  0.1184000E+00
        -11   -1    0    0    0    0  0.00000000000E+00  0.00000000000E+00  0.45593999997E+02  0.45594000000E+02  0.51100000000E-03 0. -1.
         11   -1    0    0    0    0 -0.00000000000E+00 -0.00000000000E+00 -0.45593999997E+02  0.45594000000E+02  0.51100000000E-03 0.  1.
         23    2    1    2    0    0  0.88817841970E-15  0.35527136788E-14  0.00000000000E+00  0.91188000000E+02  0.91188000000E+02 0.  0.
    9900012    2    3    3    0    0 -0.72250517460E+01 -0.25082107158E+02 -0.31174562650E+02  0.50528845697E+02  0.29999956981E+02 0.  0.
         12    1    3    3    0    0  0.72250517460E+01  0.25082107158E+02  0.31174562650E+02  0.40659154303E+02  0.00000000000E+00 0. -1.
         11    1    4    4    0    0  0.14609429693E+01  0.38734122108E+00  0.14044735507E+01  0.20632338202E+01  0.51100000000E-03 0. -1.
        -11    1    4    4    0    0  0.11888252034E+01 -0.24738090377E+02 -0.28497003413E+02  0.37755339022E+02  0.51100000000E-03 0.  1.
         12    1    4    4    0    0 -0.98748199187E+01 -0.73135800278E+00 -0.40820327871E+01  0.10710272855E+02  0.00000000000E+00 0. -1.
</event>
<event>
 8    1  0.9870402E-014  0.9118800E+02  0.7816164E-02  0.1184000E+00
        -11   -1    0    0    0    0  0.00000000000E+00  0.00000000000E+00  0.45593999997E+02  0.45594000000E+02  0.51100000000E-03 0. -1.
         11   -1    0    0    0    0 -0.00000000000E+00 -0.00000000000E+00 -0.45593999997E+02  0.45594000000E+02  0.51100000000E-03 0.  1.
         23    2    1    2    0    0  0.00000000000E+00  0.00000000000E+00  0.71054273576E-14  0.91188000000E+02  0.91188000000E+02 0.  0.
    9900012    2    3    3    0    0  0.21115996064E+02 -0.11500295019E+02  0.32787606773E+02  0.50528816127E+02  0.29999867100E+02 0.  0.
        -12    1    3    3    0    0 -0.21115996064E+02  0.11500295019E+02 -0.32787606773E+02  0.40659183873E+02  0.00000000000E+00 0.  1.
         11    1    4    4    0    0  0.49717733460E+00  0.41756847336E+01  0.49431501218E+01  0.64898583716E+01  0.51100000000E-03 0. -1.
        -11    1    4    4    0    0 -0.15082693936E+01 -0.11500858637E+02  0.97078132146E+01  0.15125682253E+02  0.51100000000E-03 0.  1.
         12    1    4    4    0    0  0.22127088123E+02 -0.41751211154E+01  0.18136643436E+02  0.28913275502E+02  0.00000000000E+00 0. -1.
</event>
<event>
 8    1  0.9870402E-014  0.9118800E+02  0.7816164E-02  0.1184000E+00
        -11   -1    0    0    0    0  0.00000000000E+00  0.00000000000E+00  0.45593999997E+02  0.45594000000E+02  0.51100000000E-03 0. -1.
         11   -1    0    0    0    0 -0.00000000000E+00 -0.00000000000E+00 -0.45593999997E+02  0.45594000000E+02  0.51100000000E-03 0.  1.
         23    2    1    2    0    0 -0.35527136788E-14  0.44408920985E-15 -0.71054273576E-14  0.91188000000E+02  0.91188000000E+02 0.  0.
    9900012    2    3    3    0    0  0.22441563257E+02 -0.15758685782E+01  0.33868231829E+02  0.50528877403E+02  0.30000053353E+02 0.  0.
        -12    1    3    3    0    0 -0.22441563257E+02  0.15758685782E+01 -0.33868231829E+02  0.40659122597E+02  0.00000000000E+00 0.  1.
         11    1    4    4    0    0  0.14306734863E+02  0.26398747187E+00  0.64300879445E+01  0.15687523165E+02  0.51100000000E-03 0. -1.
        -11    1    4    4    0    0  0.26797756631E+01 -0.39629763774E+01 -0.17333810881E+01  0.50883189395E+01  0.51100000000E-03 0.  1.
         12    1    4    4    0    0  0.54550527309E+01  0.21231203273E+01  0.29171524973E+02  0.29753035298E+02  0.00000000000E+00 0. -1.
</event>
<event>
 8    1  0.9870402E-014  0.9118800E+02  0.7816164E-02  0.1184000E+00
        -11   -1    0    0    0    0  0.00000000000E+00  0.00000000000E+00  0.45593999997E+02  0.45594000000E+02  0.51100000000E-03 0.  1.
         11   -1    0    0    0    0 -0.00000000000E+00 -0.00000000000E+00 -0.45593999997E+02  0.45594000000E+02  0.51100000000E-03 0. -1.
         23    2    1    2    0    0  0.35527136788E-14 -0.35527136788E-14  0.00000000000E+00  0.91188000000E+02  0.91188000000E+02 0.  0.
    9900012    2    3    3    0    0 -0.22037320759E+02  0.28686480946E+02  0.18563636842E+02  0.50528852097E+02  0.29999976435E+02 0.  0.
        -12    1    3    3    0    0  0.22037320759E+02 -0.28686480946E+02 -0.18563636842E+02  0.40659147903E+02  0.00000000000E+00 0.  1.
         11    1    4    4    0    0 -0.78686329513E+01  0.15356939298E+01  0.73935981039E+01  0.10905917364E+02  0.51100000000E-03 0.  1.
        -11    1    4    4    0    0 -0.59182468038E-01  0.15337545483E+00 -0.50901284320E+01  0.50927825704E+01  0.51100000000E-03 0. -1.
         12    1    4    4    0    0 -0.14109505340E+02  0.26997411562E+02  0.16260167171E+02  0.34530152163E+02  0.00000000000E+00 0. -1.
</event>
<event>
 8    1  0.9870402E-014  0.9118800E+02  0.7816164E-02  0.1184000E+00
        -11   -1    0    0    0    0  0.00000000000E+00  0.00000000000E+00  0.45593999997E+02  0.45594000000E+02  0.51100000000E-03 0. -1.
         11   -1    0    0    0    0 -0.00000000000E+00 -0.00000000000E+00 -0.45593999997E+02  0.45594000000E+02  0.51100000000E-03 0.  1.
         23    2    1    2    0    0  0.17763568394E-14 -0.35527136788E-14  0.00000000000E+00  0.91188000000E+02  0.91188000000E+02 0.  0.
    9900012    2    3    3    0    0  0.13749440293E+02  0.20060906238E+02  0.32583410398E+02  0.50528859569E+02  0.29999999145E+02 0.  0.
        -12    1    3    3    0    0 -0.13749440293E+02 -0.20060906238E+02 -0.32583410398E+02  0.40659140431E+02  0.00000000000E+00 0.  1.
         11    1    4    4    0    0  0.12395944983E+02  0.15577978447E+02  0.18916554606E+02  0.27462135804E+02  0.51100000000E-03 0. -1.
        -11    1    4    4    0    0  0.78772680718E+01 -0.32355566053E+00  0.12642142119E+02  0.14898986481E+02  0.51100000000E-03 0.  1.
        -12    1    4    4    0    0 -0.65237727619E+01  0.48064834519E+01  0.10247136729E+01  0.81677372836E+01  0.00000000000E+00 0.  1.
</event>
<event>
 8    1  0.9870402E-014  0.9118800E+02  0.7816164E-02  0.1184000E+00
        -11   -1    0    0    0    0  0.00000000000E+00  0.00000000000E+00  0.45593999997E+02  0.45594000000E+02  0.51100000000E-03 0.  1.
         11   -1    0    0    0    0 -0.00000000000E+00 -0.00000000000E+00 -0.45593999997E+02  0.45594000000E+02  0.51100000000E-03 0. -1.
         23    2    1    2    0    0  0.35527136788E-14 -0.88817841970E-15  0.35527136788E-14  0.91188000000E+02  0.91188000000E+02 0.  0.
    9900012    2    3    3    0    0 -0.25289708113E+02 -0.34343835765E+01 -0.31651246433E+02  0.50528859235E+02  0.29999998132E+02 0.  0.
         12    1    3    3    0    0  0.25289708113E+02  0.34343835765E+01  0.31651246433E+02  0.40659140765E+02  0.00000000000E+00 0. -1.
         11    1    4    4    0    0 -0.10918972531E+02  0.38094328622E+01 -0.23004825780E+02  0.25747965925E+02  0.51100000000E-03 0. -1.
        -11    1    4    4    0    0  0.13942250220E+01  0.37408573915E+01 -0.18473641379E+01  0.43989353206E+01  0.51100000000E-03 0.  1.
        -12    1    4    4    0    0 -0.15764960604E+02 -0.10984673830E+02 -0.67990565151E+01  0.20381957990E+02  0.00000000000E+00 0.  1.
</event>
<event>
 8    1  0.9870402E-014  0.9118800E+02  0.7816164E-02  0.1184000E+00
        -11   -1    0    0    0    0  0.00000000000E+00  0.00000000000E+00  0.45593999997E+02  0.45594000000E+02  0.51100000000E-03 0.  1.
         11   -1    0    0    0    0 -0.00000000000E+00 -0.00000000000E+00 -0.45593999997E+02  0.45594000000E+02  0.51100000000E-03 0. -1.
         23    2    1    2    0    0  0.00000000000E+00  0.00000000000E+00  0.00000000000E+00  0.91188000000E+02  0.91188000000E+02 0.  0.
    9900012    2    3    3    0    0 -0.33548777484E+02  0.73444564822E+01  0.21764741806E+02  0.50528862065E+02  0.30000006734E+02 0.  0.
        -12    1    3    3    0    0  0.33548777484E+02 -0.73444564822E+01 -0.21764741806E+02  0.40659137935E+02  0.00000000000E+00 0.  1.
         11    1    4    4    0    0 -0.24065093007E+02  0.10825097669E+02  0.10345997540E+02  0.28343449091E+02  0.51100000000E-03 0. -1.
        -11    1    4    4    0    0 -0.11430438835E+02 -0.23474655114E+01  0.14345542767E+02  0.18492163849E+02  0.51100000000E-03 0.  1.
         12    1    4    4    0    0  0.19467543579E+01 -0.11331756759E+01 -0.29267985003E+01  0.36932491256E+01  0.00000000000E+00 0. -1.
</event>
<event>
 8    1  0.9870402E-014  0.9118800E+02  0.7816164E-02  0.1184000E+00
        -11   -1    0    0    0    0  0.00000000000E+00  0.00000000000E+00  0.45593999997E+02  0.45594000000E+02  0.51100000000E-03 0. -1.
         11   -1    0    0    0    0 -0.00000000000E+00 -0.00000000000E+00 -0.45593999997E+02  0.45594000000E+02  0.51100000000E-03 0.  1.
         23    2    1    2    0    0  0.00000000000E+00  0.00000000000E+00  0.00000000000E+00  0.91188000000E+02  0.91188000000E+02 0.  0.
    9900012    2    3    3    0    0  0.14429011377E+02 -0.25485866495E+02 -0.28203549859E+02  0.50528856072E+02  0.29999988516E+02 0.  0.
         12    1    3    3    0    0 -0.14429011377E+02  0.25485866495E+02  0.28203549859E+02  0.40659143928E+02  0.00000000000E+00 0. -1.
         11    1    4    4    0    0  0.57541774548E+01 -0.68100756492E+00 -0.62294418863E+01  0.85076598405E+01  0.51100000000E-03 0. -1.
        -11    1    4    4    0    0  0.10887574135E+02 -0.17767753110E+02 -0.22458956576E+01  0.20958920981E+02  0.51100000000E-03 0.  1.
         12    1    4    4    0    0 -0.22127402126E+01 -0.70371058200E+01 -0.19728212315E+02  0.21062275250E+02  0.00000000000E+00 0. -1.
</event>
<event>
 8    1  0.9870402E-014  0.9118800E+02  0.7816164E-02  0.1184000E+00
        -11   -1    0    0    0    0  0.00000000000E+00  0.00000000000E+00  0.45593999997E+02  0.45594000000E+02  0.51100000000E-03 0. -1.
         11   -1    0    0    0    0 -0.00000000000E+00 -0.00000000000E+00 -0.45593999997E+02  0.45594000000E+02  0.51100000000E-03 0.  1.
         23    2    1    2    0    0 -0.88817841970E-15  0.00000000000E+00 -0.35527136788E-14  0.91188000000E+02  0.91188000000E+02 0.  0.
    9900012    2    3    3    0    0 -0.39119436657E+01 -0.29240003507E+02 -0.27980064755E+02  0.50528866561E+02  0.30000020398E+02 0.  0.
         12    1    3    3    0    0  0.39119436657E+01  0.29240003507E+02  0.27980064755E+02  0.40659133439E+02  0.00000000000E+00 0. -1.
         11    1    4    4    0    0 -0.32536516506E+01 -0.14526126486E+02 -0.10300212503E+02  0.18102181571E+02  0.51100000000E-03 0. -1.
        -11    1    4    4    0    0  0.10227593542E+02 -0.11208360391E+02 -0.13310089931E+02  0.20183892255E+02  0.51100000000E-03 0.  1.
         12    1    4    4    0    0 -0.10885885557E+02 -0.35055166303E+01 -0.43697623204E+01  0.12242792735E+02  0.00000000000E+00 0. -1.
</event>
<event>
 8    1  0.9870402E-014  0.9118800E+02  0.7816164E-02  0.1184000E+00
        -11   -1    0    0    0    0  0.00000000000E+00  0.00000000000E+00  0.45593999997E+02  0.45594000000E+02  0.51100000000E-03 0.  1.
         11   -1    0    0    0    0 -0.00000000000E+00 -0.00000000000E+00 -0.45593999997E+02  0.45594000000E+02  0.51100000000E-03 0. -1.
         23    2    1    2    0    0  0.44408920985E-15  0.00000000000E+00 -0.35527136788E-14  0.91188000000E+02  0.91188000000E+02 0.  0.
    9900012    2    3    3    0    0  0.10656801115E+01  0.35712579169E+02  0.19407258899E+02  0.50528859786E+02  0.29999999805E+02 0.  0.
        -12    1    3    3    0    0 -0.10656801115E+01 -0.35712579169E+02 -0.19407258899E+02  0.40659140214E+02  0.00000000000E+00 0.  1.
         11    1    4    4    0    0 -0.51857423915E+00  0.20770603733E+01 -0.35488604800E+01  0.41445759739E+01  0.51100000000E-03 0. -1.
        -11    1    4    4    0    0  0.90936839001E+01  0.67802950096E+01  0.11748841480E+02  0.16331036822E+02  0.51100000000E-03 0.  1.
        -12    1    4    4    0    0 -0.75094295494E+01  0.26855223786E+02  0.11207277898E+02  0.30053246990E+02  0.00000000000E+00 0.  1.
</event>
<event>
 8    1  0.9870402E-014  0.9118800E+02  0.7816164E-02  0.1184000E+00
        -11   -1    0    0    0    0  0.00000000000E+00  0.00000000000E+00  0.45593999997E+02  0.45594000000E+02  0.51100000000E-03 0. -1.
         11   -1    0    0    0    0 -0.00000000000E+00 -0.00000000000E+00 -0.45593999997E+02  0.45594000000E+02  0.51100000000E-03 0.  1.
         23    2    1    2    0    0  0.00000000000E+00  0.00000000000E+00  0.00000000000E+00  0.91188000000E+02  0.91188000000E+02 0.  0.
    9900012    2    3    3    0    0  0.46006847119E+01  0.30205687753E+02  0.26825677599E+02  0.50528845421E+02  0.29999956141E+02 0.  0.
        -12    1    3    3    0    0 -0.46006847119E+01 -0.30205687753E+02 -0.26825677599E+02  0.40659154579E+02  0.00000000000E+00 0.  1.
         11    1    4    4    0    0 -0.90807423893E+01  0.11858907406E+02  0.94992816605E+01  0.17701127635E+02  0.51100000000E-03 0. -1.
        -11    1    4    4    0    0  0.71534200783E+01  0.17816455804E+02  0.17905433852E+02  0.26252658492E+02  0.51100000000E-03 0.  1.
        -12    1    4    4    0    0  0.65280070230E+01  0.53032454300E+00 -0.57903791380E+00  0.65750592940E+01  0.00000000000E+00 0.  1.
</event>
<event>
 8    1  0.9870402E-014  0.9118800E+02  0.7816164E-02  0.1184000E+00
        -11   -1    0    0    0    0  0.00000000000E+00  0.00000000000E+00  0.45593999997E+02  0.45594000000E+02  0.51100000000E-03 0. -1.
         11   -1    0    0    0    0 -0.00000000000E+00 -0.00000000000E+00 -0.45593999997E+02  0.45594000000E+02  0.51100000000E-03 0.  1.
         23    2    1    2    0    0  0.00000000000E+00 -0.35527136788E-14  0.88817841970E-15  0.91188000000E+02  0.91188000000E+02 0.  0.
    9900012    2    3    3    0    0  0.25246734195E+02 -0.31395257854E+02  0.54869322980E+01  0.50528853068E+02  0.29999979386E+02 0.  0.
        -12    1    3    3    0    0 -0.25246734195E+02  0.31395257854E+02 -0.54869322980E+01  0.40659146932E+02  0.00000000000E+00 0.  1.
         11    1    4    4    0    0  0.14261070712E+01 -0.71420232633E+01 -0.62999985438E+01  0.96297590617E+01  0.51100000000E-03 0. -1.
        -11    1    4    4    0    0 -0.31397862446E+01 -0.15330074119E+01 -0.56776499017E+00  0.35398766549E+01  0.51100000000E-03 0.  1.
         12    1    4    4    0    0  0.26960413368E+02 -0.22720227178E+02  0.12354695832E+02  0.37359217352E+02  0.00000000000E+00 0. -1.
</event>
<event>
 8    1  0.9870402E-014  0.9118800E+02  0.7816164E-02  0.1184000E+00
        -11   -1    0    0    0    0  0.00000000000E+00  0.00000000000E+00  0.45593999997E+02  0.45594000000E+02  0.51100000000E-03 0. -1.
         11   -1    0    0    0    0 -0.00000000000E+00 -0.00000000000E+00 -0.45593999997E+02  0.45594000000E+02  0.51100000000E-03 0.  1.
         23    2    1    2    0    0  0.17763568394E-14  0.00000000000E+00  0.00000000000E+00  0.91188000000E+02  0.91188000000E+02 0.  0.
    9900012    2    3    3    0    0  0.12352373530E+02 -0.26587328396E+02 -0.28172442132E+02  0.50529007653E+02  0.30000449258E+02 0.  0.
         12    1    3    3    0    0 -0.12352373530E+02  0.26587328396E+02  0.28172442132E+02  0.40658992347E+02  0.00000000000E+00 0. -1.
         11    1    4    4    0    0 -0.42978128234E+01 -0.10118735807E+02 -0.16455656972E+02  0.19790115109E+02  0.51100000000E-03 0. -1.
        -11    1    4    4    0    0 -0.82383869345E+00 -0.58785267123E+01  0.18439114999E+01  0.62157699749E+01  0.51100000000E-03 0.  1.
         12    1    4    4    0    0  0.17474025047E+02 -0.10590065876E+02 -0.13560696659E+02  0.24523122568E+02  0.00000000000E+00 0. -1.
</event>
<event>
 8    1  0.9870402E-014  0.9118800E+02  0.7816164E-02  0.1184000E+00
        -11   -1    0    0    0    0  0.00000000000E+00  0.00000000000E+00  0.45593999997E+02  0.45594000000E+02  0.51100000000E-03 0. -1.
         11   -1    0    0    0    0 -0.00000000000E+00 -0.00000000000E+00 -0.45593999997E+02  0.45594000000E+02  0.51100000000E-03 0.  1.
         23    2    1    2    0    0  0.00000000000E+00  0.00000000000E+00 -0.35527136788E-14  0.91188000000E+02  0.91188000000E+02 0.  0.
    9900012    2    3    3    0    0  0.17174637288E+02  0.18283942416E+02 -0.31998357130E+02  0.50528861111E+02  0.30000003832E+02 0.  0.
         12    1    3    3    0    0 -0.17174637288E+02 -0.18283942416E+02  0.31998357130E+02  0.40659138889E+02  0.00000000000E+00 0. -1.
         11    1    4    4    0    0  0.13809614820E+01 -0.27395719180E+01  0.10034591971E+01  0.32278846835E+01  0.51100000000E-03 0. -1.
        -11    1    4    4    0    0 -0.45297650968E+01  0.17517113704E+01 -0.97753968443E+01  0.10915385851E+02  0.51100000000E-03 0.  1.
        -12    1    4    4    0    0  0.20323440902E+02  0.19271802964E+02 -0.23226419482E+02  0.36385590576E+02  0.00000000000E+00 0.  1.
</event>
<event>
 8    1  0.9870402E-014  0.9118800E+02  0.7816164E-02  0.1184000E+00
        -11   -1    0    0    0    0  0.00000000000E+00  0.00000000000E+00  0.45593999997E+02  0.45594000000E+02  0.51100000000E-03 0.  1.
         11   -1    0    0    0    0 -0.00000000000E+00 -0.00000000000E+00 -0.45593999997E+02  0.45594000000E+02  0.51100000000E-03 0. -1.
         23    2    1    2    0    0  0.00000000000E+00  0.17763568394E-14 -0.44408920985E-15  0.91188000000E+02  0.91188000000E+02 0.  0.
    9900012    2    3    3    0    0 -0.38305081130E+02 -0.13462470014E+02  0.21558115731E+01  0.50528869872E+02  0.30000030463E+02 0.  0.
         12    1    3    3    0    0  0.38305081130E+02  0.13462470014E+02 -0.21558115731E+01  0.40659130128E+02  0.00000000000E+00 0. -1.
         11    1    4    4    0    0 -0.65180099191E+01  0.61065915096E+01  0.61883200772E+01  0.10866012093E+02  0.51100000000E-03 0.  1.
        -11    1    4    4    0    0 -0.74808496958E+01 -0.90696002602E+01 -0.58340092896E+01  0.13124649546E+02  0.51100000000E-03 0. -1.
        -12    1    4    4    0    0 -0.24306221515E+02 -0.10499461263E+02  0.18015007855E+01  0.26538208233E+02  0.00000000000E+00 0.  1.
</event>
<event>
 8    1  0.9870402E-014  0.9118800E+02  0.7816164E-02  0.1184000E+00
        -11   -1    0    0    0    0  0.00000000000E+00  0.00000000000E+00  0.45593999997E+02  0.45594000000E+02  0.51100000000E-03 0. -1.
         11   -1    0    0    0    0 -0.00000000000E+00 -0.00000000000E+00 -0.45593999997E+02  0.45594000000E+02  0.51100000000E-03 0.  1.
         23    2    1    2    0    0  0.00000000000E+00  0.00000000000E+00  0.00000000000E+00  0.91188000000E+02  0.91188000000E+02 0.  0.
    9900012    2    3    3    0    0 -0.14636649016E+02 -0.17352930394E+02 -0.33731420485E+02  0.50528875371E+02  0.30000047177E+02 0.  0.
         12    1    3    3    0    0  0.14636649016E+02  0.17352930394E+02  0.33731420485E+02  0.40659124629E+02  0.00000000000E+00 0. -1.
         11    1    4    4    0    0 -0.91012757266E+01  0.28377853798E+01 -0.11266994729E+01  0.95997759180E+01  0.51100000000E-03 0. -1.
        -11    1    4    4    0    0  0.30366190476E+01 -0.44137743636E+00 -0.56722742147E+01  0.64490746863E+01  0.51100000000E-03 0.  1.
        -12    1    4    4    0    0 -0.85719923368E+01 -0.19749338337E+02 -0.26932446798E+02  0.34480024766E+02  0.00000000000E+00 0.  1.
</event>
<event>
 8    1  0.9870402E-014  0.9118800E+02  0.7816164E-02  0.1184000E+00
        -11   -1    0    0    0    0  0.00000000000E+00  0.00000000000E+00  0.45593999997E+02  0.45594000000E+02  0.51100000000E-03 0. -1.
         11   -1    0    0    0    0 -0.00000000000E+00 -0.00000000000E+00 -0.45593999997E+02  0.45594000000E+02  0.51100000000E-03 0.  1.
         23    2    1    2    0    0  0.00000000000E+00 -0.35527136788E-14 -0.88817841970E-15  0.91188000000E+02  0.91188000000E+02 0.  0.
    9900012    2    3    3    0    0  0.35705325492E+02 -0.18857305753E+02 -0.47641811064E+01  0.50528859940E+02  0.30000000275E+02 0.  0.
         12    1    3    3    0    0 -0.35705325492E+02  0.18857305753E+02  0.47641811064E+01  0.40659140060E+02  0.00000000000E+00 0. -1.
         11    1    4    4    0    0  0.30626245824E+01 -0.73030744392E+01 -0.53185168581E+01  0.95394542521E+01  0.51100000000E-03 0.  1.
        -11    1    4    4    0    0  0.16900814197E+02 -0.16632646463E+02  0.41223969803E+01  0.24068165821E+02  0.51100000000E-03 0. -1.
         12    1    4    4    0    0  0.15741886713E+02  0.50784151487E+01 -0.35680612286E+01  0.16921239867E+02  0.00000000000E+00 0. -1.
</event>
<event>
 8    1  0.9870402E-014  0.9118800E+02  0.7816164E-02  0.1184000E+00
        -11   -1    0    0    0    0  0.00000000000E+00  0.00000000000E+00  0.45593999997E+02  0.45594000000E+02  0.51100000000E-03 0. -1.
         11   -1    0    0    0    0 -0.00000000000E+00 -0.00000000000E+00 -0.45593999997E+02  0.45594000000E+02  0.51100000000E-03 0.  1.
         23    2    1    2    0    0  0.00000000000E+00  0.00000000000E+00  0.00000000000E+00  0.91188000000E+02  0.91188000000E+02 0.  0.
    9900012    2    3    3    0    0 -0.23989514119E+01 -0.22198602249E+02 -0.33979887603E+02  0.50528859931E+02  0.30000000245E+02 0.  0.
         12    1    3    3    0    0  0.23989514119E+01  0.22198602249E+02  0.33979887603E+02  0.40659140069E+02  0.00000000000E+00 0. -1.
         11    1    4    4    0    0 -0.29665510216E+01 -0.73838432490E+01 -0.10033351035E+01  0.80204892420E+01  0.51100000000E-03 0. -1.
        -11    1    4    4    0    0  0.11821076507E+01  0.30348023163E+01 -0.20414959787E+02  0.20673122332E+02  0.51100000000E-03 0.  1.
         12    1    4    4    0    0 -0.61450804092E+00 -0.17849561317E+02 -0.12561592713E+02  0.21835248357E+02  0.00000000000E+00 0. -1.
</event>
<event>
 8    1  0.9870402E-014  0.9118800E+02  0.7816164E-02  0.1184000E+00
        -11   -1    0    0    0    0  0.00000000000E+00  0.00000000000E+00  0.45593999997E+02  0.45594000000E+02  0.51100000000E-03 0. -1.
         11   -1    0    0    0    0 -0.00000000000E+00 -0.00000000000E+00 -0.45593999997E+02  0.45594000000E+02  0.51100000000E-03 0.  1.
         23    2    1    2    0    0 -0.35527136788E-14  0.00000000000E+00 -0.35527136788E-14  0.91188000000E+02  0.91188000000E+02 0.  0.
    9900012    2    3    3    0    0  0.30604850281E+02  0.57680929189E+01  0.26138825576E+02  0.50528856390E+02  0.29999989484E+02 0.  0.
        -12    1    3    3    0    0 -0.30604850281E+02 -0.57680929189E+01 -0.26138825576E+02  0.40659143610E+02  0.00000000000E+00 0.  1.
         11    1    4    4    0    0  0.10638104933E+02  0.65995240626E+01  0.20184131194E+02  0.23751255688E+02  0.51100000000E-03 0. -1.
        -11    1    4    4    0    0 -0.21433467825E+01  0.29755209121E+01  0.10114253231E+01  0.38040296495E+01  0.51100000000E-03 0.  1.
         12    1    4    4    0    0  0.22110092130E+02 -0.38069520558E+01  0.49432690583E+01  0.22973571053E+02  0.00000000000E+00 0. -1.
</event>
<event>
 8    1  0.9870402E-014  0.9118800E+02  0.7816164E-02  0.1184000E+00
        -11   -1    0    0    0    0  0.00000000000E+00  0.00000000000E+00  0.45593999997E+02  0.45594000000E+02  0.51100000000E-03 0. -1.
         11   -1    0    0    0    0 -0.00000000000E+00 -0.00000000000E+00 -0.45593999997E+02  0.45594000000E+02  0.51100000000E-03 0.  1.
         23    2    1    2    0    0  0.22204460493E-14 -0.88817841970E-15  0.00000000000E+00  0.91188000000E+02  0.91188000000E+02 0.  0.
    9900012    2    3    3    0    0  0.38692469780E+01 -0.50621644990E+01  0.40156778692E+02  0.50528887165E+02  0.30000083027E+02 0.  0.
        -12    1    3    3    0    0 -0.38692469780E+01  0.50621644990E+01 -0.40156778692E+02  0.40659112835E+02  0.00000000000E+00 0.  1.
         11    1    4    4    0    0  0.34167234242E+01 -0.33530357986E+01  0.90224534791E+01  0.10213790436E+02  0.51100000000E-03 0. -1.
        -11    1    4    4    0    0  0.10108674871E+02 -0.60147618229E+01  0.63441486882E+01  0.13364538535E+02  0.51100000000E-03 0.  1.
        -12    1    4    4    0    0 -0.96561513168E+01  0.43056331226E+01  0.24790176525E+02  0.26950558194E+02  0.00000000000E+00 0.  1.
</event>
<event>
 8    1  0.9870402E-014  0.9118800E+02  0.7816164E-02  0.1184000E+00
        -11   -1    0    0    0    0  0.00000000000E+00  0.00000000000E+00  0.45593999997E+02  0.45594000000E+02  0.51100000000E-03 0. -1.
         11   -1    0    0    0    0 -0.00000000000E+00 -0.00000000000E+00 -0.45593999997E+02  0.45594000000E+02  0.51100000000E-03 0.  1.
         23    2    1    2    0    0  0.00000000000E+00  0.00000000000E+00 -0.35527136788E-14  0.91188000000E+02  0.91188000000E+02 0.  0.
    9900012    2    3    3    0    0  0.22980111154E+02  0.29041469673E+02  0.16783115199E+02  0.50528862955E+02  0.30000009439E+02 0.  0.
        -12    1    3    3    0    0 -0.22980111154E+02 -0.29041469673E+02 -0.16783115199E+02  0.40659137045E+02  0.00000000000E+00 0.  1.
         11    1    4    4    0    0  0.17008090563E+02  0.15308526782E+02  0.58487948657E+01  0.23618521090E+02  0.51100000000E-03 0. -1.
        -11    1    4    4    0    0  0.71759138631E+01 -0.17562574629E+01  0.83703569152E+01  0.11164275847E+02  0.51100000000E-03 0.  1.
         12    1    4    4    0    0 -0.12038932721E+01  0.15489200354E+02  0.25639634180E+01  0.15746066018E+02  0.00000000000E+00 0. -1.
</event>
<event>
 8    1  0.9870402E-014  0.9118800E+02  0.7816164E-02  0.1184000E+00
        -11   -1    0    0    0    0  0.00000000000E+00  0.00000000000E+00  0.45593999997E+02  0.45594000000E+02  0.51100000000E-03 0.  1.
         11   -1    0    0    0    0 -0.00000000000E+00 -0.00000000000E+00 -0.45593999997E+02  0.45594000000E+02  0.51100000000E-03 0. -1.
         23    2    1    2    0    0 -0.17763568394E-14  0.71054273576E-14  0.00000000000E+00  0.91188000000E+02  0.91188000000E+02 0.  0.
    9900012    2    3    3    0    0  0.13909857328E+02 -0.36185247642E+02 -0.12260054386E+02  0.50528865586E+02  0.30000017434E+02 0.  0.
         12    1    3    3    0    0 -0.13909857328E+02  0.36185247642E+02  0.12260054386E+02  0.40659134414E+02  0.00000000000E+00 0. -1.
         11    1    4    4    0    0  0.72415140315E+01 -0.99956134492E+01  0.54416001162E+01  0.13489359725E+02  0.51100000000E-03 0. -1.
        -11    1    4    4    0    0 -0.50977388135E+01 -0.10415918252E+02 -0.17922210789E+01  0.11734153174E+02  0.51100000000E-03 0.  1.
         12    1    4    4    0    0  0.11766082110E+02 -0.15773715941E+02 -0.15909433423E+02  0.25305352687E+02  0.00000000000E+00 0. -1.
</event>
<event>
 8    1  0.9870402E-014  0.9118800E+02  0.7816164E-02  0.1184000E+00
        -11   -1    0    0    0    0  0.00000000000E+00  0.00000000000E+00  0.45593999997E+02  0.45594000000E+02  0.51100000000E-03 0. -1.
         11   -1    0    0    0    0 -0.00000000000E+00 -0.00000000000E+00 -0.45593999997E+02  0.45594000000E+02  0.51100000000E-03 0.  1.
         23    2    1    2    0    0 -0.35527136788E-14  0.88817841970E-15  0.35527136788E-14  0.91188000000E+02  0.91188000000E+02 0.  0.
    9900012    2    3    3    0    0  0.28312815421E+02  0.45037053369E+01  0.28831695217E+02  0.50528861692E+02  0.30000005600E+02 0.  0.
        -12    1    3    3    0    0 -0.28312815421E+02 -0.45037053369E+01 -0.28831695217E+02  0.40659138308E+02  0.00000000000E+00 0.  1.
         11    1    4    4    0    0  0.13785169324E+02  0.37293853987E+01  0.46234369582E+01  0.15010508929E+02  0.51100000000E-03 0. -1.
        -11    1    4    4    0    0  0.16247674775E+02 -0.71000249340E+01  0.18611434314E+02  0.25705695422E+02  0.51100000000E-03 0.  1.
        -12    1    4    4    0    0 -0.17200286779E+01  0.78743448722E+01  0.55968239447E+01  0.98126573408E+01  0.00000000000E+00 0.  1.
</event>
<event>
 8    1  0.9870402E-014  0.9118800E+02  0.7816164E-02  0.1184000E+00
        -11   -1    0    0    0    0  0.00000000000E+00  0.00000000000E+00  0.45593999997E+02  0.45594000000E+02  0.51100000000E-03 0. -1.
         11   -1    0    0    0    0 -0.00000000000E+00 -0.00000000000E+00 -0.45593999997E+02  0.45594000000E+02  0.51100000000E-03 0.  1.
         23    2    1    2    0    0  0.00000000000E+00  0.00000000000E+00 -0.35527136788E-14  0.91188000000E+02  0.91188000000E+02 0.  0.
    9900012    2    3    3    0    0  0.27278444245E+02 -0.13006626365E+02 -0.27200681511E+02  0.50528893707E+02  0.30000102913E+02 0.  0.
         12    1    3    3    0    0 -0.27278444245E+02  0.13006626365E+02  0.27200681511E+02  0.40659106293E+02  0.00000000000E+00 0. -1.
         11    1    4    4    0    0  0.12103034684E+02 -0.62723709192E+01  0.29643682434E+01  0.13950396584E+02  0.51100000000E-03 0. -1.
        -11    1    4    4    0    0 -0.43347196149E+00  0.25025935714E+01 -0.33013712395E+01  0.41653240987E+01  0.51100000000E-03 0.  1.
        -12    1    4    4    0    0  0.15608881522E+02 -0.92368490174E+01 -0.26863678515E+02  0.32413173024E+02  0.00000000000E+00 0.  1.
</event>
<event>
 8    1  0.9870402E-014  0.9118800E+02  0.7816164E-02  0.1184000E+00
        -11   -1    0    0    0    0  0.00000000000E+00  0.00000000000E+00  0.45593999997E+02  0.45594000000E+02  0.51100000000E-03 0.  1.
         11   -1    0    0    0    0 -0.00000000000E+00 -0.00000000000E+00 -0.45593999997E+02  0.45594000000E+02  0.51100000000E-03 0. -1.
         23    2    1    2    0    0  0.00000000000E+00  0.17763568394E-14  0.17763568394E-14  0.91188000000E+02  0.91188000000E+02 0.  0.
    9900012    2    3    3    0    0 -0.37541339274E+02  0.92505546555E+01  0.12579166667E+02  0.50528925368E+02  0.30000199147E+02 0.  0.
         12    1    3    3    0    0  0.37541339274E+02 -0.92505546555E+01 -0.12579166667E+02  0.40659074632E+02  0.00000000000E+00 0. -1.
         11    1    4    4    0    0 -0.28449984433E+01 -0.50861728144E+01 -0.10655007556E+01  0.59243955102E+01  0.51100000000E-03 0. -1.
        -11    1    4    4    0    0 -0.21794282262E+02 -0.11695702878E+01  0.10386902569E+02  0.24171189032E+02  0.51100000000E-03 0.  1.
        -12    1    4    4    0    0 -0.12902058568E+02  0.15506297758E+02  0.32577648537E+01  0.20433340826E+02  0.00000000000E+00 0.  1.
</event>
<event>
 8    1  0.9870402E-014  0.9118800E+02  0.7816164E-02  0.1184000E+00
        -11   -1    0    0    0    0  0.00000000000E+00  0.00000000000E+00  0.45593999997E+02  0.45594000000E+02  0.51100000000E-03 0. -1.
         11   -1    0    0    0    0 -0.00000000000E+00 -0.00000000000E+00 -0.45593999997E+02  0.45594000000E+02  0.51100000000E-03 0.  1.
         23    2    1    2    0    0  0.00000000000E+00  0.00000000000E+00  0.00000000000E+00  0.91188000000E+02  0.91188000000E+02 0.  0.
    9900012    2    3    3    0    0 -0.27058483032E+01 -0.65114357512E+01  0.40042988548E+02  0.50528913163E+02  0.30000162050E+02 0.  0.
        -12    1    3    3    0    0  0.27058483032E+01  0.65114357512E+01 -0.40042988548E+02  0.40659086837E+02  0.00000000000E+00 0.  1.
         11    1    4    4    0    0 -0.14501232690E+01  0.87140188020E+01  0.90157652648E+01  0.12622242461E+02  0.51100000000E-03 0. -1.
        -11    1    4    4    0    0  0.16132889430E+01 -0.35774206087E+01 -0.70088189000E+00  0.39864614773E+01  0.51100000000E-03 0.  1.
         12    1    4    4    0    0 -0.28690139771E+01 -0.11648033945E+02  0.31728105173E+02  0.33920209225E+02  0.00000000000E+00 0. -1.
</event>
<event>
 8    1  0.9870402E-014  0.9118800E+02  0.7816164E-02  0.1184000E+00
        -11   -1    0    0    0    0  0.00000000000E+00  0.00000000000E+00  0.45593999997E+02  0.45594000000E+02  0.51100000000E-03 0. -1.
         11   -1    0    0    0    0 -0.00000000000E+00 -0.00000000000E+00 -0.45593999997E+02  0.45594000000E+02  0.51100000000E-03 0.  1.
         23    2    1    2    0    0 -0.71054273576E-14 -0.88817841970E-15  0.17763568394E-14  0.91188000000E+02  0.91188000000E+02 0.  0.
    9900012    2    3    3    0    0  0.37603500146E+02 -0.77932273014E+01  0.13356943126E+02  0.50528861486E+02  0.30000004974E+02 0.  0.
        -12    1    3    3    0    0 -0.37603500146E+02  0.77932273014E+01 -0.13356943126E+02  0.40659138514E+02  0.00000000000E+00 0.  1.
         11    1    4    4    0    0  0.74542640420E+01 -0.10124831398E+02  0.75508601187E+01  0.14666074868E+02  0.51100000000E-03 0. -1.
        -11    1    4    4    0    0  0.12330303911E+02 -0.18899779382E+01 -0.62357599717E+01  0.13946078798E+02  0.51100000000E-03 0.  1.
         12    1    4    4    0    0  0.17818932193E+02  0.42215820344E+01  0.12041842979E+02  0.21916707821E+02  0.00000000000E+00 0. -1.
</event>
<event>
 8    1  0.9870402E-014  0.9118800E+02  0.7816164E-02  0.1184000E+00
        -11   -1    0    0    0    0  0.00000000000E+00  0.00000000000E+00  0.45593999997E+02  0.45594000000E+02  0.51100000000E-03 0. -1.
         11   -1    0    0    0    0 -0.00000000000E+00 -0.00000000000E+00 -0.45593999997E+02  0.45594000000E+02  0.51100000000E-03 0.  1.
         23    2    1    2    0    0  0.00000000000E+00  0.35527136788E-14  0.00000000000E+00  0.91188000000E+02  0.91188000000E+02 0.  0.
    9900012    2    3    3    0    0 -0.15224386660E+02  0.21171819469E+02  0.31195159010E+02  0.50528857922E+02  0.29999994141E+02 0.  0.
        -12    1    3    3    0    0  0.15224386660E+02 -0.21171819469E+02 -0.31195159010E+02  0.40659142078E+02  0.00000000000E+00 0.  1.
         11    1    4    4    0    0 -0.10024255098E+02  0.14055272170E+02  0.29847458336E+02  0.34480532702E+02  0.51100000000E-03 0. -1.
        -11    1    4    4    0    0  0.28244059111E+01 -0.16088485842E+01 -0.18896794179E+01  0.37598605135E+01  0.51100000000E-03 0.  1.
        -12    1    4    4    0    0 -0.80245374732E+01  0.87253958835E+01  0.32373800920E+01  0.12288464707E+02  0.00000000000E+00 0.  1.
</event>
<event>
 8    1  0.9870402E-014  0.9118800E+02  0.7816164E-02  0.1184000E+00
        -11   -1    0    0    0    0  0.00000000000E+00  0.00000000000E+00  0.45593999997E+02  0.45594000000E+02  0.51100000000E-03 0. -1.
         11   -1    0    0    0    0 -0.00000000000E+00 -0.00000000000E+00 -0.45593999997E+02  0.45594000000E+02  0.51100000000E-03 0.  1.
         23    2    1    2    0    0  0.00000000000E+00  0.00000000000E+00 -0.35527136788E-14  0.91188000000E+02  0.91188000000E+02 0.  0.
    9900012    2    3    3    0    0 -0.21283270368E+02 -0.19920046688E+02  0.28343950908E+02  0.50528863134E+02  0.30000009983E+02 0.  0.
        -12    1    3    3    0    0  0.21283270368E+02  0.19920046688E+02 -0.28343950908E+02  0.40659136866E+02  0.00000000000E+00 0.  1.
         11    1    4    4    0    0 -0.82191569636E+01 -0.40770496981E+01  0.73857444384E+01  0.11778204303E+02  0.51100000000E-03 0. -1.
        -11    1    4    4    0    0 -0.71780025366E+01 -0.77438141504E+01 -0.44368328080E+01  0.11453203204E+02  0.51100000000E-03 0.  1.
        -12    1    4    4    0    0 -0.58861108676E+01 -0.80991828395E+01  0.25395039277E+02  0.27297455627E+02  0.00000000000E+00 0.  1.
</event>
<event>
 8    1  0.9870402E-014  0.9118800E+02  0.7816164E-02  0.1184000E+00
        -11   -1    0    0    0    0  0.00000000000E+00  0.00000000000E+00  0.45593999997E+02  0.45594000000E+02  0.51100000000E-03 0. -1.
         11   -1    0    0    0    0 -0.00000000000E+00 -0.00000000000E+00 -0.45593999997E+02  0.45594000000E+02  0.51100000000E-03 0.  1.
         23    2    1    2    0    0  0.35527136788E-14 -0.17763568394E-14  0.35527136788E-14  0.91188000000E+02  0.91188000000E+02 0.  0.
    9900012    2    3    3    0    0 -0.30413715746E+02  0.93655825244E+01 -0.25307261610E+02  0.50528859187E+02  0.29999997984E+02 0.  0.
         12    1    3    3    0    0  0.30413715746E+02 -0.93655825244E+01  0.25307261610E+02  0.40659140813E+02  0.00000000000E+00 0. -1.
         11    1    4    4    0    0 -0.17557962739E+02  0.75167115229E+01 -0.21938074908E+02  0.29087147310E+02  0.51100000000E-03 0. -1.
        -11    1    4    4    0    0 -0.39735073107E+01 -0.42137742173E+01 -0.78803335018E+01  0.97797908905E+01  0.51100000000E-03 0.  1.
         12    1    4    4    0    0 -0.88822456957E+01  0.60626452188E+01  0.45111467997E+01  0.11661920987E+02  0.00000000000E+00 0. -1.
</event>
<event>
 8    1  0.9870402E-014  0.9118800E+02  0.7816164E-02  0.1184000E+00
        -11   -1    0    0    0    0  0.00000000000E+00  0.00000000000E+00  0.45593999997E+02  0.45594000000E+02  0.51100000000E-03 0.  1.
         11   -1    0    0    0    0 -0.00000000000E+00 -0.00000000000E+00 -0.45593999997E+02  0.45594000000E+02  0.51100000000E-03 0. -1.
         23    2    1    2    0    0  0.00000000000E+00  0.35527136788E-14  0.00000000000E+00  0.91188000000E+02  0.91188000000E+02 0.  0.
    9900012    2    3    3    0    0 -0.22309391381E+02  0.29186487374E+02 -0.17424301710E+02  0.50528852455E+02  0.29999977522E+02 0.  0.
         12    1    3    3    0    0  0.22309391381E+02 -0.29186487374E+02  0.17424301710E+02  0.40659147545E+02  0.00000000000E+00 0. -1.
         11    1    4    4    0    0 -0.30803004370E+01 -0.19314333312E+01  0.23298718077E+01  0.43182158812E+01  0.51100000000E-03 0. -1.
        -11    1    4    4    0    0 -0.16484095770E+02  0.82985906742E+01 -0.59052263870E+01  0.19376886217E+02  0.51100000000E-03 0.  1.
         12    1    4    4    0    0 -0.27449951741E+01  0.22819330031E+02 -0.13848947131E+02  0.26833750357E+02  0.00000000000E+00 0. -1.
</event>
<event>
 8    1  0.9870402E-014  0.9118800E+02  0.7816164E-02  0.1184000E+00
        -11   -1    0    0    0    0  0.00000000000E+00  0.00000000000E+00  0.45593999997E+02  0.45594000000E+02  0.51100000000E-03 0. -1.
         11   -1    0    0    0    0 -0.00000000000E+00 -0.00000000000E+00 -0.45593999997E+02  0.45594000000E+02  0.51100000000E-03 0.  1.
         23    2    1    2    0    0 -0.35527136788E-14  0.00000000000E+00  0.55511151231E-15  0.91188000000E+02  0.91188000000E+02 0.  0.
    9900012    2    3    3    0    0  0.30105028116E+02  0.27328171939E+02  0.15425159906E+00  0.50528862122E+02  0.30000006906E+02 0.  0.
        -12    1    3    3    0    0 -0.30105028116E+02 -0.27328171939E+02 -0.15425159906E+00  0.40659137878E+02  0.00000000000E+00 0.  1.
         11    1    4    4    0    0  0.26219245280E+02  0.25607758960E+02 -0.16323304887E+01  0.36686109702E+02  0.51100000000E-03 0. -1.
        -11    1    4    4    0    0  0.24774001348E+01  0.47352368219E+01 -0.43309748327E+01  0.68787587870E+01  0.51100000000E-03 0.  1.
         12    1    4    4    0    0  0.14083827018E+01 -0.30148238430E+01  0.61175569205E+01  0.69639936326E+01  0.00000000000E+00 0. -1.
</event>
<event>
 8    1  0.9870402E-014  0.9118800E+02  0.7816164E-02  0.1184000E+00
        -11   -1    0    0    0    0  0.00000000000E+00  0.00000000000E+00  0.45593999997E+02  0.45594000000E+02  0.51100000000E-03 0. -1.
         11   -1    0    0    0    0 -0.00000000000E+00 -0.00000000000E+00 -0.45593999997E+02  0.45594000000E+02  0.51100000000E-03 0.  1.
         23    2    1    2    0    0 -0.88817841970E-15  0.55511151231E-15  0.00000000000E+00  0.91188000000E+02  0.91188000000E+02 0.  0.
    9900012    2    3    3    0    0 -0.44541452913E+01  0.60079583658E+00  0.40409967880E+02  0.50528857486E+02  0.29999992813E+02 0.  0.
        -12    1    3    3    0    0  0.44541452913E+01 -0.60079583658E+00 -0.40409967880E+02  0.40659142514E+02  0.00000000000E+00 0.  1.
         11    1    4    4    0    0 -0.12874568572E+02 -0.47099995436E+01  0.17701667657E+02  0.22389453984E+02  0.51100000000E-03 0. -1.
        -11    1    4    4    0    0  0.50897842003E+01  0.11294146476E+01  0.43289480743E+00  0.52315273895E+01  0.51100000000E-03 0.  1.
         12    1    4    4    0    0  0.33306390803E+01  0.41813807325E+01  0.22275405416E+02  0.22907876112E+02  0.00000000000E+00 0. -1.
</event>
<event>
 8    1  0.9870402E-014  0.9118800E+02  0.7816164E-02  0.1184000E+00
        -11   -1    0    0    0    0  0.00000000000E+00  0.00000000000E+00  0.45593999997E+02  0.45594000000E+02  0.51100000000E-03 0. -1.
         11   -1    0    0    0    0 -0.00000000000E+00 -0.00000000000E+00 -0.45593999997E+02  0.45594000000E+02  0.51100000000E-03 0.  1.
         23    2    1    2    0    0  0.00000000000E+00  0.00000000000E+00 -0.17763568394E-14  0.91188000000E+02  0.91188000000E+02 0.  0.
    9900012    2    3    3    0    0  0.28919592525E+02  0.23722913275E+02  0.15938847486E+02  0.50528852133E+02  0.29999976544E+02 0.  0.
        -12    1    3    3    0    0 -0.28919592525E+02 -0.23722913275E+02 -0.15938847486E+02  0.40659147867E+02  0.00000000000E+00 0.  1.
         11    1    4    4    0    0 -0.81695232431E+00  0.87508393420E+01 -0.80975218548E+00  0.88261146125E+01  0.51100000000E-03 0. -1.
        -11    1    4    4    0    0  0.11173460308E+01 -0.37021954269E+01  0.62594204971E+00  0.39174630620E+01  0.51100000000E-03 0.  1.
         12    1    4    4    0    0  0.28619198819E+02  0.18674269360E+02  0.16122657621E+02  0.37785274459E+02  0.00000000000E+00 0. -1.
</event>
<event>
 8    1  0.9870402E-014  0.9118800E+02  0.7816164E-02  0.1184000E+00
        -11   -1    0    0    0    0  0.00000000000E+00  0.00000000000E+00  0.45593999997E+02  0.45594000000E+02  0.51100000000E-03 0. -1.
         11   -1    0    0    0    0 -0.00000000000E+00 -0.00000000000E+00 -0.45593999997E+02  0.45594000000E+02  0.51100000000E-03 0.  1.
         23    2    1    2    0    0 -0.17763568394E-14  0.00000000000E+00 -0.71054273576E-14  0.91188000000E+02  0.91188000000E+02 0.  0.
    9900012    2    3    3    0    0  0.11475091516E+02 -0.24442336031E+01  0.38929605194E+02  0.50528853873E+02  0.29999981834E+02 0.  0.
        -12    1    3    3    0    0 -0.11475091516E+02  0.24442336031E+01 -0.38929605194E+02  0.40659146127E+02  0.00000000000E+00 0.  1.
         11    1    4    4    0    0  0.56370565368E+01  0.29154478289E+01  0.12697391274E+01  0.64721310366E+01  0.51100000000E-03 0. -1.
        -11    1    4    4    0    0 -0.52828758355E+01 -0.31436933378E+01  0.17392965548E+01  0.63887978261E+01  0.51100000000E-03 0.  1.
         12    1    4    4    0    0  0.11120910815E+02 -0.22159880943E+01  0.35920569511E+02  0.37667925011E+02  0.00000000000E+00 0. -1.
</event>
<event>
 8    1  0.9870402E-014  0.9118800E+02  0.7816164E-02  0.1184000E+00
        -11   -1    0    0    0    0  0.00000000000E+00  0.00000000000E+00  0.45593999997E+02  0.45594000000E+02  0.51100000000E-03 0. -1.
         11   -1    0    0    0    0 -0.00000000000E+00 -0.00000000000E+00 -0.45593999997E+02  0.45594000000E+02  0.51100000000E-03 0.  1.
         23    2    1    2    0    0 -0.35527136788E-14  0.00000000000E+00  0.00000000000E+00  0.91188000000E+02  0.91188000000E+02 0.  0.
    9900012    2    3    3    0    0 -0.21790803139E+02 -0.17397446275E+01 -0.34282669258E+02  0.50528840832E+02  0.29999942191E+02 0.  0.
         12    1    3    3    0    0  0.21790803139E+02  0.17397446275E+01  0.34282669258E+02  0.40659159168E+02  0.00000000000E+00 0. -1.
         11    1    4    4    0    0  0.37433810991E+01  0.12420564301E+01 -0.88321525843E+01  0.96727723928E+01  0.51100000000E-03 0. -1.
        -11    1    4    4    0    0 -0.16416220534E+02  0.33502917944E+01 -0.24544915854E+02  0.29718170304E+02  0.51100000000E-03 0.  1.
        -12    1    4    4    0    0 -0.91179637046E+01 -0.63320928521E+01 -0.90560082025E+00  0.11137898134E+02  0.00000000000E+00 0.  1.
</event>
<event>
 8    1  0.9870402E-014  0.9118800E+02  0.7816164E-02  0.1184000E+00
        -11   -1    0    0    0    0  0.00000000000E+00  0.00000000000E+00  0.45593999997E+02  0.45594000000E+02  0.51100000000E-03 0. -1.
         11   -1    0    0    0    0 -0.00000000000E+00 -0.00000000000E+00 -0.45593999997E+02  0.45594000000E+02  0.51100000000E-03 0.  1.
         23    2    1    2    0    0  0.00000000000E+00  0.00000000000E+00 -0.71054273576E-14  0.91188000000E+02  0.91188000000E+02 0.  0.
    9900012    2    3    3    0    0  0.12174241756E+02 -0.12959304786E+02 -0.36565146021E+02  0.50528860236E+02  0.30000001172E+02 0.  0.
         12    1    3    3    0    0 -0.12174241756E+02  0.12959304786E+02  0.36565146021E+02  0.40659139764E+02  0.00000000000E+00 0. -1.
         11    1    4    4    0    0  0.11966445763E+02 -0.92544568996E+01 -0.11646415237E+02  0.19091353667E+02  0.51100000000E-03 0. -1.
        -11    1    4    4    0    0 -0.54247390476E+01 -0.94825702904E+01 -0.16385324715E+02  0.19693293257E+02  0.51100000000E-03 0.  1.
         12    1    4    4    0    0  0.56325350410E+01  0.57777224042E+01 -0.85334060682E+01  0.11744213311E+02  0.00000000000E+00 0. -1.
</event>
<event>
 8    1  0.9870402E-014  0.9118800E+02  0.7816164E-02  0.1184000E+00
        -11   -1    0    0    0    0  0.00000000000E+00  0.00000000000E+00  0.45593999997E+02  0.45594000000E+02  0.51100000000E-03 0. -1.
         11   -1    0    0    0    0 -0.00000000000E+00 -0.00000000000E+00 -0.45593999997E+02  0.45594000000E+02  0.51100000000E-03 0.  1.
         23    2    1    2    0    0  0.35527136788E-14  0.00000000000E+00  0.00000000000E+00  0.91188000000E+02  0.91188000000E+02 0.  0.
    9900012    2    3    3    0    0  0.15663187685E+02  0.89914604544E+01  0.36427801283E+02  0.50528849544E+02  0.29999968673E+02 0.  0.
        -12    1    3    3    0    0 -0.15663187685E+02 -0.89914604544E+01 -0.36427801283E+02  0.40659150456E+02  0.00000000000E+00 0.  1.
         11    1    4    4    0    0 -0.63552933988E+00  0.20252426392E+01  0.14887604952E+02  0.15038161016E+02  0.51100000000E-03 0. -1.
        -11    1    4    4    0    0 -0.20671885419E+01 -0.41125875928E+01 -0.62701127335E+00  0.46454051033E+01  0.51100000000E-03 0.  1.
        -12    1    4    4    0    0  0.18365905566E+02  0.11078805408E+02  0.22167207604E+02  0.30845283424E+02  0.00000000000E+00 0.  1.
</event>
<event>
 8    1  0.9870402E-014  0.9118800E+02  0.7816164E-02  0.1184000E+00
        -11   -1    0    0    0    0  0.00000000000E+00  0.00000000000E+00  0.45593999997E+02  0.45594000000E+02  0.51100000000E-03 0. -1.
         11   -1    0    0    0    0 -0.00000000000E+00 -0.00000000000E+00 -0.45593999997E+02  0.45594000000E+02  0.51100000000E-03 0.  1.
         23    2    1    2    0    0  0.35527136788E-14 -0.71054273576E-14  0.35527136788E-14  0.91188000000E+02  0.91188000000E+02 0.  0.
    9900012    2    3    3    0    0 -0.16863943482E+02  0.29331839165E+02 -0.22548100500E+02  0.50528853246E+02  0.29999979928E+02 0.  0.
         12    1    3    3    0    0  0.16863943482E+02 -0.29331839165E+02  0.22548100500E+02  0.40659146754E+02  0.00000000000E+00 0. -1.
         11    1    4    4    0    0  0.13747853410E+00  0.73800224092E+01 -0.30255255515E+00  0.73875008912E+01  0.51100000000E-03 0. -1.
        -11    1    4    4    0    0  0.42804904373E+00  0.16678327917E+02 -0.17800539402E+02  0.24396906593E+02  0.51100000000E-03 0.  1.
         12    1    4    4    0    0 -0.17429471060E+02  0.52734888393E+01 -0.44450085433E+01  0.18744445762E+02  0.00000000000E+00 0. -1.
</event>
<event>
 8    1  0.9870402E-014  0.9118800E+02  0.7816164E-02  0.1184000E+00
        -11   -1    0    0    0    0  0.00000000000E+00  0.00000000000E+00  0.45593999997E+02  0.45594000000E+02  0.51100000000E-03 0. -1.
         11   -1    0    0    0    0 -0.00000000000E+00 -0.00000000000E+00 -0.45593999997E+02  0.45594000000E+02  0.51100000000E-03 0.  1.
         23    2    1    2    0    0 -0.22204460493E-15  0.00000000000E+00  0.71054273576E-14  0.91188000000E+02  0.91188000000E+02 0.  0.
    9900012    2    3    3    0    0  0.95199040085E+00  0.18471526784E+02  0.36208599082E+02  0.50528852998E+02  0.29999979173E+02 0.  0.
        -12    1    3    3    0    0 -0.95199040085E+00 -0.18471526784E+02 -0.36208599082E+02  0.40659147002E+02  0.00000000000E+00 0.  1.
         11    1    4    4    0    0  0.10904779535E+01 -0.50940302672E+01  0.39442255519E+01  0.65341565635E+01  0.51100000000E-03 0. -1.
        -11    1    4    4    0    0  0.32071774898E+01  0.40956935130E+01  0.20172876133E+02  0.20832801648E+02  0.51100000000E-03 0.  1.
        -12    1    4    4    0    0 -0.33456650425E+01  0.19469863538E+02  0.12091497397E+02  0.23161894786E+02  0.00000000000E+00 0.  1.
</event>
<event>
 8    1  0.9870402E-014  0.9118800E+02  0.7816164E-02  0.1184000E+00
        -11   -1    0    0    0    0  0.00000000000E+00  0.00000000000E+00  0.45593999997E+02  0.45594000000E+02  0.51100000000E-03 0. -1.
         11   -1    0    0    0    0 -0.00000000000E+00 -0.00000000000E+00 -0.45593999997E+02  0.45594000000E+02  0.51100000000E-03 0.  1.
         23    2    1    2    0    0 -0.17763568394E-14  0.00000000000E+00  0.17763568394E-14  0.91188000000E+02  0.91188000000E+02 0.  0.
    9900012    2    3    3    0    0 -0.15669813831E+02 -0.36291485437E+02  0.95163461324E+01  0.50528735073E+02  0.29999620725E+02 0.  0.
        -12    1    3    3    0    0  0.15669813831E+02  0.36291485437E+02 -0.95163461324E+01  0.40659264927E+02  0.00000000000E+00 0.  1.
         11    1    4    4    0    0  0.17583465329E+01 -0.10813168771E+00 -0.24078929949E+01  0.29835254193E+01  0.51100000000E-03 0. -1.
        -11    1    4    4    0    0 -0.53209996153E+01 -0.25636554201E+02 -0.20446294165E+01  0.26262643772E+02  0.51100000000E-03 0.  1.
         12    1    4    4    0    0 -0.12107160749E+02 -0.10546799548E+02  0.13968868544E+02  0.21282565881E+02  0.00000000000E+00 0. -1.
</event>
<event>
 8    1  0.9870402E-014  0.9118800E+02  0.7816164E-02  0.1184000E+00
        -11   -1    0    0    0    0  0.00000000000E+00  0.00000000000E+00  0.45593999997E+02  0.45594000000E+02  0.51100000000E-03 0.  1.
         11   -1    0    0    0    0 -0.00000000000E+00 -0.00000000000E+00 -0.45593999997E+02  0.45594000000E+02  0.51100000000E-03 0. -1.
         23    2    1    2    0    0  0.00000000000E+00  0.00000000000E+00  0.00000000000E+00  0.91188000000E+02  0.91188000000E+02 0.  0.
    9900012    2    3    3    0    0  0.86349224720E+01  0.35770457792E+02  0.17293941463E+02  0.50528831930E+02  0.29999915136E+02 0.  0.
        -12    1    3    3    0    0 -0.86349224720E+01 -0.35770457792E+02 -0.17293941463E+02  0.40659168070E+02  0.00000000000E+00 0.  1.
         11    1    4    4    0    0  0.13824311228E+02  0.29642513831E+02  0.14457599422E+02  0.35760486413E+02  0.51100000000E-03 0. -1.
        -11    1    4    4    0    0 -0.19881405315E+01 -0.17004217149E+01  0.53412960119E+01  0.59475692623E+01  0.51100000000E-03 0.  1.
        -12    1    4    4    0    0 -0.32012482246E+01  0.78283656760E+01 -0.25049539705E+01  0.88207762554E+01  0.00000000000E+00 0.  1.
</event>
<event>
 8    1  0.9870402E-014  0.9118800E+02  0.7816164E-02  0.1184000E+00
        -11   -1    0    0    0    0  0.00000000000E+00  0.00000000000E+00  0.45593999997E+02  0.45594000000E+02  0.51100000000E-03 0. -1.
         11   -1    0    0    0    0 -0.00000000000E+00 -0.00000000000E+00 -0.45593999997E+02  0.45594000000E+02  0.51100000000E-03 0.  1.
         23    2    1    2    0    0  0.00000000000E+00 -0.35527136788E-14  0.00000000000E+00  0.91188000000E+02  0.91188000000E+02 0.  0.
    9900012    2    3    3    0    0  0.82457733719E+01  0.15979666522E+02 -0.36466745541E+02  0.50528855260E+02  0.29999986047E+02 0.  0.
         12    1    3    3    0    0 -0.82457733719E+01 -0.15979666522E+02  0.36466745541E+02  0.40659144740E+02  0.00000000000E+00 0. -1.
         11    1    4    4    0    0 -0.22195001783E+01  0.35440857327E+01 -0.65749173524E+01  0.77920641151E+01  0.51100000000E-03 0. -1.
        -11    1    4    4    0    0 -0.74080095607E+01  0.57170639079E+01 -0.31414566494E+01  0.98707738055E+01  0.51100000000E-03 0.  1.
        -12    1    4    4    0    0  0.17873283111E+02  0.67185168817E+01 -0.26750371539E+02  0.32866017339E+02  0.00000000000E+00 0.  1.
</event>
<event>
 8    1  0.9870402E-014  0.9118800E+02  0.7816164E-02  0.1184000E+00
        -11   -1    0    0    0    0  0.00000000000E+00  0.00000000000E+00  0.45593999997E+02  0.45594000000E+02  0.51100000000E-03 0. -1.
         11   -1    0    0    0    0 -0.00000000000E+00 -0.00000000000E+00 -0.45593999997E+02  0.45594000000E+02  0.51100000000E-03 0.  1.
         23    2    1    2    0    0  0.00000000000E+00 -0.17763568394E-14  0.00000000000E+00  0.91188000000E+02  0.91188000000E+02 0.  0.
    9900012    2    3    3    0    0  0.30006735395E+02 -0.15339421680E+02  0.22747799595E+02  0.50528875404E+02  0.30000047278E+02 0.  0.
        -12    1    3    3    0    0 -0.30006735395E+02  0.15339421680E+02 -0.22747799595E+02  0.40659124596E+02  0.00000000000E+00 0.  1.
         11    1    4    4    0    0  0.48531637256E+01  0.58007624336E+01  0.12059102750E+02  0.14234605803E+02  0.51100000000E-03 0. -1.
        -11    1    4    4    0    0  0.33457898878E+00 -0.27776307153E+01 -0.14124033423E+01  0.31340164251E+01  0.51100000000E-03 0.  1.
        -12    1    4    4    0    0  0.24818992680E+02 -0.18362553398E+02  0.12101100186E+02  0.33160253176E+02  0.00000000000E+00 0.  1.
</event>
<event>
 8    1  0.9870402E-014  0.9118800E+02  0.7816164E-02  0.1184000E+00
        -11   -1    0    0    0    0  0.00000000000E+00  0.00000000000E+00  0.45593999997E+02  0.45594000000E+02  0.51100000000E-03 0. -1.
         11   -1    0    0    0    0 -0.00000000000E+00 -0.00000000000E+00 -0.45593999997E+02  0.45594000000E+02  0.51100000000E-03 0.  1.
         23    2    1    2    0    0  0.00000000000E+00  0.00000000000E+00 -0.71054273576E-14  0.91188000000E+02  0.91188000000E+02 0.  0.
    9900012    2    3    3    0    0 -0.17808894628E+02 -0.12359002853E+02 -0.34398604442E+02  0.50528859982E+02  0.30000000402E+02 0.  0.
         12    1    3    3    0    0  0.17808894628E+02  0.12359002853E+02  0.34398604442E+02  0.40659140018E+02  0.00000000000E+00 0. -1.
         11    1    4    4    0    0  0.14221282840E+01 -0.10139020817E+01  0.23552294124E+00  0.17623613717E+01  0.51100000000E-03 0. -1.
        -11    1    4    4    0    0 -0.62993788939E+01 -0.17515740542E+02 -0.26203011273E+02  0.32141579632E+02  0.51100000000E-03 0.  1.
         12    1    4    4    0    0 -0.12931644018E+02  0.61706397705E+01 -0.84311161103E+01  0.16624918979E+02  0.00000000000E+00 0. -1.
</event>
<event>
 8    1  0.9870402E-014  0.9118800E+02  0.7816164E-02  0.1184000E+00
        -11   -1    0    0    0    0  0.00000000000E+00  0.00000000000E+00  0.45593999997E+02  0.45594000000E+02  0.51100000000E-03 0. -1.
         11   -1    0    0    0    0 -0.00000000000E+00 -0.00000000000E+00 -0.45593999997E+02  0.45594000000E+02  0.51100000000E-03 0.  1.
         23    2    1    2    0    0  0.00000000000E+00  0.00000000000E+00  0.00000000000E+00  0.91188000000E+02  0.91188000000E+02 0.  0.
    9900012    2    3    3    0    0  0.22967890871E+02  0.14239481879E+01  0.33520351227E+02  0.50528860980E+02  0.30000003435E+02 0.  0.
        -12    1    3    3    0    0 -0.22967890871E+02 -0.14239481879E+01 -0.33520351227E+02  0.40659139020E+02  0.00000000000E+00 0.  1.
         11    1    4    4    0    0  0.12389405832E+02 -0.61147799150E+01  0.13007936651E+02  0.18976151519E+02  0.51100000000E-03 0. -1.
        -11    1    4    4    0    0  0.92333030984E+01  0.82145515709E+01  0.14640220491E+01  0.12444922838E+02  0.51100000000E-03 0.  1.
         12    1    4    4    0    0  0.13451819399E+01 -0.67582346799E+00  0.19048392526E+02  0.19107786623E+02  0.00000000000E+00 0. -1.
</event>
<event>
 8    1  0.9870402E-014  0.9118800E+02  0.7816164E-02  0.1184000E+00
        -11   -1    0    0    0    0  0.00000000000E+00  0.00000000000E+00  0.45593999997E+02  0.45594000000E+02  0.51100000000E-03 0. -1.
         11   -1    0    0    0    0 -0.00000000000E+00 -0.00000000000E+00 -0.45593999997E+02  0.45594000000E+02  0.51100000000E-03 0.  1.
         23    2    1    2    0    0  0.35527136788E-14  0.00000000000E+00  0.35527136788E-14  0.91188000000E+02  0.91188000000E+02 0.  0.
    9900012    2    3    3    0    0  0.31055414088E+02  0.16370215172E+02 -0.20512029223E+02  0.50528855496E+02  0.29999986766E+02 0.  0.
         12    1    3    3    0    0 -0.31055414088E+02 -0.16370215172E+02  0.20512029223E+02  0.40659144504E+02  0.00000000000E+00 0. -1.
         11    1    4    4    0    0 -0.21298799004E+01 -0.37472606889E+00  0.18041820942E+01  0.28163595841E+01  0.51100000000E-03 0. -1.
        -11    1    4    4    0    0  0.28901510953E+02  0.87507381760E+01 -0.23893451189E+02  0.38506749590E+02  0.51100000000E-03 0.  1.
         12    1    4    4    0    0  0.42837830358E+01  0.79942030646E+01  0.15772398718E+01  0.92057463223E+01  0.00000000000E+00 0. -1.
</event>
<event>
 8    1  0.9870402E-014  0.9118800E+02  0.7816164E-02  0.1184000E+00
        -11   -1    0    0    0    0  0.00000000000E+00  0.00000000000E+00  0.45593999997E+02  0.45594000000E+02  0.51100000000E-03 0. -1.
         11   -1    0    0    0    0 -0.00000000000E+00 -0.00000000000E+00 -0.45593999997E+02  0.45594000000E+02  0.51100000000E-03 0.  1.
         23    2    1    2    0    0  0.00000000000E+00 -0.35527136788E-14  0.00000000000E+00  0.91188000000E+02  0.91188000000E+02 0.  0.
    9900012    2    3    3    0    0  0.23818383772E+02  0.16061889716E+02 -0.28772653974E+02  0.50528864206E+02  0.30000013241E+02 0.  0.
         12    1    3    3    0    0 -0.23818383772E+02 -0.16061889716E+02  0.28772653974E+02  0.40659135794E+02  0.00000000000E+00 0. -1.
         11    1    4    4    0    0  0.87196960124E+01  0.92245560030E+01 -0.99690748040E+00  0.12732609975E+02  0.51100000000E-03 0.  1.
        -11    1    4    4    0    0 -0.30379934177E+01 -0.35061900824E+01 -0.37446646277E+01  0.59619867775E+01  0.51100000000E-03 0. -1.
         12    1    4    4    0    0  0.18136681177E+02  0.10343523795E+02 -0.24031081866E+02  0.31834267453E+02  0.00000000000E+00 0. -1.
</event>
<event>
 8    1  0.9870402E-014  0.9118800E+02  0.7816164E-02  0.1184000E+00
        -11   -1    0    0    0    0  0.00000000000E+00  0.00000000000E+00  0.45593999997E+02  0.45594000000E+02  0.51100000000E-03 0. -1.
         11   -1    0    0    0    0 -0.00000000000E+00 -0.00000000000E+00 -0.45593999997E+02  0.45594000000E+02  0.51100000000E-03 0.  1.
         23    2    1    2    0    0 -0.35527136788E-14 -0.17763568394E-14  0.71054273576E-14  0.91188000000E+02  0.91188000000E+02 0.  0.
    9900012    2    3    3    0    0  0.18173491626E+02 -0.15395677874E+02 -0.32952427243E+02  0.50528866263E+02  0.30000019492E+02 0.  0.
         12    1    3    3    0    0 -0.18173491626E+02  0.15395677874E+02  0.32952427243E+02  0.40659133737E+02  0.00000000000E+00 0. -1.
         11    1    4    4    0    0  0.55637027307E+01 -0.15517756850E+02 -0.16136554930E+02  0.23068245946E+02  0.51100000000E-03 0. -1.
        -11    1    4    4    0    0 -0.35318397394E+01 -0.18791025744E+01  0.88822279472E-01  0.40016006907E+01  0.51100000000E-03 0.  1.
        -12    1    4    4    0    0  0.16141628635E+02  0.20011815506E+01 -0.16904694592E+02  0.23459019626E+02  0.00000000000E+00 0.  1.
</event>
<event>
 8    1  0.9870402E-014  0.9118800E+02  0.7816164E-02  0.1184000E+00
        -11   -1    0    0    0    0  0.00000000000E+00  0.00000000000E+00  0.45593999997E+02  0.45594000000E+02  0.51100000000E-03 0.  1.
         11   -1    0    0    0    0 -0.00000000000E+00 -0.00000000000E+00 -0.45593999997E+02  0.45594000000E+02  0.51100000000E-03 0. -1.
         23    2    1    2    0    0  0.00000000000E+00 -0.35527136788E-14  0.00000000000E+00  0.91188000000E+02  0.91188000000E+02 0.  0.
    9900012    2    3    3    0    0 -0.33500012812E+02 -0.21180411878E+02  0.90721866262E+01  0.50528864791E+02  0.30000015018E+02 0.  0.
         12    1    3    3    0    0  0.33500012812E+02  0.21180411878E+02 -0.90721866262E+01  0.40659135209E+02  0.00000000000E+00 0. -1.
         11    1    4    4    0    0 -0.96495478734E+01 -0.14281162064E+02 -0.91798991854E+01  0.19527824082E+02  0.51100000000E-03 0. -1.
        -11    1    4    4    0    0 -0.76319390820E+01 -0.36318667093E+01  0.51545710461E+01  0.98998259012E+01  0.51100000000E-03 0.  1.
         12    1    4    4    0    0 -0.16218525857E+02 -0.32673831054E+01  0.13097514766E+02  0.21101214808E+02  0.00000000000E+00 0. -1.
</event>
<event>
 8    1  0.9870402E-014  0.9118800E+02  0.7816164E-02  0.1184000E+00
        -11   -1    0    0    0    0  0.00000000000E+00  0.00000000000E+00  0.45593999997E+02  0.45594000000E+02  0.51100000000E-03 0. -1.
         11   -1    0    0    0    0 -0.00000000000E+00 -0.00000000000E+00 -0.45593999997E+02  0.45594000000E+02  0.51100000000E-03 0.  1.
         23    2    1    2    0    0  0.17763568394E-14  0.00000000000E+00  0.00000000000E+00  0.91188000000E+02  0.91188000000E+02 0.  0.
    9900012    2    3    3    0    0  0.13301683360E+02  0.33497895204E+02 -0.18818131295E+02  0.50528857993E+02  0.29999994356E+02 0.  0.
         12    1    3    3    0    0 -0.13301683360E+02 -0.33497895204E+02  0.18818131295E+02  0.40659142007E+02  0.00000000000E+00 0. -1.
         11    1    4    4    0    0 -0.38716743452E+01  0.17370075076E+02 -0.12002289064E+02  0.21465421343E+02  0.51100000000E-03 0. -1.
        -11    1    4    4    0    0  0.84260803943E+01  0.42404890113E+01 -0.10229599700E+02  0.13914930404E+02  0.51100000000E-03 0.  1.
         12    1    4    4    0    0  0.87472773109E+01  0.11887331116E+02  0.34137574695E+01  0.15148506246E+02  0.00000000000E+00 0. -1.
</event>
<event>
 8    1  0.9870402E-014  0.9118800E+02  0.7816164E-02  0.1184000E+00
        -11   -1    0    0    0    0  0.00000000000E+00  0.00000000000E+00  0.45593999997E+02  0.45594000000E+02  0.51100000000E-03 0. -1.
         11   -1    0    0    0    0 -0.00000000000E+00 -0.00000000000E+00 -0.45593999997E+02  0.45594000000E+02  0.51100000000E-03 0.  1.
         23    2    1    2    0    0 -0.17763568394E-14  0.00000000000E+00  0.00000000000E+00  0.91188000000E+02  0.91188000000E+02 0.  0.
    9900012    2    3    3    0    0  0.29716460368E+01  0.15629219253E+02  0.37417404815E+02  0.50528863786E+02  0.30000011963E+02 0.  0.
        -12    1    3    3    0    0 -0.29716460368E+01 -0.15629219253E+02 -0.37417404815E+02  0.40659136214E+02  0.00000000000E+00 0.  1.
         11    1    4    4    0    0 -0.34323632212E+01  0.52156054487E+01  0.16965916538E+02  0.18078329063E+02  0.51100000000E-03 0. -1.
        -11    1    4    4    0    0 -0.31442721194E+01 -0.56043109677E+01  0.39017176082E+01  0.75178553550E+01  0.51100000000E-03 0.  1.
         12    1    4    4    0    0  0.95482813774E+01  0.16017924772E+02  0.16549770668E+02  0.24932679368E+02  0.00000000000E+00 0. -1.
</event>
<event>
 8    1  0.9870402E-014  0.9118800E+02  0.7816164E-02  0.1184000E+00
        -11   -1    0    0    0    0  0.00000000000E+00  0.00000000000E+00  0.45593999997E+02  0.45594000000E+02  0.51100000000E-03 0. -1.
         11   -1    0    0    0    0 -0.00000000000E+00 -0.00000000000E+00 -0.45593999997E+02  0.45594000000E+02  0.51100000000E-03 0.  1.
         23    2    1    2    0    0  0.13322676296E-14  0.00000000000E+00  0.00000000000E+00  0.91188000000E+02  0.91188000000E+02 0.  0.
    9900012    2    3    3    0    0 -0.21084252368E+01  0.47409286465E+01 -0.40326714591E+02  0.50528858702E+02  0.29999996510E+02 0.  0.
         12    1    3    3    0    0  0.21084252368E+01 -0.47409286465E+01  0.40326714591E+02  0.40659141298E+02  0.00000000000E+00 0. -1.
         11    1    4    4    0    0  0.10177195325E+02  0.32229825801E+01 -0.10808291830E+02  0.15191513879E+02  0.51100000000E-03 0. -1.
        -11    1    4    4    0    0 -0.18429254766E+01 -0.61827199537E+01 -0.97783457845E+01  0.11714881428E+02  0.51100000000E-03 0.  1.
         12    1    4    4    0    0 -0.10442695085E+02  0.77006660201E+01 -0.19740076976E+02  0.23622463394E+02  0.00000000000E+00 0. -1.
</event>
<event>
 8    1  0.9870402E-014  0.9118800E+02  0.7816164E-02  0.1184000E+00
        -11   -1    0    0    0    0  0.00000000000E+00  0.00000000000E+00  0.45593999997E+02  0.45594000000E+02  0.51100000000E-03 0. -1.
         11   -1    0    0    0    0 -0.00000000000E+00 -0.00000000000E+00 -0.45593999997E+02  0.45594000000E+02  0.51100000000E-03 0.  1.
         23    2    1    2    0    0  0.71054273576E-14 -0.88817841970E-15 -0.88817841970E-15  0.91188000000E+02  0.91188000000E+02 0.  0.
    9900012    2    3    3    0    0  0.39920698775E+02 -0.50074069212E+01 -0.58683057517E+01  0.50528765783E+02  0.29999714072E+02 0.  0.
         12    1    3    3    0    0 -0.39920698775E+02  0.50074069212E+01  0.58683057517E+01  0.40659234217E+02  0.00000000000E+00 0. -1.
         11    1    4    4    0    0  0.21893135017E+02 -0.37907737744E+01  0.20661192794E+01  0.22314752425E+02  0.51100000000E-03 0. -1.
        -11    1    4    4    0    0  0.39000618508E+01  0.19340191625E+00  0.67438586264E+01  0.77927861626E+01  0.51100000000E-03 0.  1.
        -12    1    4    4    0    0  0.14127501907E+02 -0.14100350630E+01 -0.14678283658E+02  0.20421227195E+02  0.00000000000E+00 0.  1.
</event>
<event>
 8    1  0.9870402E-014  0.9118800E+02  0.7816164E-02  0.1184000E+00
        -11   -1    0    0    0    0  0.00000000000E+00  0.00000000000E+00  0.45593999997E+02  0.45594000000E+02  0.51100000000E-03 0. -1.
         11   -1    0    0    0    0 -0.00000000000E+00 -0.00000000000E+00 -0.45593999997E+02  0.45594000000E+02  0.51100000000E-03 0.  1.
         23    2    1    2    0    0  0.00000000000E+00  0.71054273576E-14 -0.31086244690E-14  0.91188000000E+02  0.91188000000E+02 0.  0.
    9900012    2    3    3    0    0  0.11198942893E+02 -0.38895260174E+02  0.38611204801E+01  0.50528857888E+02  0.29999994037E+02 0.  0.
        -12    1    3    3    0    0 -0.11198942893E+02  0.38895260174E+02 -0.38611204801E+01  0.40659142112E+02  0.00000000000E+00 0.  1.
         11    1    4    4    0    0  0.11429159292E+02 -0.28368101002E+02  0.50363350892E+01  0.30995798231E+02  0.51100000000E-03 0. -1.
        -11    1    4    4    0    0  0.83706874369E+00 -0.26171014226E+01  0.73546494294E+01  0.78511637627E+01  0.51100000000E-03 0.  1.
         12    1    4    4    0    0 -0.10672851429E+01 -0.79100577491E+01 -0.85298640384E+01  0.11681895894E+02  0.00000000000E+00 0. -1.
</event>
<event>
 8    1  0.9870402E-014  0.9118800E+02  0.7816164E-02  0.1184000E+00
        -11   -1    0    0    0    0  0.00000000000E+00  0.00000000000E+00  0.45593999997E+02  0.45594000000E+02  0.51100000000E-03 0. -1.
         11   -1    0    0    0    0 -0.00000000000E+00 -0.00000000000E+00 -0.45593999997E+02  0.45594000000E+02  0.51100000000E-03 0.  1.
         23    2    1    2    0    0  0.00000000000E+00  0.17763568394E-14 -0.35527136788E-14  0.91188000000E+02  0.91188000000E+02 0.  0.
    9900012    2    3    3    0    0  0.33420475393E+02  0.11498212268E+02 -0.20100423537E+02  0.50528879409E+02  0.30000059452E+02 0.  0.
         12    1    3    3    0    0 -0.33420475393E+02 -0.11498212268E+02  0.20100423537E+02  0.40659120591E+02  0.00000000000E+00 0. -1.
         11    1    4    4    0    0  0.51362479853E+01 -0.31089569359E+01 -0.11585949799E+02  0.13049171989E+02  0.51100000000E-03 0. -1.
        -11    1    4    4    0    0  0.22773632769E+02  0.23883606293E+01 -0.72374314163E+01  0.24015058396E+02  0.51100000000E-03 0.  1.
        -12    1    4    4    0    0  0.55105946385E+01  0.12218808574E+02 -0.12770423219E+01  0.13464649024E+02  0.00000000000E+00 0.  1.
</event>
<event>
 8    1  0.9870402E-014  0.9118800E+02  0.7816164E-02  0.1184000E+00
        -11   -1    0    0    0    0  0.00000000000E+00  0.00000000000E+00  0.45593999997E+02  0.45594000000E+02  0.51100000000E-03 0. -1.
         11   -1    0    0    0    0 -0.00000000000E+00 -0.00000000000E+00 -0.45593999997E+02  0.45594000000E+02  0.51100000000E-03 0.  1.
         23    2    1    2    0    0  0.00000000000E+00 -0.88817841970E-15  0.00000000000E+00  0.91188000000E+02  0.91188000000E+02 0.  0.
    9900012    2    3    3    0    0 -0.10489538362E+02 -0.46597417198E+01  0.39005410411E+02  0.50528860200E+02  0.30000001063E+02 0.  0.
        -12    1    3    3    0    0  0.10489538362E+02  0.46597417198E+01 -0.39005410411E+02  0.40659139800E+02  0.00000000000E+00 0.  1.
         11    1    4    4    0    0  0.75094781186E+01 -0.39834650181E+01  0.61945833676E+01  0.10518227917E+02  0.51100000000E-03 0. -1.
        -11    1    4    4    0    0 -0.25466850675E+01 -0.58265584582E+01  0.67087532389E+01  0.92434711328E+01  0.51100000000E-03 0.  1.
         12    1    4    4    0    0 -0.15452331413E+02  0.51502817566E+01  0.26102073805E+02  0.30767161149E+02  0.00000000000E+00 0. -1.
</event>
<event>
 8    1  0.9870402E-014  0.9118800E+02  0.7816164E-02  0.1184000E+00
        -11   -1    0    0    0    0  0.00000000000E+00  0.00000000000E+00  0.45593999997E+02  0.45594000000E+02  0.51100000000E-03 0.  1.
         11   -1    0    0    0    0 -0.00000000000E+00 -0.00000000000E+00 -0.45593999997E+02  0.45594000000E+02  0.51100000000E-03 0. -1.
         23    2    1    2    0    0  0.00000000000E+00 -0.35527136788E-14  0.00000000000E+00  0.91188000000E+02  0.91188000000E+02 0.  0.
    9900012    2    3    3    0    0 -0.20917034708E+02  0.29527282538E+02 -0.18541395284E+02  0.50528854729E+02  0.29999984435E+02 0.  0.
        -12    1    3    3    0    0  0.20917034708E+02 -0.29527282538E+02  0.18541395284E+02  0.40659145271E+02  0.00000000000E+00 0.  1.
         11    1    4    4    0    0 -0.95405101364E+01 -0.49083953344E+00 -0.17265362941E+01  0.97078929200E+01  0.51100000000E-03 0. -1.
        -11    1    4    4    0    0  0.42659456614E+01  0.37633206034E+01 -0.63310251854E+01  0.85113309481E+01  0.51100000000E-03 0.  1.
         12    1    4    4    0    0 -0.15642470233E+02  0.26254801468E+02 -0.10483833804E+02  0.32309630861E+02  0.00000000000E+00 0. -1.
</event>
<event>
 8    1  0.9870402E-014  0.9118800E+02  0.7816164E-02  0.1184000E+00
        -11   -1    0    0    0    0  0.00000000000E+00  0.00000000000E+00  0.45593999997E+02  0.45594000000E+02  0.51100000000E-03 0. -1.
         11   -1    0    0    0    0 -0.00000000000E+00 -0.00000000000E+00 -0.45593999997E+02  0.45594000000E+02  0.51100000000E-03 0.  1.
         23    2    1    2    0    0  0.13322676296E-14  0.00000000000E+00  0.00000000000E+00  0.91188000000E+02  0.91188000000E+02 0.  0.
    9900012    2    3    3    0    0 -0.22485357654E+01  0.22067260278E+02  0.34075594087E+02  0.50528855866E+02  0.29999987891E+02 0.  0.
        -12    1    3    3    0    0  0.22485357654E+01 -0.22067260278E+02 -0.34075594087E+02  0.40659144134E+02  0.00000000000E+00 0.  1.
         11    1    4    4    0    0  0.30658594131E+01 -0.26387441635E+01  0.28334359948E+01  0.49387067638E+01  0.51100000000E-03 0. -1.
        -11    1    4    4    0    0  0.65292746726E+01  0.90631280630E+00  0.69508868680E+01  0.95795437869E+01  0.51100000000E-03 0.  1.
         12    1    4    4    0    0 -0.11843669851E+02  0.23799691636E+02  0.24291271224E+02  0.36010605316E+02  0.00000000000E+00 0. -1.
</event>
<event>
 8    1  0.9870402E-014  0.9118800E+02  0.7816164E-02  0.1184000E+00
        -11   -1    0    0    0    0  0.00000000000E+00  0.00000000000E+00  0.45593999997E+02  0.45594000000E+02  0.51100000000E-03 0. -1.
         11   -1    0    0    0    0 -0.00000000000E+00 -0.00000000000E+00 -0.45593999997E+02  0.45594000000E+02  0.51100000000E-03 0.  1.
         23    2    1    2    0    0  0.00000000000E+00  0.00000000000E+00  0.00000000000E+00  0.91188000000E+02  0.91188000000E+02 0.  0.
    9900012    2    3    3    0    0 -0.34066423580E+02 -0.19163134498E+02 -0.11199039995E+02  0.50528862820E+02  0.30000009029E+02 0.  0.
         12    1    3    3    0    0  0.34066423580E+02  0.19163134498E+02  0.11199039995E+02  0.40659137180E+02  0.00000000000E+00 0. -1.
         11    1    4    4    0    0 -0.18599217838E+02  0.11869307820E+01  0.52815917282E+00  0.18644534353E+02  0.51100000000E-03 0. -1.
        -11    1    4    4    0    0 -0.16045799302E+02 -0.10071106511E+02 -0.50246362579E+01  0.19599536509E+02  0.51100000000E-03 0.  1.
        -12    1    4    4    0    0  0.57859355951E+00 -0.10278958769E+02 -0.67025629104E+01  0.12284791958E+02  0.00000000000E+00 0.  1.
</event>
<event>
 8    1  0.9870402E-014  0.9118800E+02  0.7816164E-02  0.1184000E+00
        -11   -1    0    0    0    0  0.00000000000E+00  0.00000000000E+00  0.45593999997E+02  0.45594000000E+02  0.51100000000E-03 0. -1.
         11   -1    0    0    0    0 -0.00000000000E+00 -0.00000000000E+00 -0.45593999997E+02  0.45594000000E+02  0.51100000000E-03 0.  1.
         23    2    1    2    0    0 -0.35527136788E-14  0.00000000000E+00  0.35527136788E-14  0.91188000000E+02  0.91188000000E+02 0.  0.
    9900012    2    3    3    0    0  0.20750177658E+02 -0.17551329593E+02 -0.30241466394E+02  0.50528864090E+02  0.30000012887E+02 0.  0.
         12    1    3    3    0    0 -0.20750177658E+02  0.17551329593E+02  0.30241466394E+02  0.40659135910E+02  0.00000000000E+00 0. -1.
         11    1    4    4    0    0  0.10369346202E+02  0.17857138472E+01 -0.19467789798E+01  0.10700563689E+02  0.51100000000E-03 0. -1.
        -11    1    4    4    0    0  0.12106593007E+02 -0.11036088171E+02 -0.88590064236E+01  0.18623824296E+02  0.51100000000E-03 0.  1.
        -12    1    4    4    0    0 -0.17257615509E+01 -0.83009552693E+01 -0.19435680990E+02  0.21204476105E+02  0.00000000000E+00 0.  1.
</event>
<event>
 8    1  0.9870402E-014  0.9118800E+02  0.7816164E-02  0.1184000E+00
        -11   -1    0    0    0    0  0.00000000000E+00  0.00000000000E+00  0.45593999997E+02  0.45594000000E+02  0.51100000000E-03 0. -1.
         11   -1    0    0    0    0 -0.00000000000E+00 -0.00000000000E+00 -0.45593999997E+02  0.45594000000E+02  0.51100000000E-03 0.  1.
         23    2    1    2    0    0  0.00000000000E+00  0.00000000000E+00  0.71054273576E-14  0.91188000000E+02  0.91188000000E+02 0.  0.
    9900012    2    3    3    0    0  0.50778378322E+01 -0.88576530935E+01 -0.39356448746E+02  0.50528775791E+02  0.29999744495E+02 0.  0.
         12    1    3    3    0    0 -0.50778378322E+01  0.88576530935E+01  0.39356448746E+02  0.40659224209E+02  0.00000000000E+00 0. -1.
         11    1    4    4    0    0  0.21130042704E+01  0.87573623522E+01 -0.69256798687E+01  0.11363152042E+02  0.51100000000E-03 0. -1.
        -11    1    4    4    0    0 -0.38317600991E+01 -0.22889636306E+01 -0.11580685885E+02  0.12411044509E+02  0.51100000000E-03 0.  1.
        -12    1    4    4    0    0  0.67965936609E+01 -0.15326051815E+02 -0.20850082991E+02  0.26754579241E+02  0.00000000000E+00 0.  1.
</event>
<event>
 8    1  0.9870402E-014  0.9118800E+02  0.7816164E-02  0.1184000E+00
        -11   -1    0    0    0    0  0.00000000000E+00  0.00000000000E+00  0.45593999997E+02  0.45594000000E+02  0.51100000000E-03 0. -1.
         11   -1    0    0    0    0 -0.00000000000E+00 -0.00000000000E+00 -0.45593999997E+02  0.45594000000E+02  0.51100000000E-03 0.  1.
         23    2    1    2    0    0  0.00000000000E+00  0.00000000000E+00  0.35527136788E-14  0.91188000000E+02  0.91188000000E+02 0.  0.
    9900012    2    3    3    0    0  0.20340552269E+02  0.23263430021E+02 -0.26424273883E+02  0.50528837524E+02  0.29999932139E+02 0.  0.
         12    1    3    3    0    0 -0.20340552269E+02 -0.23263430021E+02  0.26424273883E+02  0.40659162476E+02  0.00000000000E+00 0. -1.
         11    1    4    4    0    0  0.86484736754E+01  0.21951134800E+01 -0.72928117386E+01  0.11523876232E+02  0.51100000000E-03 0.  1.
        -11    1    4    4    0    0 -0.40133494568E+01  0.35730899346E+01 -0.13923702945E+02  0.14924592105E+02  0.51100000000E-03 0. -1.
         12    1    4    4    0    0  0.15705428051E+02  0.17495226607E+02 -0.52077591989E+01  0.24080369186E+02  0.00000000000E+00 0. -1.
</event>
<event>
 8    1  0.9870402E-014  0.9118800E+02  0.7816164E-02  0.1184000E+00
        -11   -1    0    0    0    0  0.00000000000E+00  0.00000000000E+00  0.45593999997E+02  0.45594000000E+02  0.51100000000E-03 0. -1.
         11   -1    0    0    0    0 -0.00000000000E+00 -0.00000000000E+00 -0.45593999997E+02  0.45594000000E+02  0.51100000000E-03 0.  1.
         23    2    1    2    0    0  0.44408920985E-15  0.00000000000E+00  0.22204460493E-15  0.91188000000E+02  0.91188000000E+02 0.  0.
    9900012    2    3    3    0    0 -0.11516466975E+01 -0.40632572899E+02  0.91256895684E+00  0.50528867537E+02  0.30000023367E+02 0.  0.
         12    1    3    3    0    0  0.11516466975E+01  0.40632572899E+02 -0.91256895684E+00  0.40659132463E+02  0.00000000000E+00 0. -1.
         11    1    4    4    0    0  0.92824193740E+01 -0.36111830872E+02  0.60931848159E+01  0.37780345947E+02  0.51100000000E-03 0. -1.
        -11    1    4    4    0    0 -0.23465500304E+01 -0.19177112577E+01 -0.57559180903E+00  0.30846749755E+01  0.51100000000E-03 0.  1.
         12    1    4    4    0    0 -0.80875160412E+01 -0.26030307690E+01 -0.46050240500E+01  0.96638466152E+01  0.00000000000E+00 0. -1.
</event>
<event>
 8    1  0.9870402E-014  0.9118800E+02  0.7816164E-02  0.1184000E+00
        -11   -1    0    0    0    0  0.00000000000E+00  0.00000000000E+00  0.45593999997E+02  0.45594000000E+02  0.51100000000E-03 0. -1.
         11   -1    0    0    0    0 -0.00000000000E+00 -0.00000000000E+00 -0.45593999997E+02  0.45594000000E+02  0.51100000000E-03 0.  1.
         23    2    1    2    0    0  0.00000000000E+00  0.00000000000E+00  0.00000000000E+00  0.91188000000E+02  0.91188000000E+02 0.  0.
    9900012    2    3    3    0    0 -0.22411172354E+02 -0.12392245274E+02  0.31580647608E+02  0.50528859668E+02  0.29999999447E+02 0.  0.
        -12    1    3    3    0    0  0.22411172354E+02  0.12392245274E+02 -0.31580647608E+02  0.40659140332E+02  0.00000000000E+00 0.  1.
         11    1    4    4    0    0 -0.96151642184E+01 -0.34671158401E+01  0.14945100826E+02  0.18106029773E+02  0.51100000000E-03 0. -1.
        -11    1    4    4    0    0 -0.12379525318E+02  0.31311091947E+01  0.15821930223E+02  0.20331993708E+02  0.51100000000E-03 0.  1.
         12    1    4    4    0    0 -0.41648281805E+00 -0.12056238628E+02  0.81361655863E+00  0.12090836187E+02  0.00000000000E+00 0. -1.
</event>
<event>
 8    1  0.9870402E-014  0.9118800E+02  0.7816164E-02  0.1184000E+00
        -11   -1    0    0    0    0  0.00000000000E+00  0.00000000000E+00  0.45593999997E+02  0.45594000000E+02  0.51100000000E-03 0. -1.
         11   -1    0    0    0    0 -0.00000000000E+00 -0.00000000000E+00 -0.45593999997E+02  0.45594000000E+02  0.51100000000E-03 0.  1.
         23    2    1    2    0    0  0.17763568394E-14  0.17763568394E-14  0.00000000000E+00  0.91188000000E+02  0.91188000000E+02 0.  0.
    9900012    2    3    3    0    0 -0.12023990349E+02 -0.13438175917E+02 -0.36441810086E+02  0.50528850498E+02  0.29999971574E+02 0.  0.
         12    1    3    3    0    0  0.12023990349E+02  0.13438175917E+02  0.36441810086E+02  0.40659149502E+02  0.00000000000E+00 0. -1.
         11    1    4    4    0    0 -0.74997031336E+01 -0.39764989413E+01 -0.10022525985E+02  0.13134272660E+02  0.51100000000E-03 0.  1.
        -11    1    4    4    0    0 -0.12393913314E+02 -0.11893201607E+02 -0.22404459430E+02  0.28231491890E+02  0.51100000000E-03 0. -1.
         12    1    4    4    0    0  0.78696260986E+01  0.24315246311E+01 -0.40148246700E+01  0.91630859482E+01  0.00000000000E+00 0. -1.
</event>
<event>
 8    1  0.1181809E-013  0.9118800E+02  0.7816164E-02  0.1184000E+00
        -11   -1    0    0    0    0  0.00000000000E+00  0.00000000000E+00  0.45593999997E+02  0.45594000000E+02  0.51100000000E-03 0. -1.
         11   -1    0    0    0    0 -0.00000000000E+00 -0.00000000000E+00 -0.45593999997E+02  0.45594000000E+02  0.51100000000E-03 0.  1.
         23    2    1    2    0    0 -0.17763568394E-14  0.00000000000E+00  0.00000000000E+00  0.91188000000E+02  0.91188000000E+02 0.  0.
    9900012    2    3    3    0    0  0.10195637014E+02 -0.18567819835E+02 -0.34705222675E+02  0.50528838321E+02  0.29999934559E+02 0.  0.
         12    1    3    3    0    0 -0.10195637014E+02  0.18567819835E+02  0.34705222675E+02  0.40659161679E+02  0.00000000000E+00 0. -1.
         11    1    4    4    0    0  0.53081916040E+01 -0.79024721494E+01 -0.24864021269E+02  0.26624152909E+02  0.51100000000E-03 0.  1.
        -11    1    4    4    0    0  0.95757891462E+01 -0.13034171756E+02 -0.54780248213E+01  0.17076127411E+02  0.51100000000E-03 0. -1.
         12    1    4    4    0    0 -0.46883437361E+01  0.23688240705E+01 -0.43631765844E+01  0.68285580008E+01  0.00000000000E+00 0. -1.
</event>
<event>
 8    1  0.9870402E-014  0.9118800E+02  0.7816164E-02  0.1184000E+00
        -11   -1    0    0    0    0  0.00000000000E+00  0.00000000000E+00  0.45593999997E+02  0.45594000000E+02  0.51100000000E-03 0.  1.
         11   -1    0    0    0    0 -0.00000000000E+00 -0.00000000000E+00 -0.45593999997E+02  0.45594000000E+02  0.51100000000E-03 0. -1.
         23    2    1    2    0    0  0.00000000000E+00  0.35527136788E-14  0.00000000000E+00  0.91188000000E+02  0.91188000000E+02 0.  0.
    9900012    2    3    3    0    0  0.34739337033E+02  0.17414209416E+02 -0.11961983936E+02  0.50528864657E+02  0.30000014613E+02 0.  0.
         12    1    3    3    0    0 -0.34739337033E+02 -0.17414209416E+02  0.11961983936E+02  0.40659135343E+02  0.00000000000E+00 0. -1.
         11    1    4    4    0    0  0.24720477902E+02  0.50657004851E+01 -0.57374691851E+01  0.25878212883E+02  0.51100000000E-03 0. -1.
        -11    1    4    4    0    0  0.81876589041E+01  0.27013863640E+01  0.48156296572E+01  0.98755018036E+01  0.51100000000E-03 0.  1.
         12    1    4    4    0    0  0.18312002272E+01  0.96471225671E+01 -0.11040144409E+02  0.14775149971E+02  0.00000000000E+00 0. -1.
</event>
<event>
 8    1  0.9870402E-014  0.9118800E+02  0.7816164E-02  0.1184000E+00
        -11   -1    0    0    0    0  0.00000000000E+00  0.00000000000E+00  0.45593999997E+02  0.45594000000E+02  0.51100000000E-03 0. -1.
         11   -1    0    0    0    0 -0.00000000000E+00 -0.00000000000E+00 -0.45593999997E+02  0.45594000000E+02  0.51100000000E-03 0.  1.
         23    2    1    2    0    0 -0.44408920985E-15 -0.17763568394E-14  0.71054273576E-14  0.91188000000E+02  0.91188000000E+02 0.  0.
    9900012    2    3    3    0    0 -0.22700747567E+01 -0.17414855093E+01  0.40558361814E+02  0.50528846981E+02  0.29999960884E+02 0.  0.
        -12    1    3    3    0    0  0.22700747567E+01  0.17414855093E+01 -0.40558361814E+02  0.40659153019E+02  0.00000000000E+00 0.  1.
         11    1    4    4    0    0 -0.35958644945E+01 -0.83165004801E+01  0.32983046258E+02  0.34204908455E+02  0.51100000000E-03 0. -1.
        -11    1    4    4    0    0 -0.21313005696E+00 -0.20400190509E+01 -0.23314967490E+01  0.31053147184E+01  0.51100000000E-03 0.  1.
         12    1    4    4    0    0  0.15389197947E+01  0.86150340216E+01  0.99068123049E+01  0.13218623808E+02  0.00000000000E+00 0. -1.
</event>
<event>
 8    1  0.9870402E-014  0.9118800E+02  0.7816164E-02  0.1184000E+00
        -11   -1    0    0    0    0  0.00000000000E+00  0.00000000000E+00  0.45593999997E+02  0.45594000000E+02  0.51100000000E-03 0. -1.
         11   -1    0    0    0    0 -0.00000000000E+00 -0.00000000000E+00 -0.45593999997E+02  0.45594000000E+02  0.51100000000E-03 0.  1.
         23    2    1    2    0    0  0.71054273576E-14 -0.13322676296E-14  0.00000000000E+00  0.91188000000E+02  0.91188000000E+02 0.  0.
    9900012    2    3    3    0    0  0.34200534580E+02  0.33722551838E+01 -0.21728249565E+02  0.50528862039E+02  0.30000006653E+02 0.  0.
         12    1    3    3    0    0 -0.34200534580E+02 -0.33722551838E+01  0.21728249565E+02  0.40659137961E+02  0.00000000000E+00 0. -1.
         11    1    4    4    0    0 -0.10919796553E+01  0.23360883512E+01 -0.41955929812E+00  0.26126152832E+01  0.51100000000E-03 0. -1.
        -11    1    4    4    0    0  0.69231076505E+01 -0.91033154866E+01 -0.11534856855E+02  0.16243543189E+02  0.51100000000E-03 0.  1.
        -12    1    4    4    0    0  0.28369406585E+02  0.10139482319E+02 -0.97738334115E+01  0.31672703567E+02  0.00000000000E+00 0.  1.
</event>
<event>
 8    1  0.9870402E-014  0.9118800E+02  0.7816164E-02  0.1184000E+00
        -11   -1    0    0    0    0  0.00000000000E+00  0.00000000000E+00  0.45593999997E+02  0.45594000000E+02  0.51100000000E-03 0. -1.
         11   -1    0    0    0    0 -0.00000000000E+00 -0.00000000000E+00 -0.45593999997E+02  0.45594000000E+02  0.51100000000E-03 0.  1.
         23    2    1    2    0    0 -0.17763568394E-14 -0.35527136788E-14  0.35527136788E-14  0.91188000000E+02  0.91188000000E+02 0.  0.
    9900012    2    3    3    0    0  0.11214184150E+01  0.26397376646E+02  0.30904485072E+02  0.50528852559E+02  0.29999977837E+02 0.  0.
        -12    1    3    3    0    0 -0.11214184150E+01 -0.26397376646E+02 -0.30904485072E+02  0.40659147441E+02  0.00000000000E+00 0.  1.
         11    1    4    4    0    0 -0.41623645180E+01  0.15537019120E+01  0.15008902734E+02  0.15652681226E+02  0.51100000000E-03 0. -1.
        -11    1    4    4    0    0 -0.13464665874E+01  0.16449462215E+02  0.17505192897E+02  0.24058876908E+02  0.51100000000E-03 0.  1.
        -12    1    4    4    0    0  0.66302495204E+01  0.83942125197E+01 -0.16096105590E+01  0.10817294425E+02  0.00000000000E+00 0.  1.
</event>
<event>
 8    1  0.9870402E-014  0.9118800E+02  0.7816164E-02  0.1184000E+00
        -11   -1    0    0    0    0  0.00000000000E+00  0.00000000000E+00  0.45593999997E+02  0.45594000000E+02  0.51100000000E-03 0. -1.
         11   -1    0    0    0    0 -0.00000000000E+00 -0.00000000000E+00 -0.45593999997E+02  0.45594000000E+02  0.51100000000E-03 0.  1.
         23    2    1    2    0    0  0.71054273576E-14  0.00000000000E+00  0.44408920985E-15  0.91188000000E+02  0.91188000000E+02 0.  0.
    9900012    2    3    3    0    0 -0.34969318790E+02 -0.20505190199E+02  0.31384199849E+01  0.50528858817E+02  0.29999996859E+02 0.  0.
        -12    1    3    3    0    0  0.34969318790E+02  0.20505190199E+02 -0.31384199849E+01  0.40659141183E+02  0.00000000000E+00 0.  1.
         11    1    4    4    0    0 -0.70787799194E+01 -0.89508860536E+01  0.80018327217E+01  0.13937604294E+02  0.51100000000E-03 0. -1.
        -11    1    4    4    0    0 -0.10948126204E+02 -0.10432344484E+02  0.61796253019E+01  0.16336555572E+02  0.51100000000E-03 0.  1.
        -12    1    4    4    0    0 -0.16942412667E+02 -0.11219596609E+01 -0.11043038039E+02  0.20254698950E+02  0.00000000000E+00 0.  1.
</event>
<event>
 8    1  0.9870402E-014  0.9118800E+02  0.7816164E-02  0.1184000E+00
        -11   -1    0    0    0    0  0.00000000000E+00  0.00000000000E+00  0.45593999997E+02  0.45594000000E+02  0.51100000000E-03 0.  1.
         11   -1    0    0    0    0 -0.00000000000E+00 -0.00000000000E+00 -0.45593999997E+02  0.45594000000E+02  0.51100000000E-03 0. -1.
         23    2    1    2    0    0  0.22204460493E-15  0.00000000000E+00  0.35527136788E-14  0.91188000000E+02  0.91188000000E+02 0.  0.
    9900012    2    3    3    0    0 -0.74663705041E+00 -0.37023536588E+02 -0.16788889318E+02  0.50528849333E+02  0.29999968034E+02 0.  0.
         12    1    3    3    0    0  0.74663705041E+00  0.37023536588E+02  0.16788889318E+02  0.40659150667E+02  0.00000000000E+00 0. -1.
         11    1    4    4    0    0 -0.37408871289E+01 -0.26303803708E+02 -0.21487944579E+02  0.34170397839E+02  0.51100000000E-03 0. -1.
        -11    1    4    4    0    0  0.69821257817E+00 -0.37114517100E+01 -0.36268158980E+01  0.52360451124E+01  0.51100000000E-03 0.  1.
        -12    1    4    4    0    0  0.22960375003E+01 -0.70082811707E+01  0.83258711588E+01  0.11122406382E+02  0.00000000000E+00 0.  1.
</event>
<event>
 8    1  0.9870402E-014  0.9118800E+02  0.7816164E-02  0.1184000E+00
        -11   -1    0    0    0    0  0.00000000000E+00  0.00000000000E+00  0.45593999997E+02  0.45594000000E+02  0.51100000000E-03 0. -1.
         11   -1    0    0    0    0 -0.00000000000E+00 -0.00000000000E+00 -0.45593999997E+02  0.45594000000E+02  0.51100000000E-03 0.  1.
         23    2    1    2    0    0 -0.35527136788E-14  0.00000000000E+00  0.35527136788E-14  0.91188000000E+02  0.91188000000E+02 0.  0.
    9900012    2    3    3    0    0 -0.25745848290E+02 -0.12331818129E+02 -0.28952365028E+02  0.50528906512E+02  0.30000141833E+02 0.  0.
         12    1    3    3    0    0  0.25745848290E+02  0.12331818129E+02  0.28952365028E+02  0.40659093488E+02  0.00000000000E+00 0. -1.
         11    1    4    4    0    0 -0.22029727127E+02 -0.70973610470E+01 -0.13152095637E+02  0.26620650462E+02  0.51100000000E-03 0. -1.
        -11    1    4    4    0    0 -0.80446475593E+01 -0.17809871902E+01 -0.16385062846E+02  0.18340080546E+02  0.51100000000E-03 0.  1.
        -12    1    4    4    0    0  0.43285263957E+01 -0.34534698919E+01  0.58479345476E+00  0.55681755035E+01  0.00000000000E+00 0.  1.
</event>
<event>
 8    1  0.9870402E-014  0.9118800E+02  0.7816164E-02  0.1184000E+00
        -11   -1    0    0    0    0  0.00000000000E+00  0.00000000000E+00  0.45593999997E+02  0.45594000000E+02  0.51100000000E-03 0. -1.
         11   -1    0    0    0    0 -0.00000000000E+00 -0.00000000000E+00 -0.45593999997E+02  0.45594000000E+02  0.51100000000E-03 0.  1.
         23    2    1    2    0    0  0.00000000000E+00 -0.17763568394E-14  0.00000000000E+00  0.91188000000E+02  0.91188000000E+02 0.  0.
    9900012    2    3    3    0    0 -0.36024413589E+02  0.13217121426E+02 -0.13443112594E+02  0.50528831914E+02  0.29999915085E+02 0.  0.
         12    1    3    3    0    0  0.36024413589E+02 -0.13217121426E+02  0.13443112594E+02  0.40659168086E+02  0.00000000000E+00 0. -1.
         11    1    4    4    0    0 -0.51625700732E+01  0.14031098490E+02 -0.80531737223E+01  0.16981680183E+02  0.51100000000E-03 0. -1.
        -11    1    4    4    0    0 -0.12252084561E+02  0.42575229694E+01 -0.59054954458E+01  0.14251840395E+02  0.51100000000E-03 0.  1.
        -12    1    4    4    0    0 -0.18609758955E+02 -0.50715000328E+01  0.51555657398E+00  0.19295311335E+02  0.00000000000E+00 0.  1.
</event>
<event>
 8    1  0.9870402E-014  0.9118800E+02  0.7816164E-02  0.1184000E+00
        -11   -1    0    0    0    0  0.00000000000E+00  0.00000000000E+00  0.45593999997E+02  0.45594000000E+02  0.51100000000E-03 0. -1.
         11   -1    0    0    0    0 -0.00000000000E+00 -0.00000000000E+00 -0.45593999997E+02  0.45594000000E+02  0.51100000000E-03 0.  1.
         23    2    1    2    0    0  0.17763568394E-14 -0.35527136788E-14 -0.71054273576E-14  0.91188000000E+02  0.91188000000E+02 0.  0.
    9900012    2    3    3    0    0  0.83520877179E+01 -0.17834850264E+02 -0.35571443062E+02  0.50528845869E+02  0.29999957503E+02 0.  0.
         12    1    3    3    0    0 -0.83520877179E+01  0.17834850264E+02  0.35571443062E+02  0.40659154131E+02  0.00000000000E+00 0. -1.
         11    1    4    4    0    0 -0.16994925553E+01  0.23463195879E+01  0.17287623905E+01  0.33737383150E+01  0.51100000000E-03 0. -1.
        -11    1    4    4    0    0  0.58025129303E+01  0.17631607575E+01 -0.11638784599E+02  0.13123993270E+02  0.51100000000E-03 0.  1.
        -12    1    4    4    0    0  0.42490673429E+01 -0.21944330609E+02 -0.25661420853E+02  0.34031114284E+02  0.00000000000E+00 0.  1.
</event>
<event>
 8    1  0.9870402E-014  0.9118800E+02  0.7816164E-02  0.1184000E+00
        -11   -1    0    0    0    0  0.00000000000E+00  0.00000000000E+00  0.45593999997E+02  0.45594000000E+02  0.51100000000E-03 0. -1.
         11   -1    0    0    0    0 -0.00000000000E+00 -0.00000000000E+00 -0.45593999997E+02  0.45594000000E+02  0.51100000000E-03 0.  1.
         23    2    1    2    0    0  0.00000000000E+00  0.17763568394E-14  0.00000000000E+00  0.91188000000E+02  0.91188000000E+02 0.  0.
    9900012    2    3    3    0    0 -0.12948784611E+02 -0.13077015143E+02 -0.36255842271E+02  0.50528862691E+02  0.30000008634E+02 0.  0.
         12    1    3    3    0    0  0.12948784611E+02  0.13077015143E+02  0.36255842271E+02  0.40659137309E+02  0.00000000000E+00 0. -1.
         11    1    4    4    0    0 -0.75912712439E+01 -0.98774452822E-01 -0.28645273757E+01  0.81143498099E+01  0.51100000000E-03 0. -1.
        -11    1    4    4    0    0 -0.11882386458E+02 -0.14593648995E+02 -0.20192299097E+02  0.27602439059E+02  0.51100000000E-03 0.  1.
         12    1    4    4    0    0  0.65248730910E+01  0.16154083049E+01 -0.13199015798E+02  0.14812073821E+02  0.00000000000E+00 0. -1.
</event>
<event>
 8    1  0.9870402E-014  0.9118800E+02  0.7816164E-02  0.1184000E+00
        -11   -1    0    0    0    0  0.00000000000E+00  0.00000000000E+00  0.45593999997E+02  0.45594000000E+02  0.51100000000E-03 0. -1.
         11   -1    0    0    0    0 -0.00000000000E+00 -0.00000000000E+00 -0.45593999997E+02  0.45594000000E+02  0.51100000000E-03 0.  1.
         23    2    1    2    0    0  0.00000000000E+00  0.00000000000E+00  0.00000000000E+00  0.91188000000E+02  0.91188000000E+02 0.  0.
    9900012    2    3    3    0    0  0.34525798808E+02  0.65376189447E+01  0.20454695363E+02  0.50528858258E+02  0.29999995162E+02 0.  0.
        -12    1    3    3    0    0 -0.34525798808E+02 -0.65376189447E+01 -0.20454695363E+02  0.40659141742E+02  0.00000000000E+00 0.  1.
         11    1    4    4    0    0  0.23444996393E+02  0.17160239169E+01  0.16987834571E+02  0.29003432860E+02  0.51100000000E-03 0. -1.
        -11    1    4    4    0    0  0.19727906392E+01  0.83312113551E+01  0.70876763864E+01  0.11114681389E+02  0.51100000000E-03 0.  1.
        -12    1    4    4    0    0  0.91080117757E+01 -0.35096163273E+01 -0.36208155949E+01  0.10410744010E+02  0.00000000000E+00 0.  1.
</event>
<event>
 8    1  0.9870402E-014  0.9118800E+02  0.7816164E-02  0.1184000E+00
        -11   -1    0    0    0    0  0.00000000000E+00  0.00000000000E+00  0.45593999997E+02  0.45594000000E+02  0.51100000000E-03 0. -1.
         11   -1    0    0    0    0 -0.00000000000E+00 -0.00000000000E+00 -0.45593999997E+02  0.45594000000E+02  0.51100000000E-03 0.  1.
         23    2    1    2    0    0  0.00000000000E+00 -0.17763568394E-14  0.00000000000E+00  0.91188000000E+02  0.91188000000E+02 0.  0.
    9900012    2    3    3    0    0  0.42369267110E+01  0.15181549477E+02  0.37479798360E+02  0.50528852473E+02  0.29999977578E+02 0.  0.
        -12    1    3    3    0    0 -0.42369267110E+01 -0.15181549477E+02 -0.37479798360E+02  0.40659147527E+02  0.00000000000E+00 0.  1.
         11    1    4    4    0    0 -0.27273390405E+01  0.13736003460E+02  0.11445719809E+02  0.18086477587E+02  0.51100000000E-03 0. -1.
        -11    1    4    4    0    0  0.10102423848E+02  0.32151917452E+01  0.26745482858E+02  0.28770076106E+02  0.51100000000E-03 0.  1.
         12    1    4    4    0    0 -0.31381580962E+01 -0.17696457283E+01 -0.71140430764E+00  0.36722987800E+01  0.00000000000E+00 0. -1.
</event>
<event>
 8    1  0.9870402E-014  0.9118800E+02  0.7816164E-02  0.1184000E+00
        -11   -1    0    0    0    0  0.00000000000E+00  0.00000000000E+00  0.45593999997E+02  0.45594000000E+02  0.51100000000E-03 0. -1.
         11   -1    0    0    0    0 -0.00000000000E+00 -0.00000000000E+00 -0.45593999997E+02  0.45594000000E+02  0.51100000000E-03 0.  1.
         23    2    1    2    0    0  0.00000000000E+00  0.00000000000E+00  0.00000000000E+00  0.91188000000E+02  0.91188000000E+02 0.  0.
    9900012    2    3    3    0    0 -0.15621030371E+02  0.23078363863E+02 -0.29606395436E+02  0.50528854421E+02  0.29999983499E+02 0.  0.
         12    1    3    3    0    0  0.15621030371E+02 -0.23078363863E+02  0.29606395436E+02  0.40659145579E+02  0.00000000000E+00 0. -1.
         11    1    4    4    0    0 -0.16957081435E+01 -0.49382835586E+00 -0.43427753595E+00  0.18187605099E+01  0.51100000000E-03 0. -1.
        -11    1    4    4    0    0 -0.87822095717E+01  0.21531043439E+02 -0.34117931483E+02  0.41288573304E+02  0.51100000000E-03 0.  1.
        -12    1    4    4    0    0 -0.51431126553E+01  0.20411487803E+01  0.49458135830E+01  0.74215206074E+01  0.00000000000E+00 0.  1.
</event>
<event>
 8    1  0.9870402E-014  0.9118800E+02  0.7816164E-02  0.1184000E+00
        -11   -1    0    0    0    0  0.00000000000E+00  0.00000000000E+00  0.45593999997E+02  0.45594000000E+02  0.51100000000E-03 0. -1.
         11   -1    0    0    0    0 -0.00000000000E+00 -0.00000000000E+00 -0.45593999997E+02  0.45594000000E+02  0.51100000000E-03 0.  1.
         23    2    1    2    0    0 -0.71054273576E-14  0.17763568394E-14 -0.44408920985E-15  0.91188000000E+02  0.91188000000E+02 0.  0.
    9900012    2    3    3    0    0  0.38210485315E+02 -0.13677474488E+02 -0.24599799835E+01  0.50528855913E+02  0.29999988034E+02 0.  0.
         12    1    3    3    0    0 -0.38210485315E+02  0.13677474488E+02  0.24599799835E+01  0.40659144087E+02  0.00000000000E+00 0. -1.
         11    1    4    4    0    0  0.11003845846E+02  0.23209988473E+01  0.42349599529E+01  0.12016927440E+02  0.51100000000E-03 0. -1.
        -11    1    4    4    0    0  0.18900377587E+02  0.10711284781E+00 -0.75917908713E+01  0.20368383220E+02  0.51100000000E-03 0.  1.
        -12    1    4    4    0    0  0.83062618821E+01 -0.16105586183E+02  0.89685093496E+00  0.18143545253E+02  0.00000000000E+00 0.  1.
</event>
<event>
 8    1  0.9870402E-014  0.9118800E+02  0.7816164E-02  0.1184000E+00
        -11   -1    0    0    0    0  0.00000000000E+00  0.00000000000E+00  0.45593999997E+02  0.45594000000E+02  0.51100000000E-03 0.  1.
         11   -1    0    0    0    0 -0.00000000000E+00 -0.00000000000E+00 -0.45593999997E+02  0.45594000000E+02  0.51100000000E-03 0. -1.
         23    2    1    2    0    0  0.88817841970E-15  0.71054273576E-14  0.88817841970E-15  0.91188000000E+02  0.91188000000E+02 0.  0.
    9900012    2    3    3    0    0  0.58710913198E+01  0.40049986094E+02  0.38334062385E+01  0.50528854623E+02  0.29999984112E+02 0.  0.
         12    1    3    3    0    0 -0.58710913198E+01 -0.40049986094E+02 -0.38334062385E+01  0.40659145377E+02  0.00000000000E+00 0. -1.
         11    1    4    4    0    0  0.40423796979E+01  0.20160485444E+02  0.83699687206E+01  0.22200053684E+02  0.51100000000E-03 0. -1.
        -11    1    4    4    0    0  0.47880697724E+01  0.23101508821E+02 -0.36708648376E+01  0.23876360084E+02  0.51100000000E-03 0.  1.
         12    1    4    4    0    0 -0.29593581505E+01 -0.32120081707E+01 -0.86569764452E+00  0.44524408545E+01  0.00000000000E+00 0. -1.
</event>
<event>
 8    1  0.9870402E-014  0.9118800E+02  0.7816164E-02  0.1184000E+00
        -11   -1    0    0    0    0  0.00000000000E+00  0.00000000000E+00  0.45593999997E+02  0.45594000000E+02  0.51100000000E-03 0.  1.
         11   -1    0    0    0    0 -0.00000000000E+00 -0.00000000000E+00 -0.45593999997E+02  0.45594000000E+02  0.51100000000E-03 0. -1.
         23    2    1    2    0    0  0.00000000000E+00  0.00000000000E+00  0.00000000000E+00  0.91188000000E+02  0.91188000000E+02 0.  0.
    9900012    2    3    3    0    0 -0.39123958943E+02 -0.83979950749E+01 -0.72079832354E+01  0.50528861950E+02  0.30000006384E+02 0.  0.
        -12    1    3    3    0    0  0.39123958943E+02  0.83979950749E+01  0.72079832354E+01  0.40659138050E+02  0.00000000000E+00 0.  1.
         11    1    4    4    0    0 -0.24434733921E+01 -0.69347835398E+01  0.65384448681E+01  0.98393620990E+01  0.51100000000E-03 0.  1.
        -11    1    4    4    0    0 -0.11303986457E+02 -0.44251129469E+01 -0.11195803100E+01  0.12190783188E+02  0.51100000000E-03 0. -1.
         12    1    4    4    0    0 -0.25376499094E+02  0.29619014118E+01 -0.12626847793E+02  0.28498716663E+02  0.00000000000E+00 0. -1.
</event>
<event>
 8    1  0.9870402E-014  0.9118800E+02  0.7816164E-02  0.1184000E+00
        -11   -1    0    0    0    0  0.00000000000E+00  0.00000000000E+00  0.45593999997E+02  0.45594000000E+02  0.51100000000E-03 0. -1.
         11   -1    0    0    0    0 -0.00000000000E+00 -0.00000000000E+00 -0.45593999997E+02  0.45594000000E+02  0.51100000000E-03 0.  1.
         23    2    1    2    0    0  0.35527136788E-14 -0.35527136788E-14  0.17763568394E-14  0.91188000000E+02  0.91188000000E+02 0.  0.
    9900012    2    3    3    0    0 -0.28592832748E+02 -0.28727694302E+02 -0.32148584920E+01  0.50528858106E+02  0.29999994698E+02 0.  0.
         12    1    3    3    0    0  0.28592832748E+02  0.28727694302E+02  0.32148584920E+01  0.40659141894E+02  0.00000000000E+00 0. -1.
         11    1    4    4    0    0  0.32012599956E+01  0.65735076700E+00  0.12641273631E+01  0.35040253769E+01  0.51100000000E-03 0. -1.
        -11    1    4    4    0    0 -0.64593588473E-01 -0.54120888871E+01  0.35257929082E+01  0.64595738518E+01  0.51100000000E-03 0.  1.
        -12    1    4    4    0    0 -0.31729499155E+02 -0.23972956181E+02 -0.80047787634E+01  0.40565258877E+02  0.00000000000E+00 0.  1.
</event>
<event>
 8    1  0.9870402E-014  0.9118800E+02  0.7816164E-02  0.1184000E+00
        -11   -1    0    0    0    0  0.00000000000E+00  0.00000000000E+00  0.45593999997E+02  0.45594000000E+02  0.51100000000E-03 0. -1.
         11   -1    0    0    0    0 -0.00000000000E+00 -0.00000000000E+00 -0.45593999997E+02  0.45594000000E+02  0.51100000000E-03 0.  1.
         23    2    1    2    0    0  0.00000000000E+00  0.00000000000E+00  0.00000000000E+00  0.91188000000E+02  0.91188000000E+02 0.  0.
    9900012    2    3    3    0    0 -0.28728135344E+02 -0.17840183823E+02 -0.22574052949E+02  0.50528858522E+02  0.29999995964E+02 0.  0.
         12    1    3    3    0    0  0.28728135344E+02  0.17840183823E+02  0.22574052949E+02  0.40659141478E+02  0.00000000000E+00 0. -1.
         11    1    4    4    0    0 -0.20298538895E+02 -0.54017388474E+00 -0.55550552560E+01  0.21051867097E+02  0.51100000000E-03 0. -1.
        -11    1    4    4    0    0 -0.73058859243E+01 -0.33032468271E+01 -0.12263093305E+02  0.14651650638E+02  0.51100000000E-03 0.  1.
        -12    1    4    4    0    0 -0.11237105247E+01 -0.13996763111E+02 -0.47559043876E+01  0.14825340788E+02  0.00000000000E+00 0.  1.
</event>
<event>
 8    1  0.9870402E-014  0.9118800E+02  0.7816164E-02  0.1184000E+00
        -11   -1    0    0    0    0  0.00000000000E+00  0.00000000000E+00  0.45593999997E+02  0.45594000000E+02  0.51100000000E-03 0. -1.
         11   -1    0    0    0    0 -0.00000000000E+00 -0.00000000000E+00 -0.45593999997E+02  0.45594000000E+02  0.51100000000E-03 0.  1.
         23    2    1    2    0    0 -0.44408920985E-15  0.00000000000E+00  0.71054273576E-14  0.91188000000E+02  0.91188000000E+02 0.  0.
    9900012    2    3    3    0    0 -0.25933486104E+01  0.13223697174E+02 -0.38361106164E+02  0.50528854779E+02  0.29999984588E+02 0.  0.
         12    1    3    3    0    0  0.25933486104E+01 -0.13223697174E+02  0.38361106164E+02  0.40659145221E+02  0.00000000000E+00 0. -1.
         11    1    4    4    0    0  0.91590621296E+01  0.37629460389E+01 -0.21695028735E+01  0.10136810394E+02  0.51100000000E-03 0. -1.
        -11    1    4    4    0    0 -0.46246910098E+01  0.80250781355E+00 -0.20948632305E+02  0.21468045589E+02  0.51100000000E-03 0.  1.
        -12    1    4    4    0    0 -0.71277197302E+01  0.86582433220E+01 -0.15242970985E+02  0.18923998796E+02  0.00000000000E+00 0.  1.
</event>
<event>
 8    1  0.9870402E-014  0.9118800E+02  0.7816164E-02  0.1184000E+00
        -11   -1    0    0    0    0  0.00000000000E+00  0.00000000000E+00  0.45593999997E+02  0.45594000000E+02  0.51100000000E-03 0. -1.
         11   -1    0    0    0    0 -0.00000000000E+00 -0.00000000000E+00 -0.45593999997E+02  0.45594000000E+02  0.51100000000E-03 0.  1.
         23    2    1    2    0    0  0.00000000000E+00  0.35527136788E-14  0.00000000000E+00  0.91188000000E+02  0.91188000000E+02 0.  0.
    9900012    2    3    3    0    0 -0.31946927742E+02 -0.24872244732E+02 -0.37329061179E+01  0.50528814836E+02  0.29999863174E+02 0.  0.
         12    1    3    3    0    0  0.31946927742E+02  0.24872244732E+02  0.37329061179E+01  0.40659185164E+02  0.00000000000E+00 0. -1.
         11    1    4    4    0    0 -0.53518598467E+01 -0.12250649755E+02 -0.21968115802E+01  0.13547944664E+02  0.51100000000E-03 0. -1.
        -11    1    4    4    0    0 -0.24681698699E+02 -0.15092005417E+02 -0.78152427064E+01  0.29967197016E+02  0.51100000000E-03 0.  1.
         12    1    4    4    0    0 -0.19133691962E+01  0.24704104395E+01  0.62791481687E+01  0.70136731564E+01  0.00000000000E+00 0. -1.
</event>
<event>
 8    1  0.9870402E-014  0.9118800E+02  0.7816164E-02  0.1184000E+00
        -11   -1    0    0    0    0  0.00000000000E+00  0.00000000000E+00  0.45593999997E+02  0.45594000000E+02  0.51100000000E-03 0.  1.
         11   -1    0    0    0    0 -0.00000000000E+00 -0.00000000000E+00 -0.45593999997E+02  0.45594000000E+02  0.51100000000E-03 0. -1.
         23    2    1    2    0    0 -0.71054273576E-14  0.00000000000E+00  0.00000000000E+00  0.91188000000E+02  0.91188000000E+02 0.  0.
    9900012    2    3    3    0    0  0.36124818955E+02 -0.13812942250E+02  0.12544521103E+02  0.50528869071E+02  0.30000028029E+02 0.  0.
        -12    1    3    3    0    0 -0.36124818955E+02  0.13812942250E+02 -0.12544521103E+02  0.40659130929E+02  0.00000000000E+00 0.  1.
         11    1    4    4    0    0  0.93179660599E+01 -0.87496029974E+01 -0.82846389757E+00  0.12808840572E+02  0.51100000000E-03 0. -1.
        -11    1    4    4    0    0  0.18940540944E+02 -0.67326754398E+01  0.19193399469E+02  0.27793157310E+02  0.51100000000E-03 0.  1.
         12    1    4    4    0    0  0.78663119519E+01  0.16693361868E+01 -0.58204144686E+01  0.99268711896E+01  0.00000000000E+00 0. -1.
</event>
<event>
 8    1  0.9870402E-014  0.9118800E+02  0.7816164E-02  0.1184000E+00
        -11   -1    0    0    0    0  0.00000000000E+00  0.00000000000E+00  0.45593999997E+02  0.45594000000E+02  0.51100000000E-03 0. -1.
         11   -1    0    0    0    0 -0.00000000000E+00 -0.00000000000E+00 -0.45593999997E+02  0.45594000000E+02  0.51100000000E-03 0.  1.
         23    2    1    2    0    0 -0.71054273576E-14  0.00000000000E+00 -0.26645352591E-14  0.91188000000E+02  0.91188000000E+02 0.  0.
    9900012    2    3    3    0    0  0.34264930475E+02 -0.21244233795E+02  0.52690823196E+01  0.50528853939E+02  0.29999982032E+02 0.  0.
        -12    1    3    3    0    0 -0.34264930475E+02  0.21244233795E+02 -0.52690823196E+01  0.40659146061E+02  0.00000000000E+00 0.  1.
         11    1    4    4    0    0  0.93868601410E+01 -0.41753868280E+01  0.82614294391E+01  0.13183255103E+02  0.51100000000E-03 0. -1.
        -11    1    4    4    0    0  0.21079731326E+02 -0.36543285866E+01  0.39740591304E+01  0.21760108833E+02  0.51100000000E-03 0.  1.
        -12    1    4    4    0    0  0.37983390076E+01 -0.13414518380E+02 -0.69664062499E+01  0.15585490003E+02  0.00000000000E+00 0.  1.
</event>
<event>
 8    1  0.9870402E-014  0.9118800E+02  0.7816164E-02  0.1184000E+00
        -11   -1    0    0    0    0  0.00000000000E+00  0.00000000000E+00  0.45593999997E+02  0.45594000000E+02  0.51100000000E-03 0. -1.
         11   -1    0    0    0    0 -0.00000000000E+00 -0.00000000000E+00 -0.45593999997E+02  0.45594000000E+02  0.51100000000E-03 0.  1.
         23    2    1    2    0    0 -0.22204460493E-15  0.00000000000E+00  0.00000000000E+00  0.91188000000E+02  0.91188000000E+02 0.  0.
    9900012    2    3    3    0    0 -0.15243649031E+01 -0.21679877991E+02  0.34363106892E+02  0.50528881548E+02  0.30000065952E+02 0.  0.
        -12    1    3    3    0    0  0.15243649031E+01  0.21679877991E+02 -0.34363106892E+02  0.40659118452E+02  0.00000000000E+00 0.  1.
         11    1    4    4    0    0 -0.18395222092E+01 -0.80872800248E+01  0.41484352781E+01  0.92734813137E+01  0.51100000000E-03 0. -1.
        -11    1    4    4    0    0 -0.30976636609E+01 -0.20232430152E+02  0.20131693142E+02  0.28709437804E+02  0.51100000000E-03 0.  1.
        -12    1    4    4    0    0  0.34128209671E+01  0.66398321862E+01  0.10082978472E+02  0.12545962430E+02  0.00000000000E+00 0.  1.
</event>
<event>
 8    1  0.9870402E-014  0.9118800E+02  0.7816164E-02  0.1184000E+00
        -11   -1    0    0    0    0  0.00000000000E+00  0.00000000000E+00  0.45593999997E+02  0.45594000000E+02  0.51100000000E-03 0.  1.
         11   -1    0    0    0    0 -0.00000000000E+00 -0.00000000000E+00 -0.45593999997E+02  0.45594000000E+02  0.51100000000E-03 0. -1.
         23    2    1    2    0    0  0.00000000000E+00  0.35527136788E-14  0.00000000000E+00  0.91188000000E+02  0.91188000000E+02 0.  0.
    9900012    2    3    3    0    0  0.50164406693E+01 -0.23902459878E+02 -0.32506490086E+02  0.50528878478E+02  0.30000056621E+02 0.  0.
         12    1    3    3    0    0 -0.50164406693E+01  0.23902459878E+02  0.32506490086E+02  0.40659121522E+02  0.00000000000E+00 0. -1.
         11    1    4    4    0    0 -0.25489320234E+00 -0.13350363990E+02 -0.39881195642E+01  0.13935648070E+02  0.51100000000E-03 0.  1.
        -11    1    4    4    0    0  0.68075424767E+01 -0.15328213957E+01 -0.36164269274E+00  0.69873429643E+01  0.51100000000E-03 0. -1.
         12    1    4    4    0    0 -0.15362086050E+01 -0.90192744920E+01 -0.28156727830E+02  0.29605887443E+02  0.00000000000E+00 0. -1.
</event>
<event>
 8    1  0.9870402E-014  0.9118800E+02  0.7816164E-02  0.1184000E+00
        -11   -1    0    0    0    0  0.00000000000E+00  0.00000000000E+00  0.45593999997E+02  0.45594000000E+02  0.51100000000E-03 0. -1.
         11   -1    0    0    0    0 -0.00000000000E+00 -0.00000000000E+00 -0.45593999997E+02  0.45594000000E+02  0.51100000000E-03 0.  1.
         23    2    1    2    0    0  0.71054273576E-14  0.35527136788E-14  0.35527136788E-14  0.91188000000E+02  0.91188000000E+02 0.  0.
    9900012    2    3    3    0    0  0.33135988197E+02  0.16808770771E+02  0.16511741972E+02  0.50528854515E+02  0.29999983784E+02 0.  0.
        -12    1    3    3    0    0 -0.33135988197E+02 -0.16808770771E+02 -0.16511741972E+02  0.40659145485E+02  0.00000000000E+00 0.  1.
         11    1    4    4    0    0 -0.11018507947E+01 -0.27671254794E+01  0.17015656424E+01  0.34302163910E+01  0.51100000000E-03 0. -1.
        -11    1    4    4    0    0  0.10511018204E+02  0.87170804852E+01 -0.47819807177E+01  0.14468460032E+02  0.51100000000E-03 0.  1.
         12    1    4    4    0    0  0.23726820788E+02  0.10858815766E+02  0.19592157047E+02  0.32630178092E+02  0.00000000000E+00 0. -1.
</event>
<event>
 8    1  0.9870402E-014  0.9118800E+02  0.7816164E-02  0.1184000E+00
        -11   -1    0    0    0    0  0.00000000000E+00  0.00000000000E+00  0.45593999997E+02  0.45594000000E+02  0.51100000000E-03 0. -1.
         11   -1    0    0    0    0 -0.00000000000E+00 -0.00000000000E+00 -0.45593999997E+02  0.45594000000E+02  0.51100000000E-03 0.  1.
         23    2    1    2    0    0  0.00000000000E+00 -0.17763568394E-14 -0.71054273576E-14  0.91188000000E+02  0.91188000000E+02 0.  0.
    9900012    2    3    3    0    0  0.99604016719E+01  0.76834009107E+01  0.38664194295E+02  0.50528878373E+02  0.30000056303E+02 0.  0.
        -12    1    3    3    0    0 -0.99604016719E+01 -0.76834009107E+01 -0.38664194295E+02  0.40659121627E+02  0.00000000000E+00 0.  1.
         11    1    4    4    0    0  0.98055359600E+01  0.10491892287E+02  0.10063868790E+02  0.17535957188E+02  0.51100000000E-03 0. -1.
        -11    1    4    4    0    0  0.75309125484E+01 -0.27632703548E+01  0.90293072429E+01  0.12078025352E+02  0.51100000000E-03 0.  1.
        -12    1    4    4    0    0 -0.73760468365E+01 -0.45221021626E-01  0.19571018262E+02  0.20914895832E+02  0.00000000000E+00 0.  1.
</event>
<event>
 8    1  0.9870402E-014  0.9118800E+02  0.7816164E-02  0.1184000E+00
        -11   -1    0    0    0    0  0.00000000000E+00  0.00000000000E+00  0.45593999997E+02  0.45594000000E+02  0.51100000000E-03 0. -1.
         11   -1    0    0    0    0 -0.00000000000E+00 -0.00000000000E+00 -0.45593999997E+02  0.45594000000E+02  0.51100000000E-03 0.  1.
         23    2    1    2    0    0 -0.17763568394E-14 -0.35527136788E-14  0.00000000000E+00  0.91188000000E+02  0.91188000000E+02 0.  0.
    9900012    2    3    3    0    0  0.15523554644E+02 -0.13984789695E+02  0.34879940235E+02  0.50528864220E+02  0.30000013283E+02 0.  0.
        -12    1    3    3    0    0 -0.15523554644E+02  0.13984789695E+02 -0.34879940235E+02  0.40659135780E+02  0.00000000000E+00 0.  1.
         11    1    4    4    0    0  0.11716014925E+02 -0.10494058030E+02  0.88599724012E+01  0.18052406235E+02  0.51100000000E-03 0. -1.
        -11    1    4    4    0    0  0.10785824299E+02  0.14487290583E+01  0.14352220030E+02  0.18011636288E+02  0.51100000000E-03 0.  1.
         12    1    4    4    0    0 -0.69782845805E+01 -0.49394607231E+01  0.11667747803E+02  0.14464821697E+02  0.00000000000E+00 0. -1.
</event>
<event>
 8    1  0.9870402E-014  0.9118800E+02  0.7816164E-02  0.1184000E+00
        -11   -1    0    0    0    0  0.00000000000E+00  0.00000000000E+00  0.45593999997E+02  0.45594000000E+02  0.51100000000E-03 0. -1.
         11   -1    0    0    0    0 -0.00000000000E+00 -0.00000000000E+00 -0.45593999997E+02  0.45594000000E+02  0.51100000000E-03 0.  1.
         23    2    1    2    0    0  0.17763568394E-14 -0.17763568394E-14 -0.71054273576E-14  0.91188000000E+02  0.91188000000E+02 0.  0.
    9900012    2    3    3    0    0  0.14586040199E+02 -0.12023747718E+02 -0.35997813917E+02  0.50528859764E+02  0.29999999740E+02 0.  0.
         12    1    3    3    0    0 -0.14586040199E+02  0.12023747718E+02  0.35997813917E+02  0.40659140236E+02  0.00000000000E+00 0. -1.
         11    1    4    4    0    0 -0.29928623291E+01 -0.53252341984E+01 -0.78721116669E+01  0.99642102821E+01  0.51100000000E-03 0. -1.
        -11    1    4    4    0    0  0.37789033791E+01  0.71321382834E+01 -0.14979831619E+02  0.17015959063E+02  0.51100000000E-03 0.  1.
        -12    1    4    4    0    0  0.13799999149E+02 -0.13830651803E+02 -0.13145870632E+02  0.23548690419E+02  0.00000000000E+00 0.  1.
</event>
<event>
 8    1  0.9870402E-014  0.9118800E+02  0.7816164E-02  0.1184000E+00
        -11   -1    0    0    0    0  0.00000000000E+00  0.00000000000E+00  0.45593999997E+02  0.45594000000E+02  0.51100000000E-03 0. -1.
         11   -1    0    0    0    0 -0.00000000000E+00 -0.00000000000E+00 -0.45593999997E+02  0.45594000000E+02  0.51100000000E-03 0.  1.
         23    2    1    2    0    0  0.00000000000E+00 -0.71054273576E-14  0.00000000000E+00  0.91188000000E+02  0.91188000000E+02 0.  0.
    9900012    2    3    3    0    0 -0.53178545563E+01 -0.39153234137E+02 -0.95869908973E+01  0.50528859393E+02  0.29999998609E+02 0.  0.
         12    1    3    3    0    0  0.53178545563E+01  0.39153234137E+02  0.95869908973E+01  0.40659140607E+02  0.00000000000E+00 0. -1.
         11    1    4    4    0    0 -0.44707780510E+01 -0.31585212605E+01  0.33392940693E+01  0.64120977906E+01  0.51100000000E-03 0. -1.
        -11    1    4    4    0    0  0.45716117912E+01 -0.35927701874E+02 -0.13534346464E+02  0.38663651286E+02  0.51100000000E-03 0.  1.
         12    1    4    4    0    0 -0.54186882965E+01 -0.67011002687E-01  0.60806149777E+00  0.54531103156E+01  0.00000000000E+00 0. -1.
</event>
<event>
 8    1  0.9870402E-014  0.9118800E+02  0.7816164E-02  0.1184000E+00
        -11   -1    0    0    0    0  0.00000000000E+00  0.00000000000E+00  0.45593999997E+02  0.45594000000E+02  0.51100000000E-03 0. -1.
         11   -1    0    0    0    0 -0.00000000000E+00 -0.00000000000E+00 -0.45593999997E+02  0.45594000000E+02  0.51100000000E-03 0.  1.
         23    2    1    2    0    0  0.88817841970E-15 -0.17763568394E-14  0.00000000000E+00  0.91188000000E+02  0.91188000000E+02 0.  0.
    9900012    2    3    3    0    0  0.50412573476E+01 -0.86530698086E+01 -0.39406545379E+02  0.50528859435E+02  0.29999998739E+02 0.  0.
         12    1    3    3    0    0 -0.50412573476E+01  0.86530698086E+01  0.39406545379E+02  0.40659140565E+02  0.00000000000E+00 0. -1.
         11    1    4    4    0    0  0.51525729227E+01  0.54210901067E+01 -0.43740909614E+01  0.86642886418E+01  0.51100000000E-03 0. -1.
        -11    1    4    4    0    0  0.12256572461E+01 -0.20344256808E+01 -0.27494732004E+02  0.27597126875E+02  0.51100000000E-03 0.  1.
        -12    1    4    4    0    0 -0.13369728213E+01 -0.12039734235E+02 -0.75377224137E+01  0.14267443918E+02  0.00000000000E+00 0.  1.
</event>
<event>
 8    1  0.9870402E-014  0.9118800E+02  0.7816164E-02  0.1184000E+00
        -11   -1    0    0    0    0  0.00000000000E+00  0.00000000000E+00  0.45593999997E+02  0.45594000000E+02  0.51100000000E-03 0. -1.
         11   -1    0    0    0    0 -0.00000000000E+00 -0.00000000000E+00 -0.45593999997E+02  0.45594000000E+02  0.51100000000E-03 0.  1.
         23    2    1    2    0    0  0.35527136788E-14  0.35527136788E-14  0.00000000000E+00  0.91188000000E+02  0.91188000000E+02 0.  0.
    9900012    2    3    3    0    0 -0.17106748061E+02 -0.18945920455E+02  0.31647701890E+02  0.50528858764E+02  0.29999996700E+02 0.  0.
        -12    1    3    3    0    0  0.17106748061E+02  0.18945920455E+02 -0.31647701890E+02  0.40659141236E+02  0.00000000000E+00 0.  1.
         11    1    4    4    0    0 -0.52994873708E+01 -0.36786581334E+01  0.81634417448E+01  0.10404752445E+02  0.51100000000E-03 0. -1.
        -11    1    4    4    0    0 -0.20011866614E+02 -0.79273473798E+01  0.15591425831E+02  0.26578378460E+02  0.51100000000E-03 0.  1.
        -12    1    4    4    0    0  0.82046059244E+01 -0.73399149423E+01  0.78928343136E+01  0.13545727859E+02  0.00000000000E+00 0.  1.
</event>
<event>
 8    1  0.9870402E-014  0.9118800E+02  0.7816164E-02  0.1184000E+00
        -11   -1    0    0    0    0  0.00000000000E+00  0.00000000000E+00  0.45593999997E+02  0.45594000000E+02  0.51100000000E-03 0. -1.
         11   -1    0    0    0    0 -0.00000000000E+00 -0.00000000000E+00 -0.45593999997E+02  0.45594000000E+02  0.51100000000E-03 0.  1.
         23    2    1    2    0    0 -0.13322676296E-14 -0.71054273576E-14  0.17763568394E-14  0.91188000000E+02  0.91188000000E+02 0.  0.
    9900012    2    3    3    0    0  0.25694121031E+01  0.38088853814E+02 -0.13992970539E+02  0.50528857265E+02  0.29999992143E+02 0.  0.
         12    1    3    3    0    0 -0.25694121031E+01 -0.38088853814E+02  0.13992970539E+02  0.40659142735E+02  0.00000000000E+00 0. -1.
         11    1    4    4    0    0 -0.22104991800E+01 -0.70276535666E+00 -0.21164537278E+01  0.31399940151E+01  0.51100000000E-03 0. -1.
        -11    1    4    4    0    0  0.60867523611E+01 -0.67867374622E+00  0.85462629955E-01  0.61250678757E+01  0.51100000000E-03 0.  1.
        -12    1    4    4    0    0 -0.13068410779E+01  0.39470292917E+02 -0.11961979441E+02  0.41263795374E+02  0.00000000000E+00 0.  1.
</event>
<event>
 8    1  0.9870402E-014  0.9118800E+02  0.7816164E-02  0.1184000E+00
        -11   -1    0    0    0    0  0.00000000000E+00  0.00000000000E+00  0.45593999997E+02  0.45594000000E+02  0.51100000000E-03 0. -1.
         11   -1    0    0    0    0 -0.00000000000E+00 -0.00000000000E+00 -0.45593999997E+02  0.45594000000E+02  0.51100000000E-03 0.  1.
         23    2    1    2    0    0  0.00000000000E+00 -0.88817841970E-15  0.00000000000E+00  0.91188000000E+02  0.91188000000E+02 0.  0.
    9900012    2    3    3    0    0  0.23057100449E+02  0.74557073193E+01  0.32648857905E+02  0.50528863570E+02  0.30000011307E+02 0.  0.
        -12    1    3    3    0    0 -0.23057100449E+02 -0.74557073193E+01 -0.32648857905E+02  0.40659136430E+02  0.00000000000E+00 0.  1.
         11    1    4    4    0    0 -0.22985962921E+01  0.90698697430E+00 -0.53795962195E+00  0.25289466387E+01  0.51100000000E-03 0. -1.
        -11    1    4    4    0    0 -0.39477543992E+01 -0.14376939428E+01  0.53348507907E+01  0.67906083593E+01  0.51100000000E-03 0.  1.
         12    1    4    4    0    0  0.29303451140E+02  0.79864142878E+01  0.27851966736E+02  0.41209308572E+02  0.00000000000E+00 0. -1.
</event>
<event>
 8    1  0.1351016E-013  0.9118800E+02  0.7816164E-02  0.1184000E+00
        -11   -1    0    0    0    0  0.00000000000E+00  0.00000000000E+00  0.45593999997E+02  0.45594000000E+02  0.51100000000E-03 0. -1.
         11   -1    0    0    0    0 -0.00000000000E+00 -0.00000000000E+00 -0.45593999997E+02  0.45594000000E+02  0.51100000000E-03 0.  1.
         23    2    1    2    0    0  0.00000000000E+00  0.95756735874E-15 -0.35527136788E-14  0.91188000000E+02  0.91188000000E+02 0.  0.
    9900012    2    3    3    0    0  0.26276613282E+02 -0.12089178702E+00 -0.31027246098E+02  0.50528867928E+02  0.30000024555E+02 0.  0.
         12    1    3    3    0    0 -0.26276613282E+02  0.12089178702E+00  0.31027246098E+02  0.40659132072E+02  0.00000000000E+00 0. -1.
         11    1    4    4    0    0  0.69039858580E+01  0.48831206159E+01  0.78673162099E+00  0.84928696317E+01  0.51100000000E-03 0. -1.
        -11    1    4    4    0    0  0.15444507863E+02  0.37720908462E+01 -0.26877851559E+02  0.31227878525E+02  0.51100000000E-03 0.  1.
         12    1    4    4    0    0  0.39281195606E+01 -0.87761032491E+01 -0.49361261599E+01  0.10808119771E+02  0.00000000000E+00 0. -1.
</event>
<event>
 8    1  0.9870402E-014  0.9118800E+02  0.7816164E-02  0.1184000E+00
        -11   -1    0    0    0    0  0.00000000000E+00  0.00000000000E+00  0.45593999997E+02  0.45594000000E+02  0.51100000000E-03 0. -1.
         11   -1    0    0    0    0 -0.00000000000E+00 -0.00000000000E+00 -0.45593999997E+02  0.45594000000E+02  0.51100000000E-03 0.  1.
         23    2    1    2    0    0  0.00000000000E+00  0.00000000000E+00  0.00000000000E+00  0.91188000000E+02  0.91188000000E+02 0.  0.
    9900012    2    3    3    0    0  0.80228562840E+01 -0.12660907432E+02  0.37795497863E+02  0.50528874842E+02  0.30000045568E+02 0.  0.
        -12    1    3    3    0    0 -0.80228562840E+01  0.12660907432E+02 -0.37795497863E+02  0.40659125158E+02  0.00000000000E+00 0.  1.
         11    1    4    4    0    0  0.25378612180E+01 -0.78668149923E+01  0.25735167772E+02  0.27030101335E+02  0.51100000000E-03 0. -1.
        -11    1    4    4    0    0 -0.34404693662E+01 -0.38655074469E+01  0.13456451977E+02  0.14417179938E+02  0.51100000000E-03 0.  1.
        -12    1    4    4    0    0  0.89254644322E+01 -0.92858499325E+00 -0.13961218865E+01  0.90815935685E+01  0.00000000000E+00 0.  1.
</event>
<event>
 8    1  0.9870402E-014  0.9118800E+02  0.7816164E-02  0.1184000E+00
        -11   -1    0    0    0    0  0.00000000000E+00  0.00000000000E+00  0.45593999997E+02  0.45594000000E+02  0.51100000000E-03 0.  1.
         11   -1    0    0    0    0 -0.00000000000E+00 -0.00000000000E+00 -0.45593999997E+02  0.45594000000E+02  0.51100000000E-03 0. -1.
         23    2    1    2    0    0  0.88817841970E-15  0.00000000000E+00 -0.17763568394E-14  0.91188000000E+02  0.91188000000E+02 0.  0.
    9900012    2    3    3    0    0  0.48528861062E+01  0.38246100307E+02 -0.12917076170E+02  0.50528861433E+02  0.30000004812E+02 0.  0.
         12    1    3    3    0    0 -0.48528861062E+01 -0.38246100307E+02  0.12917076170E+02  0.40659138567E+02  0.00000000000E+00 0. -1.
         11    1    4    4    0    0  0.46112830486E+01  0.26572675784E+02 -0.83558518035E+01  0.28234576131E+02  0.51100000000E-03 0. -1.
        -11    1    4    4    0    0  0.27010306940E+01  0.98194433646E+01  0.56376853630E+01  0.11640469549E+02  0.51100000000E-03 0.  1.
         12    1    4    4    0    0 -0.24594276365E+01  0.18539811576E+01 -0.10198909729E+02  0.10653815753E+02  0.00000000000E+00 0. -1.
</event>
<event>
 8    1  0.9870402E-014  0.9118800E+02  0.7816164E-02  0.1184000E+00
        -11   -1    0    0    0    0  0.00000000000E+00  0.00000000000E+00  0.45593999997E+02  0.45594000000E+02  0.51100000000E-03 0. -1.
         11   -1    0    0    0    0 -0.00000000000E+00 -0.00000000000E+00 -0.45593999997E+02  0.45594000000E+02  0.51100000000E-03 0.  1.
         23    2    1    2    0    0  0.35527136788E-14 -0.35527136788E-14  0.17763568394E-14  0.91188000000E+02  0.91188000000E+02 0.  0.
    9900012    2    3    3    0    0 -0.30767178765E+02  0.23329902685E+02 -0.12738210564E+02  0.50528860107E+02  0.30000000782E+02 0.  0.
         12    1    3    3    0    0  0.30767178765E+02 -0.23329902685E+02  0.12738210564E+02  0.40659139893E+02  0.00000000000E+00 0. -1.
         11    1    4    4    0    0 -0.21914383236E+02  0.96515506638E+01 -0.65118011533E+01  0.24815240828E+02  0.51100000000E-03 0. -1.
        -11    1    4    4    0    0 -0.70427076700E+01 -0.25131509120E+01 -0.57179504998E+01  0.94133212529E+01  0.51100000000E-03 0.  1.
        -12    1    4    4    0    0 -0.18100878586E+01  0.16191502933E+02 -0.50845891134E+00  0.16300298026E+02  0.00000000000E+00 0.  1.
</event>
<event>
 8    1  0.9870402E-014  0.9118800E+02  0.7816164E-02  0.1184000E+00
        -11   -1    0    0    0    0  0.00000000000E+00  0.00000000000E+00  0.45593999997E+02  0.45594000000E+02  0.51100000000E-03 0. -1.
         11   -1    0    0    0    0 -0.00000000000E+00 -0.00000000000E+00 -0.45593999997E+02  0.45594000000E+02  0.51100000000E-03 0.  1.
         23    2    1    2    0    0 -0.35527136788E-14  0.17763568394E-14  0.00000000000E+00  0.91188000000E+02  0.91188000000E+02 0.  0.
    9900012    2    3    3    0    0  0.31334221673E+02 -0.69825822511E+01  0.24951463430E+02  0.50528862896E+02  0.30000009258E+02 0.  0.
        -12    1    3    3    0    0 -0.31334221673E+02  0.69825822511E+01 -0.24951463430E+02  0.40659137104E+02  0.00000000000E+00 0.  1.
         11    1    4    4    0    0 -0.86729565511E+00  0.28902069653E+01  0.73422327944E+01  0.79381282884E+01  0.51100000000E-03 0. -1.
        -11    1    4    4    0    0  0.17929657003E+02 -0.10745140383E+02  0.18970178430E+02  0.28227616124E+02  0.51100000000E-03 0.  1.
        -12    1    4    4    0    0  0.14271860325E+02  0.87235116682E+00 -0.13609477936E+01  0.14363118484E+02  0.00000000000E+00 0.  1.
</event>
<event>
 8    1  0.9870402E-014  0.9118800E+02  0.7816164E-02  0.1184000E+00
        -11   -1    0    0    0    0  0.00000000000E+00  0.00000000000E+00  0.45593999997E+02  0.45594000000E+02  0.51100000000E-03 0. -1.
         11   -1    0    0    0    0 -0.00000000000E+00 -0.00000000000E+00 -0.45593999997E+02  0.45594000000E+02  0.51100000000E-03 0.  1.
         23    2    1    2    0    0 -0.35527136788E-14 -0.35527136788E-14  0.00000000000E+00  0.91188000000E+02  0.91188000000E+02 0.  0.
    9900012    2    3    3    0    0 -0.24413213456E+02  0.22828083112E+02 -0.23152499386E+02  0.50528873133E+02  0.30000040374E+02 0.  0.
         12    1    3    3    0    0  0.24413213456E+02 -0.22828083112E+02  0.23152499386E+02  0.40659126867E+02  0.00000000000E+00 0. -1.
         11    1    4    4    0    0 -0.65702758005E+01  0.91202788431E+01 -0.10969511079E+02  0.15705991972E+02  0.51100000000E-03 0. -1.
        -11    1    4    4    0    0 -0.13429712502E+02 -0.14712831034E+01 -0.13322859298E+02  0.18974204383E+02  0.51100000000E-03 0.  1.
         12    1    4    4    0    0 -0.44132251537E+01  0.15179087372E+02  0.11398709905E+01  0.15848676777E+02  0.00000000000E+00 0. -1.
</event>
<event>
 8    1  0.9870402E-014  0.9118800E+02  0.7816164E-02  0.1184000E+00
        -11   -1    0    0    0    0  0.00000000000E+00  0.00000000000E+00  0.45593999997E+02  0.45594000000E+02  0.51100000000E-03 0. -1.
         11   -1    0    0    0    0 -0.00000000000E+00 -0.00000000000E+00 -0.45593999997E+02  0.45594000000E+02  0.51100000000E-03 0.  1.
         23    2    1    2    0    0  0.00000000000E+00  0.35527136788E-14  0.00000000000E+00  0.91188000000E+02  0.91188000000E+02 0.  0.
    9900012    2    3    3    0    0  0.18171448594E+02 -0.17631440518E+02 -0.31813451416E+02  0.50528869048E+02  0.30000027959E+02 0.  0.
         12    1    3    3    0    0 -0.18171448594E+02  0.17631440518E+02  0.31813451416E+02  0.40659130952E+02  0.00000000000E+00 0. -1.
         11    1    4    4    0    0  0.96647524063E+01  0.46423119847E+01 -0.13117789691E+02  0.16942104541E+02  0.51100000000E-03 0. -1.
        -11    1    4    4    0    0  0.11345731035E+02 -0.15444747898E+02 -0.17767146400E+02  0.26133069889E+02  0.51100000000E-03 0.  1.
        -12    1    4    4    0    0 -0.28390348476E+01 -0.68290046047E+01 -0.92851532510E+00  0.74536946186E+01  0.00000000000E+00 0.  1.
</event>
<event>
 8    1  0.9870402E-014  0.9118800E+02  0.7816164E-02  0.1184000E+00
        -11   -1    0    0    0    0  0.00000000000E+00  0.00000000000E+00  0.45593999997E+02  0.45594000000E+02  0.51100000000E-03 0. -1.
         11   -1    0    0    0    0 -0.00000000000E+00 -0.00000000000E+00 -0.45593999997E+02  0.45594000000E+02  0.51100000000E-03 0.  1.
         23    2    1    2    0    0 -0.35527136788E-14  0.00000000000E+00  0.00000000000E+00  0.91188000000E+02  0.91188000000E+02 0.  0.
    9900012    2    3    3    0    0 -0.23314649299E+02  0.18657359207E+02 -0.27595213554E+02  0.50528859138E+02  0.29999997836E+02 0.  0.
         12    1    3    3    0    0  0.23314649299E+02 -0.18657359207E+02  0.27595213554E+02  0.40659140862E+02  0.00000000000E+00 0. -1.
         11    1    4    4    0    0 -0.16947585656E+01 -0.66659847738E+01 -0.55096621566E+01  0.88127145047E+01  0.51100000000E-03 0. -1.
        -11    1    4    4    0    0 -0.19128983299E+01  0.10543537581E+02 -0.76284171841E+01  0.13153635001E+02  0.51100000000E-03 0.  1.
         12    1    4    4    0    0 -0.19706992404E+02  0.14779806400E+02 -0.14457134214E+02  0.28562509632E+02  0.00000000000E+00 0. -1.
</event>
<event>
 8    1  0.9870402E-014  0.9118800E+02  0.7816164E-02  0.1184000E+00
        -11   -1    0    0    0    0  0.00000000000E+00  0.00000000000E+00  0.45593999997E+02  0.45594000000E+02  0.51100000000E-03 0. -1.
         11   -1    0    0    0    0 -0.00000000000E+00 -0.00000000000E+00 -0.45593999997E+02  0.45594000000E+02  0.51100000000E-03 0.  1.
         23    2    1    2    0    0  0.00000000000E+00  0.00000000000E+00  0.00000000000E+00  0.91188000000E+02  0.91188000000E+02 0.  0.
    9900012    2    3    3    0    0 -0.91986649690E+01  0.33413819016E+02  0.21261865958E+02  0.50528859792E+02  0.29999999825E+02 0.  0.
        -12    1    3    3    0    0  0.91986649690E+01 -0.33413819016E+02 -0.21261865958E+02  0.40659140208E+02  0.00000000000E+00 0.  1.
         11    1    4    4    0    0  0.21376308589E+01 -0.11108960406E+01  0.32869961044E+01  0.40752790522E+01  0.51100000000E-03 0. -1.
        -11    1    4    4    0    0 -0.72678885458E+01  0.80327950577E+01 -0.42486178890E+01  0.11636097051E+02  0.51100000000E-03 0.  1.
         12    1    4    4    0    0 -0.40684072820E+01  0.26491919998E+02  0.22223487742E+02  0.34817483689E+02  0.00000000000E+00 0. -1.
</event>
<event>
 8    1  0.9870402E-014  0.9118800E+02  0.7816164E-02  0.1184000E+00
        -11   -1    0    0    0    0  0.00000000000E+00  0.00000000000E+00  0.45593999997E+02  0.45594000000E+02  0.51100000000E-03 0. -1.
         11   -1    0    0    0    0 -0.00000000000E+00 -0.00000000000E+00 -0.45593999997E+02  0.45594000000E+02  0.51100000000E-03 0.  1.
         23    2    1    2    0    0  0.00000000000E+00  0.88817841970E-15  0.00000000000E+00  0.91188000000E+02  0.91188000000E+02 0.  0.
    9900012    2    3    3    0    0  0.16874599033E+02  0.46349116517E+01  0.36700563208E+02  0.50528857875E+02  0.29999993997E+02 0.  0.
        -12    1    3    3    0    0 -0.16874599033E+02 -0.46349116517E+01 -0.36700563208E+02  0.40659142125E+02  0.00000000000E+00 0.  1.
         11    1    4    4    0    0  0.31976663680E+01 -0.60578012836E+01  0.13200424190E+02  0.14871893815E+02  0.51100000000E-03 0. -1.
        -11    1    4    4    0    0  0.90679550246E+01 -0.13638531837E+01  0.37997731323E+00  0.91778149281E+01  0.51100000000E-03 0.  1.
         12    1    4    4    0    0  0.46089776404E+01  0.12056566119E+02  0.23120161705E+02  0.26479149132E+02  0.00000000000E+00 0. -1.
</event>
<event>
 8    1  0.9870402E-014  0.9118800E+02  0.7816164E-02  0.1184000E+00
        -11   -1    0    0    0    0  0.00000000000E+00  0.00000000000E+00  0.45593999997E+02  0.45594000000E+02  0.51100000000E-03 0. -1.
         11   -1    0    0    0    0 -0.00000000000E+00 -0.00000000000E+00 -0.45593999997E+02  0.45594000000E+02  0.51100000000E-03 0.  1.
         23    2    1    2    0    0  0.00000000000E+00  0.17763568394E-14  0.00000000000E+00  0.91188000000E+02  0.91188000000E+02 0.  0.
    9900012    2    3    3    0    0 -0.38723368214E+01  0.15769440075E+02 -0.37275931390E+02  0.50528864573E+02  0.30000014355E+02 0.  0.
         12    1    3    3    0    0  0.38723368214E+01 -0.15769440075E+02  0.37275931390E+02  0.40659135427E+02  0.00000000000E+00 0. -1.
         11    1    4    4    0    0 -0.10112902818E+01 -0.38642161179E+01 -0.10792150540E+02  0.11507623029E+02  0.51100000000E-03 0. -1.
        -11    1    4    4    0    0  0.62900437120E+01  0.94001533277E+01 -0.21722482654E+02  0.24490687728E+02  0.51100000000E-03 0.  1.
        -12    1    4    4    0    0 -0.91510902516E+01  0.10233502865E+02 -0.47612981965E+01  0.14530553816E+02  0.00000000000E+00 0.  1.
</event>
<event>
 8    1  0.9870402E-014  0.9118800E+02  0.7816164E-02  0.1184000E+00
        -11   -1    0    0    0    0  0.00000000000E+00  0.00000000000E+00  0.45593999997E+02  0.45594000000E+02  0.51100000000E-03 0. -1.
         11   -1    0    0    0    0 -0.00000000000E+00 -0.00000000000E+00 -0.45593999997E+02  0.45594000000E+02  0.51100000000E-03 0.  1.
         23    2    1    2    0    0 -0.35527136788E-14  0.00000000000E+00  0.00000000000E+00  0.91188000000E+02  0.91188000000E+02 0.  0.
    9900012    2    3    3    0    0  0.30628583246E+02  0.24844447567E+02 -0.98898240589E+01  0.50528864415E+02  0.30000013877E+02 0.  0.
        -12    1    3    3    0    0 -0.30628583246E+02 -0.24844447567E+02  0.98898240589E+01  0.40659135585E+02  0.00000000000E+00 0.  1.
         11    1    4    4    0    0  0.12862883099E+02  0.16733567138E+02 -0.52291397221E+01  0.21744193093E+02  0.51100000000E-03 0. -1.
        -11    1    4    4    0    0  0.16404103825E+01 -0.37267405218E+01  0.51003737500E+01  0.65263583867E+01  0.51100000000E-03 0.  1.
         12    1    4    4    0    0  0.16125289765E+02  0.11837620951E+02 -0.97610580869E+01  0.22258312936E+02  0.00000000000E+00 0. -1.
</event>
<event>
 8    1  0.9870402E-014  0.9118800E+02  0.7816164E-02  0.1184000E+00
        -11   -1    0    0    0    0  0.00000000000E+00  0.00000000000E+00  0.45593999997E+02  0.45594000000E+02  0.51100000000E-03 0. -1.
         11   -1    0    0    0    0 -0.00000000000E+00 -0.00000000000E+00 -0.45593999997E+02  0.45594000000E+02  0.51100000000E-03 0.  1.
         23    2    1    2    0    0  0.00000000000E+00  0.00000000000E+00  0.00000000000E+00  0.91188000000E+02  0.91188000000E+02 0.  0.
    9900012    2    3    3    0    0 -0.18164671890E+02  0.17650330692E+02 -0.31806851175E+02  0.50528864986E+02  0.30000015613E+02 0.  0.
         12    1    3    3    0    0  0.18164671890E+02 -0.17650330692E+02  0.31806851175E+02  0.40659135014E+02  0.00000000000E+00 0. -1.
         11    1    4    4    0    0  0.43497867907E+01  0.90980935056E+01 -0.31685783155E+01  0.10570517460E+02  0.51100000000E-03 0. -1.
        -11    1    4    4    0    0 -0.55177585973E+01 -0.32473974261E+01 -0.11191489908E+02  0.12893436183E+02  0.51100000000E-03 0.  1.
        -12    1    4    4    0    0 -0.16996700083E+02  0.11799634612E+02 -0.17446782952E+02  0.27064911344E+02  0.00000000000E+00 0.  1.
</event>
<event>
 8    1  0.9870402E-014  0.9118800E+02  0.7816164E-02  0.1184000E+00
        -11   -1    0    0    0    0  0.00000000000E+00  0.00000000000E+00  0.45593999997E+02  0.45594000000E+02  0.51100000000E-03 0. -1.
         11   -1    0    0    0    0 -0.00000000000E+00 -0.00000000000E+00 -0.45593999997E+02  0.45594000000E+02  0.51100000000E-03 0.  1.
         23    2    1    2    0    0  0.00000000000E+00  0.88817841970E-15 -0.17763568394E-14  0.91188000000E+02  0.91188000000E+02 0.  0.
    9900012    2    3    3    0    0 -0.37310215465E+02 -0.58883040205E+01 -0.15047958692E+02  0.50528863720E+02  0.30000011762E+02 0.  0.
         12    1    3    3    0    0  0.37310215465E+02  0.58883040205E+01  0.15047958692E+02  0.40659136280E+02  0.00000000000E+00 0. -1.
         11    1    4    4    0    0 -0.29013235337E+01  0.78891642565E+00  0.74832543777E+01  0.80646862132E+01  0.51100000000E-03 0. -1.
        -11    1    4    4    0    0 -0.20506224621E+02 -0.69562506730E+01 -0.10450238384E+02  0.24043754993E+02  0.51100000000E-03 0.  1.
        -12    1    4    4    0    0 -0.13902667310E+02  0.27903022685E+00 -0.12080974686E+02  0.18420422513E+02  0.00000000000E+00 0.  1.
</event>
<event>
 8    1  0.9870402E-014  0.9118800E+02  0.7816164E-02  0.1184000E+00
        -11   -1    0    0    0    0  0.00000000000E+00  0.00000000000E+00  0.45593999997E+02  0.45594000000E+02  0.51100000000E-03 0. -1.
         11   -1    0    0    0    0 -0.00000000000E+00 -0.00000000000E+00 -0.45593999997E+02  0.45594000000E+02  0.51100000000E-03 0.  1.
         23    2    1    2    0    0  0.35527136788E-14  0.35527136788E-14  0.71054273576E-14  0.91188000000E+02  0.91188000000E+02 0.  0.
    9900012    2    3    3    0    0  0.13167448220E+02  0.17993652685E+02  0.34000218504E+02  0.50528830212E+02  0.29999909912E+02 0.  0.
        -12    1    3    3    0    0 -0.13167448220E+02 -0.17993652685E+02 -0.34000218504E+02  0.40659169788E+02  0.00000000000E+00 0.  1.
         11    1    4    4    0    0  0.12055596862E+02 -0.53579065893E+00  0.21868907684E+02  0.24977462058E+02  0.51100000000E-03 0. -1.
        -11    1    4    4    0    0  0.65189184176E+01  0.68150753037E+01  0.66149522708E+01  0.11519511384E+02  0.51100000000E-03 0.  1.
        -12    1    4    4    0    0 -0.54070670592E+01  0.11714368040E+02  0.55163585489E+01  0.14031856769E+02  0.00000000000E+00 0.  1.
</event>
<event>
 8    1  0.9870402E-014  0.9118800E+02  0.7816164E-02  0.1184000E+00
        -11   -1    0    0    0    0  0.00000000000E+00  0.00000000000E+00  0.45593999997E+02  0.45594000000E+02  0.51100000000E-03 0. -1.
         11   -1    0    0    0    0 -0.00000000000E+00 -0.00000000000E+00 -0.45593999997E+02  0.45594000000E+02  0.51100000000E-03 0.  1.
         23    2    1    2    0    0  0.35527136788E-14  0.00000000000E+00 -0.44408920985E-15  0.91188000000E+02  0.91188000000E+02 0.  0.
    9900012    2    3    3    0    0 -0.28054637803E+02 -0.29388741501E+02 -0.15497071491E+01  0.50528899892E+02  0.30000121713E+02 0.  0.
        -12    1    3    3    0    0  0.28054637803E+02  0.29388741501E+02  0.15497071491E+01  0.40659100108E+02  0.00000000000E+00 0.  1.
         11    1    4    4    0    0 -0.92789828172E+00 -0.80283513241E+00 -0.75065273098E+01  0.76061483016E+01  0.51100000000E-03 0. -1.
        -11    1    4    4    0    0 -0.77698638708E+01 -0.18248732456E+02 -0.11203462940E+01  0.19865603361E+02  0.51100000000E-03 0.  1.
         12    1    4    4    0    0 -0.19356875651E+02 -0.10337173913E+02  0.70771664548E+01  0.23057148230E+02  0.00000000000E+00 0. -1.
</event>
<event>
 8    1  0.9870402E-014  0.9118800E+02  0.7816164E-02  0.1184000E+00
        -11   -1    0    0    0    0  0.00000000000E+00  0.00000000000E+00  0.45593999997E+02  0.45594000000E+02  0.51100000000E-03 0. -1.
         11   -1    0    0    0    0 -0.00000000000E+00 -0.00000000000E+00 -0.45593999997E+02  0.45594000000E+02  0.51100000000E-03 0.  1.
         23    2    1    2    0    0  0.00000000000E+00  0.00000000000E+00  0.00000000000E+00  0.91188000000E+02  0.91188000000E+02 0.  0.
    9900012    2    3    3    0    0  0.10104220016E+02  0.35571705661E+02  0.16903375611E+02  0.50528860649E+02  0.30000002428E+02 0.  0.
        -12    1    3    3    0    0 -0.10104220016E+02 -0.35571705661E+02 -0.16903375611E+02  0.40659139351E+02  0.00000000000E+00 0.  1.
         11    1    4    4    0    0 -0.65498432478E+01  0.16872834739E+01  0.42316787053E+01  0.79783755877E+01  0.51100000000E-03 0. -1.
        -11    1    4    4    0    0  0.45067714649E+01  0.18148513845E+02  0.12817621305E+02  0.22670927639E+02  0.51100000000E-03 0.  1.
        -12    1    4    4    0    0  0.12147291798E+02  0.15735908342E+02 -0.14592439940E+00  0.19879557422E+02  0.00000000000E+00 0.  1.
</event>
<event>
 8    1  0.9870402E-014  0.9118800E+02  0.7816164E-02  0.1184000E+00
        -11   -1    0    0    0    0  0.00000000000E+00  0.00000000000E+00  0.45593999997E+02  0.45594000000E+02  0.51100000000E-03 0. -1.
         11   -1    0    0    0    0 -0.00000000000E+00 -0.00000000000E+00 -0.45593999997E+02  0.45594000000E+02  0.51100000000E-03 0.  1.
         23    2    1    2    0    0  0.00000000000E+00 -0.17763568394E-14  0.00000000000E+00  0.91188000000E+02  0.91188000000E+02 0.  0.
    9900012    2    3    3    0    0 -0.92088640625E+01  0.14360870218E+02 -0.36907028104E+02  0.50528849810E+02  0.29999969481E+02 0.  0.
         12    1    3    3    0    0  0.92088640625E+01 -0.14360870218E+02  0.36907028104E+02  0.40659150190E+02  0.00000000000E+00 0. -1.
         11    1    4    4    0    0  0.48883892905E+01  0.71634481353E+00 -0.51300878067E+01  0.71223100826E+01  0.51100000000E-03 0. -1.
        -11    1    4    4    0    0 -0.10083900350E+02 -0.26217210168E+01 -0.21120368995E+02  0.23550551036E+02  0.51100000000E-03 0.  1.
         12    1    4    4    0    0 -0.40133530034E+01  0.16266246422E+02 -0.10656571302E+02  0.19855988691E+02  0.00000000000E+00 0. -1.
</event>
<event>
 8    1  0.9870402E-014  0.9118800E+02  0.7816164E-02  0.1184000E+00
        -11   -1    0    0    0    0  0.00000000000E+00  0.00000000000E+00  0.45593999997E+02  0.45594000000E+02  0.51100000000E-03 0. -1.
         11   -1    0    0    0    0 -0.00000000000E+00 -0.00000000000E+00 -0.45593999997E+02  0.45594000000E+02  0.51100000000E-03 0.  1.
         23    2    1    2    0    0 -0.35527136788E-14  0.00000000000E+00 -0.71054273576E-14  0.91188000000E+02  0.91188000000E+02 0.  0.
    9900012    2    3    3    0    0  0.18497809399E+02 -0.16810744408E+02  0.32068593878E+02  0.50528870724E+02  0.30000033054E+02 0.  0.
        -12    1    3    3    0    0 -0.18497809399E+02  0.16810744408E+02 -0.32068593878E+02  0.40659129276E+02  0.00000000000E+00 0.  1.
         11    1    4    4    0    0  0.18613748527E+02 -0.73651215417E+01  0.22553416227E+02  0.30155815912E+02  0.51100000000E-03 0. -1.
        -11    1    4    4    0    0  0.59104433254E+01 -0.26526689501E+01 -0.91613119071E+00  0.65428808243E+01  0.51100000000E-03 0.  1.
        -12    1    4    4    0    0 -0.60263824533E+01 -0.67929539166E+01  0.10431308842E+02  0.13830173988E+02  0.00000000000E+00 0.  1.
</event>
<event>
 8    1  0.9870402E-014  0.9118800E+02  0.7816164E-02  0.1184000E+00
        -11   -1    0    0    0    0  0.00000000000E+00  0.00000000000E+00  0.45593999997E+02  0.45594000000E+02  0.51100000000E-03 0. -1.
         11   -1    0    0    0    0 -0.00000000000E+00 -0.00000000000E+00 -0.45593999997E+02  0.45594000000E+02  0.51100000000E-03 0.  1.
         23    2    1    2    0    0  0.00000000000E+00  0.00000000000E+00  0.00000000000E+00  0.91188000000E+02  0.91188000000E+02 0.  0.
    9900012    2    3    3    0    0  0.23161526779E+02  0.30313793097E+01  0.33279416350E+02  0.50528866514E+02  0.30000020255E+02 0.  0.
        -12    1    3    3    0    0 -0.23161526779E+02 -0.30313793097E+01 -0.33279416350E+02  0.40659133486E+02  0.00000000000E+00 0.  1.
         11    1    4    4    0    0  0.45645692721E+01  0.36651323935E+01 -0.99016517953E+00  0.59370797068E+01  0.51100000000E-03 0. -1.
        -11    1    4    4    0    0 -0.20086150015E+01  0.66990213482E+00  0.18476305226E+02  0.18597235229E+02  0.51100000000E-03 0.  1.
         12    1    4    4    0    0  0.20605572508E+02 -0.13036552186E+01  0.15793276303E+02  0.25994551578E+02  0.00000000000E+00 0. -1.
</event>
<event>
 8    1  0.9870402E-014  0.9118800E+02  0.7816164E-02  0.1184000E+00
        -11   -1    0    0    0    0  0.00000000000E+00  0.00000000000E+00  0.45593999997E+02  0.45594000000E+02  0.51100000000E-03 0. -1.
         11   -1    0    0    0    0 -0.00000000000E+00 -0.00000000000E+00 -0.45593999997E+02  0.45594000000E+02  0.51100000000E-03 0.  1.
         23    2    1    2    0    0 -0.35527136788E-14  0.35527136788E-14 -0.17763568394E-14  0.91188000000E+02  0.91188000000E+02 0.  0.
    9900012    2    3    3    0    0 -0.21958452443E+02  0.30283231845E+02 -0.15934789897E+02  0.50528864573E+02  0.30000014356E+02 0.  0.
         12    1    3    3    0    0  0.21958452443E+02 -0.30283231845E+02  0.15934789897E+02  0.40659135427E+02  0.00000000000E+00 0. -1.
         11    1    4    4    0    0 -0.42159119006E+01 -0.23302492276E+01 -0.59195206392E+01  0.76318215044E+01  0.51100000000E-03 0. -1.
        -11    1    4    4    0    0 -0.39911315689E+01  0.10508303148E+02 -0.12421626845E+02  0.16752623078E+02  0.51100000000E-03 0.  1.
         12    1    4    4    0    0 -0.13751408973E+02  0.22105177924E+02  0.24063575874E+01  0.26144419991E+02  0.00000000000E+00 0. -1.
</event>
<event>
 8    1  0.9870402E-014  0.9118800E+02  0.7816164E-02  0.1184000E+00
        -11   -1    0    0    0    0  0.00000000000E+00  0.00000000000E+00  0.45593999997E+02  0.45594000000E+02  0.51100000000E-03 0. -1.
         11   -1    0    0    0    0 -0.00000000000E+00 -0.00000000000E+00 -0.45593999997E+02  0.45594000000E+02  0.51100000000E-03 0.  1.
         23    2    1    2    0    0  0.00000000000E+00  0.00000000000E+00  0.00000000000E+00  0.91188000000E+02  0.91188000000E+02 0.  0.
    9900012    2    3    3    0    0  0.99990861313E+01 -0.39040796597E+01 -0.39216603504E+02  0.50528861398E+02  0.30000004705E+02 0.  0.
         12    1    3    3    0    0 -0.99990861313E+01  0.39040796597E+01  0.39216603504E+02  0.40659138602E+02  0.00000000000E+00 0. -1.
         11    1    4    4    0    0  0.99420214897E+01  0.65517714330E+01 -0.92742220509E+01  0.15092405213E+02  0.51100000000E-03 0. -1.
        -11    1    4    4    0    0 -0.14939920347E+00  0.29005713807E+01 -0.15475396500E+02  0.15745587686E+02  0.51100000000E-03 0.  1.
         12    1    4    4    0    0  0.20646384503E+00 -0.13356422473E+02 -0.14466984953E+02  0.19690868499E+02  0.00000000000E+00 0. -1.
</event>
<event>
 8    1  0.9870402E-014  0.9118800E+02  0.7816164E-02  0.1184000E+00
        -11   -1    0    0    0    0  0.00000000000E+00  0.00000000000E+00  0.45593999997E+02  0.45594000000E+02  0.51100000000E-03 0. -1.
         11   -1    0    0    0    0 -0.00000000000E+00 -0.00000000000E+00 -0.45593999997E+02  0.45594000000E+02  0.51100000000E-03 0.  1.
         23    2    1    2    0    0  0.17763568394E-14  0.00000000000E+00  0.35527136788E-14  0.91188000000E+02  0.91188000000E+02 0.  0.
    9900012    2    3    3    0    0  0.10246842180E+02  0.26834103860E+02 -0.28776703121E+02  0.50528861456E+02  0.30000004881E+02 0.  0.
         12    1    3    3    0    0 -0.10246842180E+02 -0.26834103860E+02  0.28776703121E+02  0.40659138544E+02  0.00000000000E+00 0. -1.
         11    1    4    4    0    0 -0.44499412149E+01  0.10218007351E+02 -0.24542071101E+01  0.11411957932E+02  0.51100000000E-03 0. -1.
        -11    1    4    4    0    0  0.34445150091E+01  0.15738612848E+02 -0.21442396864E+02  0.26820607777E+02  0.51100000000E-03 0.  1.
        -12    1    4    4    0    0  0.11252268386E+02  0.87748366159E+00 -0.48800991472E+01  0.12296295746E+02  0.00000000000E+00 0.  1.
</event>
<event>
 8    1  0.9870402E-014  0.9118800E+02  0.7816164E-02  0.1184000E+00
        -11   -1    0    0    0    0  0.00000000000E+00  0.00000000000E+00  0.45593999997E+02  0.45594000000E+02  0.51100000000E-03 0. -1.
         11   -1    0    0    0    0 -0.00000000000E+00 -0.00000000000E+00 -0.45593999997E+02  0.45594000000E+02  0.51100000000E-03 0.  1.
         23    2    1    2    0    0  0.71054273576E-14 -0.88817841970E-15 -0.35527136788E-14  0.91188000000E+02  0.91188000000E+02 0.  0.
    9900012    2    3    3    0    0 -0.31639767305E+02  0.74801032686E+01 -0.24415928247E+02  0.50528875905E+02  0.30000048801E+02 0.  0.
         12    1    3    3    0    0  0.31639767305E+02 -0.74801032686E+01  0.24415928247E+02  0.40659124095E+02  0.00000000000E+00 0. -1.
         11    1    4    4    0    0 -0.11527847605E+01  0.12889481642E+01  0.20679691400E+01  0.26956996679E+01  0.51100000000E-03 0. -1.
        -11    1    4    4    0    0 -0.32853076482E+02  0.64556849849E+01 -0.16047145429E+02  0.37128309679E+02  0.51100000000E-03 0.  1.
         12    1    4    4    0    0  0.23660939380E+01 -0.26452988050E+00 -0.10436751958E+02  0.10704866558E+02  0.00000000000E+00 0. -1.
</event>
<event>
 8    1  0.9870402E-014  0.9118800E+02  0.7816164E-02  0.1184000E+00
        -11   -1    0    0    0    0  0.00000000000E+00  0.00000000000E+00  0.45593999997E+02  0.45594000000E+02  0.51100000000E-03 0. -1.
         11   -1    0    0    0    0 -0.00000000000E+00 -0.00000000000E+00 -0.45593999997E+02  0.45594000000E+02  0.51100000000E-03 0.  1.
         23    2    1    2    0    0  0.88817841970E-15  0.00000000000E+00  0.35527136788E-14  0.91188000000E+02  0.91188000000E+02 0.  0.
    9900012    2    3    3    0    0 -0.42969481806E+01  0.30043553032E+02  0.27057103856E+02  0.50528859434E+02  0.29999998736E+02 0.  0.
        -12    1    3    3    0    0  0.42969481806E+01 -0.30043553032E+02 -0.27057103856E+02  0.40659140566E+02  0.00000000000E+00 0.  1.
         11    1    4    4    0    0 -0.77804986536E+01  0.27662025021E+01  0.11175362212E+02  0.13895206238E+02  0.51100000000E-03 0. -1.
        -11    1    4    4    0    0 -0.35484750025E+01  0.15964449087E+02  0.16588619039E+02  0.23294582876E+02  0.51100000000E-03 0.  1.
        -12    1    4    4    0    0  0.70320254754E+01  0.11312901443E+02 -0.70687739412E+00  0.13339070320E+02  0.00000000000E+00 0.  1.
</event>
<event>
 8    1  0.9870402E-014  0.9118800E+02  0.7816164E-02  0.1184000E+00
        -11   -1    0    0    0    0  0.00000000000E+00  0.00000000000E+00  0.45593999997E+02  0.45594000000E+02  0.51100000000E-03 0. -1.
         11   -1    0    0    0    0 -0.00000000000E+00 -0.00000000000E+00 -0.45593999997E+02  0.45594000000E+02  0.51100000000E-03 0.  1.
         23    2    1    2    0    0 -0.22204460493E-15 -0.99226182826E-15 -0.71054273576E-14  0.91188000000E+02  0.91188000000E+02 0.  0.
    9900012    2    3    3    0    0  0.13704024243E+01 -0.51359521237E-01  0.40636007542E+02  0.50528858967E+02  0.29999997316E+02 0.  0.
        -12    1    3    3    0    0 -0.13704024243E+01  0.51359521237E-01 -0.40636007542E+02  0.40659141033E+02  0.00000000000E+00 0.  1.
         11    1    4    4    0    0  0.17593513677E+01  0.38105458151E+01  0.35619272616E+02  0.35865696126E+02  0.51100000000E-03 0. -1.
        -11    1    4    4    0    0 -0.12645796837E+01  0.30959001050E+01 -0.26544627092E+01  0.42696524182E+01  0.51100000000E-03 0.  1.
        -12    1    4    4    0    0  0.87563074030E+00 -0.69578054413E+01  0.76711976349E+01  0.10393510423E+02  0.00000000000E+00 0.  1.
</event>
<event>
 8    1  0.9870402E-014  0.9118800E+02  0.7816164E-02  0.1184000E+00
        -11   -1    0    0    0    0  0.00000000000E+00  0.00000000000E+00  0.45593999997E+02  0.45594000000E+02  0.51100000000E-03 0. -1.
         11   -1    0    0    0    0 -0.00000000000E+00 -0.00000000000E+00 -0.45593999997E+02  0.45594000000E+02  0.51100000000E-03 0.  1.
         23    2    1    2    0    0 -0.22204460493E-15  0.00000000000E+00 -0.35527136788E-14  0.91188000000E+02  0.91188000000E+02 0.  0.
    9900012    2    3    3    0    0  0.18088518973E+01 -0.28195914520E+02 -0.29238414048E+02  0.50528851007E+02  0.29999973120E+02 0.  0.
         12    1    3    3    0    0 -0.18088518973E+01  0.28195914520E+02  0.29238414048E+02  0.40659148993E+02  0.00000000000E+00 0. -1.
         11    1    4    4    0    0 -0.19312025290E+01  0.25770532157E+01 -0.24304056432E+01  0.40345530528E+01  0.51100000000E-03 0. -1.
        -11    1    4    4    0    0  0.62494514496E+01 -0.92143651666E+01 -0.21405437822E+02  0.24127845686E+02  0.51100000000E-03 0.  1.
         12    1    4    4    0    0 -0.25093970233E+01 -0.21558602569E+02 -0.54025705831E+01  0.22366452268E+02  0.00000000000E+00 0. -1.
</event>
<event>
 8    1  0.9870402E-014  0.9118800E+02  0.7816164E-02  0.1184000E+00
        -11   -1    0    0    0    0  0.00000000000E+00  0.00000000000E+00  0.45593999997E+02  0.45594000000E+02  0.51100000000E-03 0. -1.
         11   -1    0    0    0    0 -0.00000000000E+00 -0.00000000000E+00 -0.45593999997E+02  0.45594000000E+02  0.51100000000E-03 0.  1.
         23    2    1    2    0    0 -0.35527136788E-14 -0.88817841970E-15  0.00000000000E+00  0.91188000000E+02  0.91188000000E+02 0.  0.
    9900012    2    3    3    0    0  0.27102472587E+02  0.32948926506E+01  0.30129335469E+02  0.50528718234E+02  0.29999569542E+02 0.  0.
        -12    1    3    3    0    0 -0.27102472587E+02 -0.32948926506E+01 -0.30129335469E+02  0.40659281766E+02  0.00000000000E+00 0.  1.
         11    1    4    4    0    0  0.78562616218E-01 -0.98196127288E+00 -0.10808066699E+01  0.14623827628E+01  0.51100000000E-03 0. -1.
        -11    1    4    4    0    0  0.16549484922E+02 -0.45025842807E+01  0.30964239021E+02  0.35396932280E+02  0.51100000000E-03 0.  1.
         12    1    4    4    0    0  0.10474425048E+02  0.87794382042E+01  0.24590311736E+00  0.13669403192E+02  0.00000000000E+00 0. -1.
</event>
<event>
 8    1  0.9870402E-014  0.9118800E+02  0.7816164E-02  0.1184000E+00
        -11   -1    0    0    0    0  0.00000000000E+00  0.00000000000E+00  0.45593999997E+02  0.45594000000E+02  0.51100000000E-03 0. -1.
         11   -1    0    0    0    0 -0.00000000000E+00 -0.00000000000E+00 -0.45593999997E+02  0.45594000000E+02  0.51100000000E-03 0.  1.
         23    2    1    2    0    0 -0.17763568394E-14  0.00000000000E+00 -0.71054273576E-14  0.91188000000E+02  0.91188000000E+02 0.  0.
    9900012    2    3    3    0    0  0.14421392565E+02  0.12748505622E+02  0.35814296936E+02  0.50528870347E+02  0.30000031907E+02 0.  0.
        -12    1    3    3    0    0 -0.14421392565E+02 -0.12748505622E+02 -0.35814296936E+02  0.40659129653E+02  0.00000000000E+00 0.  1.
         11    1    4    4    0    0  0.12238304579E+02  0.16376277713E+02  0.16912656129E+02  0.26532932523E+02  0.51100000000E-03 0. -1.
        -11    1    4    4    0    0  0.32189044527E+01  0.35546715891E+01  0.15018523569E+02  0.15765566480E+02  0.51100000000E-03 0.  1.
        -12    1    4    4    0    0 -0.10358164664E+01 -0.71824436797E+01  0.38831172376E+01  0.82303713431E+01  0.00000000000E+00 0.  1.
</event>
<event>
 8    1  0.9870402E-014  0.9118800E+02  0.7816164E-02  0.1184000E+00
        -11   -1    0    0    0    0  0.00000000000E+00  0.00000000000E+00  0.45593999997E+02  0.45594000000E+02  0.51100000000E-03 0. -1.
         11   -1    0    0    0    0 -0.00000000000E+00 -0.00000000000E+00 -0.45593999997E+02  0.45594000000E+02  0.51100000000E-03 0.  1.
         23    2    1    2    0    0 -0.88817841970E-15 -0.35527136788E-14 -0.35527136788E-14  0.91188000000E+02  0.91188000000E+02 0.  0.
    9900012    2    3    3    0    0  0.68540691559E+01  0.28763542169E+02  0.27907828804E+02  0.50528849361E+02  0.29999968117E+02 0.  0.
        -12    1    3    3    0    0 -0.68540691559E+01 -0.28763542169E+02 -0.27907828804E+02  0.40659150639E+02  0.00000000000E+00 0.  1.
         11    1    4    4    0    0 -0.23984173840E+01  0.12601230134E+02  0.35694216867E+01  0.13314810486E+02  0.51100000000E-03 0. -1.
        -11    1    4    4    0    0 -0.44937487087E+01  0.33414360001E+01  0.15426102388E+02  0.16411081840E+02  0.51100000000E-03 0.  1.
         12    1    4    4    0    0  0.13746235249E+02  0.12820876036E+02  0.89123047295E+01  0.20802957035E+02  0.00000000000E+00 0. -1.
</event>
<event>
 8    1  0.9870402E-014  0.9118800E+02  0.7816164E-02  0.1184000E+00
        -11   -1    0    0    0    0  0.00000000000E+00  0.00000000000E+00  0.45593999997E+02  0.45594000000E+02  0.51100000000E-03 0.  1.
         11   -1    0    0    0    0 -0.00000000000E+00 -0.00000000000E+00 -0.45593999997E+02  0.45594000000E+02  0.51100000000E-03 0. -1.
         23    2    1    2    0    0  0.17763568394E-14  0.00000000000E+00 -0.17763568394E-14  0.91188000000E+02  0.91188000000E+02 0.  0.
    9900012    2    3    3    0    0 -0.11235458588E+02 -0.38292474073E+02  0.77856939002E+01  0.50528854291E+02  0.29999983102E+02 0.  0.
        -12    1    3    3    0    0  0.11235458588E+02  0.38292474073E+02 -0.77856939002E+01  0.40659145709E+02  0.00000000000E+00 0.  1.
         11    1    4    4    0    0 -0.60624464314E+01 -0.14413536102E+02  0.10234832517E+02  0.18688367415E+02  0.51100000000E-03 0. -1.
        -11    1    4    4    0    0  0.22649015237E+01  0.30543853497E+01 -0.17271739208E+00  0.38064261894E+01  0.51100000000E-03 0.  1.
         12    1    4    4    0    0 -0.74379136806E+01 -0.26933323320E+02 -0.22764212251E+01  0.28034060687E+02  0.00000000000E+00 0. -1.
</event>
<event>
 8    1  0.9870402E-014  0.9118800E+02  0.7816164E-02  0.1184000E+00
        -11   -1    0    0    0    0  0.00000000000E+00  0.00000000000E+00  0.45593999997E+02  0.45594000000E+02  0.51100000000E-03 0. -1.
         11   -1    0    0    0    0 -0.00000000000E+00 -0.00000000000E+00 -0.45593999997E+02  0.45594000000E+02  0.51100000000E-03 0.  1.
         23    2    1    2    0    0  0.00000000000E+00  0.35527136788E-14  0.00000000000E+00  0.91188000000E+02  0.91188000000E+02 0.  0.
    9900012    2    3    3    0    0  0.61493386298E+01 -0.31369229577E+02  0.25126136849E+02  0.50528859788E+02  0.29999999810E+02 0.  0.
        -12    1    3    3    0    0 -0.61493386298E+01  0.31369229577E+02 -0.25126136849E+02  0.40659140212E+02  0.00000000000E+00 0.  1.
         11    1    4    4    0    0 -0.46444465632E+00 -0.24828129080E+02  0.72022906955E+01  0.25855844484E+02  0.51100000000E-03 0. -1.
        -11    1    4    4    0    0 -0.10570130879E+01 -0.88237081252E+01  0.10509993628E+02  0.13763541262E+02  0.51100000000E-03 0.  1.
        -12    1    4    4    0    0  0.76707963741E+01  0.22826076280E+01  0.74138525258E+01  0.10909474042E+02  0.00000000000E+00 0.  1.
</event>
<event>
 8    1  0.9870402E-014  0.9118800E+02  0.7816164E-02  0.1184000E+00
        -11   -1    0    0    0    0  0.00000000000E+00  0.00000000000E+00  0.45593999997E+02  0.45594000000E+02  0.51100000000E-03 0. -1.
         11   -1    0    0    0    0 -0.00000000000E+00 -0.00000000000E+00 -0.45593999997E+02  0.45594000000E+02  0.51100000000E-03 0.  1.
         23    2    1    2    0    0 -0.44408920985E-15  0.00000000000E+00  0.00000000000E+00  0.91188000000E+02  0.91188000000E+02 0.  0.
    9900012    2    3    3    0    0  0.10507765958E+01 -0.17892439184E+02 -0.36495494918E+02  0.50528872356E+02  0.30000038014E+02 0.  0.
         12    1    3    3    0    0 -0.10507765958E+01  0.17892439184E+02  0.36495494918E+02  0.40659127644E+02  0.00000000000E+00 0. -1.
         11    1    4    4    0    0 -0.78370987331E+01 -0.21447807303E+02 -0.21066477443E+02  0.31068070857E+02  0.51100000000E-03 0. -1.
        -11    1    4    4    0    0 -0.56228380150E+00 -0.86142571778E-01  0.38140219195E+00  0.68487335271E+00  0.51100000000E-03 0.  1.
        -12    1    4    4    0    0  0.94501591303E+01  0.36415106911E+01 -0.15810419668E+02  0.18775928147E+02  0.00000000000E+00 0.  1.
</event>
<event>
 8    1  0.9870402E-014  0.9118800E+02  0.7816164E-02  0.1184000E+00
        -11   -1    0    0    0    0  0.00000000000E+00  0.00000000000E+00  0.45593999997E+02  0.45594000000E+02  0.51100000000E-03 0. -1.
         11   -1    0    0    0    0 -0.00000000000E+00 -0.00000000000E+00 -0.45593999997E+02  0.45594000000E+02  0.51100000000E-03 0.  1.
         23    2    1    2    0    0  0.00000000000E+00 -0.17763568394E-14  0.35527136788E-14  0.91188000000E+02  0.91188000000E+02 0.  0.
    9900012    2    3    3    0    0 -0.33244598331E+02  0.12203240323E+02 -0.19976064286E+02  0.50528861581E+02  0.30000005263E+02 0.  0.
         12    1    3    3    0    0  0.33244598331E+02 -0.12203240323E+02  0.19976064286E+02  0.40659138419E+02  0.00000000000E+00 0. -1.
         11    1    4    4    0    0 -0.28030191335E+01 -0.50607533087E+01 -0.32030783527E+01  0.66127037971E+01  0.51100000000E-03 0. -1.
        -11    1    4    4    0    0 -0.12510893955E+02  0.12192316849E+02 -0.18200229651E+02  0.25227433823E+02  0.51100000000E-03 0.  1.
         12    1    4    4    0    0 -0.17930685243E+02  0.50716767826E+01  0.14272437171E+01  0.18688723961E+02  0.00000000000E+00 0. -1.
</event>
<event>
 8    1  0.9870402E-014  0.9118800E+02  0.7816164E-02  0.1184000E+00
        -11   -1    0    0    0    0  0.00000000000E+00  0.00000000000E+00  0.45593999997E+02  0.45594000000E+02  0.51100000000E-03 0. -1.
         11   -1    0    0    0    0 -0.00000000000E+00 -0.00000000000E+00 -0.45593999997E+02  0.45594000000E+02  0.51100000000E-03 0.  1.
         23    2    1    2    0    0 -0.35527136788E-14 -0.53290705182E-14  0.00000000000E+00  0.91188000000E+02  0.91188000000E+02 0.  0.
    9900012    2    3    3    0    0 -0.12329018957E+02 -0.14305385447E+02 -0.36007164655E+02  0.50528872271E+02  0.30000037754E+02 0.  0.
         12    1    3    3    0    0  0.12329018957E+02  0.14305385447E+02  0.36007164655E+02  0.40659127729E+02  0.00000000000E+00 0. -1.
         11    1    4    4    0    0 -0.68623877134E+01  0.35607121882E+01 -0.24302440577E+01  0.81041423271E+01  0.51100000000E-03 0. -1.
        -11    1    4    4    0    0 -0.44515293427E+01 -0.16919867272E+02 -0.12989228966E+02  0.21790321048E+02  0.51100000000E-03 0.  1.
         12    1    4    4    0    0 -0.10151019011E+01 -0.94623036323E+00 -0.20587691632E+02  0.20634408896E+02  0.00000000000E+00 0. -1.
</event>
<event>
 8    1  0.9870402E-014  0.9118800E+02  0.7816164E-02  0.1184000E+00
        -11   -1    0    0    0    0  0.00000000000E+00  0.00000000000E+00  0.45593999997E+02  0.45594000000E+02  0.51100000000E-03 0. -1.
         11   -1    0    0    0    0 -0.00000000000E+00 -0.00000000000E+00 -0.45593999997E+02  0.45594000000E+02  0.51100000000E-03 0.  1.
         23    2    1    2    0    0 -0.71054273576E-14  0.00000000000E+00  0.35527136788E-14  0.91188000000E+02  0.91188000000E+02 0.  0.
    9900012    2    3    3    0    0 -0.36688541212E+02 -0.31614656385E+01  0.17237221153E+02  0.50528859401E+02  0.29999998634E+02 0.  0.
        -12    1    3    3    0    0  0.36688541212E+02  0.31614656385E+01 -0.17237221153E+02  0.40659140599E+02  0.00000000000E+00 0.  1.
         11    1    4    4    0    0 -0.17003201003E+02 -0.18169192184E+01  0.44390783601E+01  0.17666789656E+02  0.51100000000E-03 0. -1.
        -11    1    4    4    0    0 -0.17211927272E+02 -0.11788211287E+01  0.19309996633E+02  0.25894324280E+02  0.51100000000E-03 0.  1.
        -12    1    4    4    0    0 -0.24734129366E+01 -0.16572529140E+00 -0.65118538405E+01  0.69677454651E+01  0.00000000000E+00 0.  1.
</event>
<event>
 8    1  0.9870402E-014  0.9118800E+02  0.7816164E-02  0.1184000E+00
        -11   -1    0    0    0    0  0.00000000000E+00  0.00000000000E+00  0.45593999997E+02  0.45594000000E+02  0.51100000000E-03 0. -1.
         11   -1    0    0    0    0 -0.00000000000E+00 -0.00000000000E+00 -0.45593999997E+02  0.45594000000E+02  0.51100000000E-03 0.  1.
         23    2    1    2    0    0 -0.17763568394E-14  0.00000000000E+00  0.71054273576E-14  0.91188000000E+02  0.91188000000E+02 0.  0.
    9900012    2    3    3    0    0 -0.93215601840E+01  0.20765183555E+02  0.33690948669E+02  0.50528876121E+02  0.30000049458E+02 0.  0.
        -12    1    3    3    0    0  0.93215601840E+01 -0.20765183555E+02 -0.33690948669E+02  0.40659123879E+02  0.00000000000E+00 0.  1.
         11    1    4    4    0    0 -0.11570442120E+02  0.14014778214E+02  0.24197905927E+02  0.30262646791E+02  0.51100000000E-03 0. -1.
        -11    1    4    4    0    0 -0.33253878803E+01 -0.37668311461E+01 -0.26334523505E-01  0.50247303615E+01  0.51100000000E-03 0.  1.
        -12    1    4    4    0    0  0.55742698160E+01  0.10517236487E+02  0.95193772654E+01  0.15241498969E+02  0.00000000000E+00 0.  1.
</event>
<event>
 8    1  0.9870402E-014  0.9118800E+02  0.7816164E-02  0.1184000E+00
        -11   -1    0    0    0    0  0.00000000000E+00  0.00000000000E+00  0.45593999997E+02  0.45594000000E+02  0.51100000000E-03 0. -1.
         11   -1    0    0    0    0 -0.00000000000E+00 -0.00000000000E+00 -0.45593999997E+02  0.45594000000E+02  0.51100000000E-03 0.  1.
         23    2    1    2    0    0  0.00000000000E+00  0.00000000000E+00  0.00000000000E+00  0.91188000000E+02  0.91188000000E+02 0.  0.
    9900012    2    3    3    0    0  0.16632636922E+02  0.75492669775E+01 -0.36325403046E+02  0.50528795023E+02  0.29999802951E+02 0.  0.
         12    1    3    3    0    0 -0.16632636922E+02 -0.75492669775E+01  0.36325403046E+02  0.40659204977E+02  0.00000000000E+00 0. -1.
         11    1    4    4    0    0  0.84768167057E+01 -0.59309280364E+01 -0.27654446138E+01  0.10708875432E+02  0.51100000000E-03 0. -1.
        -11    1    4    4    0    0 -0.25745681681E+01 -0.92214237400E-01 -0.11496394394E+02  0.11781510474E+02  0.51100000000E-03 0.  1.
         12    1    4    4    0    0  0.10730388384E+02  0.13572409251E+02 -0.22063564038E+02  0.28038409117E+02  0.00000000000E+00 0. -1.
</event>
<event>
 8    1  0.9870402E-014  0.9118800E+02  0.7816164E-02  0.1184000E+00
        -11   -1    0    0    0    0  0.00000000000E+00  0.00000000000E+00  0.45593999997E+02  0.45594000000E+02  0.51100000000E-03 0. -1.
         11   -1    0    0    0    0 -0.00000000000E+00 -0.00000000000E+00 -0.45593999997E+02  0.45594000000E+02  0.51100000000E-03 0.  1.
         23    2    1    2    0    0 -0.44408920985E-15  0.00000000000E+00  0.00000000000E+00  0.91188000000E+02  0.91188000000E+02 0.  0.
    9900012    2    3    3    0    0  0.20640636806E+01  0.20262003443E+02  0.35190306659E+02  0.50528845740E+02  0.29999957110E+02 0.  0.
        -12    1    3    3    0    0 -0.20640636806E+01 -0.20262003443E+02 -0.35190306659E+02  0.40659154260E+02  0.00000000000E+00 0.  1.
         11    1    4    4    0    0 -0.54706190297E+01  0.41552225671E+01  0.17381801906E+02  0.18690119981E+02  0.51100000000E-03 0. -1.
        -11    1    4    4    0    0  0.87107760454E+01  0.93267226230E+01  0.20745754850E+02  0.24356759201E+02  0.51100000000E-03 0.  1.
        -12    1    4    4    0    0 -0.11760933351E+01  0.67800582526E+01 -0.29372500967E+01  0.74819665578E+01  0.00000000000E+00 0.  1.
</event>
<event>
 8    1  0.1102199E-013  0.9118800E+02  0.7816164E-02  0.1184000E+00
        -11   -1    0    0    0    0  0.00000000000E+00  0.00000000000E+00  0.45593999997E+02  0.45594000000E+02  0.51100000000E-03 0. -1.
         11   -1    0    0    0    0 -0.00000000000E+00 -0.00000000000E+00 -0.45593999997E+02  0.45594000000E+02  0.51100000000E-03 0.  1.
         23    2    1    2    0    0  0.14210854715E-13  0.88817841970E-15  0.35527136788E-14  0.91188000000E+02  0.91188000000E+02 0.  0.
    9900012    2    3    3    0    0 -0.35480846081E+02 -0.41322585441E+01 -0.19421625779E+02  0.50528861455E+02  0.30000004880E+02 0.  0.
         12    1    3    3    0    0  0.35480846081E+02  0.41322585441E+01  0.19421625779E+02  0.40659138545E+02  0.00000000000E+00 0. -1.
         11    1    4    4    0    0 -0.18766427299E+02 -0.66188052721E+01 -0.54093009685E+01  0.20621540050E+02  0.51100000000E-03 0. -1.
        -11    1    4    4    0    0 -0.20373911411E+02  0.45487133981E+01 -0.75481444601E+01  0.22198232921E+02  0.51100000000E-03 0.  1.
         12    1    4    4    0    0  0.36594926283E+01 -0.20621666700E+01 -0.64641803501E+01  0.77090884850E+01  0.00000000000E+00 0. -1.
</event>
<event>
 8    1  0.9870402E-014  0.9118800E+02  0.7816164E-02  0.1184000E+00
        -11   -1    0    0    0    0  0.00000000000E+00  0.00000000000E+00  0.45593999997E+02  0.45594000000E+02  0.51100000000E-03 0. -1.
         11   -1    0    0    0    0 -0.00000000000E+00 -0.00000000000E+00 -0.45593999997E+02  0.45594000000E+02  0.51100000000E-03 0.  1.
         23    2    1    2    0    0  0.22204460493E-14  0.00000000000E+00  0.71054273576E-14  0.91188000000E+02  0.91188000000E+02 0.  0.
    9900012    2    3    3    0    0  0.28732817155E+01  0.81951182310E+01 -0.39720887059E+02  0.50528873357E+02  0.30000041056E+02 0.  0.
         12    1    3    3    0    0 -0.28732817155E+01 -0.81951182310E+01  0.39720887059E+02  0.40659126643E+02  0.00000000000E+00 0. -1.
         11    1    4    4    0    0  0.57183043535E+01  0.54921795946E+01 -0.66296204031E+01  0.10335129817E+02  0.51100000000E-03 0. -1.
        -11    1    4    4    0    0  0.72593875449E+01 -0.45476500988E+01 -0.21696336389E+02  0.23326183612E+02  0.51100000000E-03 0.  1.
         12    1    4    4    0    0 -0.10104410183E+02  0.72505887353E+01 -0.11394930267E+02  0.16867559928E+02  0.00000000000E+00 0. -1.
</event>
<event>
 8    1  0.9870402E-014  0.9118800E+02  0.7816164E-02  0.1184000E+00
        -11   -1    0    0    0    0  0.00000000000E+00  0.00000000000E+00  0.45593999997E+02  0.45594000000E+02  0.51100000000E-03 0. -1.
         11   -1    0    0    0    0 -0.00000000000E+00 -0.00000000000E+00 -0.45593999997E+02  0.45594000000E+02  0.51100000000E-03 0.  1.
         23    2    1    2    0    0 -0.88817841970E-15  0.00000000000E+00  0.00000000000E+00  0.91188000000E+02  0.91188000000E+02 0.  0.
    9900012    2    3    3    0    0 -0.63840664508E+01 -0.19123279075E+02 -0.35308800220E+02  0.50528837687E+02  0.29999932634E+02 0.  0.
         12    1    3    3    0    0  0.63840664508E+01  0.19123279075E+02  0.35308800220E+02  0.40659162313E+02  0.00000000000E+00 0. -1.
         11    1    4    4    0    0 -0.49093602076E+01  0.52439031229E+00  0.12888413790E+01  0.51027360512E+01  0.51100000000E-03 0. -1.
        -11    1    4    4    0    0 -0.96747880518E+01 -0.13702761650E+02 -0.22294674074E+02  0.27900173709E+02  0.51100000000E-03 0.  1.
        -12    1    4    4    0    0  0.82000818085E+01 -0.59449077373E+01 -0.14302967525E+02  0.17525927926E+02  0.00000000000E+00 0.  1.
</event>
<event>
 8    1  0.9870402E-014  0.9118800E+02  0.7816164E-02  0.1184000E+00
        -11   -1    0    0    0    0  0.00000000000E+00  0.00000000000E+00  0.45593999997E+02  0.45594000000E+02  0.51100000000E-03 0.  1.
         11   -1    0    0    0    0 -0.00000000000E+00 -0.00000000000E+00 -0.45593999997E+02  0.45594000000E+02  0.51100000000E-03 0. -1.
         23    2    1    2    0    0 -0.88817841970E-15  0.00000000000E+00  0.00000000000E+00  0.91188000000E+02  0.91188000000E+02 0.  0.
    9900012    2    3    3    0    0  0.34071663076E+01  0.36602630768E+02 -0.17372564572E+02  0.50528839148E+02  0.29999937075E+02 0.  0.
         12    1    3    3    0    0 -0.34071663076E+01 -0.36602630768E+02  0.17372564572E+02  0.40659160852E+02  0.00000000000E+00 0. -1.
         11    1    4    4    0    0  0.34092003384E+01  0.75538731869E+01 -0.70722318485E+01  0.10894958038E+02  0.51100000000E-03 0. -1.
        -11    1    4    4    0    0  0.61013717774E+01 -0.11636005203E+01  0.18832976641E+01  0.64905711682E+01  0.51100000000E-03 0.  1.
        -12    1    4    4    0    0 -0.61034058081E+01  0.30212358101E+02 -0.12183630388E+02  0.33143309942E+02  0.00000000000E+00 0.  1.
</event>
<event>
 8    1  0.9870402E-014  0.9118800E+02  0.7816164E-02  0.1184000E+00
        -11   -1    0    0    0    0  0.00000000000E+00  0.00000000000E+00  0.45593999997E+02  0.45594000000E+02  0.51100000000E-03 0. -1.
         11   -1    0    0    0    0 -0.00000000000E+00 -0.00000000000E+00 -0.45593999997E+02  0.45594000000E+02  0.51100000000E-03 0.  1.
         23    2    1    2    0    0  0.00000000000E+00  0.35527136788E-14  0.00000000000E+00  0.91188000000E+02  0.91188000000E+02 0.  0.
    9900012    2    3    3    0    0  0.29581564087E+02  0.16129517573E+02 -0.22758199024E+02  0.50528857193E+02  0.29999991925E+02 0.  0.
         12    1    3    3    0    0 -0.29581564087E+02 -0.16129517573E+02  0.22758199024E+02  0.40659142807E+02  0.00000000000E+00 0. -1.
         11    1    4    4    0    0 -0.17248816105E+01 -0.22913444569E+01 -0.15307900522E+01  0.32509682304E+01  0.51100000000E-03 0. -1.
        -11    1    4    4    0    0  0.65797039938E+01  0.74735054121E+01 -0.17288334980E+02  0.19950747215E+02  0.51100000000E-03 0.  1.
        -12    1    4    4    0    0  0.24726741703E+02  0.10947356618E+02 -0.39390739915E+01  0.27327141748E+02  0.00000000000E+00 0.  1.
</event>
<event>
 8    1  0.9870402E-014  0.9118800E+02  0.7816164E-02  0.1184000E+00
        -11   -1    0    0    0    0  0.00000000000E+00  0.00000000000E+00  0.45593999997E+02  0.45594000000E+02  0.51100000000E-03 0. -1.
         11   -1    0    0    0    0 -0.00000000000E+00 -0.00000000000E+00 -0.45593999997E+02  0.45594000000E+02  0.51100000000E-03 0.  1.
         23    2    1    2    0    0  0.00000000000E+00  0.00000000000E+00  0.17763568394E-14  0.91188000000E+02  0.91188000000E+02 0.  0.
    9900012    2    3    3    0    0 -0.19680204723E+02 -0.32466359960E+02 -0.14552990944E+02  0.50528873934E+02  0.30000042811E+02 0.  0.
         12    1    3    3    0    0  0.19680204723E+02  0.32466359960E+02  0.14552990944E+02  0.40659126066E+02  0.00000000000E+00 0. -1.
         11    1    4    4    0    0 -0.11229194607E+02 -0.59225056233E+01  0.84569238281E+00  0.12723446083E+02  0.51100000000E-03 0. -1.
        -11    1    4    4    0    0 -0.92438843437E+01 -0.35546584746E+01 -0.10210769223E+02  0.14224795360E+02  0.51100000000E-03 0.  1.
         12    1    4    4    0    0  0.79287422701E+00 -0.22989195863E+02 -0.51879141029E+01  0.23580632491E+02  0.00000000000E+00 0. -1.
</event>
<event>
 8    1  0.9870402E-014  0.9118800E+02  0.7816164E-02  0.1184000E+00
        -11   -1    0    0    0    0  0.00000000000E+00  0.00000000000E+00  0.45593999997E+02  0.45594000000E+02  0.51100000000E-03 0. -1.
         11   -1    0    0    0    0 -0.00000000000E+00 -0.00000000000E+00 -0.45593999997E+02  0.45594000000E+02  0.51100000000E-03 0.  1.
         23    2    1    2    0    0  0.00000000000E+00  0.00000000000E+00  0.00000000000E+00  0.91188000000E+02  0.91188000000E+02 0.  0.
    9900012    2    3    3    0    0 -0.28395493351E+02 -0.28275111897E+02 -0.68832055783E+01  0.50528874155E+02  0.30000043483E+02 0.  0.
        -12    1    3    3    0    0  0.28395493351E+02  0.28275111897E+02  0.68832055783E+01  0.40659125845E+02  0.00000000000E+00 0.  1.
         11    1    4    4    0    0 -0.24289073179E+02 -0.11975349713E+02 -0.64676645698E+01  0.27842391454E+02  0.51100000000E-03 0. -1.
        -11    1    4    4    0    0 -0.45979799847E+01 -0.44862839675E+00 -0.43515901862E+01  0.63465758317E+01  0.51100000000E-03 0.  1.
        -12    1    4    4    0    0  0.49155981274E+00 -0.15851133787E+02  0.39360491777E+01  0.16339906870E+02  0.00000000000E+00 0.  1.
</event>
<event>
 8    1  0.9870402E-014  0.9118800E+02  0.7816164E-02  0.1184000E+00
        -11   -1    0    0    0    0  0.00000000000E+00  0.00000000000E+00  0.45593999997E+02  0.45594000000E+02  0.51100000000E-03 0. -1.
         11   -1    0    0    0    0 -0.00000000000E+00 -0.00000000000E+00 -0.45593999997E+02  0.45594000000E+02  0.51100000000E-03 0.  1.
         23    2    1    2    0    0 -0.22204460493E-15  0.35527136788E-14  0.00000000000E+00  0.91188000000E+02  0.91188000000E+02 0.  0.
    9900012    2    3    3    0    0  0.18923776008E+01  0.13917798536E+02 -0.38155990560E+02  0.50528858043E+02  0.29999994508E+02 0.  0.
         12    1    3    3    0    0 -0.18923776008E+01 -0.13917798536E+02  0.38155990560E+02  0.40659141957E+02  0.00000000000E+00 0. -1.
         11    1    4    4    0    0  0.38316237671E+01 -0.66429197786E+00 -0.37761607373E+00  0.39070729049E+01  0.51100000000E-03 0. -1.
        -11    1    4    4    0    0 -0.86687918631E+01 -0.24289231091E+01 -0.11558806078E+02  0.14651062011E+02  0.51100000000E-03 0.  1.
         12    1    4    4    0    0  0.67295456968E+01  0.17011013623E+02 -0.26219568408E+02  0.31970723127E+02  0.00000000000E+00 0. -1.
</event>
<event>
 8    1  0.9870402E-014  0.9118800E+02  0.7816164E-02  0.1184000E+00
        -11   -1    0    0    0    0  0.00000000000E+00  0.00000000000E+00  0.45593999997E+02  0.45594000000E+02  0.51100000000E-03 0. -1.
         11   -1    0    0    0    0 -0.00000000000E+00 -0.00000000000E+00 -0.45593999997E+02  0.45594000000E+02  0.51100000000E-03 0.  1.
         23    2    1    2    0    0  0.00000000000E+00  0.35527136788E-14  0.00000000000E+00  0.91188000000E+02  0.91188000000E+02 0.  0.
    9900012    2    3    3    0    0 -0.24548668385E+02  0.26488105072E+02  0.18678878763E+02  0.50528962362E+02  0.30000311595E+02 0.  0.
        -12    1    3    3    0    0  0.24548668385E+02 -0.26488105072E+02 -0.18678878763E+02  0.40659037638E+02  0.00000000000E+00 0.  1.
         11    1    4    4    0    0  0.50580725784E+01  0.46741545450E+01  0.92072140675E+01  0.11498026355E+02  0.51100000000E-03 0. -1.
        -11    1    4    4    0    0 -0.14268242564E+02  0.56580682412E+01  0.17282569244E+01  0.15446143672E+02  0.51100000000E-03 0.  1.
        -12    1    4    4    0    0 -0.15338498399E+02  0.16155882286E+02  0.77434077710E+01  0.23584792335E+02  0.00000000000E+00 0.  1.
</event>
<event>
 8    1  0.9870402E-014  0.9118800E+02  0.7816164E-02  0.1184000E+00
        -11   -1    0    0    0    0  0.00000000000E+00  0.00000000000E+00  0.45593999997E+02  0.45594000000E+02  0.51100000000E-03 0. -1.
         11   -1    0    0    0    0 -0.00000000000E+00 -0.00000000000E+00 -0.45593999997E+02  0.45594000000E+02  0.51100000000E-03 0.  1.
         23    2    1    2    0    0  0.00000000000E+00  0.00000000000E+00 -0.35527136788E-14  0.91188000000E+02  0.91188000000E+02 0.  0.
    9900012    2    3    3    0    0  0.36358772311E+02  0.33166441272E+01  0.17894345184E+02  0.50528830778E+02  0.29999911632E+02 0.  0.
        -12    1    3    3    0    0 -0.36358772311E+02 -0.33166441272E+01 -0.17894345184E+02  0.40659169222E+02  0.00000000000E+00 0.  1.
         11    1    4    4    0    0  0.12226194701E+02  0.65310428078E+01  0.13969582977E+02  0.19679522500E+02  0.51100000000E-03 0. -1.
        -11    1    4    4    0    0  0.13798180199E+02 -0.91435002454E+01  0.78298778363E+01  0.18311208610E+02  0.51100000000E-03 0.  1.
         12    1    4    4    0    0  0.10334397411E+02  0.59291015648E+01 -0.39051156286E+01  0.12538099668E+02  0.00000000000E+00 0. -1.
</event>
<event>
 8    1  0.9870402E-014  0.9118800E+02  0.7816164E-02  0.1184000E+00
        -11   -1    0    0    0    0  0.00000000000E+00  0.00000000000E+00  0.45593999997E+02  0.45594000000E+02  0.51100000000E-03 0.  1.
         11   -1    0    0    0    0 -0.00000000000E+00 -0.00000000000E+00 -0.45593999997E+02  0.45594000000E+02  0.51100000000E-03 0. -1.
         23    2    1    2    0    0  0.35527136788E-14  0.00000000000E+00  0.00000000000E+00  0.91188000000E+02  0.91188000000E+02 0.  0.
    9900012    2    3    3    0    0 -0.20364519679E+02  0.32943794058E+02 -0.12375682737E+02  0.50528871235E+02  0.30000034607E+02 0.  0.
         12    1    3    3    0    0  0.20364519679E+02 -0.32943794058E+02  0.12375682737E+02  0.40659128765E+02  0.00000000000E+00 0. -1.
         11    1    4    4    0    0  0.26342262739E+01  0.36565150144E+01 -0.93039329534E+01  0.10337911722E+02  0.51100000000E-03 0. -1.
        -11    1    4    4    0    0 -0.80958810427E+01  0.10932237091E+01 -0.20504703120E+00  0.81719319920E+01  0.51100000000E-03 0.  1.
        -12    1    4    4    0    0 -0.14902864910E+02  0.28194055335E+02 -0.28667027525E+01  0.32019027521E+02  0.00000000000E+00 0.  1.
</event>
<event>
 8    1  0.9870402E-014  0.9118800E+02  0.7816164E-02  0.1184000E+00
        -11   -1    0    0    0    0  0.00000000000E+00  0.00000000000E+00  0.45593999997E+02  0.45594000000E+02  0.51100000000E-03 0. -1.
         11   -1    0    0    0    0 -0.00000000000E+00 -0.00000000000E+00 -0.45593999997E+02  0.45594000000E+02  0.51100000000E-03 0.  1.
         23    2    1    2    0    0  0.17763568394E-14  0.00000000000E+00  0.00000000000E+00  0.91188000000E+02  0.91188000000E+02 0.  0.
    9900012    2    3    3    0    0 -0.15875086293E+02 -0.17179824045E+02 -0.33256568401E+02  0.50528879733E+02  0.30000060438E+02 0.  0.
         12    1    3    3    0    0  0.15875086293E+02  0.17179824045E+02  0.33256568401E+02  0.40659120267E+02  0.00000000000E+00 0. -1.
         11    1    4    4    0    0 -0.12705728623E+02  0.49357420226E+00 -0.10033607942E+02  0.16197297426E+02  0.51100000000E-03 0. -1.
        -11    1    4    4    0    0 -0.25116680201E+01 -0.12213061077E+01  0.25277113252E+01  0.37668806268E+01  0.51100000000E-03 0.  1.
        -12    1    4    4    0    0 -0.65768965003E+00 -0.16452092140E+02 -0.25750671784E+02  0.30564701680E+02  0.00000000000E+00 0.  1.
</event>
<event>
 8    1  0.9870402E-014  0.9118800E+02  0.7816164E-02  0.1184000E+00
        -11   -1    0    0    0    0  0.00000000000E+00  0.00000000000E+00  0.45593999997E+02  0.45594000000E+02  0.51100000000E-03 0. -1.
         11   -1    0    0    0    0 -0.00000000000E+00 -0.00000000000E+00 -0.45593999997E+02  0.45594000000E+02  0.51100000000E-03 0.  1.
         23    2    1    2    0    0 -0.17763568394E-14  0.00000000000E+00  0.00000000000E+00  0.91188000000E+02  0.91188000000E+02 0.  0.
    9900012    2    3    3    0    0  0.80902769503E+01  0.15658476301E+02  0.36640500514E+02  0.50528846798E+02  0.29999960327E+02 0.  0.
        -12    1    3    3    0    0 -0.80902769503E+01 -0.15658476301E+02 -0.36640500514E+02  0.40659153202E+02  0.00000000000E+00 0.  1.
         11    1    4    4    0    0 -0.20752011096E+01  0.12043231940E+02  0.14779415643E+02  0.19177513452E+02  0.51100000000E-03 0. -1.
        -11    1    4    4    0    0  0.60826481397E+01  0.90123537600E+00  0.24856699703E+02  0.25605982777E+02  0.51100000000E-03 0.  1.
        -12    1    4    4    0    0  0.40828299202E+01  0.27140089858E+01 -0.29956148324E+01  0.57453505686E+01  0.00000000000E+00 0.  1.
</event>
<event>
 8    1  0.9870402E-014  0.9118800E+02  0.7816164E-02  0.1184000E+00
        -11   -1    0    0    0    0  0.00000000000E+00  0.00000000000E+00  0.45593999997E+02  0.45594000000E+02  0.51100000000E-03 0. -1.
         11   -1    0    0    0    0 -0.00000000000E+00 -0.00000000000E+00 -0.45593999997E+02  0.45594000000E+02  0.51100000000E-03 0.  1.
         23    2    1    2    0    0  0.00000000000E+00  0.00000000000E+00 -0.71054273576E-14  0.91188000000E+02  0.91188000000E+02 0.  0.
    9900012    2    3    3    0    0  0.19841866262E+02  0.74222639420E+01 -0.34704108874E+02  0.50528870256E+02  0.30000031631E+02 0.  0.
         12    1    3    3    0    0 -0.19841866262E+02 -0.74222639420E+01  0.34704108874E+02  0.40659129744E+02  0.00000000000E+00 0. -1.
         11    1    4    4    0    0  0.96397480620E+01  0.11153645740E+02 -0.10850598965E+02  0.18304754960E+02  0.51100000000E-03 0. -1.
        -11    1    4    4    0    0  0.13854845417E+02 -0.20534946222E+01 -0.24433060548E+02  0.28162883902E+02  0.51100000000E-03 0.  1.
        -12    1    4    4    0    0 -0.36527272164E+01 -0.16778871761E+01  0.57955063886E+00  0.40612313941E+01  0.00000000000E+00 0.  1.
</event>
<event>
 8    1  0.9870402E-014  0.9118800E+02  0.7816164E-02  0.1184000E+00
        -11   -1    0    0    0    0  0.00000000000E+00  0.00000000000E+00  0.45593999997E+02  0.45594000000E+02  0.51100000000E-03 0.  1.
         11   -1    0    0    0    0 -0.00000000000E+00 -0.00000000000E+00 -0.45593999997E+02  0.45594000000E+02  0.51100000000E-03 0. -1.
         23    2    1    2    0    0  0.71054273576E-14  0.17763568394E-14  0.00000000000E+00  0.91188000000E+02  0.91188000000E+02 0.  0.
    9900012    2    3    3    0    0  0.38107244292E+02  0.76991295562E+01 -0.11904887846E+02  0.50528867962E+02  0.30000024657E+02 0.  0.
         12    1    3    3    0    0 -0.38107244292E+02 -0.76991295562E+01  0.11904887846E+02  0.40659132038E+02  0.00000000000E+00 0. -1.
         11    1    4    4    0    0  0.60178464651E+01 -0.29262875566E+01  0.33803581435E+01  0.74969631439E+01  0.51100000000E-03 0. -1.
        -11    1    4    4    0    0  0.31546484885E+02  0.10354607920E+02 -0.60162289899E+01  0.33743052993E+02  0.51100000000E-03 0.  1.
        -12    1    4    4    0    0  0.54291294197E+00  0.27080919294E+00 -0.92690169996E+01  0.92888518247E+01  0.00000000000E+00 0.  1.
</event>
<event>
 8    1  0.9870402E-014  0.9118800E+02  0.7816164E-02  0.1184000E+00
        -11   -1    0    0    0    0  0.00000000000E+00  0.00000000000E+00  0.45593999997E+02  0.45594000000E+02  0.51100000000E-03 0. -1.
         11   -1    0    0    0    0 -0.00000000000E+00 -0.00000000000E+00 -0.45593999997E+02  0.45594000000E+02  0.51100000000E-03 0.  1.
         23    2    1    2    0    0 -0.35527136788E-14  0.88817841970E-15  0.71054273576E-14  0.91188000000E+02  0.91188000000E+02 0.  0.
    9900012    2    3    3    0    0 -0.12835792156E+02  0.49960155883E+01 -0.38255043213E+02  0.50528855109E+02  0.29999985590E+02 0.  0.
         12    1    3    3    0    0  0.12835792156E+02 -0.49960155883E+01  0.38255043213E+02  0.40659144891E+02  0.00000000000E+00 0. -1.
         11    1    4    4    0    0  0.13639269907E+01  0.15441450765E+01 -0.16380777896E+01  0.26321056132E+01  0.51100000000E-03 0. -1.
        -11    1    4    4    0    0 -0.19802698460E+02  0.10058546474E+02 -0.26096105906E+02  0.34268468994E+02  0.51100000000E-03 0.  1.
         12    1    4    4    0    0  0.56029793136E+01 -0.66066759620E+01 -0.10520859517E+02  0.13628280502E+02  0.00000000000E+00 0. -1.
</event>
<event>
 8    1  0.9870402E-014  0.9118800E+02  0.7816164E-02  0.1184000E+00
        -11   -1    0    0    0    0  0.00000000000E+00  0.00000000000E+00  0.45593999997E+02  0.45594000000E+02  0.51100000000E-03 0. -1.
         11   -1    0    0    0    0 -0.00000000000E+00 -0.00000000000E+00 -0.45593999997E+02  0.45594000000E+02  0.51100000000E-03 0.  1.
         23    2    1    2    0    0 -0.17763568394E-14 -0.35527136788E-14  0.35527136788E-14  0.91188000000E+02  0.91188000000E+02 0.  0.
    9900012    2    3    3    0    0 -0.12128528687E+02 -0.25467893985E+02  0.29282250016E+02  0.50528868208E+02  0.30000025404E+02 0.  0.
        -12    1    3    3    0    0  0.12128528687E+02  0.25467893985E+02 -0.29282250016E+02  0.40659131792E+02  0.00000000000E+00 0.  1.
         11    1    4    4    0    0 -0.67260994360E+01 -0.39823490410E+01  0.27323193944E+01  0.82804037970E+01  0.51100000000E-03 0. -1.
        -11    1    4    4    0    0 -0.86866825417E+01 -0.25821139286E+02  0.20374423336E+02  0.34019212427E+02  0.51100000000E-03 0.  1.
        -12    1    4    4    0    0  0.32842532910E+01  0.43355943422E+01  0.61755072858E+01  0.82292519841E+01  0.00000000000E+00 0.  1.
</event>
<event>
 8    1  0.9870402E-014  0.9118800E+02  0.7816164E-02  0.1184000E+00
        -11   -1    0    0    0    0  0.00000000000E+00  0.00000000000E+00  0.45593999997E+02  0.45594000000E+02  0.51100000000E-03 0. -1.
         11   -1    0    0    0    0 -0.00000000000E+00 -0.00000000000E+00 -0.45593999997E+02  0.45594000000E+02  0.51100000000E-03 0.  1.
         23    2    1    2    0    0  0.66613381478E-15  0.00000000000E+00  0.00000000000E+00  0.91188000000E+02  0.91188000000E+02 0.  0.
    9900012    2    3    3    0    0 -0.84923705271E+00  0.35155964530E+02  0.20408369918E+02  0.50528873000E+02  0.30000039972E+02 0.  0.
        -12    1    3    3    0    0  0.84923705271E+00 -0.35155964530E+02 -0.20408369918E+02  0.40659127000E+02  0.00000000000E+00 0.  1.
         11    1    4    4    0    0  0.22555473404E+01 -0.12027077375E+00  0.25693468935E+01  0.34210382319E+01  0.51100000000E-03 0. -1.
        -11    1    4    4    0    0  0.31154555874E+01  0.58516687153E+01  0.15599516442E+02  0.16949719872E+02  0.51100000000E-03 0.  1.
         12    1    4    4    0    0 -0.62202399805E+01  0.29424566589E+02  0.22395065831E+01  0.30158114896E+02  0.00000000000E+00 0. -1.
</event>
<event>
 8    1  0.9870402E-014  0.9118800E+02  0.7816164E-02  0.1184000E+00
        -11   -1    0    0    0    0  0.00000000000E+00  0.00000000000E+00  0.45593999997E+02  0.45594000000E+02  0.51100000000E-03 0. -1.
         11   -1    0    0    0    0 -0.00000000000E+00 -0.00000000000E+00 -0.45593999997E+02  0.45594000000E+02  0.51100000000E-03 0.  1.
         23    2    1    2    0    0 -0.88817841970E-15  0.00000000000E+00 -0.71054273576E-14  0.91188000000E+02  0.91188000000E+02 0.  0.
    9900012    2    3    3    0    0  0.66578235063E+01 -0.12537274409E+02  0.38100603824E+02  0.50528857421E+02  0.29999992618E+02 0.  0.
        -12    1    3    3    0    0 -0.66578235063E+01  0.12537274409E+02 -0.38100603824E+02  0.40659142579E+02  0.00000000000E+00 0.  1.
         11    1    4    4    0    0  0.48752940184E+01  0.40512822215E+01  0.28667004736E+02  0.29359471047E+02  0.51100000000E-03 0. -1.
        -11    1    4    4    0    0  0.35231031386E+01 -0.17051243148E+01  0.13308615526E+01  0.41341138575E+01  0.51100000000E-03 0.  1.
        -12    1    4    4    0    0 -0.17405736507E+01 -0.14883432316E+02  0.81027375360E+01  0.17035272517E+02  0.00000000000E+00 0.  1.
</event>
<event>
 8    1  0.9870402E-014  0.9118800E+02  0.7816164E-02  0.1184000E+00
        -11   -1    0    0    0    0  0.00000000000E+00  0.00000000000E+00  0.45593999997E+02  0.45594000000E+02  0.51100000000E-03 0. -1.
         11   -1    0    0    0    0 -0.00000000000E+00 -0.00000000000E+00 -0.45593999997E+02  0.45594000000E+02  0.51100000000E-03 0.  1.
         23    2    1    2    0    0  0.00000000000E+00  0.00000000000E+00  0.00000000000E+00  0.91188000000E+02  0.91188000000E+02 0.  0.
    9900012    2    3    3    0    0  0.78907435059E+01 -0.21729938329E+02 -0.33447146621E+02  0.50528859946E+02  0.30000000291E+02 0.  0.
         12    1    3    3    0    0 -0.78907435059E+01  0.21729938329E+02  0.33447146621E+02  0.40659140054E+02  0.00000000000E+00 0. -1.
         11    1    4    4    0    0 -0.20121614925E+01 -0.10113321873E+02 -0.18947455583E+02  0.21571605098E+02  0.51100000000E-03 0. -1.
        -11    1    4    4    0    0 -0.44752576914E+01  0.23201197623E+01 -0.28404944481E+01  0.57861296293E+01  0.51100000000E-03 0.  1.
         12    1    4    4    0    0  0.14378162690E+02 -0.13936736219E+02 -0.11659196590E+02  0.23171125218E+02  0.00000000000E+00 0. -1.
</event>
<event>
 8    1  0.1145992E-013  0.9118800E+02  0.7816164E-02  0.1184000E+00
        -11   -1    0    0    0    0  0.00000000000E+00  0.00000000000E+00  0.45593999997E+02  0.45594000000E+02  0.51100000000E-03 0. -1.
         11   -1    0    0    0    0 -0.00000000000E+00 -0.00000000000E+00 -0.45593999997E+02  0.45594000000E+02  0.51100000000E-03 0.  1.
         23    2    1    2    0    0  0.17763568394E-14 -0.22204460493E-15  0.00000000000E+00  0.91188000000E+02  0.91188000000E+02 0.  0.
    9900012    2    3    3    0    0 -0.14288528569E+02  0.17510330233E+01 -0.38025446772E+02  0.50528895638E+02  0.30000108782E+02 0.  0.
         12    1    3    3    0    0  0.14288528569E+02 -0.17510330233E+01  0.38025446772E+02  0.40659104362E+02  0.00000000000E+00 0. -1.
         11    1    4    4    0    0 -0.81408957729E+01 -0.16056261783E+01 -0.20971375145E+01  0.85586333854E+01  0.51100000000E-03 0. -1.
        -11    1    4    4    0    0 -0.10693782911E+02  0.66973052565E+01 -0.33556516465E+02  0.35850393138E+02  0.51100000000E-03 0.  1.
         12    1    4    4    0    0  0.45461501152E+01 -0.33406460549E+01 -0.23717927923E+01  0.61198691149E+01  0.00000000000E+00 0. -1.
</event>
<event>
 8    1  0.9870402E-014  0.9118800E+02  0.7816164E-02  0.1184000E+00
        -11   -1    0    0    0    0  0.00000000000E+00  0.00000000000E+00  0.45593999997E+02  0.45594000000E+02  0.51100000000E-03 0. -1.
         11   -1    0    0    0    0 -0.00000000000E+00 -0.00000000000E+00 -0.45593999997E+02  0.45594000000E+02  0.51100000000E-03 0.  1.
         23    2    1    2    0    0  0.00000000000E+00  0.88817841970E-15  0.00000000000E+00  0.91188000000E+02  0.91188000000E+02 0.  0.
    9900012    2    3    3    0    0  0.47504052124E+01 -0.54862336054E+01 -0.40006199548E+02  0.50528916007E+02  0.30000170695E+02 0.  0.
         12    1    3    3    0    0 -0.47504052124E+01  0.54862336054E+01  0.40006199548E+02  0.40659083993E+02  0.00000000000E+00 0. -1.
         11    1    4    4    0    0 -0.44286848665E+01 -0.85718180299E+01 -0.13442673070E+02  0.16546745103E+02  0.51100000000E-03 0. -1.
        -11    1    4    4    0    0  0.71781924004E+01 -0.68954076802E+01 -0.18454211982E+02  0.20967380222E+02  0.51100000000E-03 0.  1.
         12    1    4    4    0    0  0.20008976785E+01  0.99809921047E+01 -0.81093144960E+01  0.13014790682E+02  0.00000000000E+00 0. -1.
</event>
<event>
 8    1  0.9870402E-014  0.9118800E+02  0.7816164E-02  0.1184000E+00
        -11   -1    0    0    0    0  0.00000000000E+00  0.00000000000E+00  0.45593999997E+02  0.45594000000E+02  0.51100000000E-03 0.  1.
         11   -1    0    0    0    0 -0.00000000000E+00 -0.00000000000E+00 -0.45593999997E+02  0.45594000000E+02  0.51100000000E-03 0. -1.
         23    2    1    2    0    0  0.88817841970E-15  0.00000000000E+00  0.17763568394E-14  0.91188000000E+02  0.91188000000E+02 0.  0.
    9900012    2    3    3    0    0  0.64829608335E+01  0.37798101268E+02  0.13507047894E+02  0.50528861010E+02  0.30000003526E+02 0.  0.
         12    1    3    3    0    0 -0.64829608335E+01 -0.37798101268E+02 -0.13507047894E+02  0.40659138990E+02  0.00000000000E+00 0. -1.
         11    1    4    4    0    0 -0.31860302943E+00  0.22692851225E+02  0.25464016448E+01  0.22837494744E+02  0.51100000000E-03 0. -1.
        -11    1    4    4    0    0  0.95069428095E+01  0.18355673439E+02  0.11093792229E+02  0.23460284211E+02  0.51100000000E-03 0.  1.
         12    1    4    4    0    0 -0.27053789465E+01 -0.32504233962E+01 -0.13314598023E+00  0.42310820544E+01  0.00000000000E+00 0. -1.
</event>
<event>
 8    1  0.9870402E-014  0.9118800E+02  0.7816164E-02  0.1184000E+00
        -11   -1    0    0    0    0  0.00000000000E+00  0.00000000000E+00  0.45593999997E+02  0.45594000000E+02  0.51100000000E-03 0. -1.
         11   -1    0    0    0    0 -0.00000000000E+00 -0.00000000000E+00 -0.45593999997E+02  0.45594000000E+02  0.51100000000E-03 0.  1.
         23    2    1    2    0    0  0.35527136788E-14  0.35527136788E-14  0.00000000000E+00  0.91188000000E+02  0.91188000000E+02 0.  0.
    9900012    2    3    3    0    0  0.31474840515E+02  0.23195969267E+02 -0.11155583169E+02  0.50528860664E+02  0.30000002475E+02 0.  0.
         12    1    3    3    0    0 -0.31474840515E+02 -0.23195969267E+02  0.11155583169E+02  0.40659139336E+02  0.00000000000E+00 0. -1.
         11    1    4    4    0    0  0.72614454839E+01  0.26973420121E+00  0.32715074517E+01  0.79689465002E+01  0.51100000000E-03 0. -1.
        -11    1    4    4    0    0  0.19173127735E+02  0.18164320691E+02  0.15666431799E+00  0.26411662524E+02  0.51100000000E-03 0.  1.
         12    1    4    4    0    0  0.50402672960E+01  0.47619143747E+01 -0.14583754939E+02  0.16148251640E+02  0.00000000000E+00 0. -1.
</event>
<event>
 8    1  0.9870402E-014  0.9118800E+02  0.7816164E-02  0.1184000E+00
        -11   -1    0    0    0    0  0.00000000000E+00  0.00000000000E+00  0.45593999997E+02  0.45594000000E+02  0.51100000000E-03 0. -1.
         11   -1    0    0    0    0 -0.00000000000E+00 -0.00000000000E+00 -0.45593999997E+02  0.45594000000E+02  0.51100000000E-03 0.  1.
         23    2    1    2    0    0 -0.33306690739E-15  0.17763568394E-14  0.71054273576E-14  0.91188000000E+02  0.91188000000E+02 0.  0.
    9900012    2    3    3    0    0 -0.75136978164E+00 -0.95080501921E+01  0.39524639463E+02  0.50528871877E+02  0.30000036558E+02 0.  0.
        -12    1    3    3    0    0  0.75136978164E+00  0.95080501921E+01 -0.39524639463E+02  0.40659128123E+02  0.00000000000E+00 0.  1.
         11    1    4    4    0    0  0.25076239643E+01 -0.15798013200E+02  0.28763730630E+02  0.32912271253E+02  0.51100000000E-03 0. -1.
        -11    1    4    4    0    0  0.37937880120E+01  0.75436206254E+00  0.36002870798E+00  0.38847793417E+01  0.51100000000E-03 0.  1.
        -12    1    4    4    0    0 -0.70527817579E+01  0.55356009454E+01  0.10400880125E+02  0.13731821282E+02  0.00000000000E+00 0.  1.
</event>
<event>
 8    1  0.9870402E-014  0.9118800E+02  0.7816164E-02  0.1184000E+00
        -11   -1    0    0    0    0  0.00000000000E+00  0.00000000000E+00  0.45593999997E+02  0.45594000000E+02  0.51100000000E-03 0. -1.
         11   -1    0    0    0    0 -0.00000000000E+00 -0.00000000000E+00 -0.45593999997E+02  0.45594000000E+02  0.51100000000E-03 0.  1.
         23    2    1    2    0    0  0.71054273576E-14  0.17763568394E-14  0.00000000000E+00  0.91188000000E+02  0.91188000000E+02 0.  0.
    9900012    2    3    3    0    0  0.36311798303E+02  0.13830819155E+02 -0.11971990627E+02  0.50528845876E+02  0.29999957525E+02 0.  0.
         12    1    3    3    0    0 -0.36311798303E+02 -0.13830819155E+02  0.11971990627E+02  0.40659154124E+02  0.00000000000E+00 0. -1.
         11    1    4    4    0    0  0.74179375859E+01 -0.72816707406E+00 -0.25522383530E+01  0.78784482094E+01  0.51100000000E-03 0. -1.
        -11    1    4    4    0    0  0.26284405149E+02  0.19424018315E+02 -0.13924159098E+02  0.35525267746E+02  0.51100000000E-03 0.  1.
         12    1    4    4    0    0  0.26094555680E+01 -0.48650320861E+01  0.45044068240E+01  0.71251299213E+01  0.00000000000E+00 0. -1.
</event>
<event>
 8    1  0.9870402E-014  0.9118800E+02  0.7816164E-02  0.1184000E+00
        -11   -1    0    0    0    0  0.00000000000E+00  0.00000000000E+00  0.45593999997E+02  0.45594000000E+02  0.51100000000E-03 0.  1.
         11   -1    0    0    0    0 -0.00000000000E+00 -0.00000000000E+00 -0.45593999997E+02  0.45594000000E+02  0.51100000000E-03 0. -1.
         23    2    1    2    0    0 -0.35527136788E-14  0.88817841970E-15  0.71054273576E-14  0.91188000000E+02  0.91188000000E+02 0.  0.
    9900012    2    3    3    0    0  0.23947484904E+02 -0.55088244830E+01 -0.32393477716E+02  0.50528848767E+02  0.29999966313E+02 0.  0.
         12    1    3    3    0    0 -0.23947484904E+02  0.55088244830E+01  0.32393477716E+02  0.40659151233E+02  0.00000000000E+00 0. -1.
         11    1    4    4    0    0 -0.41851924701E+01  0.48298868281E+01 -0.11120668912E+02  0.12826259007E+02  0.51100000000E-03 0. -1.
        -11    1    4    4    0    0  0.43462127913E+01 -0.52279559082E+01 -0.46816370548E+01  0.82546238182E+01  0.51100000000E-03 0.  1.
        -12    1    4    4    0    0  0.23786464583E+02 -0.51107554030E+01 -0.16591171749E+02  0.29447965942E+02  0.00000000000E+00 0.  1.
</event>
<event>
 8    1  0.1023162E-013  0.9118800E+02  0.7816164E-02  0.1184000E+00
        -11   -1    0    0    0    0  0.00000000000E+00  0.00000000000E+00  0.45593999997E+02  0.45594000000E+02  0.51100000000E-03 0. -1.
         11   -1    0    0    0    0 -0.00000000000E+00 -0.00000000000E+00 -0.45593999997E+02  0.45594000000E+02  0.51100000000E-03 0.  1.
         23    2    1    2    0    0 -0.35527136788E-14  0.00000000000E+00  0.35527136788E-14  0.91188000000E+02  0.91188000000E+02 0.  0.
    9900012    2    3    3    0    0 -0.27224155287E+02  0.42040613637E+01 -0.29905473233E+02  0.50528854752E+02  0.29999984503E+02 0.  0.
         12    1    3    3    0    0  0.27224155287E+02 -0.42040613637E+01  0.29905473233E+02  0.40659145248E+02  0.00000000000E+00 0. -1.
         11    1    4    4    0    0 -0.23734913914E+01  0.80075184167E+01 -0.12923142318E+02  0.15387053656E+02  0.51100000000E-03 0.  1.
        -11    1    4    4    0    0 -0.18901627105E+02  0.54647110034E+01 -0.12068757672E+02  0.23082233115E+02  0.51100000000E-03 0. -1.
         12    1    4    4    0    0 -0.59490367906E+01 -0.92681680564E+01 -0.49135732422E+01  0.12059567980E+02  0.00000000000E+00 0. -1.
</event>
<event>
 8    1  0.9870402E-014  0.9118800E+02  0.7816164E-02  0.1184000E+00
        -11   -1    0    0    0    0  0.00000000000E+00  0.00000000000E+00  0.45593999997E+02  0.45594000000E+02  0.51100000000E-03 0. -1.
         11   -1    0    0    0    0 -0.00000000000E+00 -0.00000000000E+00 -0.45593999997E+02  0.45594000000E+02  0.51100000000E-03 0.  1.
         23    2    1    2    0    0  0.00000000000E+00 -0.17763568394E-14  0.35527136788E-14  0.91188000000E+02  0.91188000000E+02 0.  0.
    9900012    2    3    3    0    0 -0.26003947742E+02 -0.14371765278E+02 -0.27756307984E+02  0.50528861196E+02  0.30000004091E+02 0.  0.
         12    1    3    3    0    0  0.26003947742E+02  0.14371765278E+02  0.27756307984E+02  0.40659138804E+02  0.00000000000E+00 0. -1.
         11    1    4    4    0    0 -0.52517872431E+01 -0.84488347216E+01 -0.11547126554E+02  0.15241397879E+02  0.51100000000E-03 0. -1.
        -11    1    4    4    0    0 -0.11129441605E+02 -0.95034802673E+01 -0.19612327629E+02  0.24470880714E+02  0.51100000000E-03 0.  1.
        -12    1    4    4    0    0 -0.96227188941E+01  0.35805497110E+01  0.34031461989E+01  0.10816582603E+02  0.00000000000E+00 0.  1.
</event>
<event>
 8    1  0.9870402E-014  0.9118800E+02  0.7816164E-02  0.1184000E+00
        -11   -1    0    0    0    0  0.00000000000E+00  0.00000000000E+00  0.45593999997E+02  0.45594000000E+02  0.51100000000E-03 0. -1.
         11   -1    0    0    0    0 -0.00000000000E+00 -0.00000000000E+00 -0.45593999997E+02  0.45594000000E+02  0.51100000000E-03 0.  1.
         23    2    1    2    0    0 -0.71054273576E-14  0.00000000000E+00 -0.35527136788E-14  0.91188000000E+02  0.91188000000E+02 0.  0.
    9900012    2    3    3    0    0 -0.27835853592E+02  0.11241753677E+02 -0.27421783345E+02  0.50528856222E+02  0.29999988973E+02 0.  0.
         12    1    3    3    0    0  0.27835853592E+02 -0.11241753677E+02  0.27421783345E+02  0.40659143778E+02  0.00000000000E+00 0. -1.
         11    1    4    4    0    0 -0.23829750199E+02  0.51190983465E+01 -0.87106290064E+01  0.25883145489E+02  0.51100000000E-03 0. -1.
        -11    1    4    4    0    0 -0.71661450767E+01  0.36471444872E+01 -0.32514807812E+01  0.86733745279E+01  0.51100000000E-03 0.  1.
        -12    1    4    4    0    0  0.31600416835E+01  0.24755108434E+01 -0.15459673557E+02  0.15972336206E+02  0.00000000000E+00 0.  1.
</event>
<event>
 8    1  0.9870402E-014  0.9118800E+02  0.7816164E-02  0.1184000E+00
        -11   -1    0    0    0    0  0.00000000000E+00  0.00000000000E+00  0.45593999997E+02  0.45594000000E+02  0.51100000000E-03 0. -1.
         11   -1    0    0    0    0 -0.00000000000E+00 -0.00000000000E+00 -0.45593999997E+02  0.45594000000E+02  0.51100000000E-03 0.  1.
         23    2    1    2    0    0  0.00000000000E+00  0.35527136788E-14  0.00000000000E+00  0.91188000000E+02  0.91188000000E+02 0.  0.
    9900012    2    3    3    0    0  0.25793654860E+02  0.25998162562E+02  0.17662039470E+02  0.50528871555E+02  0.30000035579E+02 0.  0.
        -12    1    3    3    0    0 -0.25793654860E+02 -0.25998162562E+02 -0.17662039470E+02  0.40659128445E+02  0.00000000000E+00 0.  1.
         11    1    4    4    0    0  0.15473782003E+02  0.16795282074E+02  0.15290297916E+02  0.27482951808E+02  0.51100000000E-03 0. -1.
        -11    1    4    4    0    0  0.10064115483E+02  0.61477540158E+01 -0.66350529413E+01  0.13531638027E+02  0.51100000000E-03 0.  1.
         12    1    4    4    0    0  0.25575737424E+00  0.30551264721E+01  0.90067944946E+01  0.95142817208E+01  0.00000000000E+00 0. -1.
</event>
<event>
 8    1  0.9870402E-014  0.9118800E+02  0.7816164E-02  0.1184000E+00
        -11   -1    0    0    0    0  0.00000000000E+00  0.00000000000E+00  0.45593999997E+02  0.45594000000E+02  0.51100000000E-03 0.  1.
         11   -1    0    0    0    0 -0.00000000000E+00 -0.00000000000E+00 -0.45593999997E+02  0.45594000000E+02  0.51100000000E-03 0. -1.
         23    2    1    2    0    0  0.00000000000E+00  0.00000000000E+00  0.00000000000E+00  0.91188000000E+02  0.91188000000E+02 0.  0.
    9900012    2    3    3    0    0  0.23328830827E+02 -0.16143132709E+02 -0.29126115286E+02  0.50528859908E+02  0.30000000175E+02 0.  0.
         12    1    3    3    0    0 -0.23328830827E+02  0.16143132709E+02  0.29126115286E+02  0.40659140092E+02  0.00000000000E+00 0. -1.
         11    1    4    4    0    0 -0.14565434576E+01 -0.78151773122E+01 -0.13280420729E+02  0.15477987281E+02  0.51100000000E-03 0. -1.
        -11    1    4    4    0    0  0.57772057716E+01  0.46536919182E+01 -0.60194278023E+00  0.74428012448E+01  0.51100000000E-03 0.  1.
        -12    1    4    4    0    0  0.19008168513E+02 -0.12981647315E+02 -0.15243751777E+02  0.27608071382E+02  0.00000000000E+00 0.  1.
</event>
<event>
 8    1  0.1081017E-013  0.9118800E+02  0.7816164E-02  0.1184000E+00
        -11   -1    0    0    0    0  0.00000000000E+00  0.00000000000E+00  0.45593999997E+02  0.45594000000E+02  0.51100000000E-03 0. -1.
         11   -1    0    0    0    0 -0.00000000000E+00 -0.00000000000E+00 -0.45593999997E+02  0.45594000000E+02  0.51100000000E-03 0.  1.
         23    2    1    2    0    0  0.17763568394E-14  0.88817841970E-15  0.71054273576E-14  0.91188000000E+02  0.91188000000E+02 0.  0.
    9900012    2    3    3    0    0 -0.89782162980E+01 -0.74753131253E+01 -0.38944547026E+02  0.50528850756E+02  0.29999972357E+02 0.  0.
         12    1    3    3    0    0  0.89782162980E+01  0.74753131253E+01  0.38944547026E+02  0.40659149244E+02  0.00000000000E+00 0. -1.
         11    1    4    4    0    0 -0.80196945549E+01  0.19653698976E+01 -0.59846788958E+01  0.10197772371E+02  0.51100000000E-03 0. -1.
        -11    1    4    4    0    0 -0.85190296593E+01 -0.33933066800E+01 -0.27979075466E+02  0.29443455313E+02  0.51100000000E-03 0.  1.
         12    1    4    4    0    0  0.75605079162E+01 -0.60473763429E+01 -0.49807926643E+01  0.10887623072E+02  0.00000000000E+00 0. -1.
</event>
<event>
 8    1  0.9870402E-014  0.9118800E+02  0.7816164E-02  0.1184000E+00
        -11   -1    0    0    0    0  0.00000000000E+00  0.00000000000E+00  0.45593999997E+02  0.45594000000E+02  0.51100000000E-03 0. -1.
         11   -1    0    0    0    0 -0.00000000000E+00 -0.00000000000E+00 -0.45593999997E+02  0.45594000000E+02  0.51100000000E-03 0.  1.
         23    2    1    2    0    0  0.88817841970E-15  0.88817841970E-15  0.00000000000E+00  0.91188000000E+02  0.91188000000E+02 0.  0.
    9900012    2    3    3    0    0 -0.52633726269E+01  0.77820978883E+01  0.39558825970E+02  0.50528870016E+02  0.30000030901E+02 0.  0.
        -12    1    3    3    0    0  0.52633726269E+01 -0.77820978883E+01 -0.39558825970E+02  0.40659129984E+02  0.00000000000E+00 0.  1.
         11    1    4    4    0    0 -0.37505158127E+01  0.14877043523E+02  0.19935541503E+02  0.25155886153E+02  0.51100000000E-03 0. -1.
        -11    1    4    4    0    0 -0.79542954814E+01 -0.35914260202E+01  0.11359162470E+02  0.14324794230E+02  0.51100000000E-03 0.  1.
         12    1    4    4    0    0  0.64414386672E+01 -0.35035196144E+01  0.82641219972E+01  0.11048189633E+02  0.00000000000E+00 0. -1.
</event>
<event>
 8    1  0.9870402E-014  0.9118800E+02  0.7816164E-02  0.1184000E+00
        -11   -1    0    0    0    0  0.00000000000E+00  0.00000000000E+00  0.45593999997E+02  0.45594000000E+02  0.51100000000E-03 0. -1.
         11   -1    0    0    0    0 -0.00000000000E+00 -0.00000000000E+00 -0.45593999997E+02  0.45594000000E+02  0.51100000000E-03 0.  1.
         23    2    1    2    0    0 -0.35527136788E-14  0.00000000000E+00  0.00000000000E+00  0.91188000000E+02  0.91188000000E+02 0.  0.
    9900012    2    3    3    0    0 -0.17139616384E+02  0.28094319199E+02  0.23876939013E+02  0.50528862803E+02  0.30000008974E+02 0.  0.
        -12    1    3    3    0    0  0.17139616384E+02 -0.28094319199E+02 -0.23876939013E+02  0.40659137197E+02  0.00000000000E+00 0.  1.
         11    1    4    4    0    0 -0.66629122634E+01  0.11038998162E+02  0.12444722796E+02  0.17919961104E+02  0.51100000000E-03 0. -1.
        -11    1    4    4    0    0 -0.11586357588E+02 -0.14493838605E+01  0.67558846638E+01  0.13490232525E+02  0.51100000000E-03 0.  1.
        -12    1    4    4    0    0  0.11096534672E+01  0.18504704897E+02  0.46763315527E+01  0.19118669173E+02  0.00000000000E+00 0.  1.
</event>
<event>
 8    1  0.9870402E-014  0.9118800E+02  0.7816164E-02  0.1184000E+00
        -11   -1    0    0    0    0  0.00000000000E+00  0.00000000000E+00  0.45593999997E+02  0.45594000000E+02  0.51100000000E-03 0. -1.
         11   -1    0    0    0    0 -0.00000000000E+00 -0.00000000000E+00 -0.45593999997E+02  0.45594000000E+02  0.51100000000E-03 0.  1.
         23    2    1    2    0    0  0.00000000000E+00  0.00000000000E+00  0.00000000000E+00  0.91188000000E+02  0.91188000000E+02 0.  0.
    9900012    2    3    3    0    0 -0.18495659838E+02  0.19309146246E+02  0.30630592717E+02  0.50528858693E+02  0.29999996484E+02 0.  0.
        -12    1    3    3    0    0  0.18495659838E+02 -0.19309146246E+02 -0.30630592717E+02  0.40659141307E+02  0.00000000000E+00 0.  1.
         11    1    4    4    0    0 -0.86424871579E+00  0.30905291759E+01 -0.18094061749E+01  0.36840531208E+01  0.51100000000E-03 0. -1.
        -11    1    4    4    0    0 -0.20680624847E+02  0.14824792456E+02  0.15980415203E+02  0.30047235908E+02  0.51100000000E-03 0.  1.
        -12    1    4    4    0    0  0.30492137249E+01  0.13938246144E+01  0.16459583690E+02  0.16797569664E+02  0.00000000000E+00 0.  1.
</event>
<event>
 8    1  0.9870402E-014  0.9118800E+02  0.7816164E-02  0.1184000E+00
        -11   -1    0    0    0    0  0.00000000000E+00  0.00000000000E+00  0.45593999997E+02  0.45594000000E+02  0.51100000000E-03 0.  1.
         11   -1    0    0    0    0 -0.00000000000E+00 -0.00000000000E+00 -0.45593999997E+02  0.45594000000E+02  0.51100000000E-03 0. -1.
         23    2    1    2    0    0 -0.71054273576E-14  0.35527136788E-14  0.35527136788E-14  0.91188000000E+02  0.91188000000E+02 0.  0.
    9900012    2    3    3    0    0 -0.25425708255E+02  0.27954642907E+02  0.15007921076E+02  0.50528851026E+02  0.29999973178E+02 0.  0.
         12    1    3    3    0    0  0.25425708255E+02 -0.27954642907E+02 -0.15007921076E+02  0.40659148974E+02  0.00000000000E+00 0. -1.
         11    1    4    4    0    0 -0.10267612590E+02  0.35631453913E+01  0.15535997186E+02  0.18960144572E+02  0.51100000000E-03 0. -1.
        -11    1    4    4    0    0 -0.48021220410E+01  0.16632344584E+02  0.41615294146E+01  0.17804875450E+02  0.51100000000E-03 0.  1.
        -12    1    4    4    0    0 -0.10355973624E+02  0.77591529314E+01 -0.46896055248E+01  0.13763831004E+02  0.00000000000E+00 0.  1.
</event>
<event>
 8    1  0.9870402E-014  0.9118800E+02  0.7816164E-02  0.1184000E+00
        -11   -1    0    0    0    0  0.00000000000E+00  0.00000000000E+00  0.45593999997E+02  0.45594000000E+02  0.51100000000E-03 0. -1.
         11   -1    0    0    0    0 -0.00000000000E+00 -0.00000000000E+00 -0.45593999997E+02  0.45594000000E+02  0.51100000000E-03 0.  1.
         23    2    1    2    0    0  0.00000000000E+00  0.00000000000E+00  0.88817841970E-15  0.91188000000E+02  0.91188000000E+02 0.  0.
    9900012    2    3    3    0    0  0.15410438054E+02 -0.37348848060E+02  0.45548962162E+01  0.50528866561E+02  0.30000020400E+02 0.  0.
        -12    1    3    3    0    0 -0.15410438054E+02  0.37348848060E+02 -0.45548962162E+01  0.40659133439E+02  0.00000000000E+00 0.  1.
         11    1    4    4    0    0  0.13572249571E+02 -0.15072454700E+02 -0.24030191125E+01  0.20424479191E+02  0.51100000000E-03 0. -1.
        -11    1    4    4    0    0 -0.54918643134E+00 -0.14529852683E+02 -0.52425963551E+01  0.15456488654E+02  0.51100000000E-03 0.  1.
        -12    1    4    4    0    0  0.23873749144E+01 -0.77465406775E+01  0.12200511684E+02  0.14647898716E+02  0.00000000000E+00 0.  1.
</event>
<event>
 8    1  0.9870402E-014  0.9118800E+02  0.7816164E-02  0.1184000E+00
        -11   -1    0    0    0    0  0.00000000000E+00  0.00000000000E+00  0.45593999997E+02  0.45594000000E+02  0.51100000000E-03 0. -1.
         11   -1    0    0    0    0 -0.00000000000E+00 -0.00000000000E+00 -0.45593999997E+02  0.45594000000E+02  0.51100000000E-03 0.  1.
         23    2    1    2    0    0  0.00000000000E+00 -0.44408920985E-15 -0.71054273576E-14  0.91188000000E+02  0.91188000000E+02 0.  0.
    9900012    2    3    3    0    0 -0.10456293519E+02  0.37611096336E+01  0.39111192043E+02  0.50528863722E+02  0.30000011769E+02 0.  0.
        -12    1    3    3    0    0  0.10456293519E+02 -0.37611096336E+01 -0.39111192043E+02  0.40659136278E+02  0.00000000000E+00 0.  1.
         11    1    4    4    0    0  0.40109820407E+01 -0.86828206690E+00  0.32796573575E+01  0.52533839877E+01  0.51100000000E-03 0. -1.
        -11    1    4    4    0    0 -0.85502869458E+01  0.44193655469E+01  0.70193325020E+00  0.96504357022E+01  0.51100000000E-03 0.  1.
         12    1    4    4    0    0 -0.59169886139E+01  0.21002615364E+00  0.35129601436E+02  0.35625044032E+02  0.00000000000E+00 0. -1.
</event>
<event>
 8    1  0.9870402E-014  0.9118800E+02  0.7816164E-02  0.1184000E+00
        -11   -1    0    0    0    0  0.00000000000E+00  0.00000000000E+00  0.45593999997E+02  0.45594000000E+02  0.51100000000E-03 0. -1.
         11   -1    0    0    0    0 -0.00000000000E+00 -0.00000000000E+00 -0.45593999997E+02  0.45594000000E+02  0.51100000000E-03 0.  1.
         23    2    1    2    0    0  0.00000000000E+00  0.00000000000E+00  0.00000000000E+00  0.91188000000E+02  0.91188000000E+02 0.  0.
    9900012    2    3    3    0    0 -0.29051483862E+02  0.81423683422E+01 -0.27255803927E+02  0.50528859275E+02  0.29999998252E+02 0.  0.
         12    1    3    3    0    0  0.29051483862E+02 -0.81423683422E+01  0.27255803927E+02  0.40659140725E+02  0.00000000000E+00 0. -1.
         11    1    4    4    0    0 -0.12963534699E+02  0.55105444294E+01 -0.66052488283E+01  0.15557912589E+02  0.51100000000E-03 0. -1.
        -11    1    4    4    0    0 -0.27838268027E+00 -0.87359594903E+01 -0.59686183860E+01  0.10583897715E+02  0.51100000000E-03 0.  1.
         12    1    4    4    0    0 -0.15809566483E+02  0.11367783403E+02 -0.14681936713E+02  0.24387048971E+02  0.00000000000E+00 0. -1.
</event>
<event>
 8    1  0.9870402E-014  0.9118800E+02  0.7816164E-02  0.1184000E+00
        -11   -1    0    0    0    0  0.00000000000E+00  0.00000000000E+00  0.45593999997E+02  0.45594000000E+02  0.51100000000E-03 0. -1.
         11   -1    0    0    0    0 -0.00000000000E+00 -0.00000000000E+00 -0.45593999997E+02  0.45594000000E+02  0.51100000000E-03 0.  1.
         23    2    1    2    0    0  0.00000000000E+00 -0.35527136788E-14  0.00000000000E+00  0.91188000000E+02  0.91188000000E+02 0.  0.
    9900012    2    3    3    0    0 -0.30632807766E+02  0.23782040874E+02 -0.12215212368E+02  0.50528858433E+02  0.29999995694E+02 0.  0.
         12    1    3    3    0    0  0.30632807766E+02 -0.23782040874E+02  0.12215212368E+02  0.40659141567E+02  0.00000000000E+00 0. -1.
         11    1    4    4    0    0 -0.15092754688E+02  0.12752231642E+02 -0.14695220388E+00  0.19759358571E+02  0.51100000000E-03 0. -1.
        -11    1    4    4    0    0 -0.18308647104E+02  0.11954309623E+02 -0.15090735477E+02  0.26567694195E+02  0.51100000000E-03 0.  1.
         12    1    4    4    0    0  0.27685940261E+01 -0.92450039045E+00  0.30224753126E+01  0.42018056677E+01  0.00000000000E+00 0. -1.
</event>
<event>
 8    1  0.9870402E-014  0.9118800E+02  0.7816164E-02  0.1184000E+00
        -11   -1    0    0    0    0  0.00000000000E+00  0.00000000000E+00  0.45593999997E+02  0.45594000000E+02  0.51100000000E-03 0. -1.
         11   -1    0    0    0    0 -0.00000000000E+00 -0.00000000000E+00 -0.45593999997E+02  0.45594000000E+02  0.51100000000E-03 0.  1.
         23    2    1    2    0    0 -0.35527136788E-14  0.44408920985E-15  0.00000000000E+00  0.91188000000E+02  0.91188000000E+02 0.  0.
    9900012    2    3    3    0    0 -0.21933419950E+02  0.24289322830E+01  0.34149536091E+02  0.50528862798E+02  0.30000008962E+02 0.  0.
        -12    1    3    3    0    0  0.21933419950E+02 -0.24289322830E+01 -0.34149536091E+02  0.40659137202E+02  0.00000000000E+00 0.  1.
         11    1    4    4    0    0 -0.18504975198E+02 -0.41351510565E+01  0.35979384017E+02  0.40670009292E+02  0.51100000000E-03 0.  1.
        -11    1    4    4    0    0 -0.20886644831E+01  0.27977104452E+01  0.22447280790E+01  0.41507237282E+01  0.51100000000E-03 0. -1.
        -12    1    4    4    0    0 -0.13397802689E+01  0.37663728943E+01 -0.40745760043E+01  0.57081297780E+01  0.00000000000E+00 0.  1.
</event>
<event>
 8    1  0.9870402E-014  0.9118800E+02  0.7816164E-02  0.1184000E+00
        -11   -1    0    0    0    0  0.00000000000E+00  0.00000000000E+00  0.45593999997E+02  0.45594000000E+02  0.51100000000E-03 0.  1.
         11   -1    0    0    0    0 -0.00000000000E+00 -0.00000000000E+00 -0.45593999997E+02  0.45594000000E+02  0.51100000000E-03 0. -1.
         23    2    1    2    0    0  0.17763568394E-14 -0.71054273576E-14 -0.44408920985E-15  0.91188000000E+02  0.91188000000E+02 0.  0.
    9900012    2    3    3    0    0  0.12205322758E+02  0.38707644320E+02 -0.24317700491E+01  0.50528866488E+02  0.30000020176E+02 0.  0.
        -12    1    3    3    0    0 -0.12205322758E+02 -0.38707644320E+02  0.24317700491E+01  0.40659133512E+02  0.00000000000E+00 0.  1.
         11    1    4    4    0    0 -0.34752251042E+01  0.11424740035E+02 -0.15640088358E+00  0.11942626842E+02  0.51100000000E-03 0. -1.
        -11    1    4    4    0    0 -0.22714942846E+01 -0.16320375833E+01  0.30491793339E+01  0.41377201246E+01  0.51100000000E-03 0.  1.
         12    1    4    4    0    0  0.17952042147E+02  0.28914941868E+02 -0.53245484994E+01  0.34448519521E+02  0.00000000000E+00 0. -1.
</event>
<event>
 8    1  0.9870402E-014  0.9118800E+02  0.7816164E-02  0.1184000E+00
        -11   -1    0    0    0    0  0.00000000000E+00  0.00000000000E+00  0.45593999997E+02  0.45594000000E+02  0.51100000000E-03 0. -1.
         11   -1    0    0    0    0 -0.00000000000E+00 -0.00000000000E+00 -0.45593999997E+02  0.45594000000E+02  0.51100000000E-03 0.  1.
         23    2    1    2    0    0  0.71054273576E-14  0.17763568394E-14  0.00000000000E+00  0.91188000000E+02  0.91188000000E+02 0.  0.
    9900012    2    3    3    0    0  0.34047464801E+02  0.12776598811E+02  0.18185012128E+02  0.50528855855E+02  0.29999987856E+02 0.  0.
        -12    1    3    3    0    0 -0.34047464801E+02 -0.12776598811E+02 -0.18185012128E+02  0.40659144145E+02  0.00000000000E+00 0.  1.
         11    1    4    4    0    0  0.15806545156E+02 -0.79231745847E-02  0.15258251822E+02  0.21969551235E+02  0.51100000000E-03 0. -1.
        -11    1    4    4    0    0  0.56172336577E+01 -0.40358046474E+01  0.29734620528E+01  0.75287787826E+01  0.51100000000E-03 0.  1.
         12    1    4    4    0    0  0.12623685987E+02  0.16820326633E+02 -0.46701746383E-01  0.21030525837E+02  0.00000000000E+00 0. -1.
</event>
<event>
 8    1  0.9870402E-014  0.9118800E+02  0.7816164E-02  0.1184000E+00
        -11   -1    0    0    0    0  0.00000000000E+00  0.00000000000E+00  0.45593999997E+02  0.45594000000E+02  0.51100000000E-03 0. -1.
         11   -1    0    0    0    0 -0.00000000000E+00 -0.00000000000E+00 -0.45593999997E+02  0.45594000000E+02  0.51100000000E-03 0.  1.
         23    2    1    2    0    0  0.00000000000E+00  0.00000000000E+00  0.00000000000E+00  0.91188000000E+02  0.91188000000E+02 0.  0.
    9900012    2    3    3    0    0 -0.21663647169E+02 -0.17088817936E+02 -0.29863452878E+02  0.50528842054E+02  0.29999945908E+02 0.  0.
         12    1    3    3    0    0  0.21663647169E+02  0.17088817936E+02  0.29863452878E+02  0.40659157946E+02  0.00000000000E+00 0. -1.
         11    1    4    4    0    0 -0.63607974563E+01  0.11048786220E+01  0.11422189699E+01  0.65563073057E+01  0.51100000000E-03 0. -1.
        -11    1    4    4    0    0  0.41362531407E+01 -0.67464708498E+01 -0.12498988321E+02  0.14793517779E+02  0.51100000000E-03 0.  1.
        -12    1    4    4    0    0 -0.19439102853E+02 -0.11447225708E+02 -0.18506683527E+02  0.29179016970E+02  0.00000000000E+00 0.  1.
</event>
<event>
 8    1  0.9870402E-014  0.9118800E+02  0.7816164E-02  0.1184000E+00
        -11   -1    0    0    0    0  0.00000000000E+00  0.00000000000E+00  0.45593999997E+02  0.45594000000E+02  0.51100000000E-03 0. -1.
         11   -1    0    0    0    0 -0.00000000000E+00 -0.00000000000E+00 -0.45593999997E+02  0.45594000000E+02  0.51100000000E-03 0.  1.
         23    2    1    2    0    0  0.00000000000E+00  0.22204460493E-15  0.35527136788E-14  0.91188000000E+02  0.91188000000E+02 0.  0.
    9900012    2    3    3    0    0 -0.25372868523E+02 -0.15214928815E+01 -0.31734286860E+02  0.50528900648E+02  0.30000124008E+02 0.  0.
         12    1    3    3    0    0  0.25372868523E+02  0.15214928815E+01  0.31734286860E+02  0.40659099352E+02  0.00000000000E+00 0. -1.
         11    1    4    4    0    0 -0.16317535609E+02  0.22731718620E+01 -0.99372665901E+01  0.19240024590E+02  0.51100000000E-03 0. -1.
        -11    1    4    4    0    0 -0.13184403791E+02  0.30481364851E+01 -0.91747894859E+01  0.16349201868E+02  0.51100000000E-03 0.  1.
        -12    1    4    4    0    0  0.41290708767E+01 -0.68428012286E+01 -0.12622230784E+02  0.14939674190E+02  0.00000000000E+00 0.  1.
</event>
<event>
 8    1  0.9870402E-014  0.9118800E+02  0.7816164E-02  0.1184000E+00
        -11   -1    0    0    0    0  0.00000000000E+00  0.00000000000E+00  0.45593999997E+02  0.45594000000E+02  0.51100000000E-03 0. -1.
         11   -1    0    0    0    0 -0.00000000000E+00 -0.00000000000E+00 -0.45593999997E+02  0.45594000000E+02  0.51100000000E-03 0.  1.
         23    2    1    2    0    0  0.00000000000E+00  0.00000000000E+00 -0.35527136788E-14  0.91188000000E+02  0.91188000000E+02 0.  0.
    9900012    2    3    3    0    0 -0.24790436378E+02 -0.16757056287E+02  0.27528200108E+02  0.50528850078E+02  0.29999970297E+02 0.  0.
        -12    1    3    3    0    0  0.24790436378E+02  0.16757056287E+02 -0.27528200108E+02  0.40659149922E+02  0.00000000000E+00 0.  1.
         11    1    4    4    0    0  0.17064362258E+01 -0.17128707419E+01  0.58829284470E+01  0.63604007849E+01  0.51100000000E-03 0. -1.
        -11    1    4    4    0    0 -0.14431228749E+02  0.47408437198E+01  0.10408960417E+02  0.18414190713E+02  0.51100000000E-03 0.  1.
         12    1    4    4    0    0 -0.12065643854E+02 -0.19785029265E+02  0.11236311244E+02  0.25754258580E+02  0.00000000000E+00 0. -1.
</event>
<event>
 8    1  0.9870402E-014  0.9118800E+02  0.7816164E-02  0.1184000E+00
        -11   -1    0    0    0    0  0.00000000000E+00  0.00000000000E+00  0.45593999997E+02  0.45594000000E+02  0.51100000000E-03 0. -1.
         11   -1    0    0    0    0 -0.00000000000E+00 -0.00000000000E+00 -0.45593999997E+02  0.45594000000E+02  0.51100000000E-03 0.  1.
         23    2    1    2    0    0  0.00000000000E+00  0.00000000000E+00  0.00000000000E+00  0.91188000000E+02  0.91188000000E+02 0.  0.
    9900012    2    3    3    0    0  0.23870208588E+02 -0.22457156152E+02  0.24063560316E+02  0.50528860123E+02  0.30000000830E+02 0.  0.
        -12    1    3    3    0    0 -0.23870208588E+02  0.22457156152E+02 -0.24063560316E+02  0.40659139877E+02  0.00000000000E+00 0.  1.
         11    1    4    4    0    0  0.23803099421E+02 -0.23918965771E+02  0.24874822208E+02  0.41922085417E+02  0.51100000000E-03 0. -1.
        -11    1    4    4    0    0  0.19508484904E+01  0.27313905222E+01  0.27793761623E+01  0.43578935428E+01  0.51100000000E-03 0.  1.
        -12    1    4    4    0    0 -0.18837393233E+01 -0.12695809026E+01 -0.35906380537E+01  0.42488811633E+01  0.00000000000E+00 0.  1.
</event>
<event>
 8    1  0.9870402E-014  0.9118800E+02  0.7816164E-02  0.1184000E+00
        -11   -1    0    0    0    0  0.00000000000E+00  0.00000000000E+00  0.45593999997E+02  0.45594000000E+02  0.51100000000E-03 0.  1.
         11   -1    0    0    0    0 -0.00000000000E+00 -0.00000000000E+00 -0.45593999997E+02  0.45594000000E+02  0.51100000000E-03 0. -1.
         23    2    1    2    0    0 -0.17763568394E-14 -0.35527136788E-14  0.00000000000E+00  0.91188000000E+02  0.91188000000E+02 0.  0.
    9900012    2    3    3    0    0 -0.93816661491E+01 -0.13078185042E+02 -0.37337797845E+02  0.50528859187E+02  0.29999997984E+02 0.  0.
         12    1    3    3    0    0  0.93816661491E+01  0.13078185042E+02  0.37337797845E+02  0.40659140813E+02  0.00000000000E+00 0. -1.
         11    1    4    4    0    0 -0.50741573055E+01  0.53729221282E+01 -0.99221886953E+01  0.12371951880E+02  0.51100000000E-03 0. -1.
        -11    1    4    4    0    0 -0.79364275323E+01 -0.14971694598E+02 -0.92438652195E+01  0.19302527440E+02  0.51100000000E-03 0.  1.
         12    1    4    4    0    0  0.36289186886E+01 -0.34794125721E+01 -0.18171743931E+02  0.18854379867E+02  0.00000000000E+00 0. -1.
</event>
<event>
 8    1  0.9870402E-014  0.9118800E+02  0.7816164E-02  0.1184000E+00
        -11   -1    0    0    0    0  0.00000000000E+00  0.00000000000E+00  0.45593999997E+02  0.45594000000E+02  0.51100000000E-03 0. -1.
         11   -1    0    0    0    0 -0.00000000000E+00 -0.00000000000E+00 -0.45593999997E+02  0.45594000000E+02  0.51100000000E-03 0.  1.
         23    2    1    2    0    0  0.71054273576E-14 -0.13322676296E-14  0.00000000000E+00  0.91188000000E+02  0.91188000000E+02 0.  0.
    9900012    2    3    3    0    0  0.40204175869E+02 -0.29466937125E+01  0.53014325455E+01  0.50528881119E+02  0.30000064651E+02 0.  0.
        -12    1    3    3    0    0 -0.40204175869E+02  0.29466937125E+01 -0.53014325455E+01  0.40659118881E+02  0.00000000000E+00 0.  1.
         11    1    4    4    0    0 -0.15832394968E+01 -0.92321519063E+00  0.19513022153E+01  0.26770420596E+01  0.51100000000E-03 0. -1.
        -11    1    4    4    0    0  0.22738069586E+02 -0.12428302368E+02  0.34809257884E+01  0.26145732976E+02  0.51100000000E-03 0.  1.
         12    1    4    4    0    0  0.19049345779E+02  0.10404823846E+02 -0.13079545812E+00  0.21706106084E+02  0.00000000000E+00 0. -1.
</event>
<event>
 8    1  0.9870402E-014  0.9118800E+02  0.7816164E-02  0.1184000E+00
        -11   -1    0    0    0    0  0.00000000000E+00  0.00000000000E+00  0.45593999997E+02  0.45594000000E+02  0.51100000000E-03 0. -1.
         11   -1    0    0    0    0 -0.00000000000E+00 -0.00000000000E+00 -0.45593999997E+02  0.45594000000E+02  0.51100000000E-03 0.  1.
         23    2    1    2    0    0 -0.44408920985E-15  0.00000000000E+00  0.35527136788E-14  0.91188000000E+02  0.91188000000E+02 0.  0.
    9900012    2    3    3    0    0  0.32437104745E+01  0.32703338566E+02  0.23940250556E+02  0.50528860711E+02  0.30000002618E+02 0.  0.
        -12    1    3    3    0    0 -0.32437104745E+01 -0.32703338566E+02 -0.23940250556E+02  0.40659139289E+02  0.00000000000E+00 0.  1.
         11    1    4    4    0    0 -0.38477484871E+01  0.22641503489E+02  0.13412982461E+02  0.26596070150E+02  0.51100000000E-03 0. -1.
        -11    1    4    4    0    0  0.11379601774E+02  0.11907547946E+02  0.99138000500E+01  0.19224163605E+02  0.51100000000E-03 0.  1.
        -12    1    4    4    0    0 -0.42881428122E+01 -0.18457128688E+01  0.61346804513E+00  0.47086269563E+01  0.00000000000E+00 0.  1.
</event>
<event>
 8    1  0.9870402E-014  0.9118800E+02  0.7816164E-02  0.1184000E+00
        -11   -1    0    0    0    0  0.00000000000E+00  0.00000000000E+00  0.45593999997E+02  0.45594000000E+02  0.51100000000E-03 0. -1.
         11   -1    0    0    0    0 -0.00000000000E+00 -0.00000000000E+00 -0.45593999997E+02  0.45594000000E+02  0.51100000000E-03 0.  1.
         23    2    1    2    0    0  0.44408920985E-15  0.00000000000E+00 -0.71054273576E-14  0.91188000000E+02  0.91188000000E+02 0.  0.
    9900012    2    3    3    0    0  0.85825622704E+00  0.55176737352E+01  0.40273869892E+02  0.50528856830E+02  0.29999990821E+02 0.  0.
        -12    1    3    3    0    0 -0.85825622704E+00 -0.55176737352E+01 -0.40273869892E+02  0.40659143170E+02  0.00000000000E+00 0.  1.
         11    1    4    4    0    0 -0.76435965279E+00 -0.63618078501E+01  0.21583747280E+02  0.22514772744E+02  0.51100000000E-03 0. -1.
        -11    1    4    4    0    0 -0.42891564741E+01  0.51548052161E+01  0.17793885694E+02  0.19015552804E+02  0.51100000000E-03 0.  1.
        -12    1    4    4    0    0  0.59117723539E+01  0.67246763692E+01  0.89623691848E+00  0.89985312829E+01  0.00000000000E+00 0.  1.
</event>
<event>
 8    1  0.9870402E-014  0.9118800E+02  0.7816164E-02  0.1184000E+00
        -11   -1    0    0    0    0  0.00000000000E+00  0.00000000000E+00  0.45593999997E+02  0.45594000000E+02  0.51100000000E-03 0. -1.
         11   -1    0    0    0    0 -0.00000000000E+00 -0.00000000000E+00 -0.45593999997E+02  0.45594000000E+02  0.51100000000E-03 0.  1.
         23    2    1    2    0    0  0.88817841970E-15  0.00000000000E+00 -0.35527136788E-14  0.91188000000E+02  0.91188000000E+02 0.  0.
    9900012    2    3    3    0    0  0.53059745550E+01 -0.31800929004E+02 -0.24773243936E+02  0.50528855068E+02  0.29999985464E+02 0.  0.
         12    1    3    3    0    0 -0.53059745550E+01  0.31800929004E+02  0.24773243936E+02  0.40659144932E+02  0.00000000000E+00 0. -1.
         11    1    4    4    0    0  0.41278528435E+00 -0.47569408750E+01 -0.91000022707E+01  0.10276620056E+02  0.51100000000E-03 0. -1.
        -11    1    4    4    0    0  0.11641858631E+02 -0.11522741429E+02 -0.16575172977E+02  0.23303278780E+02  0.51100000000E-03 0.  1.
         12    1    4    4    0    0 -0.67486693601E+01 -0.15521246700E+02  0.90193131225E+00  0.16948956232E+02  0.00000000000E+00 0. -1.
</event>
<event>
 8    1  0.1238731E-013  0.9118800E+02  0.7816164E-02  0.1184000E+00
        -11   -1    0    0    0    0  0.00000000000E+00  0.00000000000E+00  0.45593999997E+02  0.45594000000E+02  0.51100000000E-03 0. -1.
         11   -1    0    0    0    0 -0.00000000000E+00 -0.00000000000E+00 -0.45593999997E+02  0.45594000000E+02  0.51100000000E-03 0.  1.
         23    2    1    2    0    0  0.88817841970E-15  0.35527136788E-14  0.71054273576E-14  0.91188000000E+02  0.91188000000E+02 0.  0.
    9900012    2    3    3    0    0 -0.45889792146E+01 -0.22061144957E+02 -0.33843965797E+02  0.50528845214E+02  0.29999955512E+02 0.  0.
         12    1    3    3    0    0  0.45889792146E+01  0.22061144957E+02  0.33843965797E+02  0.40659154786E+02  0.00000000000E+00 0. -1.
         11    1    4    4    0    0  0.36275780982E+01 -0.89567039101E+01 -0.45635470805E+01  0.10686806352E+02  0.51100000000E-03 0. -1.
        -11    1    4    4    0    0  0.23844698869E+01 -0.13676948392E+02 -0.24583775282E+02  0.28233076725E+02  0.51100000000E-03 0.  1.
         12    1    4    4    0    0 -0.10601027200E+02  0.57250734521E+00 -0.46966434342E+01  0.11608962137E+02  0.00000000000E+00 0. -1.
</event>
<event>
 8    1  0.9870402E-014  0.9118800E+02  0.7816164E-02  0.1184000E+00
        -11   -1    0    0    0    0  0.00000000000E+00  0.00000000000E+00  0.45593999997E+02  0.45594000000E+02  0.51100000000E-03 0. -1.
         11   -1    0    0    0    0 -0.00000000000E+00 -0.00000000000E+00 -0.45593999997E+02  0.45594000000E+02  0.51100000000E-03 0.  1.
         23    2    1    2    0    0  0.44408920985E-15  0.44408920985E-15 -0.71054273576E-14  0.91188000000E+02  0.91188000000E+02 0.  0.
    9900012    2    3    3    0    0  0.34559308801E+01  0.24008886776E+01 -0.40440782942E+02  0.50528872493E+02  0.30000038429E+02 0.  0.
         12    1    3    3    0    0 -0.34559308801E+01 -0.24008886776E+01  0.40440782942E+02  0.40659127507E+02  0.00000000000E+00 0. -1.
         11    1    4    4    0    0  0.81674482704E+01 -0.73236706353E+01 -0.28194523020E+02  0.30253503788E+02  0.51100000000E-03 0. -1.
        -11    1    4    4    0    0  0.37514599360E+01  0.37041203839E+01 -0.66220994722E+01  0.84644055403E+01  0.51100000000E-03 0.  1.
        -12    1    4    4    0    0 -0.84629773262E+01  0.60204389289E+01 -0.56241604492E+01  0.11810963165E+02  0.00000000000E+00 0.  1.
</event>
<event>
 8    1  0.9870402E-014  0.9118800E+02  0.7816164E-02  0.1184000E+00
        -11   -1    0    0    0    0  0.00000000000E+00  0.00000000000E+00  0.45593999997E+02  0.45594000000E+02  0.51100000000E-03 0. -1.
         11   -1    0    0    0    0 -0.00000000000E+00 -0.00000000000E+00 -0.45593999997E+02  0.45594000000E+02  0.51100000000E-03 0.  1.
         23    2    1    2    0    0  0.35527136788E-14  0.00000000000E+00  0.00000000000E+00  0.91188000000E+02  0.91188000000E+02 0.  0.
    9900012    2    3    3    0    0  0.25896319797E+02  0.21185790050E+02 -0.23102141556E+02  0.50528855598E+02  0.29999987076E+02 0.  0.
         12    1    3    3    0    0 -0.25896319797E+02 -0.21185790050E+02  0.23102141556E+02  0.40659144402E+02  0.00000000000E+00 0. -1.
         11    1    4    4    0    0  0.13696417343E+02  0.23509749619E+02 -0.10736927846E+02  0.29250329828E+02  0.51100000000E-03 0. -1.
        -11    1    4    4    0    0 -0.13954900239E+01 -0.20111808288E+00 -0.59166268286E+01  0.60822951408E+01  0.51100000000E-03 0.  1.
        -12    1    4    4    0    0  0.13595392477E+02 -0.21228414865E+01 -0.64485868811E+01  0.15196230629E+02  0.00000000000E+00 0.  1.
</event>
<event>
 8    1  0.9870402E-014  0.9118800E+02  0.7816164E-02  0.1184000E+00
        -11   -1    0    0    0    0  0.00000000000E+00  0.00000000000E+00  0.45593999997E+02  0.45594000000E+02  0.51100000000E-03 0. -1.
         11   -1    0    0    0    0 -0.00000000000E+00 -0.00000000000E+00 -0.45593999997E+02  0.45594000000E+02  0.51100000000E-03 0.  1.
         23    2    1    2    0    0  0.17763568394E-14  0.00000000000E+00 -0.71054273576E-14  0.91188000000E+02  0.91188000000E+02 0.  0.
    9900012    2    3    3    0    0 -0.96082948646E+01  0.18666338084E+02  0.34819730043E+02  0.50528866856E+02  0.30000021297E+02 0.  0.
        -12    1    3    3    0    0  0.96082948646E+01 -0.18666338084E+02 -0.34819730043E+02  0.40659133144E+02  0.00000000000E+00 0.  1.
         11    1    4    4    0    0 -0.14666503884E+02  0.52651529591E+01  0.19637674040E+02  0.25069232414E+02  0.51100000000E-03 0. -1.
        -11    1    4    4    0    0  0.44576633274E+01 -0.16702255017E+01  0.64977558037E+01  0.80548895903E+01  0.51100000000E-03 0.  1.
        -12    1    4    4    0    0  0.60054569172E+00  0.15071410627E+02  0.86843002001E+01  0.17404744853E+02  0.00000000000E+00 0.  1.
</event>
<event>
 8    1  0.9870402E-014  0.9118800E+02  0.7816164E-02  0.1184000E+00
        -11   -1    0    0    0    0  0.00000000000E+00  0.00000000000E+00  0.45593999997E+02  0.45594000000E+02  0.51100000000E-03 0. -1.
         11   -1    0    0    0    0 -0.00000000000E+00 -0.00000000000E+00 -0.45593999997E+02  0.45594000000E+02  0.51100000000E-03 0.  1.
         23    2    1    2    0    0  0.00000000000E+00 -0.17763568394E-14  0.00000000000E+00  0.91188000000E+02  0.91188000000E+02 0.  0.
    9900012    2    3    3    0    0  0.35870842983E+02 -0.14124558023E+02  0.12920774411E+02  0.50528844487E+02  0.29999953304E+02 0.  0.
        -12    1    3    3    0    0 -0.35870842983E+02  0.14124558023E+02 -0.12920774411E+02  0.40659155513E+02  0.00000000000E+00 0.  1.
         11    1    4    4    0    0  0.25478481097E+01 -0.16981829920E+01  0.50134091613E+01  0.58744895220E+01  0.51100000000E-03 0. -1.
        -11    1    4    4    0    0 -0.99795613777E+00 -0.72711856531E+01 -0.34872843128E+01  0.81257128545E+01  0.51100000000E-03 0.  1.
         12    1    4    4    0    0  0.34320951011E+02 -0.51551893774E+01  0.11394649562E+02  0.36528642111E+02  0.00000000000E+00 0. -1.
</event>
<event>
 8    1  0.9870402E-014  0.9118800E+02  0.7816164E-02  0.1184000E+00
        -11   -1    0    0    0    0  0.00000000000E+00  0.00000000000E+00  0.45593999997E+02  0.45594000000E+02  0.51100000000E-03 0. -1.
         11   -1    0    0    0    0 -0.00000000000E+00 -0.00000000000E+00 -0.45593999997E+02  0.45594000000E+02  0.51100000000E-03 0.  1.
         23    2    1    2    0    0  0.00000000000E+00  0.00000000000E+00  0.00000000000E+00  0.91188000000E+02  0.91188000000E+02 0.  0.
    9900012    2    3    3    0    0 -0.17797085349E+02  0.13220022713E+02  0.34083136838E+02  0.50528862477E+02  0.30000007984E+02 0.  0.
        -12    1    3    3    0    0  0.17797085349E+02 -0.13220022713E+02 -0.34083136838E+02  0.40659137523E+02  0.00000000000E+00 0.  1.
         11    1    4    4    0    0  0.10790813552E+01  0.35463017342E+01  0.24145623938E+02  0.24428504419E+02  0.51100000000E-03 0. -1.
        -11    1    4    4    0    0 -0.53363039972E+01 -0.22808409039E+01  0.79907117905E+00  0.58580620166E+01  0.51100000000E-03 0.  1.
        -12    1    4    4    0    0 -0.13539862707E+02  0.11954561883E+02  0.91384417212E+01  0.20242296041E+02  0.00000000000E+00 0.  1.
</event>
<event>
 8    1  0.9870402E-014  0.9118800E+02  0.7816164E-02  0.1184000E+00
        -11   -1    0    0    0    0  0.00000000000E+00  0.00000000000E+00  0.45593999997E+02  0.45594000000E+02  0.51100000000E-03 0. -1.
         11   -1    0    0    0    0 -0.00000000000E+00 -0.00000000000E+00 -0.45593999997E+02  0.45594000000E+02  0.51100000000E-03 0.  1.
         23    2    1    2    0    0  0.00000000000E+00 -0.17763568394E-14  0.00000000000E+00  0.91188000000E+02  0.91188000000E+02 0.  0.
    9900012    2    3    3    0    0  0.10651470723E+02  0.13941517806E+02  0.36678952260E+02  0.50528864665E+02  0.30000014635E+02 0.  0.
        -12    1    3    3    0    0 -0.10651470723E+02 -0.13941517806E+02 -0.36678952260E+02  0.40659135335E+02  0.00000000000E+00 0.  1.
         11    1    4    4    0    0  0.30541680279E+01  0.42655132479E+01  0.20375909420E+02  0.21040442737E+02  0.51100000000E-03 0. -1.
        -11    1    4    4    0    0  0.14992650043E+02  0.72650536840E+01  0.12512092638E+02  0.20835379113E+02  0.51100000000E-03 0.  1.
         12    1    4    4    0    0 -0.73953473479E+01  0.24109508737E+01  0.37909502024E+01  0.86530428145E+01  0.00000000000E+00 0. -1.
</event>
<event>
 8    1  0.9870402E-014  0.9118800E+02  0.7816164E-02  0.1184000E+00
        -11   -1    0    0    0    0  0.00000000000E+00  0.00000000000E+00  0.45593999997E+02  0.45594000000E+02  0.51100000000E-03 0.  1.
         11   -1    0    0    0    0 -0.00000000000E+00 -0.00000000000E+00 -0.45593999997E+02  0.45594000000E+02  0.51100000000E-03 0. -1.
         23    2    1    2    0    0  0.00000000000E+00  0.00000000000E+00  0.35527136788E-14  0.91188000000E+02  0.91188000000E+02 0.  0.
    9900012    2    3    3    0    0 -0.27127072514E+02  0.43988756828E+01  0.29965613037E+02  0.50528854226E+02  0.29999982904E+02 0.  0.
        -12    1    3    3    0    0  0.27127072514E+02 -0.43988756828E+01 -0.29965613037E+02  0.40659145774E+02  0.00000000000E+00 0.  1.
         11    1    4    4    0    0 -0.54517520523E+01  0.49057908237E+01 -0.42955277331E+01  0.84994083801E+01  0.51100000000E-03 0. -1.
        -11    1    4    4    0    0  0.36067705848E+00 -0.21992203347E+01  0.35799484813E+01  0.42169526214E+01  0.51100000000E-03 0.  1.
         12    1    4    4    0    0 -0.22035997520E+02  0.16923051938E+01  0.30681192289E+02  0.37812493224E+02  0.00000000000E+00 0. -1.
</event>
<event>
 8    1  0.9870402E-014  0.9118800E+02  0.7816164E-02  0.1184000E+00
        -11   -1    0    0    0    0  0.00000000000E+00  0.00000000000E+00  0.45593999997E+02  0.45594000000E+02  0.51100000000E-03 0. -1.
         11   -1    0    0    0    0 -0.00000000000E+00 -0.00000000000E+00 -0.45593999997E+02  0.45594000000E+02  0.51100000000E-03 0.  1.
         23    2    1    2    0    0  0.17763568394E-14  0.00000000000E+00  0.35527136788E-14  0.91188000000E+02  0.91188000000E+02 0.  0.
    9900012    2    3    3    0    0 -0.12204159720E+02  0.33531431980E+02  0.19490160139E+02  0.50528870800E+02  0.30000033283E+02 0.  0.
        -12    1    3    3    0    0  0.12204159720E+02 -0.33531431980E+02 -0.19490160139E+02  0.40659129200E+02  0.00000000000E+00 0.  1.
         11    1    4    4    0    0 -0.29772168394E+01  0.20540133596E+02  0.22665225428E+01  0.20878171207E+02  0.51100000000E-03 0. -1.
        -11    1    4    4    0    0  0.39984616760E+01  0.23806583609E+01 -0.99917579358E+00  0.47595779785E+01  0.51100000000E-03 0.  1.
        -12    1    4    4    0    0 -0.13225404557E+02  0.10610640023E+02  0.18222813390E+02  0.24891121615E+02  0.00000000000E+00 0.  1.
</event>
<event>
 8    1  0.9870402E-014  0.9118800E+02  0.7816164E-02  0.1184000E+00
        -11   -1    0    0    0    0  0.00000000000E+00  0.00000000000E+00  0.45593999997E+02  0.45594000000E+02  0.51100000000E-03 0. -1.
         11   -1    0    0    0    0 -0.00000000000E+00 -0.00000000000E+00 -0.45593999997E+02  0.45594000000E+02  0.51100000000E-03 0.  1.
         23    2    1    2    0    0 -0.17763568394E-14  0.17763568394E-14  0.00000000000E+00  0.91188000000E+02  0.91188000000E+02 0.  0.
    9900012    2    3    3    0    0 -0.10259227761E+02  0.10566814502E+02 -0.37897995215E+02  0.50528839110E+02  0.29999936960E+02 0.  0.
         12    1    3    3    0    0  0.10259227761E+02 -0.10566814502E+02  0.37897995215E+02  0.40659160890E+02  0.00000000000E+00 0. -1.
         11    1    4    4    0    0  0.43541306617E+01 -0.49632578452E+01 -0.18278085233E+02  0.19434010968E+02  0.51100000000E-03 0. -1.
        -11    1    4    4    0    0 -0.13386627322E+01  0.43406431320E+01 -0.10595207627E+02  0.11527863012E+02  0.51100000000E-03 0.  1.
        -12    1    4    4    0    0 -0.13274695690E+02  0.11189429215E+02 -0.90247023549E+01  0.19566965131E+02  0.00000000000E+00 0.  1.
</event>
<event>
 8    1  0.9870402E-014  0.9118800E+02  0.7816164E-02  0.1184000E+00
        -11   -1    0    0    0    0  0.00000000000E+00  0.00000000000E+00  0.45593999997E+02  0.45594000000E+02  0.51100000000E-03 0. -1.
         11   -1    0    0    0    0 -0.00000000000E+00 -0.00000000000E+00 -0.45593999997E+02  0.45594000000E+02  0.51100000000E-03 0.  1.
         23    2    1    2    0    0  0.00000000000E+00  0.00000000000E+00  0.00000000000E+00  0.91188000000E+02  0.91188000000E+02 0.  0.
    9900012    2    3    3    0    0  0.14177501579E+02  0.29119314792E+01 -0.37995855845E+02  0.50528856412E+02  0.29999989548E+02 0.  0.
         12    1    3    3    0    0 -0.14177501579E+02 -0.29119314792E+01  0.37995855845E+02  0.40659143588E+02  0.00000000000E+00 0. -1.
         11    1    4    4    0    0  0.13113021205E+00  0.79934848530E+01 -0.65495818946E+01  0.10334893250E+02  0.51100000000E-03 0. -1.
        -11    1    4    4    0    0  0.20641196533E+01 -0.90480240333E+01 -0.42414127627E+01  0.10203769467E+02  0.51100000000E-03 0.  1.
         12    1    4    4    0    0  0.11982251713E+02  0.39664706596E+01 -0.27204861188E+02  0.29990193695E+02  0.00000000000E+00 0. -1.
</event>
<event>
 8    1  0.9870402E-014  0.9118800E+02  0.7816164E-02  0.1184000E+00
        -11   -1    0    0    0    0  0.00000000000E+00  0.00000000000E+00  0.45593999997E+02  0.45594000000E+02  0.51100000000E-03 0. -1.
         11   -1    0    0    0    0 -0.00000000000E+00 -0.00000000000E+00 -0.45593999997E+02  0.45594000000E+02  0.51100000000E-03 0.  1.
         23    2    1    2    0    0  0.00000000000E+00  0.88817841970E-15 -0.35527136788E-14  0.91188000000E+02  0.91188000000E+02 0.  0.
    9900012    2    3    3    0    0  0.28410620368E+02 -0.65687119588E+01  0.28334694304E+02  0.50528853086E+02  0.29999979440E+02 0.  0.
        -12    1    3    3    0    0 -0.28410620368E+02  0.65687119588E+01 -0.28334694304E+02  0.40659146914E+02  0.00000000000E+00 0.  1.
         11    1    4    4    0    0  0.51093135237E+01  0.37095202437E+01  0.10771524464E+01  0.64051450238E+01  0.51100000000E-03 0. -1.
        -11    1    4    4    0    0  0.25808376574E+02 -0.22114058004E+01  0.17725527057E+02  0.31387209604E+02  0.51100000000E-03 0.  1.
        -12    1    4    4    0    0 -0.25070697294E+01 -0.80668264021E+01  0.95320148001E+01  0.12736498458E+02  0.00000000000E+00 0.  1.
</event>
<event>
 8    1  0.9870402E-014  0.9118800E+02  0.7816164E-02  0.1184000E+00
        -11   -1    0    0    0    0  0.00000000000E+00  0.00000000000E+00  0.45593999997E+02  0.45594000000E+02  0.51100000000E-03 0. -1.
         11   -1    0    0    0    0 -0.00000000000E+00 -0.00000000000E+00 -0.45593999997E+02  0.45594000000E+02  0.51100000000E-03 0.  1.
         23    2    1    2    0    0  0.00000000000E+00  0.00000000000E+00  0.35527136788E-14  0.91188000000E+02  0.91188000000E+02 0.  0.
    9900012    2    3    3    0    0 -0.27704053560E+02  0.24568521951E+02 -0.16794043231E+02  0.50528846755E+02  0.29999960197E+02 0.  0.
         12    1    3    3    0    0  0.27704053560E+02 -0.24568521951E+02  0.16794043231E+02  0.40659153245E+02  0.00000000000E+00 0. -1.
         11    1    4    4    0    0 -0.38923489111E+01  0.16646914535E+02 -0.10070250559E+01  0.17125543592E+02  0.51100000000E-03 0. -1.
        -11    1    4    4    0    0 -0.34106098813E+01  0.58692590803E+01 -0.10021292923E+02  0.12103998266E+02  0.51100000000E-03 0.  1.
         12    1    4    4    0    0 -0.20401094768E+02  0.20523483350E+01 -0.57657252522E+01  0.21299304897E+02  0.00000000000E+00 0. -1.
</event>
<event>
 8    1  0.1473774E-013  0.9118800E+02  0.7816164E-02  0.1184000E+00
        -11   -1    0    0    0    0  0.00000000000E+00  0.00000000000E+00  0.45593999997E+02  0.45594000000E+02  0.51100000000E-03 0. -1.
         11   -1    0    0    0    0 -0.00000000000E+00 -0.00000000000E+00 -0.45593999997E+02  0.45594000000E+02  0.51100000000E-03 0.  1.
         23    2    1    2    0    0  0.00000000000E+00 -0.35527136788E-14  0.00000000000E+00  0.91188000000E+02  0.91188000000E+02 0.  0.
    9900012    2    3    3    0    0  0.25332818299E+01 -0.14395010182E+02 -0.37941172363E+02  0.50528851026E+02  0.29999973179E+02 0.  0.
         12    1    3    3    0    0 -0.25332818299E+01  0.14395010182E+02  0.37941172363E+02  0.40659148974E+02  0.00000000000E+00 0. -1.
         11    1    4    4    0    0  0.51162709241E+01 -0.72821106113E+01 -0.20372813248E+01  0.91299440624E+01  0.51100000000E-03 0. -1.
        -11    1    4    4    0    0  0.14479911142E+01 -0.13062652142E+02 -0.26329303286E+02  0.29427228395E+02  0.51100000000E-03 0.  1.
         12    1    4    4    0    0 -0.40309802084E+01  0.59497525718E+01 -0.95745877529E+01  0.11971678568E+02  0.00000000000E+00 0. -1.
</event>
<event>
 8    1  0.9870402E-014  0.9118800E+02  0.7816164E-02  0.1184000E+00
        -11   -1    0    0    0    0  0.00000000000E+00  0.00000000000E+00  0.45593999997E+02  0.45594000000E+02  0.51100000000E-03 0. -1.
         11   -1    0    0    0    0 -0.00000000000E+00 -0.00000000000E+00 -0.45593999997E+02  0.45594000000E+02  0.51100000000E-03 0.  1.
         23    2    1    2    0    0  0.00000000000E+00  0.00000000000E+00  0.71054273576E-14  0.91188000000E+02  0.91188000000E+02 0.  0.
    9900012    2    3    3    0    0  0.75026991377E+01 -0.12648064159E+02  0.37906486563E+02  0.50528859024E+02  0.29999997490E+02 0.  0.
        -12    1    3    3    0    0 -0.75026991377E+01  0.12648064159E+02 -0.37906486563E+02  0.40659140976E+02  0.00000000000E+00 0.  1.
         11    1    4    4    0    0  0.22332314877E+01 -0.91799135434E+01  0.14977505742E+02  0.17708297887E+02  0.51100000000E-03 0. -1.
        -11    1    4    4    0    0  0.78875743891E+01 -0.17823327970E+01  0.26718725219E+02  0.27915601687E+02  0.51100000000E-03 0.  1.
        -12    1    4    4    0    0 -0.26181067391E+01 -0.16858178188E+01 -0.37897443974E+01  0.49049594507E+01  0.00000000000E+00 0.  1.
</event>
<event>
 8    1  0.9870402E-014  0.9118800E+02  0.7816164E-02  0.1184000E+00
        -11   -1    0    0    0    0  0.00000000000E+00  0.00000000000E+00  0.45593999997E+02  0.45594000000E+02  0.51100000000E-03 0.  1.
         11   -1    0    0    0    0 -0.00000000000E+00 -0.00000000000E+00 -0.45593999997E+02  0.45594000000E+02  0.51100000000E-03 0. -1.
         23    2    1    2    0    0  0.00000000000E+00  0.00000000000E+00 -0.88817841970E-15  0.91188000000E+02  0.91188000000E+02 0.  0.
    9900012    2    3    3    0    0 -0.38389031504E+02  0.13103068324E+02 -0.27852599449E+01  0.50528858196E+02  0.29999994971E+02 0.  0.
         12    1    3    3    0    0  0.38389031504E+02 -0.13103068324E+02  0.27852599449E+01  0.40659141804E+02  0.00000000000E+00 0. -1.
         11    1    4    4    0    0 -0.28077095111E+02  0.59975651738E+01 -0.78069868326E+01  0.29753035166E+02  0.51100000000E-03 0. -1.
        -11    1    4    4    0    0  0.26085960577E+01 -0.12640045337E+00 -0.29659598141E+01  0.39519195775E+01  0.51100000000E-03 0.  1.
        -12    1    4    4    0    0 -0.12920532450E+02  0.72319036034E+01  0.79876867019E+01  0.16823903452E+02  0.00000000000E+00 0.  1.
</event>
<event>
 8    1  0.9870402E-014  0.9118800E+02  0.7816164E-02  0.1184000E+00
        -11   -1    0    0    0    0  0.00000000000E+00  0.00000000000E+00  0.45593999997E+02  0.45594000000E+02  0.51100000000E-03 0. -1.
         11   -1    0    0    0    0 -0.00000000000E+00 -0.00000000000E+00 -0.45593999997E+02  0.45594000000E+02  0.51100000000E-03 0.  1.
         23    2    1    2    0    0  0.00000000000E+00 -0.17763568394E-14  0.00000000000E+00  0.91188000000E+02  0.91188000000E+02 0.  0.
    9900012    2    3    3    0    0  0.38073258109E+02 -0.13518402941E+02  0.45656258969E+01  0.50528866452E+02  0.30000020066E+02 0.  0.
         12    1    3    3    0    0 -0.38073258109E+02  0.13518402941E+02 -0.45656258969E+01  0.40659133548E+02  0.00000000000E+00 0. -1.
         11    1    4    4    0    0  0.57504283729E+01  0.75733508962E+00  0.25817498599E+00  0.58058278906E+01  0.51100000000E-03 0. -1.
        -11    1    4    4    0    0  0.26683764704E+02 -0.22249658372E+02  0.30630446296E+01  0.34877683970E+02  0.51100000000E-03 0.  1.
        -12    1    4    4    0    0  0.56390650311E+01  0.79739203409E+01  0.12444062813E+01  0.98453545909E+01  0.00000000000E+00 0.  1.
</event>
<event>
 8    1  0.9870402E-014  0.9118800E+02  0.7816164E-02  0.1184000E+00
        -11   -1    0    0    0    0  0.00000000000E+00  0.00000000000E+00  0.45593999997E+02  0.45594000000E+02  0.51100000000E-03 0. -1.
         11   -1    0    0    0    0 -0.00000000000E+00 -0.00000000000E+00 -0.45593999997E+02  0.45594000000E+02  0.51100000000E-03 0.  1.
         23    2    1    2    0    0 -0.17763568394E-14 -0.35527136788E-14 -0.35527136788E-14  0.91188000000E+02  0.91188000000E+02 0.  0.
    9900012    2    3    3    0    0 -0.47013791112E+01 -0.27364633396E+02 -0.29702517324E+02  0.50528860045E+02  0.30000000594E+02 0.  0.
         12    1    3    3    0    0  0.47013791112E+01  0.27364633396E+02  0.29702517324E+02  0.40659139955E+02  0.00000000000E+00 0. -1.
         11    1    4    4    0    0  0.15614198271E+01 -0.15824027709E+02  0.64553832940E+00  0.15913975141E+02  0.51100000000E-03 0. -1.
        -11    1    4    4    0    0  0.16361225264E+01 -0.60519032504E+01 -0.71935425641E+01  0.95419853676E+01  0.51100000000E-03 0.  1.
         12    1    4    4    0    0 -0.78989214647E+01 -0.54887024372E+01 -0.23154513090E+02  0.25072899537E+02  0.00000000000E+00 0. -1.
</event>
<event>
 8    1  0.9870402E-014  0.9118800E+02  0.7816164E-02  0.1184000E+00
        -11   -1    0    0    0    0  0.00000000000E+00  0.00000000000E+00  0.45593999997E+02  0.45594000000E+02  0.51100000000E-03 0.  1.
         11   -1    0    0    0    0 -0.00000000000E+00 -0.00000000000E+00 -0.45593999997E+02  0.45594000000E+02  0.51100000000E-03 0. -1.
         23    2    1    2    0    0  0.00000000000E+00  0.71054273576E-14 -0.44408920985E-15  0.91188000000E+02  0.91188000000E+02 0.  0.
    9900012    2    3    3    0    0  0.72196802914E+01  0.39921339356E+02 -0.27071582537E+01  0.50528858035E+02  0.29999994484E+02 0.  0.
         12    1    3    3    0    0 -0.72196802914E+01 -0.39921339356E+02  0.27071582537E+01  0.40659141965E+02  0.00000000000E+00 0. -1.
         11    1    4    4    0    0  0.12706583546E+02  0.14119354764E+02 -0.38110021598E+01  0.19373620778E+02  0.51100000000E-03 0. -1.
        -11    1    4    4    0    0  0.42587512479E+01  0.84218526866E+01  0.52543670948E+01  0.10801524832E+02  0.51100000000E-03 0.  1.
        -12    1    4    4    0    0 -0.97456545023E+01  0.17380131906E+02 -0.41505231887E+01  0.20353712425E+02  0.00000000000E+00 0.  1.
</event>
<event>
 8    1  0.9870402E-014  0.9118800E+02  0.7816164E-02  0.1184000E+00
        -11   -1    0    0    0    0  0.00000000000E+00  0.00000000000E+00  0.45593999997E+02  0.45594000000E+02  0.51100000000E-03 0. -1.
         11   -1    0    0    0    0 -0.00000000000E+00 -0.00000000000E+00 -0.45593999997E+02  0.45594000000E+02  0.51100000000E-03 0.  1.
         23    2    1    2    0    0 -0.13322676296E-14 -0.88817841970E-15  0.71054273576E-14  0.91188000000E+02  0.91188000000E+02 0.  0.
    9900012    2    3    3    0    0  0.50256872788E+00 -0.55620010748E+01 -0.40273778478E+02  0.50528860017E+02  0.30000000507E+02 0.  0.
         12    1    3    3    0    0 -0.50256872788E+00  0.55620010748E+01  0.40273778478E+02  0.40659139983E+02  0.00000000000E+00 0. -1.
         11    1    4    4    0    0 -0.21873144475E+01  0.77092666972E+01 -0.40888303700E+01  0.89964254878E+01  0.51100000000E-03 0.  1.
        -11    1    4    4    0    0 -0.62548491407E+01 -0.39187517822E+01 -0.11594696245E+02  0.13744698417E+02  0.51100000000E-03 0. -1.
        -12    1    4    4    0    0  0.89447323161E+01 -0.93525159899E+01 -0.24590251863E+02  0.27787736112E+02  0.00000000000E+00 0.  1.
</event>
<event>
 8    1  0.9870402E-014  0.9118800E+02  0.7816164E-02  0.1184000E+00
        -11   -1    0    0    0    0  0.00000000000E+00  0.00000000000E+00  0.45593999997E+02  0.45594000000E+02  0.51100000000E-03 0.  1.
         11   -1    0    0    0    0 -0.00000000000E+00 -0.00000000000E+00 -0.45593999997E+02  0.45594000000E+02  0.51100000000E-03 0. -1.
         23    2    1    2    0    0  0.17763568394E-14  0.00000000000E+00 -0.17763568394E-14  0.91188000000E+02  0.91188000000E+02 0.  0.
    9900012    2    3    3    0    0 -0.15176937447E+02 -0.34169186565E+02  0.15977897741E+02  0.50528856416E+02  0.29999989561E+02 0.  0.
         12    1    3    3    0    0  0.15176937447E+02  0.34169186565E+02 -0.15977897741E+02  0.40659143584E+02  0.00000000000E+00 0. -1.
         11    1    4    4    0    0 -0.15725090042E+02 -0.15514864238E+02  0.35143841734E+01  0.22368289285E+02  0.51100000000E-03 0. -1.
        -11    1    4    4    0    0  0.40491115169E+01  0.10113660472E+01 -0.70908398821E+00  0.42333161612E+01  0.51100000000E-03 0.  1.
        -12    1    4    4    0    0 -0.35009589224E+01 -0.19665688374E+02  0.13172597556E+02  0.23927250970E+02  0.00000000000E+00 0.  1.
</event>
<event>
 8    1  0.9870402E-014  0.9118800E+02  0.7816164E-02  0.1184000E+00
        -11   -1    0    0    0    0  0.00000000000E+00  0.00000000000E+00  0.45593999997E+02  0.45594000000E+02  0.51100000000E-03 0.  1.
         11   -1    0    0    0    0 -0.00000000000E+00 -0.00000000000E+00 -0.45593999997E+02  0.45594000000E+02  0.51100000000E-03 0. -1.
         23    2    1    2    0    0  0.88817841970E-15  0.00000000000E+00 -0.22204460493E-14  0.91188000000E+02  0.91188000000E+02 0.  0.
    9900012    2    3    3    0    0 -0.62368754050E+01 -0.40065734032E+02 -0.30007141933E+01  0.50528856575E+02  0.29999990046E+02 0.  0.
         12    1    3    3    0    0  0.62368754050E+01  0.40065734032E+02  0.30007141933E+01  0.40659143425E+02  0.00000000000E+00 0. -1.
         11    1    4    4    0    0  0.69368280411E-01 -0.17133515610E+01 -0.48771571876E+01  0.51698208890E+01  0.51100000000E-03 0. -1.
        -11    1    4    4    0    0  0.59245518944E+01 -0.22768124487E+02 -0.56015863366E+01  0.24183994244E+02  0.51100000000E-03 0.  1.
         12    1    4    4    0    0 -0.12230795580E+02 -0.15584257984E+02  0.74780293310E+01  0.21175041443E+02  0.00000000000E+00 0. -1.
</event>
<event>
 8    1  0.9870402E-014  0.9118800E+02  0.7816164E-02  0.1184000E+00
        -11   -1    0    0    0    0  0.00000000000E+00  0.00000000000E+00  0.45593999997E+02  0.45594000000E+02  0.51100000000E-03 0. -1.
         11   -1    0    0    0    0 -0.00000000000E+00 -0.00000000000E+00 -0.45593999997E+02  0.45594000000E+02  0.51100000000E-03 0.  1.
         23    2    1    2    0    0  0.88817841970E-15  0.35527136788E-14  0.00000000000E+00  0.91188000000E+02  0.91188000000E+02 0.  0.
    9900012    2    3    3    0    0 -0.56640458953E+01 -0.17341215907E+02 -0.36336890191E+02  0.50528821777E+02  0.29999884273E+02 0.  0.
         12    1    3    3    0    0  0.56640458953E+01  0.17341215907E+02  0.36336890191E+02  0.40659178223E+02  0.00000000000E+00 0. -1.
         11    1    4    4    0    0 -0.24636963870E+01 -0.10094223957E+02  0.46694875548E+00  0.10401019112E+02  0.51100000000E-03 0. -1.
        -11    1    4    4    0    0  0.15773024384E+01 -0.92503037465E+01 -0.14814307630E+02  0.17536239996E+02  0.51100000000E-03 0.  1.
        -12    1    4    4    0    0 -0.47776519467E+01  0.20033117965E+01 -0.21989531316E+02  0.22591562668E+02  0.00000000000E+00 0.  1.
</event>
<event>
 8    1  0.9870402E-014  0.9118800E+02  0.7816164E-02  0.1184000E+00
        -11   -1    0    0    0    0  0.00000000000E+00  0.00000000000E+00  0.45593999997E+02  0.45594000000E+02  0.51100000000E-03 0.  1.
         11   -1    0    0    0    0 -0.00000000000E+00 -0.00000000000E+00 -0.45593999997E+02  0.45594000000E+02  0.51100000000E-03 0. -1.
         23    2    1    2    0    0  0.00000000000E+00  0.00000000000E+00 -0.17763568394E-14  0.91188000000E+02  0.91188000000E+02 0.  0.
    9900012    2    3    3    0    0 -0.60842101909E+01  0.38697649958E+02  0.10892178797E+02  0.50528864681E+02  0.30000014685E+02 0.  0.
        -12    1    3    3    0    0  0.60842101909E+01 -0.38697649958E+02 -0.10892178797E+02  0.40659135319E+02  0.00000000000E+00 0.  1.
         11    1    4    4    0    0 -0.11315558977E+02  0.29197167028E+02  0.12189317301E+02  0.33602022171E+02  0.51100000000E-03 0. -1.
        -11    1    4    4    0    0  0.26595485932E+01  0.86178733062E+01  0.48247026879E+01  0.10228328081E+02  0.51100000000E-03 0.  1.
        -12    1    4    4    0    0  0.25718001927E+01  0.88260962347E+00 -0.61218411921E+01  0.66985144293E+01  0.00000000000E+00 0.  1.
</event>
<event>
 8    1  0.9870402E-014  0.9118800E+02  0.7816164E-02  0.1184000E+00
        -11   -1    0    0    0    0  0.00000000000E+00  0.00000000000E+00  0.45593999997E+02  0.45594000000E+02  0.51100000000E-03 0. -1.
         11   -1    0    0    0    0 -0.00000000000E+00 -0.00000000000E+00 -0.45593999997E+02  0.45594000000E+02  0.51100000000E-03 0.  1.
         23    2    1    2    0    0  0.00000000000E+00  0.17763568394E-14  0.71054273576E-14  0.91188000000E+02  0.91188000000E+02 0.  0.
    9900012    2    3    3    0    0 -0.49289350390E+01 -0.12167457487E+02 -0.38481477711E+02  0.50528861431E+02  0.30000004806E+02 0.  0.
         12    1    3    3    0    0  0.49289350390E+01  0.12167457487E+02  0.38481477711E+02  0.40659138569E+02  0.00000000000E+00 0. -1.
         11    1    4    4    0    0 -0.93450995705E+01 -0.14674037554E+02 -0.75248017794E+01  0.18954706703E+02  0.51100000000E-03 0. -1.
        -11    1    4    4    0    0 -0.18273782964E+00  0.13474217383E+01 -0.96977869531E+01  0.97926508415E+01  0.51100000000E-03 0.  1.
         12    1    4    4    0    0  0.45989023611E+01  0.11591583288E+01 -0.21258888979E+02  0.21781503887E+02  0.00000000000E+00 0. -1.
</event>
<event>
 8    1  0.9870402E-014  0.9118800E+02  0.7816164E-02  0.1184000E+00
        -11   -1    0    0    0    0  0.00000000000E+00  0.00000000000E+00  0.45593999997E+02  0.45594000000E+02  0.51100000000E-03 0. -1.
         11   -1    0    0    0    0 -0.00000000000E+00 -0.00000000000E+00 -0.45593999997E+02  0.45594000000E+02  0.51100000000E-03 0.  1.
         23    2    1    2    0    0 -0.17763568394E-14  0.71054273576E-14  0.17763568394E-14  0.91188000000E+02  0.91188000000E+02 0.  0.
    9900012    2    3    3    0    0  0.99347779898E+01 -0.37336028879E+02 -0.12668440174E+02  0.50528828309E+02  0.29999904129E+02 0.  0.
         12    1    3    3    0    0 -0.99347779898E+01  0.37336028879E+02  0.12668440174E+02  0.40659171691E+02  0.00000000000E+00 0. -1.
         11    1    4    4    0    0  0.57195764093E+01 -0.56185956100E+01  0.32173925506E+01  0.86390847904E+01  0.51100000000E-03 0. -1.
        -11    1    4    4    0    0  0.63911620574E+01  0.55451765806E+00 -0.26894871974E+01  0.69561328282E+01  0.51100000000E-03 0.  1.
        -12    1    4    4    0    0 -0.21759604769E+01 -0.32271950927E+02 -0.13196345527E+02  0.34933610691E+02  0.00000000000E+00 0.  1.
</event>
<event>
 8    1  0.9870402E-014  0.9118800E+02  0.7816164E-02  0.1184000E+00
        -11   -1    0    0    0    0  0.00000000000E+00  0.00000000000E+00  0.45593999997E+02  0.45594000000E+02  0.51100000000E-03 0.  1.
         11   -1    0    0    0    0 -0.00000000000E+00 -0.00000000000E+00 -0.45593999997E+02  0.45594000000E+02  0.51100000000E-03 0. -1.
         23    2    1    2    0    0  0.35527136788E-14 -0.71054273576E-14  0.00000000000E+00  0.91188000000E+02  0.91188000000E+02 0.  0.
    9900012    2    3    3    0    0 -0.13255086433E+02  0.34492900917E+02 -0.16961969707E+02  0.50528856547E+02  0.29999989960E+02 0.  0.
         12    1    3    3    0    0  0.13255086433E+02 -0.34492900917E+02  0.16961969707E+02  0.40659143453E+02  0.00000000000E+00 0. -1.
         11    1    4    4    0    0  0.36693950273E+01  0.11810599674E+01 -0.93074082942E+01  0.10074086159E+02  0.51100000000E-03 0. -1.
        -11    1    4    4    0    0  0.79414565216E-01  0.20758520884E+01  0.27066014473E+01  0.34119144511E+01  0.51100000000E-03 0.  1.
        -12    1    4    4    0    0 -0.17003896025E+02  0.31235988861E+02 -0.10361162860E+02  0.37042855937E+02  0.00000000000E+00 0.  1.
</event>
<event>
 8    1  0.9870402E-014  0.9118800E+02  0.7816164E-02  0.1184000E+00
        -11   -1    0    0    0    0  0.00000000000E+00  0.00000000000E+00  0.45593999997E+02  0.45594000000E+02  0.51100000000E-03 0.  1.
         11   -1    0    0    0    0 -0.00000000000E+00 -0.00000000000E+00 -0.45593999997E+02  0.45594000000E+02  0.51100000000E-03 0. -1.
         23    2    1    2    0    0 -0.17763568394E-14  0.88817841970E-15  0.00000000000E+00  0.91188000000E+02  0.91188000000E+02 0.  0.
    9900012    2    3    3    0    0 -0.10684510753E+02 -0.74954215291E+01 -0.38507468990E+02  0.50528864717E+02  0.30000014795E+02 0.  0.
         12    1    3    3    0    0  0.10684510753E+02  0.74954215291E+01  0.38507468990E+02  0.40659135283E+02  0.00000000000E+00 0. -1.
         11    1    4    4    0    0 -0.87991280138E+01 -0.13635886059E+01 -0.18458476692E+02  0.20493886643E+02  0.51100000000E-03 0. -1.
        -11    1    4    4    0    0 -0.69962092364E+01 -0.12396491054E+02 -0.11866731380E+02  0.18532113965E+02  0.51100000000E-03 0.  1.
        -12    1    4    4    0    0  0.51108264968E+01  0.62646581308E+01 -0.81822609184E+01  0.11502864109E+02  0.00000000000E+00 0.  1.
</event>
<event>
 8    1  0.9870402E-014  0.9118800E+02  0.7816164E-02  0.1184000E+00
        -11   -1    0    0    0    0  0.00000000000E+00  0.00000000000E+00  0.45593999997E+02  0.45594000000E+02  0.51100000000E-03 0. -1.
         11   -1    0    0    0    0 -0.00000000000E+00 -0.00000000000E+00 -0.45593999997E+02  0.45594000000E+02  0.51100000000E-03 0.  1.
         23    2    1    2    0    0  0.00000000000E+00  0.00000000000E+00  0.00000000000E+00  0.91188000000E+02  0.91188000000E+02 0.  0.
    9900012    2    3    3    0    0 -0.45635235178E+01  0.32855078888E+02  0.23513498462E+02  0.50528848932E+02  0.29999966814E+02 0.  0.
        -12    1    3    3    0    0  0.45635235178E+01 -0.32855078888E+02 -0.23513498462E+02  0.40659151068E+02  0.00000000000E+00 0.  1.
         11    1    4    4    0    0  0.25816895618E+01  0.24347324888E+02  0.12209789813E+02  0.27359391764E+02  0.51100000000E-03 0. -1.
        -11    1    4    4    0    0 -0.62063705913E+01  0.11810813188E+02  0.23076456046E+01  0.13540294405E+02  0.51100000000E-03 0.  1.
        -12    1    4    4    0    0 -0.93884248821E+00 -0.33030591876E+01  0.89960630442E+01  0.96291627627E+01  0.00000000000E+00 0.  1.
</event>
<event>
 8    1  0.9870402E-014  0.9118800E+02  0.7816164E-02  0.1184000E+00
        -11   -1    0    0    0    0  0.00000000000E+00  0.00000000000E+00  0.45593999997E+02  0.45594000000E+02  0.51100000000E-03 0. -1.
         11   -1    0    0    0    0 -0.00000000000E+00 -0.00000000000E+00 -0.45593999997E+02  0.45594000000E+02  0.51100000000E-03 0.  1.
         23    2    1    2    0    0  0.22204460493E-15  0.00000000000E+00  0.00000000000E+00  0.91188000000E+02  0.91188000000E+02 0.  0.
    9900012    2    3    3    0    0 -0.50582105053E+00 -0.80256616669E+01  0.39855974018E+02  0.50528858776E+02  0.29999996736E+02 0.  0.
        -12    1    3    3    0    0  0.50582105053E+00  0.80256616669E+01 -0.39855974018E+02  0.40659141224E+02  0.00000000000E+00 0.  1.
         11    1    4    4    0    0  0.22314045748E+01 -0.60344740389E+01  0.67128767071E+00  0.64687456822E+01  0.51100000000E-03 0.  1.
        -11    1    4    4    0    0  0.41639471375E+01 -0.83285614920E+01  0.11293188305E+02  0.14636922307E+02  0.51100000000E-03 0. -1.
         12    1    4    4    0    0 -0.69011727628E+01  0.63373738640E+01  0.27891498043E+02  0.29423190787E+02  0.00000000000E+00 0. -1.
</event>
<event>
 8    1  0.9870402E-014  0.9118800E+02  0.7816164E-02  0.1184000E+00
        -11   -1    0    0    0    0  0.00000000000E+00  0.00000000000E+00  0.45593999997E+02  0.45594000000E+02  0.51100000000E-03 0. -1.
         11   -1    0    0    0    0 -0.00000000000E+00 -0.00000000000E+00 -0.45593999997E+02  0.45594000000E+02  0.51100000000E-03 0.  1.
         23    2    1    2    0    0  0.00000000000E+00  0.44408920985E-15  0.00000000000E+00  0.91188000000E+02  0.91188000000E+02 0.  0.
    9900012    2    3    3    0    0  0.11584315810E+02  0.18777071987E+01  0.38928701872E+02  0.50528856053E+02  0.29999988458E+02 0.  0.
        -12    1    3    3    0    0 -0.11584315810E+02 -0.18777071987E+01 -0.38928701872E+02  0.40659143947E+02  0.00000000000E+00 0.  1.
         11    1    4    4    0    0  0.93978046977E+01 -0.37680657134E+01  0.30961272741E+02  0.32574797963E+02  0.51100000000E-03 0. -1.
        -11    1    4    4    0    0  0.17461299043E+01 -0.49503273111E+01  0.12358021847E+01  0.53927652861E+01  0.51100000000E-03 0.  1.
         12    1    4    4    0    0  0.44038120758E+00  0.10596100223E+02  0.67316269462E+01  0.12561292803E+02  0.00000000000E+00 0. -1.
</event>
<event>
 8    1  0.9870402E-014  0.9118800E+02  0.7816164E-02  0.1184000E+00
        -11   -1    0    0    0    0  0.00000000000E+00  0.00000000000E+00  0.45593999997E+02  0.45594000000E+02  0.51100000000E-03 0.  1.
         11   -1    0    0    0    0 -0.00000000000E+00 -0.00000000000E+00 -0.45593999997E+02  0.45594000000E+02  0.51100000000E-03 0. -1.
         23    2    1    2    0    0 -0.35527136788E-14  0.00000000000E+00  0.17763568394E-14  0.91188000000E+02  0.91188000000E+02 0.  0.
    9900012    2    3    3    0    0  0.31510960844E+02  0.20469986207E+02  0.15530826129E+02  0.50528836840E+02  0.29999930058E+02 0.  0.
         12    1    3    3    0    0 -0.31510960844E+02 -0.20469986207E+02 -0.15530826129E+02  0.40659163160E+02  0.00000000000E+00 0. -1.
         11    1    4    4    0    0  0.37436507633E+01  0.11181856865E+02 -0.47794876931E+01  0.12723692344E+02  0.51100000000E-03 0. -1.
        -11    1    4    4    0    0  0.22439193417E+01 -0.28467206686E+01  0.23245595609E+01  0.43061084509E+01  0.51100000000E-03 0.  1.
        -12    1    4    4    0    0  0.25523390739E+02  0.12134850011E+02  0.17985754261E+02  0.33499036045E+02  0.00000000000E+00 0.  1.
</event>
<event>
 8    1  0.9870402E-014  0.9118800E+02  0.7816164E-02  0.1184000E+00
        -11   -1    0    0    0    0  0.00000000000E+00  0.00000000000E+00  0.45593999997E+02  0.45594000000E+02  0.51100000000E-03 0.  1.
         11   -1    0    0    0    0 -0.00000000000E+00 -0.00000000000E+00 -0.45593999997E+02  0.45594000000E+02  0.51100000000E-03 0. -1.
         23    2    1    2    0    0  0.00000000000E+00 -0.17763568394E-14 -0.22204460493E-15  0.91188000000E+02  0.91188000000E+02 0.  0.
    9900012    2    3    3    0    0 -0.37447502918E+02  0.15749415097E+02  0.16751665926E+01  0.50528859161E+02  0.29999997904E+02 0.  0.
        -12    1    3    3    0    0  0.37447502918E+02 -0.15749415097E+02 -0.16751665926E+01  0.40659140839E+02  0.00000000000E+00 0.  1.
         11    1    4    4    0    0 -0.25823595209E+02  0.14778116957E+02 -0.44000912776E+01  0.30076762023E+02  0.51100000000E-03 0. -1.
        -11    1    4    4    0    0 -0.15405654870E+02  0.14882913251E+01  0.60973527855E+01  0.16635111190E+02  0.51100000000E-03 0.  1.
         12    1    4    4    0    0  0.37817471606E+01 -0.51699318491E+00 -0.22094915267E-01  0.38169859477E+01  0.00000000000E+00 0. -1.
</event>
<event>
 8    1  0.9870402E-014  0.9118800E+02  0.7816164E-02  0.1184000E+00
        -11   -1    0    0    0    0  0.00000000000E+00  0.00000000000E+00  0.45593999997E+02  0.45594000000E+02  0.51100000000E-03 0.  1.
         11   -1    0    0    0    0 -0.00000000000E+00 -0.00000000000E+00 -0.45593999997E+02  0.45594000000E+02  0.51100000000E-03 0. -1.
         23    2    1    2    0    0 -0.35527136788E-14 -0.44408920985E-15  0.00000000000E+00  0.91188000000E+02  0.91188000000E+02 0.  0.
    9900012    2    3    3    0    0  0.30665726117E+02 -0.21789691732E+01 -0.26608854891E+02  0.50528858057E+02  0.29999994549E+02 0.  0.
         12    1    3    3    0    0 -0.30665726117E+02  0.21789691732E+01  0.26608854891E+02  0.40659141943E+02  0.00000000000E+00 0. -1.
         11    1    4    4    0    0  0.19562092581E+02 -0.46225177285E+01 -0.20825479054E+02  0.28943802694E+02  0.51100000000E-03 0. -1.
        -11    1    4    4    0    0  0.15730070515E+02  0.31169540345E+01 -0.36497252299E+01  0.16446003021E+02  0.51100000000E-03 0.  1.
        -12    1    4    4    0    0 -0.46264369785E+01 -0.67340547923E+00 -0.21336506070E+01  0.51390523415E+01  0.00000000000E+00 0.  1.
</event>
<event>
 8    1  0.9870402E-014  0.9118800E+02  0.7816164E-02  0.1184000E+00
        -11   -1    0    0    0    0  0.00000000000E+00  0.00000000000E+00  0.45593999997E+02  0.45594000000E+02  0.51100000000E-03 0. -1.
         11   -1    0    0    0    0 -0.00000000000E+00 -0.00000000000E+00 -0.45593999997E+02  0.45594000000E+02  0.51100000000E-03 0.  1.
         23    2    1    2    0    0 -0.71054273576E-14  0.35527136788E-14  0.17763568394E-14  0.91188000000E+02  0.91188000000E+02 0.  0.
    9900012    2    3    3    0    0 -0.33541275782E+02  0.17772008543E+02  0.14570656291E+02  0.50528862116E+02  0.30000006887E+02 0.  0.
        -12    1    3    3    0    0  0.33541275782E+02 -0.17772008543E+02 -0.14570656291E+02  0.40659137884E+02  0.00000000000E+00 0.  1.
         11    1    4    4    0    0 -0.70300943411E+01  0.10646251682E+02  0.99423797513E+01  0.16174542241E+02  0.51100000000E-03 0. -1.
        -11    1    4    4    0    0  0.14580485142E+01  0.46772728353E+01 -0.23353971312E+01  0.54274180479E+01  0.51100000000E-03 0.  1.
         12    1    4    4    0    0 -0.27969229955E+02  0.24484840251E+01  0.69636736705E+01  0.28926901827E+02  0.00000000000E+00 0. -1.
</event>
<event>
 8    1  0.9870402E-014  0.9118800E+02  0.7816164E-02  0.1184000E+00
        -11   -1    0    0    0    0  0.00000000000E+00  0.00000000000E+00  0.45593999997E+02  0.45594000000E+02  0.51100000000E-03 0. -1.
         11   -1    0    0    0    0 -0.00000000000E+00 -0.00000000000E+00 -0.45593999997E+02  0.45594000000E+02  0.51100000000E-03 0.  1.
         23    2    1    2    0    0  0.00000000000E+00  0.00000000000E+00 -0.35527136788E-14  0.91188000000E+02  0.91188000000E+02 0.  0.
    9900012    2    3    3    0    0 -0.24462091732E+02  0.27705858397E+02  0.16945725090E+02  0.50528854408E+02  0.29999983459E+02 0.  0.
        -12    1    3    3    0    0  0.24462091732E+02 -0.27705858397E+02 -0.16945725090E+02  0.40659145592E+02  0.00000000000E+00 0.  1.
         11    1    4    4    0    0 -0.10005716910E+02  0.20851323675E+02  0.14695225895E+02  0.27401491460E+02  0.51100000000E-03 0. -1.
        -11    1    4    4    0    0 -0.10407855158E+01 -0.36710692309E+00  0.70636608865E+01  0.71493571294E+01  0.51100000000E-03 0.  1.
         12    1    4    4    0    0 -0.13415589306E+02  0.72216416453E+01 -0.48131616913E+01  0.15978005819E+02  0.00000000000E+00 0. -1.
</event>
<event>
 8    1  0.9870402E-014  0.9118800E+02  0.7816164E-02  0.1184000E+00
        -11   -1    0    0    0    0  0.00000000000E+00  0.00000000000E+00  0.45593999997E+02  0.45594000000E+02  0.51100000000E-03 0. -1.
         11   -1    0    0    0    0 -0.00000000000E+00 -0.00000000000E+00 -0.45593999997E+02  0.45594000000E+02  0.51100000000E-03 0.  1.
         23    2    1    2    0    0  0.00000000000E+00  0.00000000000E+00  0.00000000000E+00  0.91188000000E+02  0.91188000000E+02 0.  0.
    9900012    2    3    3    0    0  0.38769811213E+01  0.37659117434E+02  0.14829852951E+02  0.50528872524E+02  0.30000038524E+02 0.  0.
        -12    1    3    3    0    0 -0.38769811213E+01 -0.37659117434E+02 -0.14829852951E+02  0.40659127476E+02  0.00000000000E+00 0.  1.
         11    1    4    4    0    0  0.42137895897E+01  0.28677638670E+02  0.18943532260E+02  0.34626873915E+02  0.51100000000E-03 0. -1.
        -11    1    4    4    0    0  0.30244180311E+01  0.10194188977E+02 -0.24586594995E+00  0.10636213784E+02  0.51100000000E-03 0.  1.
        -12    1    4    4    0    0 -0.33612264995E+01 -0.12127102131E+01 -0.38678133588E+01  0.52657848247E+01  0.00000000000E+00 0.  1.
</event>
<event>
 8    1  0.9870402E-014  0.9118800E+02  0.7816164E-02  0.1184000E+00
        -11   -1    0    0    0    0  0.00000000000E+00  0.00000000000E+00  0.45593999997E+02  0.45594000000E+02  0.51100000000E-03 0.  1.
         11   -1    0    0    0    0 -0.00000000000E+00 -0.00000000000E+00 -0.45593999997E+02  0.45594000000E+02  0.51100000000E-03 0. -1.
         23    2    1    2    0    0  0.17763568394E-14  0.00000000000E+00  0.44408920985E-15  0.91188000000E+02  0.91188000000E+02 0.  0.
    9900012    2    3    3    0    0  0.10140379318E+02 -0.39221113265E+02  0.34697412237E+01  0.50528903569E+02  0.30000132887E+02 0.  0.
        -12    1    3    3    0    0 -0.10140379318E+02  0.39221113265E+02 -0.34697412237E+01  0.40659096431E+02  0.00000000000E+00 0.  1.
         11    1    4    4    0    0  0.11376001096E+02 -0.14025288073E+02 -0.22210225398E+00  0.18060216946E+02  0.51100000000E-03 0. -1.
        -11    1    4    4    0    0  0.30799371290E+01 -0.26511627193E+02  0.60658102818E+01  0.27370539706E+02  0.51100000000E-03 0.  1.
         12    1    4    4    0    0 -0.43155589076E+01  0.13158020016E+01 -0.23739668041E+01  0.50981469162E+01  0.00000000000E+00 0. -1.
</event>
<event>
 8    1  0.9870402E-014  0.9118800E+02  0.7816164E-02  0.1184000E+00
        -11   -1    0    0    0    0  0.00000000000E+00  0.00000000000E+00  0.45593999997E+02  0.45594000000E+02  0.51100000000E-03 0. -1.
         11   -1    0    0    0    0 -0.00000000000E+00 -0.00000000000E+00 -0.45593999997E+02  0.45594000000E+02  0.51100000000E-03 0.  1.
         23    2    1    2    0    0 -0.11102230246E-14  0.00000000000E+00  0.00000000000E+00  0.91188000000E+02  0.91188000000E+02 0.  0.
    9900012    2    3    3    0    0 -0.66252841174E+00  0.23334877279E+02  0.33289764174E+02  0.50528882446E+02  0.30000068683E+02 0.  0.
        -12    1    3    3    0    0  0.66252841174E+00 -0.23334877279E+02 -0.33289764174E+02  0.40659117554E+02  0.00000000000E+00 0.  1.
         11    1    4    4    0    0 -0.10272343301E+02  0.75764993393E+01  0.10335680089E+02  0.16424087868E+02  0.51100000000E-03 0. -1.
        -11    1    4    4    0    0  0.91275089947E+00 -0.36935069102E+01  0.23940580050E+01  0.44951775818E+01  0.51100000000E-03 0.  1.
        -12    1    4    4    0    0  0.86970639899E+01  0.19451884850E+02  0.20560026080E+02  0.29609616996E+02  0.00000000000E+00 0.  1.
</event>
<event>
 8    1  0.9870402E-014  0.9118800E+02  0.7816164E-02  0.1184000E+00
        -11   -1    0    0    0    0  0.00000000000E+00  0.00000000000E+00  0.45593999997E+02  0.45594000000E+02  0.51100000000E-03 0. -1.
         11   -1    0    0    0    0 -0.00000000000E+00 -0.00000000000E+00 -0.45593999997E+02  0.45594000000E+02  0.51100000000E-03 0.  1.
         23    2    1    2    0    0 -0.35527136788E-14  0.88817841970E-15  0.35527136788E-14  0.91188000000E+02  0.91188000000E+02 0.  0.
    9900012    2    3    3    0    0  0.30347240661E+02 -0.64170139818E+01  0.26287499171E+02  0.50528859615E+02  0.29999999286E+02 0.  0.
        -12    1    3    3    0    0 -0.30347240661E+02  0.64170139818E+01 -0.26287499171E+02  0.40659140385E+02  0.00000000000E+00 0.  1.
         11    1    4    4    0    0 -0.14233998372E+01 -0.22085411202E+01  0.12316071244E+02  0.12593225644E+02  0.51100000000E-03 0. -1.
        -11    1    4    4    0    0  0.13611700252E+02 -0.70209267334E+01  0.11995716558E+02  0.19454280042E+02  0.51100000000E-03 0.  1.
         12    1    4    4    0    0  0.18158940246E+02  0.28124538718E+01  0.19757113688E+01  0.18481353929E+02  0.00000000000E+00 0. -1.
</event>
<event>
 8    1  0.9870402E-014  0.9118800E+02  0.7816164E-02  0.1184000E+00
        -11   -1    0    0    0    0  0.00000000000E+00  0.00000000000E+00  0.45593999997E+02  0.45594000000E+02  0.51100000000E-03 0. -1.
         11   -1    0    0    0    0 -0.00000000000E+00 -0.00000000000E+00 -0.45593999997E+02  0.45594000000E+02  0.51100000000E-03 0.  1.
         23    2    1    2    0    0 -0.35527136788E-14  0.35527136788E-14 -0.35527136788E-14  0.91188000000E+02  0.91188000000E+02 0.  0.
    9900012    2    3    3    0    0 -0.17762503885E+02  0.26963931405E+02 -0.24710432172E+02  0.50528860816E+02  0.30000002936E+02 0.  0.
         12    1    3    3    0    0  0.17762503885E+02 -0.26963931405E+02  0.24710432172E+02  0.40659139184E+02  0.00000000000E+00 0. -1.
         11    1    4    4    0    0  0.25162346351E+01  0.11260591275E+01 -0.37333061927E+01  0.46407996387E+01  0.51100000000E-03 0. -1.
        -11    1    4    4    0    0 -0.10494005711E+02  0.42595799818E+01 -0.18991218465E+02  0.22111864610E+02  0.51100000000E-03 0.  1.
         12    1    4    4    0    0 -0.97847328097E+01  0.21578292296E+02 -0.19859075140E+01  0.23776196568E+02  0.00000000000E+00 0. -1.
</event>
<event>
 8    1  0.9870402E-014  0.9118800E+02  0.7816164E-02  0.1184000E+00
        -11   -1    0    0    0    0  0.00000000000E+00  0.00000000000E+00  0.45593999997E+02  0.45594000000E+02  0.51100000000E-03 0. -1.
         11   -1    0    0    0    0 -0.00000000000E+00 -0.00000000000E+00 -0.45593999997E+02  0.45594000000E+02  0.51100000000E-03 0.  1.
         23    2    1    2    0    0  0.00000000000E+00  0.00000000000E+00  0.88817841970E-15  0.91188000000E+02  0.91188000000E+02 0.  0.
    9900012    2    3    3    0    0  0.19941213570E+02  0.35364907820E+02 -0.21985714062E+01  0.50528899911E+02  0.30000121770E+02 0.  0.
         12    1    3    3    0    0 -0.19941213570E+02 -0.35364907820E+02  0.21985714062E+01  0.40659100089E+02  0.00000000000E+00 0. -1.
         11    1    4    4    0    0  0.86129383832E+00  0.15502592868E+02  0.24384610283E+00  0.15528415048E+02  0.51100000000E-03 0. -1.
        -11    1    4    4    0    0  0.20486593781E+02  0.19223920377E+02 -0.80174520795E+01  0.29215392818E+02  0.51100000000E-03 0.  1.
        -12    1    4    4    0    0 -0.14066740488E+01  0.63839457541E+00  0.55750345705E+01  0.57850920456E+01  0.00000000000E+00 0.  1.
</event>
<event>
 8    1  0.9870402E-014  0.9118800E+02  0.7816164E-02  0.1184000E+00
        -11   -1    0    0    0    0  0.00000000000E+00  0.00000000000E+00  0.45593999997E+02  0.45594000000E+02  0.51100000000E-03 0. -1.
         11   -1    0    0    0    0 -0.00000000000E+00 -0.00000000000E+00 -0.45593999997E+02  0.45594000000E+02  0.51100000000E-03 0.  1.
         23    2    1    2    0    0  0.00000000000E+00  0.00000000000E+00  0.00000000000E+00  0.91188000000E+02  0.91188000000E+02 0.  0.
    9900012    2    3    3    0    0 -0.19526356125E+02 -0.15156107671E+02  0.32282804427E+02  0.50528860253E+02  0.30000001226E+02 0.  0.
        -12    1    3    3    0    0  0.19526356125E+02  0.15156107671E+02 -0.32282804427E+02  0.40659139747E+02  0.00000000000E+00 0.  1.
         11    1    4    4    0    0 -0.16128451731E+02 -0.70884209573E+01  0.21075843113E+02  0.27469325257E+02  0.51100000000E-03 0. -1.
        -11    1    4    4    0    0  0.25412049576E+01  0.13900686164E+01  0.11528686935E+02  0.11886994410E+02  0.51100000000E-03 0.  1.
        -12    1    4    4    0    0 -0.59391093517E+01 -0.94577553305E+01 -0.32172562053E+00  0.11172540587E+02  0.00000000000E+00 0.  1.
</event>
<event>
 8    1  0.9870402E-014  0.9118800E+02  0.7816164E-02  0.1184000E+00
        -11   -1    0    0    0    0  0.00000000000E+00  0.00000000000E+00  0.45593999997E+02  0.45594000000E+02  0.51100000000E-03 0. -1.
         11   -1    0    0    0    0 -0.00000000000E+00 -0.00000000000E+00 -0.45593999997E+02  0.45594000000E+02  0.51100000000E-03 0.  1.
         23    2    1    2    0    0  0.00000000000E+00  0.00000000000E+00  0.44408920985E-15  0.91188000000E+02  0.91188000000E+02 0.  0.
    9900012    2    3    3    0    0 -0.29357754047E+02 -0.27991754777E+02  0.27837014837E+01  0.50528867544E+02  0.30000023386E+02 0.  0.
        -12    1    3    3    0    0  0.29357754047E+02  0.27991754777E+02 -0.27837014837E+01  0.40659132456E+02  0.00000000000E+00 0.  1.
         11    1    4    4    0    0 -0.66400959549E+01 -0.24655013166E+02  0.14737469527E+01  0.25576013740E+02  0.51100000000E-03 0. -1.
        -11    1    4    4    0    0 -0.81781659770E+01 -0.27094258650E+01  0.49707752456E+01  0.99464563574E+01  0.51100000000E-03 0.  1.
        -12    1    4    4    0    0 -0.14539492115E+02 -0.62731574600E+00 -0.36608207146E+01  0.15006397446E+02  0.00000000000E+00 0.  1.
</event>
<event>
 8    1  0.9870402E-014  0.9118800E+02  0.7816164E-02  0.1184000E+00
        -11   -1    0    0    0    0  0.00000000000E+00  0.00000000000E+00  0.45593999997E+02  0.45594000000E+02  0.51100000000E-03 0.  1.
         11   -1    0    0    0    0 -0.00000000000E+00 -0.00000000000E+00 -0.45593999997E+02  0.45594000000E+02  0.51100000000E-03 0. -1.
         23    2    1    2    0    0  0.00000000000E+00  0.00000000000E+00  0.35527136788E-14  0.91188000000E+02  0.91188000000E+02 0.  0.
    9900012    2    3    3    0    0  0.33398580405E+02 -0.76301355972E+01 -0.21897008885E+02  0.50528891053E+02  0.30000094844E+02 0.  0.
         12    1    3    3    0    0 -0.33398580405E+02  0.76301355972E+01  0.21897008885E+02  0.40659108947E+02  0.00000000000E+00 0. -1.
         11    1    4    4    0    0  0.86213019828E+01  0.16855616362E+01 -0.13226399425E+02  0.15877833855E+02  0.51100000000E-03 0. -1.
        -11    1    4    4    0    0  0.19989266202E+02  0.28900126174E+01 -0.32208110989E+01  0.20452299642E+02  0.51100000000E-03 0.  1.
        -12    1    4    4    0    0  0.47880122194E+01 -0.12205709851E+02 -0.54497983609E+01  0.14198757557E+02  0.00000000000E+00 0.  1.
</event>
<event>
 8    1  0.9870402E-014  0.9118800E+02  0.7816164E-02  0.1184000E+00
        -11   -1    0    0    0    0  0.00000000000E+00  0.00000000000E+00  0.45593999997E+02  0.45594000000E+02  0.51100000000E-03 0. -1.
         11   -1    0    0    0    0 -0.00000000000E+00 -0.00000000000E+00 -0.45593999997E+02  0.45594000000E+02  0.51100000000E-03 0.  1.
         23    2    1    2    0    0  0.00000000000E+00  0.00000000000E+00 -0.35527136788E-14  0.91188000000E+02  0.91188000000E+02 0.  0.
    9900012    2    3    3    0    0 -0.24748859157E+02  0.89676219387E+01 -0.30987759565E+02  0.50528861843E+02  0.30000006057E+02 0.  0.
         12    1    3    3    0    0  0.24748859157E+02 -0.89676219387E+01  0.30987759565E+02  0.40659138157E+02  0.00000000000E+00 0. -1.
         11    1    4    4    0    0 -0.15653810664E+02 -0.69016938977E+01 -0.11480121704E+02  0.20602629967E+02  0.51100000000E-03 0. -1.
        -11    1    4    4    0    0 -0.85385515859E+01  0.42396765397E+01 -0.35501738296E+01  0.10172780093E+02  0.51100000000E-03 0.  1.
        -12    1    4    4    0    0 -0.55649690702E+00  0.11629639297E+02 -0.15957464032E+02  0.19753451782E+02  0.00000000000E+00 0.  1.
</event>
<event>
 8    1  0.9870402E-014  0.9118800E+02  0.7816164E-02  0.1184000E+00
        -11   -1    0    0    0    0  0.00000000000E+00  0.00000000000E+00  0.45593999997E+02  0.45594000000E+02  0.51100000000E-03 0. -1.
         11   -1    0    0    0    0 -0.00000000000E+00 -0.00000000000E+00 -0.45593999997E+02  0.45594000000E+02  0.51100000000E-03 0.  1.
         23    2    1    2    0    0  0.00000000000E+00  0.44408920985E-15  0.00000000000E+00  0.91188000000E+02  0.91188000000E+02 0.  0.
    9900012    2    3    3    0    0 -0.21458001572E+02  0.37923672976E+01 -0.34326868819E+02  0.50528907485E+02  0.30000144792E+02 0.  0.
         12    1    3    3    0    0  0.21458001572E+02 -0.37923672976E+01  0.34326868819E+02  0.40659092515E+02  0.00000000000E+00 0. -1.
         11    1    4    4    0    0 -0.11306705046E+02 -0.22338641861E+01 -0.67806315261E+01  0.13371936747E+02  0.51100000000E-03 0. -1.
        -11    1    4    4    0    0 -0.91017939234E+01 -0.50364037438E+01 -0.22824365557E+02  0.25083055608E+02  0.51100000000E-03 0.  1.
         12    1    4    4    0    0 -0.10495026024E+01  0.11062635227E+02 -0.47218717357E+01  0.12073915130E+02  0.00000000000E+00 0. -1.
</event>
<event>
 8    1  0.9870402E-014  0.9118800E+02  0.7816164E-02  0.1184000E+00
        -11   -1    0    0    0    0  0.00000000000E+00  0.00000000000E+00  0.45593999997E+02  0.45594000000E+02  0.51100000000E-03 0. -1.
         11   -1    0    0    0    0 -0.00000000000E+00 -0.00000000000E+00 -0.45593999997E+02  0.45594000000E+02  0.51100000000E-03 0.  1.
         23    2    1    2    0    0 -0.26645352591E-14 -0.35527136788E-14  0.00000000000E+00  0.91188000000E+02  0.91188000000E+02 0.  0.
    9900012    2    3    3    0    0 -0.59045905740E+01  0.28424610809E+02  0.28466520955E+02  0.50528861977E+02  0.30000006466E+02 0.  0.
        -12    1    3    3    0    0  0.59045905740E+01 -0.28424610809E+02 -0.28466520955E+02  0.40659138023E+02  0.00000000000E+00 0.  1.
         11    1    4    4    0    0  0.46639321031E+01  0.78940765875E+01  0.10221461964E+02  0.13731241487E+02  0.51100000000E-03 0. -1.
        -11    1    4    4    0    0  0.59900231316E+01  0.32330517233E+01  0.19247769873E+00  0.68095556748E+01  0.51100000000E-03 0.  1.
         12    1    4    4    0    0 -0.16558545809E+02  0.17297482498E+02  0.18052581293E+02  0.29988064816E+02  0.00000000000E+00 0. -1.
</event>
<event>
 8    1  0.9870402E-014  0.9118800E+02  0.7816164E-02  0.1184000E+00
        -11   -1    0    0    0    0  0.00000000000E+00  0.00000000000E+00  0.45593999997E+02  0.45594000000E+02  0.51100000000E-03 0. -1.
         11   -1    0    0    0    0 -0.00000000000E+00 -0.00000000000E+00 -0.45593999997E+02  0.45594000000E+02  0.51100000000E-03 0.  1.
         23    2    1    2    0    0  0.00000000000E+00  0.00000000000E+00  0.35527136788E-14  0.91188000000E+02  0.91188000000E+02 0.  0.
    9900012    2    3    3    0    0 -0.27129609430E+02 -0.21055582550E+02 -0.21767279114E+02  0.50528834927E+02  0.29999924245E+02 0.  0.
         12    1    3    3    0    0  0.27129609430E+02  0.21055582550E+02  0.21767279114E+02  0.40659165073E+02  0.00000000000E+00 0. -1.
         11    1    4    4    0    0 -0.91203884528E+01  0.22451558761E+01 -0.10030765705E+02  0.13741851088E+02  0.51100000000E-03 0.  1.
        -11    1    4    4    0    0  0.29700203566E+01 -0.34338106844E+01 -0.56699936662E+01  0.72636702273E+01  0.51100000000E-03 0. -1.
         12    1    4    4    0    0 -0.20979241334E+02 -0.19866927742E+02 -0.60665197433E+01  0.29523313612E+02  0.00000000000E+00 0. -1.
</event>
<event>
 8    1  0.9870402E-014  0.9118800E+02  0.7816164E-02  0.1184000E+00
        -11   -1    0    0    0    0  0.00000000000E+00  0.00000000000E+00  0.45593999997E+02  0.45594000000E+02  0.51100000000E-03 0. -1.
         11   -1    0    0    0    0 -0.00000000000E+00 -0.00000000000E+00 -0.45593999997E+02  0.45594000000E+02  0.51100000000E-03 0.  1.
         23    2    1    2    0    0 -0.17763568394E-14 -0.17763568394E-14  0.00000000000E+00  0.91188000000E+02  0.91188000000E+02 0.  0.
    9900012    2    3    3    0    0 -0.12129377282E+02  0.97071592983E+01  0.37574125688E+02  0.50528860116E+02  0.30000000808E+02 0.  0.
        -12    1    3    3    0    0  0.12129377282E+02 -0.97071592983E+01 -0.37574125688E+02  0.40659139884E+02  0.00000000000E+00 0.  1.
         11    1    4    4    0    0  0.67826331799E+01  0.53774022866E+01  0.83276133977E+01  0.12011232800E+02  0.51100000000E-03 0. -1.
        -11    1    4    4    0    0 -0.25489774406E+01  0.56311129685E+00  0.18273754173E+02  0.18459265212E+02  0.51100000000E-03 0.  1.
         12    1    4    4    0    0 -0.16363033021E+02  0.37666457148E+01  0.10972758117E+02  0.20058362104E+02  0.00000000000E+00 0. -1.
</event>
<event>
 8    1  0.9870402E-014  0.9118800E+02  0.7816164E-02  0.1184000E+00
        -11   -1    0    0    0    0  0.00000000000E+00  0.00000000000E+00  0.45593999997E+02  0.45594000000E+02  0.51100000000E-03 0.  1.
         11   -1    0    0    0    0 -0.00000000000E+00 -0.00000000000E+00 -0.45593999997E+02  0.45594000000E+02  0.51100000000E-03 0. -1.
         23    2    1    2    0    0  0.00000000000E+00  0.00000000000E+00  0.12351231149E-14  0.91188000000E+02  0.91188000000E+02 0.  0.
    9900012    2    3    3    0    0  0.40581748332E+02  0.25057054001E+01  0.81869818827E-01  0.50528885894E+02  0.30000079163E+02 0.  0.
         12    1    3    3    0    0 -0.40581748332E+02 -0.25057054001E+01 -0.81869818827E-01  0.40659114106E+02  0.00000000000E+00 0. -1.
         11    1    4    4    0    0  0.26797253484E+01 -0.82196231464E+01  0.14994072054E-01  0.86454240900E+01  0.51100000000E-03 0. -1.
        -11    1    4    4    0    0  0.95963709436E+01  0.38716831843E+01 -0.62414206582E+01  0.12084518942E+02  0.51100000000E-03 0.  1.
        -12    1    4    4    0    0  0.28305652040E+02  0.68536453623E+01  0.63082964050E+01  0.29798942862E+02  0.00000000000E+00 0.  1.
</event>
<event>
 8    1  0.9870402E-014  0.9118800E+02  0.7816164E-02  0.1184000E+00
        -11   -1    0    0    0    0  0.00000000000E+00  0.00000000000E+00  0.45593999997E+02  0.45594000000E+02  0.51100000000E-03 0. -1.
         11   -1    0    0    0    0 -0.00000000000E+00 -0.00000000000E+00 -0.45593999997E+02  0.45594000000E+02  0.51100000000E-03 0.  1.
         23    2    1    2    0    0  0.00000000000E+00  0.88817841970E-15  0.00000000000E+00  0.91188000000E+02  0.91188000000E+02 0.  0.
    9900012    2    3    3    0    0  0.32731097215E+02 -0.47839109869E+01  0.23642241073E+02  0.50528854753E+02  0.29999984507E+02 0.  0.
        -12    1    3    3    0    0 -0.32731097215E+02  0.47839109869E+01 -0.23642241073E+02  0.40659145247E+02  0.00000000000E+00 0.  1.
         11    1    4    4    0    0  0.19943153862E+02 -0.42663777993E+00  0.66768062336E+01  0.21035473551E+02  0.51100000000E-03 0. -1.
        -11    1    4    4    0    0  0.33696885427E-01 -0.60253057207E+00 -0.43389530706E+01  0.43807182722E+01  0.51100000000E-03 0.  1.
         12    1    4    4    0    0  0.12754246468E+02 -0.37547426349E+01  0.21304387910E+02  0.25112662930E+02  0.00000000000E+00 0. -1.
</event>
<event>
 8    1  0.9870402E-014  0.9118800E+02  0.7816164E-02  0.1184000E+00
        -11   -1    0    0    0    0  0.00000000000E+00  0.00000000000E+00  0.45593999997E+02  0.45594000000E+02  0.51100000000E-03 0. -1.
         11   -1    0    0    0    0 -0.00000000000E+00 -0.00000000000E+00 -0.45593999997E+02  0.45594000000E+02  0.51100000000E-03 0.  1.
         23    2    1    2    0    0 -0.35527136788E-14  0.00000000000E+00  0.00000000000E+00  0.91188000000E+02  0.91188000000E+02 0.  0.
    9900012    2    3    3    0    0  0.26048641552E+02 -0.17033514810E+02 -0.26162809872E+02  0.50528868505E+02  0.30000026309E+02 0.  0.
         12    1    3    3    0    0 -0.26048641552E+02  0.17033514810E+02  0.26162809872E+02  0.40659131495E+02  0.00000000000E+00 0. -1.
         11    1    4    4    0    0  0.13491061049E+01  0.23683251757E+01 -0.67076969715E+01  0.72403211492E+01  0.51100000000E-03 0. -1.
        -11    1    4    4    0    0  0.18510289786E+02 -0.21987719590E+00 -0.90441227641E+01  0.20602799100E+02  0.51100000000E-03 0.  1.
        -12    1    4    4    0    0  0.61892456617E+01 -0.19181962789E+02 -0.10410990137E+02  0.22685748256E+02  0.00000000000E+00 0.  1.
</event>
<event>
 8    1  0.9870402E-014  0.9118800E+02  0.7816164E-02  0.1184000E+00
        -11   -1    0    0    0    0  0.00000000000E+00  0.00000000000E+00  0.45593999997E+02  0.45594000000E+02  0.51100000000E-03 0.  1.
         11   -1    0    0    0    0 -0.00000000000E+00 -0.00000000000E+00 -0.45593999997E+02  0.45594000000E+02  0.51100000000E-03 0. -1.
         23    2    1    2    0    0  0.00000000000E+00  0.00000000000E+00 -0.22204460493E-15  0.91188000000E+02  0.91188000000E+02 0.  0.
    9900012    2    3    3    0    0 -0.37690025068E+02 -0.15191012750E+02  0.13643078943E+01  0.50528853501E+02  0.29999980702E+02 0.  0.
         12    1    3    3    0    0  0.37690025068E+02  0.15191012750E+02 -0.13643078943E+01  0.40659146499E+02  0.00000000000E+00 0. -1.
         11    1    4    4    0    0 -0.13942958658E+01  0.29161039889E+01  0.23702266734E+01  0.40082038596E+01  0.51100000000E-03 0. -1.
        -11    1    4    4    0    0 -0.17588338618E+02  0.87526654444E+00 -0.74180815219E+01  0.19108733098E+02  0.51100000000E-03 0.  1.
        -12    1    4    4    0    0 -0.18707390583E+02 -0.18982383284E+02  0.64121627428E+01  0.27411916544E+02  0.00000000000E+00 0.  1.
</event>
<event>
 8    1  0.9870402E-014  0.9118800E+02  0.7816164E-02  0.1184000E+00
        -11   -1    0    0    0    0  0.00000000000E+00  0.00000000000E+00  0.45593999997E+02  0.45594000000E+02  0.51100000000E-03 0. -1.
         11   -1    0    0    0    0 -0.00000000000E+00 -0.00000000000E+00 -0.45593999997E+02  0.45594000000E+02  0.51100000000E-03 0.  1.
         23    2    1    2    0    0  0.71054273576E-14  0.17763568394E-14 -0.35527136788E-14  0.91188000000E+02  0.91188000000E+02 0.  0.
    9900012    2    3    3    0    0  0.32548381336E+02  0.15947456974E+02 -0.18424111072E+02  0.50528851210E+02  0.29999973738E+02 0.  0.
         12    1    3    3    0    0 -0.32548381336E+02 -0.15947456974E+02  0.18424111072E+02  0.40659148790E+02  0.00000000000E+00 0. -1.
         11    1    4    4    0    0  0.16188531614E+02 -0.16486902497E+00 -0.19813873987E+00  0.16190583585E+02  0.51100000000E-03 0. -1.
        -11    1    4    4    0    0  0.18233936207E+02  0.96467241755E+01 -0.80636266119E+01  0.22148539259E+02  0.51100000000E-03 0.  1.
        -12    1    4    4    0    0 -0.18740864848E+01  0.64656018236E+01 -0.10162345720E+02  0.12189728366E+02  0.00000000000E+00 0.  1.
</event>
<event>
 8    1  0.9870402E-014  0.9118800E+02  0.7816164E-02  0.1184000E+00
        -11   -1    0    0    0    0  0.00000000000E+00  0.00000000000E+00  0.45593999997E+02  0.45594000000E+02  0.51100000000E-03 0. -1.
         11   -1    0    0    0    0 -0.00000000000E+00 -0.00000000000E+00 -0.45593999997E+02  0.45594000000E+02  0.51100000000E-03 0.  1.
         23    2    1    2    0    0  0.44408920985E-15  0.00000000000E+00 -0.71054273576E-14  0.91188000000E+02  0.91188000000E+02 0.  0.
    9900012    2    3    3    0    0  0.24140318868E+01  0.14200131080E+02  0.38022314917E+02  0.50528834929E+02  0.29999924249E+02 0.  0.
        -12    1    3    3    0    0 -0.24140318868E+01 -0.14200131080E+02 -0.38022314917E+02  0.40659165071E+02  0.00000000000E+00 0.  1.
         11    1    4    4    0    0 -0.36767528022E+01 -0.39032378716E+01  0.92382808701E+01  0.10681741934E+02  0.51100000000E-03 0. -1.
        -11    1    4    4    0    0 -0.41489896316E+01  0.16618073260E+02  0.16455550882E+02  0.23752044731E+02  0.51100000000E-03 0.  1.
         12    1    4    4    0    0  0.10239774321E+02  0.14852956912E+01  0.12328483166E+02  0.16095048263E+02  0.00000000000E+00 0. -1.
</event>
<event>
 8    1  0.9870402E-014  0.9118800E+02  0.7816164E-02  0.1184000E+00
        -11   -1    0    0    0    0  0.00000000000E+00  0.00000000000E+00  0.45593999997E+02  0.45594000000E+02  0.51100000000E-03 0. -1.
         11   -1    0    0    0    0 -0.00000000000E+00 -0.00000000000E+00 -0.45593999997E+02  0.45594000000E+02  0.51100000000E-03 0.  1.
         23    2    1    2    0    0  0.00000000000E+00  0.00000000000E+00  0.35527136788E-14  0.91188000000E+02  0.91188000000E+02 0.  0.
    9900012    2    3    3    0    0  0.16329996174E+02  0.22534012635E+02  0.29643127029E+02  0.50528862275E+02  0.30000007372E+02 0.  0.
        -12    1    3    3    0    0 -0.16329996174E+02 -0.22534012635E+02 -0.29643127029E+02  0.40659137725E+02  0.00000000000E+00 0.  1.
         11    1    4    4    0    0  0.52614794181E+01  0.18624984850E+02  0.16150312053E+02  0.25207257010E+02  0.51100000000E-03 0. -1.
        -11    1    4    4    0    0 -0.41576470317E+01  0.45186644811E+01  0.31174637069E+01  0.68864314240E+01  0.51100000000E-03 0.  1.
        -12    1    4    4    0    0  0.15226163787E+02 -0.60963669630E+00  0.10375351269E+02  0.18435173841E+02  0.00000000000E+00 0.  1.
</event>
<event>
 8    1  0.9870402E-014  0.9118800E+02  0.7816164E-02  0.1184000E+00
        -11   -1    0    0    0    0  0.00000000000E+00  0.00000000000E+00  0.45593999997E+02  0.45594000000E+02  0.51100000000E-03 0. -1.
         11   -1    0    0    0    0 -0.00000000000E+00 -0.00000000000E+00 -0.45593999997E+02  0.45594000000E+02  0.51100000000E-03 0.  1.
         23    2    1    2    0    0  0.35527136788E-14 -0.17763568394E-14  0.71054273576E-14  0.91188000000E+02  0.91188000000E+02 0.  0.
    9900012    2    3    3    0    0  0.22276179752E+02 -0.86203842027E+01  0.32903292995E+02  0.50528857141E+02  0.29999991764E+02 0.  0.
        -12    1    3    3    0    0 -0.22276179752E+02  0.86203842027E+01 -0.32903292995E+02  0.40659142859E+02  0.00000000000E+00 0.  1.
         11    1    4    4    0    0  0.20506807217E+02 -0.53811773457E+01  0.24525121795E+02  0.32418633703E+02  0.51100000000E-03 0. -1.
        -11    1    4    4    0    0  0.46009631090E+01  0.48973277447E+01  0.10524454034E+01  0.68014941122E+01  0.51100000000E-03 0.  1.
         12    1    4    4    0    0 -0.28315905741E+01 -0.81365346017E+01  0.73257257970E+01  0.11308729325E+02  0.00000000000E+00 0. -1.
</event>
<event>
 8    1  0.9870402E-014  0.9118800E+02  0.7816164E-02  0.1184000E+00
        -11   -1    0    0    0    0  0.00000000000E+00  0.00000000000E+00  0.45593999997E+02  0.45594000000E+02  0.51100000000E-03 0. -1.
         11   -1    0    0    0    0 -0.00000000000E+00 -0.00000000000E+00 -0.45593999997E+02  0.45594000000E+02  0.51100000000E-03 0.  1.
         23    2    1    2    0    0 -0.17763568394E-14  0.00000000000E+00 -0.71054273576E-14  0.91188000000E+02  0.91188000000E+02 0.  0.
    9900012    2    3    3    0    0 -0.12067235289E+02  0.71346739956E+01 -0.38166010977E+02  0.50528854234E+02  0.29999982930E+02 0.  0.
         12    1    3    3    0    0  0.12067235289E+02 -0.71346739956E+01  0.38166010977E+02  0.40659145766E+02  0.00000000000E+00 0. -1.
         11    1    4    4    0    0 -0.65677262000E+01  0.71205746830E+01 -0.38488254865E+01  0.10423582356E+02  0.51100000000E-03 0. -1.
        -11    1    4    4    0    0 -0.40210491847E+01 -0.98678596840E+01 -0.15669857284E+02  0.18949615269E+02  0.51100000000E-03 0.  1.
         12    1    4    4    0    0 -0.14784599040E+01  0.98819589967E+01 -0.18647328207E+02  0.21155656609E+02  0.00000000000E+00 0. -1.
</event>
<event>
 8    1  0.9870402E-014  0.9118800E+02  0.7816164E-02  0.1184000E+00
        -11   -1    0    0    0    0  0.00000000000E+00  0.00000000000E+00  0.45593999997E+02  0.45594000000E+02  0.51100000000E-03 0. -1.
         11   -1    0    0    0    0 -0.00000000000E+00 -0.00000000000E+00 -0.45593999997E+02  0.45594000000E+02  0.51100000000E-03 0.  1.
         23    2    1    2    0    0 -0.44408920985E-15  0.00000000000E+00 -0.71054273576E-14  0.91188000000E+02  0.91188000000E+02 0.  0.
    9900012    2    3    3    0    0  0.28322577306E+01 -0.20309344434E+02  0.35109473824E+02  0.50528852107E+02  0.29999976463E+02 0.  0.
        -12    1    3    3    0    0 -0.28322577306E+01  0.20309344434E+02 -0.35109473824E+02  0.40659147893E+02  0.00000000000E+00 0.  1.
         11    1    4    4    0    0  0.18296653991E+01 -0.49658650411E+01  0.45824768792E+01  0.70004703905E+01  0.51100000000E-03 0. -1.
        -11    1    4    4    0    0 -0.74056480833E+00 -0.49820228084E+01  0.32457040313E+02  0.32845524104E+02  0.51100000000E-03 0.  1.
         12    1    4    4    0    0  0.17431571399E+01 -0.10361456584E+02 -0.19300433680E+01  0.10682857612E+02  0.00000000000E+00 0. -1.
</event>
<event>
 8    1  0.9870402E-014  0.9118800E+02  0.7816164E-02  0.1184000E+00
        -11   -1    0    0    0    0  0.00000000000E+00  0.00000000000E+00  0.45593999997E+02  0.45594000000E+02  0.51100000000E-03 0. -1.
         11   -1    0    0    0    0 -0.00000000000E+00 -0.00000000000E+00 -0.45593999997E+02  0.45594000000E+02  0.51100000000E-03 0.  1.
         23    2    1    2    0    0  0.00000000000E+00  0.00000000000E+00  0.00000000000E+00  0.91188000000E+02  0.91188000000E+02 0.  0.
    9900012    2    3    3    0    0 -0.31560159691E+02 -0.15753315989E+02 -0.20222646707E+02  0.50528854852E+02  0.29999984808E+02 0.  0.
         12    1    3    3    0    0  0.31560159691E+02  0.15753315989E+02  0.20222646707E+02  0.40659145148E+02  0.00000000000E+00 0. -1.
         11    1    4    4    0    0  0.30631484162E+01 -0.21809206471E+01 -0.37043441144E+00  0.37784275834E+01  0.51100000000E-03 0. -1.
        -11    1    4    4    0    0  0.20545769754E+01 -0.37716944912E+01 -0.28348829520E+01  0.51462148707E+01  0.51100000000E-03 0.  1.
        -12    1    4    4    0    0 -0.36677885082E+02 -0.98007008507E+01 -0.17017329343E+02  0.41604212398E+02  0.00000000000E+00 0.  1.
</event>
<event>
 8    1  0.9882429E-014  0.9118800E+02  0.7816164E-02  0.1184000E+00
        -11   -1    0    0    0    0  0.00000000000E+00  0.00000000000E+00  0.45593999997E+02  0.45594000000E+02  0.51100000000E-03 0. -1.
         11   -1    0    0    0    0 -0.00000000000E+00 -0.00000000000E+00 -0.45593999997E+02  0.45594000000E+02  0.51100000000E-03 0.  1.
         23    2    1    2    0    0  0.00000000000E+00  0.00000000000E+00  0.00000000000E+00  0.91188000000E+02  0.91188000000E+02 0.  0.
    9900012    2    3    3    0    0  0.18977900842E+02  0.17615706711E+02 -0.31347925920E+02  0.50528852163E+02  0.29999976635E+02 0.  0.
         12    1    3    3    0    0 -0.18977900842E+02 -0.17615706711E+02  0.31347925920E+02  0.40659147837E+02  0.00000000000E+00 0. -1.
         11    1    4    4    0    0  0.59614860078E+01  0.16161516615E+01  0.21760500577E+01  0.65487751320E+01  0.51100000000E-03 0. -1.
        -11    1    4    4    0    0  0.13066250473E+02  0.10870216247E+02 -0.96166885111E+01  0.19528676373E+02  0.51100000000E-03 0.  1.
        -12    1    4    4    0    0 -0.49835638785E-01  0.51293388025E+01 -0.23907287467E+02  0.24451400659E+02  0.00000000000E+00 0.  1.
</event>
<event>
 8    1  0.9870402E-014  0.9118800E+02  0.7816164E-02  0.1184000E+00
        -11   -1    0    0    0    0  0.00000000000E+00  0.00000000000E+00  0.45593999997E+02  0.45594000000E+02  0.51100000000E-03 0. -1.
         11   -1    0    0    0    0 -0.00000000000E+00 -0.00000000000E+00 -0.45593999997E+02  0.45594000000E+02  0.51100000000E-03 0.  1.
         23    2    1    2    0    0  0.00000000000E+00  0.00000000000E+00  0.00000000000E+00  0.91188000000E+02  0.91188000000E+02 0.  0.
    9900012    2    3    3    0    0 -0.99426101091E+01  0.66364285955E+01  0.38862140379E+02  0.50528884969E+02  0.30000076352E+02 0.  0.
        -12    1    3    3    0    0  0.99426101091E+01 -0.66364285955E+01 -0.38862140379E+02  0.40659115031E+02  0.00000000000E+00 0.  1.
         11    1    4    4    0    0 -0.23462104180E+01 -0.83999974125E+01  0.51528110862E+01  0.10129961609E+02  0.51100000000E-03 0. -1.
        -11    1    4    4    0    0  0.28165357479E+01  0.43582484301E+01  0.23973113792E+01  0.57161442518E+01  0.51100000000E-03 0.  1.
        -12    1    4    4    0    0 -0.10412935439E+02  0.10678177578E+02  0.31312017913E+02  0.34682779108E+02  0.00000000000E+00 0.  1.
</event>
<event>
 8    1  0.9870402E-014  0.9118800E+02  0.7816164E-02  0.1184000E+00
        -11   -1    0    0    0    0  0.00000000000E+00  0.00000000000E+00  0.45593999997E+02  0.45594000000E+02  0.51100000000E-03 0. -1.
         11   -1    0    0    0    0 -0.00000000000E+00 -0.00000000000E+00 -0.45593999997E+02  0.45594000000E+02  0.51100000000E-03 0.  1.
         23    2    1    2    0    0  0.00000000000E+00  0.17763568394E-14  0.00000000000E+00  0.91188000000E+02  0.91188000000E+02 0.  0.
    9900012    2    3    3    0    0 -0.35622867133E+02 -0.57578058541E+01  0.18735655925E+02  0.50528858421E+02  0.29999995655E+02 0.  0.
        -12    1    3    3    0    0  0.35622867133E+02  0.57578058541E+01 -0.18735655925E+02  0.40659141579E+02  0.00000000000E+00 0.  1.
         11    1    4    4    0    0 -0.12605787434E+02 -0.80296421289E+01 -0.42326948207E+01  0.15533728956E+02  0.51100000000E-03 0. -1.
        -11    1    4    4    0    0 -0.12146464516E+01 -0.33479974708E+01  0.52513225323E+01  0.63451431557E+01  0.51100000000E-03 0.  1.
        -12    1    4    4    0    0 -0.21802433247E+02  0.56198337456E+01  0.17717028213E+02  0.28649986309E+02  0.00000000000E+00 0.  1.
</event>
<event>
 8    1  0.9870402E-014  0.9118800E+02  0.7816164E-02  0.1184000E+00
        -11   -1    0    0    0    0  0.00000000000E+00  0.00000000000E+00  0.45593999997E+02  0.45594000000E+02  0.51100000000E-03 0.  1.
         11   -1    0    0    0    0 -0.00000000000E+00 -0.00000000000E+00 -0.45593999997E+02  0.45594000000E+02  0.51100000000E-03 0. -1.
         23    2    1    2    0    0  0.00000000000E+00  0.00000000000E+00  0.11102230246E-14  0.91188000000E+02  0.91188000000E+02 0.  0.
    9900012    2    3    3    0    0 -0.18842198962E+02  0.35986965239E+02  0.17536540506E+01  0.50528862880E+02  0.30000009209E+02 0.  0.
         12    1    3    3    0    0  0.18842198962E+02 -0.35986965239E+02 -0.17536540506E+01  0.40659137120E+02  0.00000000000E+00 0. -1.
         11    1    4    4    0    0 -0.84835903833E+00  0.42228277796E+01 -0.30395563070E+01  0.52717065850E+01  0.51100000000E-03 0.  1.
        -11    1    4    4    0    0  0.28956660256E+01  0.15523690598E+02  0.94319211625E+01  0.18393775811E+02  0.51100000000E-03 0. -1.
        -12    1    4    4    0    0 -0.20889505949E+02  0.16240446862E+02 -0.46387108050E+01  0.26863380484E+02  0.00000000000E+00 0.  1.
</event>
<event>
 8    1  0.9870402E-014  0.9118800E+02  0.7816164E-02  0.1184000E+00
        -11   -1    0    0    0    0  0.00000000000E+00  0.00000000000E+00  0.45593999997E+02  0.45594000000E+02  0.51100000000E-03 0. -1.
         11   -1    0    0    0    0 -0.00000000000E+00 -0.00000000000E+00 -0.45593999997E+02  0.45594000000E+02  0.51100000000E-03 0.  1.
         23    2    1    2    0    0  0.00000000000E+00  0.00000000000E+00  0.13322676296E-14  0.91188000000E+02  0.91188000000E+02 0.  0.
    9900012    2    3    3    0    0 -0.29944684833E+02 -0.27368793054E+02 -0.27258520399E+01  0.50528865081E+02  0.30000015901E+02 0.  0.
        -12    1    3    3    0    0  0.29944684833E+02  0.27368793054E+02  0.27258520399E+01  0.40659134919E+02  0.00000000000E+00 0.  1.
         11    1    4    4    0    0 -0.73090588509E+01  0.23976136867E+01 -0.14384977202E+00  0.76936068066E+01  0.51100000000E-03 0. -1.
        -11    1    4    4    0    0 -0.19452787566E+02 -0.11765013049E+02 -0.74397860363E+01  0.23920219327E+02  0.51100000000E-03 0.  1.
        -12    1    4    4    0    0 -0.31828384154E+01 -0.18001393692E+02  0.48577837684E+01  0.18915038947E+02  0.00000000000E+00 0.  1.
</event>
<event>
 8    1  0.9870402E-014  0.9118800E+02  0.7816164E-02  0.1184000E+00
        -11   -1    0    0    0    0  0.00000000000E+00  0.00000000000E+00  0.45593999997E+02  0.45594000000E+02  0.51100000000E-03 0. -1.
         11   -1    0    0    0    0 -0.00000000000E+00 -0.00000000000E+00 -0.45593999997E+02  0.45594000000E+02  0.51100000000E-03 0.  1.
         23    2    1    2    0    0  0.00000000000E+00  0.00000000000E+00  0.00000000000E+00  0.91188000000E+02  0.91188000000E+02 0.  0.
    9900012    2    3    3    0    0  0.14588106107E+02  0.62098091714E+01  0.37440491950E+02  0.50528868096E+02  0.30000025064E+02 0.  0.
        -12    1    3    3    0    0 -0.14588106107E+02 -0.62098091714E+01 -0.37440491950E+02  0.40659131904E+02  0.00000000000E+00 0.  1.
         11    1    4    4    0    0 -0.20916005381E+01 -0.16584240531E+01  0.23657644719E+02  0.23807757497E+02  0.51100000000E-03 0.  1.
        -11    1    4    4    0    0  0.17504635746E+01 -0.33946166211E+01  0.66231787699E+00  0.38763655608E+01  0.51100000000E-03 0. -1.
         12    1    4    4    0    0  0.14929243071E+02  0.11262849846E+02  0.13120529354E+02  0.22844745038E+02  0.00000000000E+00 0. -1.
</event>
<event>
 8    1  0.9870402E-014  0.9118800E+02  0.7816164E-02  0.1184000E+00
        -11   -1    0    0    0    0  0.00000000000E+00  0.00000000000E+00  0.45593999997E+02  0.45594000000E+02  0.51100000000E-03 0. -1.
         11   -1    0    0    0    0 -0.00000000000E+00 -0.00000000000E+00 -0.45593999997E+02  0.45594000000E+02  0.51100000000E-03 0.  1.
         23    2    1    2    0    0  0.35527136788E-14  0.35527136788E-14  0.17763568394E-14  0.91188000000E+02  0.91188000000E+02 0.  0.
    9900012    2    3    3    0    0 -0.22344887516E+02  0.30981747792E+02 -0.13928525472E+02  0.50528849539E+02  0.29999968659E+02 0.  0.
         12    1    3    3    0    0  0.22344887516E+02 -0.30981747792E+02  0.13928525472E+02  0.40659150461E+02  0.00000000000E+00 0. -1.
         11    1    4    4    0    0 -0.14989252571E+02  0.23146851997E+02 -0.30467362149E+01  0.27744135450E+02  0.51100000000E-03 0. -1.
        -11    1    4    4    0    0 -0.12255941363E+02  0.75435657932E+01 -0.10588496593E+02  0.17867001537E+02  0.51100000000E-03 0.  1.
         12    1    4    4    0    0  0.49003064180E+01  0.29133000140E+00 -0.29329266465E+00  0.49177125523E+01  0.00000000000E+00 0. -1.
</event>
<event>
 8    1  0.9870402E-014  0.9118800E+02  0.7816164E-02  0.1184000E+00
        -11   -1    0    0    0    0  0.00000000000E+00  0.00000000000E+00  0.45593999997E+02  0.45594000000E+02  0.51100000000E-03 0. -1.
         11   -1    0    0    0    0 -0.00000000000E+00 -0.00000000000E+00 -0.45593999997E+02  0.45594000000E+02  0.51100000000E-03 0.  1.
         23    2    1    2    0    0 -0.44408920985E-15  0.88817841970E-15  0.00000000000E+00  0.91188000000E+02  0.91188000000E+02 0.  0.
    9900012    2    3    3    0    0 -0.29933928204E+01  0.57337734133E+01  0.40141353570E+02  0.50528870342E+02  0.30000031890E+02 0.  0.
        -12    1    3    3    0    0  0.29933928204E+01 -0.57337734133E+01 -0.40141353570E+02  0.40659129658E+02  0.00000000000E+00 0.  1.
         11    1    4    4    0    0  0.61597509682E+01  0.13211264912E+01  0.10400558846E+02  0.12159750481E+02  0.51100000000E-03 0. -1.
        -11    1    4    4    0    0  0.14443702118E+01 -0.21488216066E+01 -0.26244901067E+01  0.36866771200E+01  0.51100000000E-03 0.  1.
        -12    1    4    4    0    0 -0.10597514000E+02  0.65614685287E+01  0.32365284831E+02  0.34682442740E+02  0.00000000000E+00 0.  1.
</event>
<event>
 8    1  0.9870402E-014  0.9118800E+02  0.7816164E-02  0.1184000E+00
        -11   -1    0    0    0    0  0.00000000000E+00  0.00000000000E+00  0.45593999997E+02  0.45594000000E+02  0.51100000000E-03 0.  1.
         11   -1    0    0    0    0 -0.00000000000E+00 -0.00000000000E+00 -0.45593999997E+02  0.45594000000E+02  0.51100000000E-03 0. -1.
         23    2    1    2    0    0  0.35527136788E-14  0.00000000000E+00  0.88817841970E-15  0.91188000000E+02  0.91188000000E+02 0.  0.
    9900012    2    3    3    0    0 -0.25546116166E+02  0.31491681357E+02  0.29724958433E+01  0.50528858624E+02  0.29999996274E+02 0.  0.
         12    1    3    3    0    0  0.25546116166E+02 -0.31491681357E+02 -0.29724958433E+01  0.40659141376E+02  0.00000000000E+00 0. -1.
         11    1    4    4    0    0 -0.23235889947E+01 -0.14495580736E+01 -0.38966760377E+01  0.47628110218E+01  0.51100000000E-03 0. -1.
        -11    1    4    4    0    0 -0.29883770192E+01  0.70620935776E+01  0.10184623728E+02  0.12748730276E+02  0.51100000000E-03 0.  1.
         12    1    4    4    0    0 -0.20234150152E+02  0.25879145853E+02 -0.33154518471E+01  0.33017317326E+02  0.00000000000E+00 0. -1.
</event>
<event>
 8    1  0.9870402E-014  0.9118800E+02  0.7816164E-02  0.1184000E+00
        -11   -1    0    0    0    0  0.00000000000E+00  0.00000000000E+00  0.45593999997E+02  0.45594000000E+02  0.51100000000E-03 0. -1.
         11   -1    0    0    0    0 -0.00000000000E+00 -0.00000000000E+00 -0.45593999997E+02  0.45594000000E+02  0.51100000000E-03 0.  1.
         23    2    1    2    0    0  0.35527136788E-14 -0.66613381478E-15  0.35527136788E-14  0.91188000000E+02  0.91188000000E+02 0.  0.
    9900012    2    3    3    0    0 -0.31400630435E+02 -0.12071632364E+01 -0.25801324160E+02  0.50528866178E+02  0.30000019233E+02 0.  0.
         12    1    3    3    0    0  0.31400630435E+02  0.12071632364E+01  0.25801324160E+02  0.40659133822E+02  0.00000000000E+00 0. -1.
         11    1    4    4    0    0 -0.10895380248E+02 -0.91999803293E+00 -0.92593830600E+00  0.10973288893E+02  0.51100000000E-03 0. -1.
        -11    1    4    4    0    0 -0.24988331458E+02  0.29324925862E+01 -0.21427270654E+02  0.33047604297E+02  0.51100000000E-03 0.  1.
        -12    1    4    4    0    0  0.44830812714E+01 -0.32196577897E+01 -0.34481151999E+01  0.65079729871E+01  0.00000000000E+00 0.  1.
</event>
<event>
 8    1  0.9870402E-014  0.9118800E+02  0.7816164E-02  0.1184000E+00
        -11   -1    0    0    0    0  0.00000000000E+00  0.00000000000E+00  0.45593999997E+02  0.45594000000E+02  0.51100000000E-03 0. -1.
         11   -1    0    0    0    0 -0.00000000000E+00 -0.00000000000E+00 -0.45593999997E+02  0.45594000000E+02  0.51100000000E-03 0.  1.
         23    2    1    2    0    0  0.00000000000E+00 -0.35527136788E-14  0.00000000000E+00  0.91188000000E+02  0.91188000000E+02 0.  0.
    9900012    2    3    3    0    0 -0.21506456120E+02  0.22918397298E+02  0.25795081614E+02  0.50528845742E+02  0.29999957116E+02 0.  0.
        -12    1    3    3    0    0  0.21506456120E+02 -0.22918397298E+02 -0.25795081614E+02  0.40659154258E+02  0.00000000000E+00 0.  1.
         11    1    4    4    0    0 -0.56575756985E-01 -0.54559920674E+01  0.54099342807E+01  0.76836475348E+01  0.51100000000E-03 0. -1.
        -11    1    4    4    0    0  0.35251539803E+00  0.45816751026E+01 -0.14411381489E+00  0.45974757101E+01  0.51100000000E-03 0.  1.
        -12    1    4    4    0    0 -0.21802395761E+02  0.23792714263E+02  0.20529261148E+02  0.38247722497E+02  0.00000000000E+00 0.  1.
</event>
<event>
 8    1  0.9870402E-014  0.9118800E+02  0.7816164E-02  0.1184000E+00
        -11   -1    0    0    0    0  0.00000000000E+00  0.00000000000E+00  0.45593999997E+02  0.45594000000E+02  0.51100000000E-03 0.  1.
         11   -1    0    0    0    0 -0.00000000000E+00 -0.00000000000E+00 -0.45593999997E+02  0.45594000000E+02  0.51100000000E-03 0. -1.
         23    2    1    2    0    0  0.00000000000E+00  0.00000000000E+00  0.88817841970E-15  0.91188000000E+02  0.91188000000E+02 0.  0.
    9900012    2    3    3    0    0  0.16355867627E+02  0.36420712197E+02  0.76930129608E+01  0.50528866572E+02  0.30000020431E+02 0.  0.
        -12    1    3    3    0    0 -0.16355867627E+02 -0.36420712197E+02 -0.76930129608E+01  0.40659133428E+02  0.00000000000E+00 0.  1.
         11    1    4    4    0    0  0.21781007288E+00 -0.26853411672E+00 -0.31733246555E+01  0.31921061119E+01  0.51100000000E-03 0. -1.
        -11    1    4    4    0    0  0.49359487286E+01  0.21936425818E+02  0.16596772761E+02  0.27946792908E+02  0.51100000000E-03 0.  1.
         12    1    4    4    0    0  0.11202108825E+02  0.14752820495E+02 -0.57304351447E+01  0.19389967551E+02  0.00000000000E+00 0. -1.
</event>
<event>
 8    1  0.9870402E-014  0.9118800E+02  0.7816164E-02  0.1184000E+00
        -11   -1    0    0    0    0  0.00000000000E+00  0.00000000000E+00  0.45593999997E+02  0.45594000000E+02  0.51100000000E-03 0.  1.
         11   -1    0    0    0    0 -0.00000000000E+00 -0.00000000000E+00 -0.45593999997E+02  0.45594000000E+02  0.51100000000E-03 0. -1.
         23    2    1    2    0    0  0.35527136788E-14  0.71054273576E-14  0.17763568394E-14  0.91188000000E+02  0.91188000000E+02 0.  0.
    9900012    2    3    3    0    0 -0.21971792768E+02 -0.33208087762E+02 -0.82236598254E+01  0.50528863866E+02  0.30000012208E+02 0.  0.
         12    1    3    3    0    0  0.21971792768E+02  0.33208087762E+02  0.82236598254E+01  0.40659136134E+02  0.00000000000E+00 0. -1.
         11    1    4    4    0    0 -0.12709141138E+01 -0.36559965782E+01 -0.51933827830E+01  0.64770949242E+01  0.51100000000E-03 0. -1.
        -11    1    4    4    0    0 -0.13839753137E+01  0.30964130010E+00  0.69658309882E+01  0.71087317449E+01  0.51100000000E-03 0.  1.
        -12    1    4    4    0    0 -0.19316903340E+02 -0.29861732484E+02 -0.99961080306E+01  0.36943037197E+02  0.00000000000E+00 0.  1.
</event>
<event>
 8    1  0.9870402E-014  0.9118800E+02  0.7816164E-02  0.1184000E+00
        -11   -1    0    0    0    0  0.00000000000E+00  0.00000000000E+00  0.45593999997E+02  0.45594000000E+02  0.51100000000E-03 0. -1.
         11   -1    0    0    0    0 -0.00000000000E+00 -0.00000000000E+00 -0.45593999997E+02  0.45594000000E+02  0.51100000000E-03 0.  1.
         23    2    1    2    0    0  0.00000000000E+00 -0.35527136788E-14  0.00000000000E+00  0.91188000000E+02  0.91188000000E+02 0.  0.
    9900012    2    3    3    0    0 -0.25852810708E+02  0.31376877631E+02  0.53797528897E+00  0.50528859714E+02  0.29999999587E+02 0.  0.
         12    1    3    3    0    0  0.25852810708E+02 -0.31376877631E+02 -0.53797528897E+00  0.40659140286E+02  0.00000000000E+00 0. -1.
         11    1    4    4    0    0  0.28761902816E+01  0.16273016492E+01 -0.15717166008E+01  0.36593543868E+01  0.51100000000E-03 0. -1.
        -11    1    4    4    0    0 -0.92849604800E+01  0.25194139360E+02  0.13492161439E+01  0.26884484999E+02  0.51100000000E-03 0.  1.
        -12    1    4    4    0    0 -0.19444040510E+02  0.45554366217E+01  0.76047574587E+00  0.19985020328E+02  0.00000000000E+00 0.  1.
</event>
<event>
 8    1  0.9870402E-014  0.9118800E+02  0.7816164E-02  0.1184000E+00
        -11   -1    0    0    0    0  0.00000000000E+00  0.00000000000E+00  0.45593999997E+02  0.45594000000E+02  0.51100000000E-03 0. -1.
         11   -1    0    0    0    0 -0.00000000000E+00 -0.00000000000E+00 -0.45593999997E+02  0.45594000000E+02  0.51100000000E-03 0.  1.
         23    2    1    2    0    0  0.35527136788E-14  0.00000000000E+00 -0.35527136788E-14  0.91188000000E+02  0.91188000000E+02 0.  0.
    9900012    2    3    3    0    0  0.26415451874E+02  0.10360883146E+02 -0.29121150649E+02  0.50528863113E+02  0.30000009919E+02 0.  0.
         12    1    3    3    0    0 -0.26415451874E+02 -0.10360883146E+02  0.29121150649E+02  0.40659136887E+02  0.00000000000E+00 0. -1.
         11    1    4    4    0    0  0.16207277049E+02  0.13263406739E+02 -0.67441319861E+01  0.22001752298E+02  0.51100000000E-03 0.  1.
        -11    1    4    4    0    0  0.38042052942E+01 -0.64611738678E+01 -0.34928213563E+01  0.82715504568E+01  0.51100000000E-03 0. -1.
         12    1    4    4    0    0  0.64039695311E+01  0.35586502748E+01 -0.18884197306E+02  0.20255560358E+02  0.00000000000E+00 0. -1.
</event>
<event>
 8    1  0.9870402E-014  0.9118800E+02  0.7816164E-02  0.1184000E+00
        -11   -1    0    0    0    0  0.00000000000E+00  0.00000000000E+00  0.45593999997E+02  0.45594000000E+02  0.51100000000E-03 0. -1.
         11   -1    0    0    0    0 -0.00000000000E+00 -0.00000000000E+00 -0.45593999997E+02  0.45594000000E+02  0.51100000000E-03 0.  1.
         23    2    1    2    0    0  0.00000000000E+00  0.00000000000E+00  0.00000000000E+00  0.91188000000E+02  0.91188000000E+02 0.  0.
    9900012    2    3    3    0    0 -0.23806691038E+02  0.80861651135E+01 -0.31953426342E+02  0.50528855156E+02  0.29999985733E+02 0.  0.
         12    1    3    3    0    0  0.23806691038E+02 -0.80861651135E+01  0.31953426342E+02  0.40659144844E+02  0.00000000000E+00 0. -1.
         11    1    4    4    0    0  0.35009252841E+01  0.29897882533E+01 -0.12049540302E+02  0.12899098162E+02  0.51100000000E-03 0. -1.
        -11    1    4    4    0    0 -0.12919059835E+02  0.10088819344E+02 -0.76838677947E+01  0.18103265101E+02  0.51100000000E-03 0.  1.
        -12    1    4    4    0    0 -0.14388556488E+02 -0.49924424839E+01 -0.12220018246E+02  0.19526491894E+02  0.00000000000E+00 0.  1.
</event>
<event>
 8    1  0.9870402E-014  0.9118800E+02  0.7816164E-02  0.1184000E+00
        -11   -1    0    0    0    0  0.00000000000E+00  0.00000000000E+00  0.45593999997E+02  0.45594000000E+02  0.51100000000E-03 0. -1.
         11   -1    0    0    0    0 -0.00000000000E+00 -0.00000000000E+00 -0.45593999997E+02  0.45594000000E+02  0.51100000000E-03 0.  1.
         23    2    1    2    0    0  0.00000000000E+00 -0.14432899320E-14 -0.71054273576E-14  0.91188000000E+02  0.91188000000E+02 0.  0.
    9900012    2    3    3    0    0  0.87690953052E+01  0.71050864991E+00 -0.39695886728E+02  0.50528864764E+02  0.30000014937E+02 0.  0.
         12    1    3    3    0    0 -0.87690953052E+01 -0.71050864991E+00  0.39695886728E+02  0.40659135236E+02  0.00000000000E+00 0. -1.
         11    1    4    4    0    0 -0.36851848727E+01 -0.46407912086E+01 -0.35962265293E+01  0.69318378586E+01  0.51100000000E-03 0. -1.
        -11    1    4    4    0    0 -0.26015407832E+00 -0.19223083794E+01 -0.25359323981E+02  0.25433408397E+02  0.51100000000E-03 0.  1.
        -12    1    4    4    0    0  0.12714434256E+02  0.72736082379E+01 -0.10740336218E+02  0.18163618509E+02  0.00000000000E+00 0.  1.
</event>
<event>
 8    1  0.9870402E-014  0.9118800E+02  0.7816164E-02  0.1184000E+00
        -11   -1    0    0    0    0  0.00000000000E+00  0.00000000000E+00  0.45593999997E+02  0.45594000000E+02  0.51100000000E-03 0. -1.
         11   -1    0    0    0    0 -0.00000000000E+00 -0.00000000000E+00 -0.45593999997E+02  0.45594000000E+02  0.51100000000E-03 0.  1.
         23    2    1    2    0    0  0.00000000000E+00 -0.17763568394E-14  0.00000000000E+00  0.91188000000E+02  0.91188000000E+02 0.  0.
    9900012    2    3    3    0    0 -0.17750854173E+02  0.92941576023E+01 -0.35379254841E+02  0.50528857577E+02  0.29999993092E+02 0.  0.
         12    1    3    3    0    0  0.17750854173E+02 -0.92941576023E+01  0.35379254841E+02  0.40659142423E+02  0.00000000000E+00 0. -1.
         11    1    4    4    0    0 -0.91136205930E+01 -0.70189639263E+01 -0.39950475375E+01  0.12177205755E+02  0.51100000000E-03 0. -1.
        -11    1    4    4    0    0 -0.10200488291E+02  0.71856966391E+01 -0.21095618385E+02  0.24509371940E+02  0.51100000000E-03 0.  1.
        -12    1    4    4    0    0  0.15632547115E+01  0.91274248896E+01 -0.10288588919E+02  0.13842279883E+02  0.00000000000E+00 0.  1.
</event>
<event>
 8    1  0.9870402E-014  0.9118800E+02  0.7816164E-02  0.1184000E+00
        -11   -1    0    0    0    0  0.00000000000E+00  0.00000000000E+00  0.45593999997E+02  0.45594000000E+02  0.51100000000E-03 0. -1.
         11   -1    0    0    0    0 -0.00000000000E+00 -0.00000000000E+00 -0.45593999997E+02  0.45594000000E+02  0.51100000000E-03 0.  1.
         23    2    1    2    0    0  0.77715611724E-15  0.00000000000E+00  0.00000000000E+00  0.91188000000E+02  0.91188000000E+02 0.  0.
    9900012    2    3    3    0    0  0.54577628562E+00 -0.10398196029E+02 -0.39303139314E+02  0.50528965182E+02  0.30000320165E+02 0.  0.
         12    1    3    3    0    0 -0.54577628562E+00  0.10398196029E+02  0.39303139314E+02  0.40659034818E+02  0.00000000000E+00 0. -1.
         11    1    4    4    0    0 -0.83996451872E+01 -0.26383325307E+01 -0.14006737595E+02  0.16543987915E+02  0.51100000000E-03 0. -1.
        -11    1    4    4    0    0  0.95302577214E+00  0.30596930377E+00  0.31769908929E+01  0.33309378157E+01  0.51100000000E-03 0.  1.
        -12    1    4    4    0    0  0.79923957007E+01 -0.80658328022E+01 -0.28473392612E+02  0.30654039451E+02  0.00000000000E+00 0.  1.
</event>
<event>
 8    1  0.9870402E-014  0.9118800E+02  0.7816164E-02  0.1184000E+00
        -11   -1    0    0    0    0  0.00000000000E+00  0.00000000000E+00  0.45593999997E+02  0.45594000000E+02  0.51100000000E-03 0. -1.
         11   -1    0    0    0    0 -0.00000000000E+00 -0.00000000000E+00 -0.45593999997E+02  0.45594000000E+02  0.51100000000E-03 0.  1.
         23    2    1    2    0    0  0.35527136788E-14  0.35527136788E-14  0.00000000000E+00  0.91188000000E+02  0.91188000000E+02 0.  0.
    9900012    2    3    3    0    0 -0.29787644022E+02 -0.14613608603E+02  0.23501172444E+02  0.50528850980E+02  0.29999973040E+02 0.  0.
        -12    1    3    3    0    0  0.29787644022E+02  0.14613608603E+02 -0.23501172444E+02  0.40659149020E+02  0.00000000000E+00 0.  1.
         11    1    4    4    0    0 -0.29814671442E+01 -0.80331691319E+01  0.60825423456E+01  0.10508010006E+02  0.51100000000E-03 0. -1.
        -11    1    4    4    0    0  0.40503005385E+01  0.11703142590E+01  0.20940112188E+01  0.47073828358E+01  0.51100000000E-03 0.  1.
        -12    1    4    4    0    0 -0.30856477416E+02 -0.77507537303E+01  0.15324618880E+02  0.35313458139E+02  0.00000000000E+00 0.  1.
</event>
<event>
 8    1  0.9870402E-014  0.9118800E+02  0.7816164E-02  0.1184000E+00
        -11   -1    0    0    0    0  0.00000000000E+00  0.00000000000E+00  0.45593999997E+02  0.45594000000E+02  0.51100000000E-03 0. -1.
         11   -1    0    0    0    0 -0.00000000000E+00 -0.00000000000E+00 -0.45593999997E+02  0.45594000000E+02  0.51100000000E-03 0.  1.
         23    2    1    2    0    0  0.00000000000E+00  0.22204460493E-15  0.00000000000E+00  0.91188000000E+02  0.91188000000E+02 0.  0.
    9900012    2    3    3    0    0  0.69184409273E+01 -0.11366048646E+01 -0.40050083499E+02  0.50528857316E+02  0.29999992299E+02 0.  0.
         12    1    3    3    0    0 -0.69184409273E+01  0.11366048646E+01  0.40050083499E+02  0.40659142684E+02  0.00000000000E+00 0. -1.
         11    1    4    4    0    0 -0.39261192385E+01 -0.73851899937E+01 -0.88651417013E+00  0.84107877843E+01  0.51100000000E-03 0. -1.
        -11    1    4    4    0    0 -0.63739535658E+00  0.36716950328E+01 -0.97452658933E+01  0.10433495332E+02  0.51100000000E-03 0.  1.
        -12    1    4    4    0    0  0.11481955522E+02  0.25768900962E+01 -0.29418303436E+02  0.31684574200E+02  0.00000000000E+00 0.  1.
</event>
<event>
 8    1  0.9870402E-014  0.9118800E+02  0.7816164E-02  0.1184000E+00
        -11   -1    0    0    0    0  0.00000000000E+00  0.00000000000E+00  0.45593999997E+02  0.45594000000E+02  0.51100000000E-03 0. -1.
         11   -1    0    0    0    0 -0.00000000000E+00 -0.00000000000E+00 -0.45593999997E+02  0.45594000000E+02  0.51100000000E-03 0.  1.
         23    2    1    2    0    0  0.88817841970E-15  0.00000000000E+00  0.35527136788E-14  0.91188000000E+02  0.91188000000E+02 0.  0.
    9900012    2    3    3    0    0  0.94506772971E+00  0.35499836920E+02  0.19799841313E+02  0.50528864614E+02  0.30000014480E+02 0.  0.
        -12    1    3    3    0    0 -0.94506772971E+00 -0.35499836920E+02 -0.19799841313E+02  0.40659135386E+02  0.00000000000E+00 0.  1.
         11    1    4    4    0    0  0.82351728125E+00  0.10440347389E+02 -0.52689111712E+01  0.11723500310E+02  0.51100000000E-03 0. -1.
        -11    1    4    4    0    0 -0.50700635561E+01  0.16632195817E+02  0.81480505437E+01  0.19202244923E+02  0.51100000000E-03 0.  1.
         12    1    4    4    0    0  0.51916140045E+01  0.84272937133E+01  0.16920701941E+02  0.19603119381E+02  0.00000000000E+00 0. -1.
</event>
<event>
 8    1  0.9870402E-014  0.9118800E+02  0.7816164E-02  0.1184000E+00
        -11   -1    0    0    0    0  0.00000000000E+00  0.00000000000E+00  0.45593999997E+02  0.45594000000E+02  0.51100000000E-03 0. -1.
         11   -1    0    0    0    0 -0.00000000000E+00 -0.00000000000E+00 -0.45593999997E+02  0.45594000000E+02  0.51100000000E-03 0.  1.
         23    2    1    2    0    0  0.00000000000E+00  0.00000000000E+00  0.00000000000E+00  0.91188000000E+02  0.91188000000E+02 0.  0.
    9900012    2    3    3    0    0  0.32758868827E+02  0.43870796265E+01  0.23680635477E+02  0.50528899529E+02  0.30000120609E+02 0.  0.
        -12    1    3    3    0    0 -0.32758868827E+02 -0.43870796265E+01 -0.23680635477E+02  0.40659100471E+02  0.00000000000E+00 0.  1.
         11    1    4    4    0    0  0.11571029620E+02  0.32846608185E+00  0.42811026742E+00  0.11583604581E+02  0.51100000000E-03 0. -1.
        -11    1    4    4    0    0  0.11301871368E+02 -0.39522701605E+01 -0.51712030726E+00  0.11984162445E+02  0.51100000000E-03 0.  1.
         12    1    4    4    0    0  0.98859678396E+01  0.80108837051E+01  0.23769645516E+02  0.26961132503E+02  0.00000000000E+00 0. -1.
</event>
<event>
 8    1  0.9870402E-014  0.9118800E+02  0.7816164E-02  0.1184000E+00
        -11   -1    0    0    0    0  0.00000000000E+00  0.00000000000E+00  0.45593999997E+02  0.45594000000E+02  0.51100000000E-03 0. -1.
         11   -1    0    0    0    0 -0.00000000000E+00 -0.00000000000E+00 -0.45593999997E+02  0.45594000000E+02  0.51100000000E-03 0.  1.
         23    2    1    2    0    0  0.00000000000E+00  0.17763568394E-14  0.00000000000E+00  0.91188000000E+02  0.91188000000E+02 0.  0.
    9900012    2    3    3    0    0  0.34625400522E+02 -0.55210030493E+01 -0.20585578513E+02  0.50528857379E+02  0.29999992489E+02 0.  0.
         12    1    3    3    0    0 -0.34625400522E+02  0.55210030493E+01  0.20585578513E+02  0.40659142621E+02  0.00000000000E+00 0. -1.
         11    1    4    4    0    0  0.22447602312E+02 -0.31486769576E+01 -0.10285455356E+02  0.24891757839E+02  0.51100000000E-03 0. -1.
        -11    1    4    4    0    0  0.39782415009E+01 -0.80242468214E+01 -0.12558954656E+02  0.15425377947E+02  0.51100000000E-03 0.  1.
         12    1    4    4    0    0  0.81995567090E+01  0.56519207297E+01  0.22588315000E+01  0.10211721594E+02  0.00000000000E+00 0. -1.
</event>
<event>
 8    1  0.9870402E-014  0.9118800E+02  0.7816164E-02  0.1184000E+00
        -11   -1    0    0    0    0  0.00000000000E+00  0.00000000000E+00  0.45593999997E+02  0.45594000000E+02  0.51100000000E-03 0. -1.
         11   -1    0    0    0    0 -0.00000000000E+00 -0.00000000000E+00 -0.45593999997E+02  0.45594000000E+02  0.51100000000E-03 0.  1.
         23    2    1    2    0    0  0.17763568394E-14  0.00000000000E+00 -0.71054273576E-14  0.91188000000E+02  0.91188000000E+02 0.  0.
    9900012    2    3    3    0    0  0.82574575696E+01 -0.19998449617E+02 -0.34424443257E+02  0.50528857287E+02  0.29999992209E+02 0.  0.
         12    1    3    3    0    0 -0.82574575696E+01  0.19998449617E+02  0.34424443257E+02  0.40659142713E+02  0.00000000000E+00 0. -1.
         11    1    4    4    0    0 -0.30642265601E+01 -0.93001517162E+01 -0.10374903929E+02  0.14266076481E+02  0.51100000000E-03 0. -1.
        -11    1    4    4    0    0 -0.54016203346E+01 -0.56899127251E+01 -0.14188166713E+02  0.16212855516E+02  0.51100000000E-03 0.  1.
         12    1    4    4    0    0  0.16723304464E+02 -0.50083851756E+01 -0.98613726147E+01  0.20049925290E+02  0.00000000000E+00 0. -1.
</event>
<event>
 8    1  0.9870402E-014  0.9118800E+02  0.7816164E-02  0.1184000E+00
        -11   -1    0    0    0    0  0.00000000000E+00  0.00000000000E+00  0.45593999997E+02  0.45594000000E+02  0.51100000000E-03 0. -1.
         11   -1    0    0    0    0 -0.00000000000E+00 -0.00000000000E+00 -0.45593999997E+02  0.45594000000E+02  0.51100000000E-03 0.  1.
         23    2    1    2    0    0  0.00000000000E+00  0.53290705182E-14  0.71054273576E-14  0.91188000000E+02  0.91188000000E+02 0.  0.
    9900012    2    3    3    0    0  0.21304689982E+02  0.10538360524E+02  0.32988163770E+02  0.50528858264E+02  0.29999995180E+02 0.  0.
        -12    1    3    3    0    0 -0.21304689982E+02 -0.10538360524E+02 -0.32988163770E+02  0.40659141736E+02  0.00000000000E+00 0.  1.
         11    1    4    4    0    0  0.19435498119E+02  0.15474573541E+02  0.29436706013E+02  0.38519094934E+02  0.51100000000E-03 0. -1.
        -11    1    4    4    0    0  0.25967365040E+01  0.44701730548E+00 -0.26695148880E+01  0.37508898866E+01  0.51100000000E-03 0.  1.
        -12    1    4    4    0    0 -0.72754464098E+00 -0.53832303218E+01  0.62209726451E+01  0.82588734434E+01  0.00000000000E+00 0.  1.
</event>
<event>
 8    1  0.9870402E-014  0.9118800E+02  0.7816164E-02  0.1184000E+00
        -11   -1    0    0    0    0  0.00000000000E+00  0.00000000000E+00  0.45593999997E+02  0.45594000000E+02  0.51100000000E-03 0. -1.
         11   -1    0    0    0    0 -0.00000000000E+00 -0.00000000000E+00 -0.45593999997E+02  0.45594000000E+02  0.51100000000E-03 0.  1.
         23    2    1    2    0    0  0.00000000000E+00  0.00000000000E+00  0.71054273576E-14  0.91188000000E+02  0.91188000000E+02 0.  0.
    9900012    2    3    3    0    0  0.39771002284E+01  0.18492467433E+02 -0.35991342013E+02  0.50528863538E+02  0.30000011209E+02 0.  0.
         12    1    3    3    0    0 -0.39771002284E+01 -0.18492467433E+02  0.35991342013E+02  0.40659136462E+02  0.00000000000E+00 0. -1.
         11    1    4    4    0    0  0.89452261230E+01 -0.67171132844E+00 -0.81053339215E+00  0.90069545986E+01  0.51100000000E-03 0. -1.
        -11    1    4    4    0    0 -0.39242075880E+00  0.35100588296E+01 -0.15809717265E+02  0.16199434166E+02  0.51100000000E-03 0.  1.
        -12    1    4    4    0    0 -0.45757051358E+01  0.15654119932E+02 -0.19371091356E+02  0.25322474773E+02  0.00000000000E+00 0.  1.
</event>
<event>
 8    1  0.9870402E-014  0.9118800E+02  0.7816164E-02  0.1184000E+00
        -11   -1    0    0    0    0  0.00000000000E+00  0.00000000000E+00  0.45593999997E+02  0.45594000000E+02  0.51100000000E-03 0. -1.
         11   -1    0    0    0    0 -0.00000000000E+00 -0.00000000000E+00 -0.45593999997E+02  0.45594000000E+02  0.51100000000E-03 0.  1.
         23    2    1    2    0    0  0.35527136788E-14  0.71054273576E-14  0.00000000000E+00  0.91188000000E+02  0.91188000000E+02 0.  0.
    9900012    2    3    3    0    0  0.13795173679E+02  0.16824202903E+02  0.34348274917E+02  0.50528872981E+02  0.30000039914E+02 0.  0.
        -12    1    3    3    0    0 -0.13795173679E+02 -0.16824202903E+02 -0.34348274917E+02  0.40659127019E+02  0.00000000000E+00 0.  1.
         11    1    4    4    0    0  0.73380682090E+01  0.21095849621E+02  0.25321524458E+02  0.33764799976E+02  0.51100000000E-03 0. -1.
        -11    1    4    4    0    0  0.75349279390E+01  0.29483050930E+00  0.11955472671E+01  0.76348803268E+01  0.51100000000E-03 0.  1.
        -12    1    4    4    0    0 -0.10778224692E+01 -0.45664772271E+01  0.78312031918E+01  0.91291926791E+01  0.00000000000E+00 0.  1.
</event>
<event>
 8    1  0.9870402E-014  0.9118800E+02  0.7816164E-02  0.1184000E+00
        -11   -1    0    0    0    0  0.00000000000E+00  0.00000000000E+00  0.45593999997E+02  0.45594000000E+02  0.51100000000E-03 0. -1.
         11   -1    0    0    0    0 -0.00000000000E+00 -0.00000000000E+00 -0.45593999997E+02  0.45594000000E+02  0.51100000000E-03 0.  1.
         23    2    1    2    0    0 -0.71054273576E-14  0.00000000000E+00  0.26645352591E-14  0.91188000000E+02  0.91188000000E+02 0.  0.
    9900012    2    3    3    0    0 -0.35896098709E+02 -0.19071691450E+02 -0.95183600693E+00  0.50528864383E+02  0.30000013780E+02 0.  0.
         12    1    3    3    0    0  0.35896098709E+02  0.19071691450E+02  0.95183600693E+00  0.40659135617E+02  0.00000000000E+00 0. -1.
         11    1    4    4    0    0 -0.73826709621E+01 -0.26016714442E+01  0.10114075590E+01  0.78927479594E+01  0.51100000000E-03 0. -1.
        -11    1    4    4    0    0 -0.68079182220E+01 -0.39621564998E+01 -0.13048423068E+02  0.15241646219E+02  0.51100000000E-03 0.  1.
        -12    1    4    4    0    0 -0.21705509525E+02 -0.12507863506E+02  0.11085179502E+02  0.27394470205E+02  0.00000000000E+00 0.  1.
</event>
<event>
 8    1  0.9870402E-014  0.9118800E+02  0.7816164E-02  0.1184000E+00
        -11   -1    0    0    0    0  0.00000000000E+00  0.00000000000E+00  0.45593999997E+02  0.45594000000E+02  0.51100000000E-03 0. -1.
         11   -1    0    0    0    0 -0.00000000000E+00 -0.00000000000E+00 -0.45593999997E+02  0.45594000000E+02  0.51100000000E-03 0.  1.
         23    2    1    2    0    0 -0.18873791419E-14 -0.88817841970E-15  0.00000000000E+00  0.91188000000E+02  0.91188000000E+02 0.  0.
    9900012    2    3    3    0    0 -0.22887032211E+00 -0.43381374951E+01 -0.40426451032E+02  0.50528809629E+02  0.29999847349E+02 0.  0.
         12    1    3    3    0    0  0.22887032211E+00  0.43381374951E+01  0.40426451032E+02  0.40659190371E+02  0.00000000000E+00 0. -1.
         11    1    4    4    0    0 -0.88539967373E+01  0.29740257437E+01 -0.18327999436E+02  0.20570698844E+02  0.51100000000E-03 0. -1.
        -11    1    4    4    0    0 -0.15281759980E+01  0.17287943326E+01  0.14798127018E+01  0.27411489597E+01  0.51100000000E-03 0.  1.
        -12    1    4    4    0    0  0.10153302413E+02 -0.90409575714E+01 -0.23578264298E+02  0.27216961826E+02  0.00000000000E+00 0.  1.
</event>
<event>
 8    1  0.9870402E-014  0.9118800E+02  0.7816164E-02  0.1184000E+00
        -11   -1    0    0    0    0  0.00000000000E+00  0.00000000000E+00  0.45593999997E+02  0.45594000000E+02  0.51100000000E-03 0. -1.
         11   -1    0    0    0    0 -0.00000000000E+00 -0.00000000000E+00 -0.45593999997E+02  0.45594000000E+02  0.51100000000E-03 0.  1.
         23    2    1    2    0    0  0.35527136788E-14  0.00000000000E+00  0.00000000000E+00  0.91188000000E+02  0.91188000000E+02 0.  0.
    9900012    2    3    3    0    0  0.25521047797E+02 -0.20114691599E+02 -0.24438524040E+02  0.50528853968E+02  0.29999982121E+02 0.  0.
         12    1    3    3    0    0 -0.25521047797E+02  0.20114691599E+02  0.24438524040E+02  0.40659146032E+02  0.00000000000E+00 0. -1.
         11    1    4    4    0    0  0.31883564429E+01 -0.18040565047E+02 -0.58771508257E+01  0.19239763671E+02  0.51100000000E-03 0. -1.
        -11    1    4    4    0    0  0.13792714102E+01 -0.10609760694E+01 -0.72500482965E+01  0.74559546945E+01  0.51100000000E-03 0.  1.
         12    1    4    4    0    0  0.20953419944E+02 -0.10131504823E+01 -0.11311324918E+02  0.23833135603E+02  0.00000000000E+00 0. -1.
</event>
<event>
 8    1  0.9870402E-014  0.9118800E+02  0.7816164E-02  0.1184000E+00
        -11   -1    0    0    0    0  0.00000000000E+00  0.00000000000E+00  0.45593999997E+02  0.45594000000E+02  0.51100000000E-03 0. -1.
         11   -1    0    0    0    0 -0.00000000000E+00 -0.00000000000E+00 -0.45593999997E+02  0.45594000000E+02  0.51100000000E-03 0.  1.
         23    2    1    2    0    0 -0.35527136788E-14  0.00000000000E+00 -0.17763568394E-14  0.91188000000E+02  0.91188000000E+02 0.  0.
    9900012    2    3    3    0    0  0.16334130678E+02  0.34202136364E+02  0.14716506461E+02  0.50528861799E+02  0.30000005924E+02 0.  0.
        -12    1    3    3    0    0 -0.16334130678E+02 -0.34202136364E+02 -0.14716506461E+02  0.40659138201E+02  0.00000000000E+00 0.  1.
         11    1    4    4    0    0  0.10332716735E+02  0.21549121707E+02  0.18768886259E+01  0.23971908406E+02  0.51100000000E-03 0. -1.
        -11    1    4    4    0    0  0.87697405733E+01  0.15154404388E+02  0.14243225014E+02  0.22570639803E+02  0.51100000000E-03 0.  1.
        -12    1    4    4    0    0 -0.27683266304E+01 -0.25013897312E+01 -0.14036071791E+01  0.39863135894E+01  0.00000000000E+00 0.  1.
</event>
<event>
 8    1  0.9870402E-014  0.9118800E+02  0.7816164E-02  0.1184000E+00
        -11   -1    0    0    0    0  0.00000000000E+00  0.00000000000E+00  0.45593999997E+02  0.45594000000E+02  0.51100000000E-03 0.  1.
         11   -1    0    0    0    0 -0.00000000000E+00 -0.00000000000E+00 -0.45593999997E+02  0.45594000000E+02  0.51100000000E-03 0. -1.
         23    2    1    2    0    0  0.00000000000E+00 -0.35527136788E-14 -0.13322676296E-14  0.91188000000E+02  0.91188000000E+02 0.  0.
    9900012    2    3    3    0    0  0.34620200010E+02 -0.21167454518E+02 -0.25584431165E+01  0.50528868053E+02  0.30000024935E+02 0.  0.
         12    1    3    3    0    0 -0.34620200010E+02  0.21167454518E+02  0.25584431165E+01  0.40659131947E+02  0.00000000000E+00 0. -1.
         11    1    4    4    0    0  0.10268302983E+02 -0.13181163871E+02  0.13111981348E+01  0.16760082576E+02  0.51100000000E-03 0. -1.
        -11    1    4    4    0    0  0.13894375719E+02 -0.10761324611E+02 -0.11071957536E+02  0.20771327063E+02  0.51100000000E-03 0.  1.
         12    1    4    4    0    0  0.10457521307E+02  0.27750339629E+01  0.72023162844E+01  0.12997458415E+02  0.00000000000E+00 0. -1.
</event>
<event>
 8    1  0.9870402E-014  0.9118800E+02  0.7816164E-02  0.1184000E+00
        -11   -1    0    0    0    0  0.00000000000E+00  0.00000000000E+00  0.45593999997E+02  0.45594000000E+02  0.51100000000E-03 0. -1.
         11   -1    0    0    0    0 -0.00000000000E+00 -0.00000000000E+00 -0.45593999997E+02  0.45594000000E+02  0.51100000000E-03 0.  1.
         23    2    1    2    0    0  0.00000000000E+00  0.71054273576E-14  0.00000000000E+00  0.91188000000E+02  0.91188000000E+02 0.  0.
    9900012    2    3    3    0    0 -0.12415014966E+02 -0.37815189683E+02  0.83092227261E+01  0.50528876182E+02  0.30000049643E+02 0.  0.
        -12    1    3    3    0    0  0.12415014966E+02  0.37815189683E+02 -0.83092227261E+01  0.40659123818E+02  0.00000000000E+00 0.  1.
         11    1    4    4    0    0  0.31134143214E+01 -0.15925972207E+02 -0.21431235359E+01  0.16368351115E+02  0.51100000000E-03 0. -1.
        -11    1    4    4    0    0 -0.91869189994E+01 -0.16094151147E+02 -0.24157700828E+01  0.18688422277E+02  0.51100000000E-03 0.  1.
         12    1    4    4    0    0 -0.63415102879E+01 -0.57950663290E+01  0.12868116345E+02  0.15472102790E+02  0.00000000000E+00 0. -1.
</event>
<event>
 8    1  0.9870402E-014  0.9118800E+02  0.7816164E-02  0.1184000E+00
        -11   -1    0    0    0    0  0.00000000000E+00  0.00000000000E+00  0.45593999997E+02  0.45594000000E+02  0.51100000000E-03 0.  1.
         11   -1    0    0    0    0 -0.00000000000E+00 -0.00000000000E+00 -0.45593999997E+02  0.45594000000E+02  0.51100000000E-03 0. -1.
         23    2    1    2    0    0  0.00000000000E+00  0.00000000000E+00  0.00000000000E+00  0.91188000000E+02  0.91188000000E+02 0.  0.
    9900012    2    3    3    0    0  0.22627992660E+02 -0.32331556443E+02  0.97882625446E+01  0.50528859853E+02  0.30000000009E+02 0.  0.
        -12    1    3    3    0    0 -0.22627992660E+02  0.32331556443E+02 -0.97882625446E+01  0.40659140147E+02  0.00000000000E+00 0.  1.
         11    1    4    4    0    0  0.16061044458E+02 -0.26008014737E+01  0.72625372645E+01  0.17817569002E+02  0.51100000000E-03 0. -1.
        -11    1    4    4    0    0  0.16644983522E+01 -0.95709028217E+00  0.29500930439E+01  0.35198900269E+01  0.51100000000E-03 0.  1.
         12    1    4    4    0    0  0.49024498502E+01 -0.28773664687E+02 -0.42436776378E+00  0.29191400824E+02  0.00000000000E+00 0. -1.
</event>
<event>
 8    1  0.9870402E-014  0.9118800E+02  0.7816164E-02  0.1184000E+00
        -11   -1    0    0    0    0  0.00000000000E+00  0.00000000000E+00  0.45593999997E+02  0.45594000000E+02  0.51100000000E-03 0. -1.
         11   -1    0    0    0    0 -0.00000000000E+00 -0.00000000000E+00 -0.45593999997E+02  0.45594000000E+02  0.51100000000E-03 0.  1.
         23    2    1    2    0    0  0.00000000000E+00  0.00000000000E+00  0.00000000000E+00  0.91188000000E+02  0.91188000000E+02 0.  0.
    9900012    2    3    3    0    0 -0.19290028628E+02  0.68434559346E+01  0.35131557017E+02  0.50528875661E+02  0.30000048058E+02 0.  0.
        -12    1    3    3    0    0  0.19290028628E+02 -0.68434559346E+01 -0.35131557017E+02  0.40659124339E+02  0.00000000000E+00 0.  1.
         11    1    4    4    0    0 -0.13105904086E+02 -0.58019645167E+01  0.68037152875E+01  0.15865624984E+02  0.51100000000E-03 0. -1.
        -11    1    4    4    0    0  0.32484380243E+01  0.25232108197E+01  0.13238254863E+01  0.43210480925E+01  0.51100000000E-03 0.  1.
         12    1    4    4    0    0 -0.94325625662E+01  0.10122209632E+02  0.27004016243E+02  0.30342202584E+02  0.00000000000E+00 0. -1.
</event>
<event>
 8    1  0.9870402E-014  0.9118800E+02  0.7816164E-02  0.1184000E+00
        -11   -1    0    0    0    0  0.00000000000E+00  0.00000000000E+00  0.45593999997E+02  0.45594000000E+02  0.51100000000E-03 0. -1.
         11   -1    0    0    0    0 -0.00000000000E+00 -0.00000000000E+00 -0.45593999997E+02  0.45594000000E+02  0.51100000000E-03 0.  1.
         23    2    1    2    0    0  0.35527136788E-14  0.00000000000E+00  0.17763568394E-14  0.91188000000E+02  0.91188000000E+02 0.  0.
    9900012    2    3    3    0    0 -0.31321994177E+02 -0.21088555556E+02  0.15078791139E+02  0.50528875110E+02  0.30000046383E+02 0.  0.
        -12    1    3    3    0    0  0.31321994177E+02  0.21088555556E+02 -0.15078791139E+02  0.40659124890E+02  0.00000000000E+00 0.  1.
         11    1    4    4    0    0 -0.32106884518E+02 -0.15360629433E+02  0.84074793408E+01  0.36571664977E+02  0.51100000000E-03 0. -1.
        -11    1    4    4    0    0 -0.19019380049E+01 -0.27643358421E+01 -0.23447983316E+01  0.40935315193E+01  0.51100000000E-03 0.  1.
        -12    1    4    4    0    0  0.26868283464E+01 -0.29635902810E+01  0.90161101302E+01  0.98636786138E+01  0.00000000000E+00 0.  1.
</event>
<event>
 8    1  0.1127636E-013  0.9118800E+02  0.7816164E-02  0.1184000E+00
        -11   -1    0    0    0    0  0.00000000000E+00  0.00000000000E+00  0.45593999997E+02  0.45594000000E+02  0.51100000000E-03 0. -1.
         11   -1    0    0    0    0 -0.00000000000E+00 -0.00000000000E+00 -0.45593999997E+02  0.45594000000E+02  0.51100000000E-03 0.  1.
         23    2    1    2    0    0  0.00000000000E+00  0.66613381478E-15  0.71054273576E-14  0.91188000000E+02  0.91188000000E+02 0.  0.
    9900012    2    3    3    0    0  0.18467759350E+02  0.16096006332E+01 -0.36187238941E+02  0.50528865580E+02  0.30000017417E+02 0.  0.
         12    1    3    3    0    0 -0.18467759350E+02 -0.16096006332E+01  0.36187238941E+02  0.40659134420E+02  0.00000000000E+00 0. -1.
         11    1    4    4    0    0  0.11116931999E+01  0.81033460037E+01 -0.10111660708E+02  0.13005604974E+02  0.51100000000E-03 0. -1.
        -11    1    4    4    0    0  0.19386841813E+01 -0.27288233442E+01 -0.20393392929E+02  0.20666287732E+02  0.51100000000E-03 0.  1.
         12    1    4    4    0    0  0.15417381969E+02 -0.37649220263E+01 -0.56821853045E+01  0.16856972874E+02  0.00000000000E+00 0. -1.
</event>
<event>
 8    1  0.9870402E-014  0.9118800E+02  0.7816164E-02  0.1184000E+00
        -11   -1    0    0    0    0  0.00000000000E+00  0.00000000000E+00  0.45593999997E+02  0.45594000000E+02  0.51100000000E-03 0. -1.
         11   -1    0    0    0    0 -0.00000000000E+00 -0.00000000000E+00 -0.45593999997E+02  0.45594000000E+02  0.51100000000E-03 0.  1.
         23    2    1    2    0    0  0.35527136788E-14  0.17763568394E-14  0.00000000000E+00  0.91188000000E+02  0.91188000000E+02 0.  0.
    9900012    2    3    3    0    0 -0.17984216485E+02  0.11421540787E+02 -0.34630651583E+02  0.50528859999E+02  0.30000000454E+02 0.  0.
         12    1    3    3    0    0  0.17984216485E+02 -0.11421540787E+02  0.34630651583E+02  0.40659140001E+02  0.00000000000E+00 0. -1.
         11    1    4    4    0    0 -0.73879423647E+01 -0.16797832215E+00 -0.16705890577E+01  0.75763300590E+01  0.51100000000E-03 0. -1.
        -11    1    4    4    0    0 -0.11672113899E+02  0.17127444166E+02 -0.19931616572E+02  0.28755119996E+02  0.51100000000E-03 0.  1.
         12    1    4    4    0    0  0.10758397784E+01 -0.55379250573E+01 -0.13028445954E+02  0.14197409945E+02  0.00000000000E+00 0. -1.
</event>
<event>
 8    1  0.9870402E-014  0.9118800E+02  0.7816164E-02  0.1184000E+00
        -11   -1    0    0    0    0  0.00000000000E+00  0.00000000000E+00  0.45593999997E+02  0.45594000000E+02  0.51100000000E-03 0. -1.
         11   -1    0    0    0    0 -0.00000000000E+00 -0.00000000000E+00 -0.45593999997E+02  0.45594000000E+02  0.51100000000E-03 0.  1.
         23    2    1    2    0    0  0.88817841970E-15  0.35527136788E-14  0.00000000000E+00  0.91188000000E+02  0.91188000000E+02 0.  0.
    9900012    2    3    3    0    0 -0.52040635111E+01 -0.21245294327E+02  0.34274182771E+02  0.50528875406E+02  0.30000047285E+02 0.  0.
        -12    1    3    3    0    0  0.52040635111E+01  0.21245294327E+02 -0.34274182771E+02  0.40659124594E+02  0.00000000000E+00 0.  1.
         11    1    4    4    0    0 -0.81045247629E+01 -0.57757002029E+01  0.49788697208E+01  0.11127945831E+02  0.51100000000E-03 0. -1.
        -11    1    4    4    0    0  0.44546463692E+01 -0.16809589747E+02  0.10128202980E+02  0.20124280797E+02  0.51100000000E-03 0.  1.
         12    1    4    4    0    0 -0.15541851174E+01  0.13399956225E+01  0.19167110071E+02  0.19276648778E+02  0.00000000000E+00 0. -1.
</event>
<event>
 8    1  0.9870402E-014  0.9118800E+02  0.7816164E-02  0.1184000E+00
        -11   -1    0    0    0    0  0.00000000000E+00  0.00000000000E+00  0.45593999997E+02  0.45594000000E+02  0.51100000000E-03 0. -1.
         11   -1    0    0    0    0 -0.00000000000E+00 -0.00000000000E+00 -0.45593999997E+02  0.45594000000E+02  0.51100000000E-03 0.  1.
         23    2    1    2    0    0  0.17763568394E-14 -0.35527136788E-14  0.00000000000E+00  0.91188000000E+02  0.91188000000E+02 0.  0.
    9900012    2    3    3    0    0 -0.61515977728E+01 -0.25524414239E+02  0.31045578631E+02  0.50528857978E+02  0.29999994310E+02 0.  0.
        -12    1    3    3    0    0  0.61515977728E+01  0.25524414239E+02 -0.31045578631E+02  0.40659142022E+02  0.00000000000E+00 0.  1.
         11    1    4    4    0    0 -0.59896292690E+01 -0.14644978413E+01  0.56030671586E+01  0.83315529496E+01  0.51100000000E-03 0. -1.
        -11    1    4    4    0    0 -0.10253867808E+02 -0.36727405751E+01  0.74931688180E+01  0.13220378495E+02  0.51100000000E-03 0.  1.
         12    1    4    4    0    0  0.10091899304E+02 -0.20387175823E+02  0.17949342655E+02  0.28976926533E+02  0.00000000000E+00 0. -1.
</event>
<event>
 8    1  0.9870402E-014  0.9118800E+02  0.7816164E-02  0.1184000E+00
        -11   -1    0    0    0    0  0.00000000000E+00  0.00000000000E+00  0.45593999997E+02  0.45594000000E+02  0.51100000000E-03 0. -1.
         11   -1    0    0    0    0 -0.00000000000E+00 -0.00000000000E+00 -0.45593999997E+02  0.45594000000E+02  0.51100000000E-03 0.  1.
         23    2    1    2    0    0  0.33306690739E-15  0.00000000000E+00  0.00000000000E+00  0.91188000000E+02  0.91188000000E+02 0.  0.
    9900012    2    3    3    0    0 -0.66716226315E+00 -0.38388955179E+02  0.13379421412E+02  0.50528857086E+02  0.29999991598E+02 0.  0.
        -12    1    3    3    0    0  0.66716226315E+00  0.38388955179E+02 -0.13379421412E+02  0.40659142914E+02  0.00000000000E+00 0.  1.
         11    1    4    4    0    0  0.11552626949E+02 -0.18620419719E+02  0.78968881998E+01  0.23292575286E+02  0.51100000000E-03 0. -1.
        -11    1    4    4    0    0 -0.14533785991E+01 -0.57296607676E+01 -0.40251274131E+01  0.71514315222E+01  0.51100000000E-03 0.  1.
        -12    1    4    4    0    0 -0.10766410613E+02 -0.14038874692E+02  0.95076606255E+01  0.20084850278E+02  0.00000000000E+00 0.  1.
</event>
<event>
 8    1  0.9870402E-014  0.9118800E+02  0.7816164E-02  0.1184000E+00
        -11   -1    0    0    0    0  0.00000000000E+00  0.00000000000E+00  0.45593999997E+02  0.45594000000E+02  0.51100000000E-03 0. -1.
         11   -1    0    0    0    0 -0.00000000000E+00 -0.00000000000E+00 -0.45593999997E+02  0.45594000000E+02  0.51100000000E-03 0.  1.
         23    2    1    2    0    0 -0.35527136788E-14 -0.35527136788E-14  0.44408920985E-15  0.91188000000E+02  0.91188000000E+02 0.  0.
    9900012    2    3    3    0    0 -0.26657656925E+02 -0.30551688579E+02 -0.30214003416E+01  0.50528865629E+02  0.30000017565E+02 0.  0.
         12    1    3    3    0    0  0.26657656925E+02  0.30551688579E+02  0.30214003416E+01  0.40659134371E+02  0.00000000000E+00 0. -1.
         11    1    4    4    0    0  0.18424482148E+01 -0.19895275283E+01 -0.14941367850E+01  0.30960103688E+01  0.51100000000E-03 0. -1.
        -11    1    4    4    0    0 -0.22891204718E+02 -0.28781627680E+02 -0.92170505068E+01  0.37912311532E+02  0.51100000000E-03 0.  1.
         12    1    4    4    0    0 -0.56089004221E+01  0.21946662927E+00  0.76897869502E+01  0.95205437285E+01  0.00000000000E+00 0. -1.
</event>
<event>
 8    1  0.9870402E-014  0.9118800E+02  0.7816164E-02  0.1184000E+00
        -11   -1    0    0    0    0  0.00000000000E+00  0.00000000000E+00  0.45593999997E+02  0.45594000000E+02  0.51100000000E-03 0. -1.
         11   -1    0    0    0    0 -0.00000000000E+00 -0.00000000000E+00 -0.45593999997E+02  0.45594000000E+02  0.51100000000E-03 0.  1.
         23    2    1    2    0    0  0.00000000000E+00  0.00000000000E+00  0.71054273576E-14  0.91188000000E+02  0.91188000000E+02 0.  0.
    9900012    2    3    3    0    0  0.15436256912E+02  0.16017468639E+02 -0.34034210114E+02  0.50528870802E+02  0.30000033291E+02 0.  0.
         12    1    3    3    0    0 -0.15436256912E+02 -0.16017468639E+02  0.34034210114E+02  0.40659129198E+02  0.00000000000E+00 0. -1.
         11    1    4    4    0    0  0.83076874995E+01  0.15152809389E+02 -0.21859871932E+02  0.27865378251E+02  0.51100000000E-03 0. -1.
        -11    1    4    4    0    0  0.55214123732E+00  0.70918083441E-01 -0.15320184771E+02  0.15330295203E+02  0.51100000000E-03 0.  1.
         12    1    4    4    0    0  0.65764281752E+01  0.79374116682E+00  0.31458465893E+01  0.73331973481E+01  0.00000000000E+00 0. -1.
</event>
<event>
 8    1  0.9870402E-014  0.9118800E+02  0.7816164E-02  0.1184000E+00
        -11   -1    0    0    0    0  0.00000000000E+00  0.00000000000E+00  0.45593999997E+02  0.45594000000E+02  0.51100000000E-03 0.  1.
         11   -1    0    0    0    0 -0.00000000000E+00 -0.00000000000E+00 -0.45593999997E+02  0.45594000000E+02  0.51100000000E-03 0. -1.
         23    2    1    2    0    0  0.00000000000E+00  0.00000000000E+00  0.00000000000E+00  0.91188000000E+02  0.91188000000E+02 0.  0.
    9900012    2    3    3    0    0  0.27750514971E+02 -0.19765442726E+02 -0.22190126175E+02  0.50528861950E+02  0.30000006382E+02 0.  0.
         12    1    3    3    0    0 -0.27750514971E+02  0.19765442726E+02  0.22190126175E+02  0.40659138050E+02  0.00000000000E+00 0. -1.
         11    1    4    4    0    0  0.11523226886E+01 -0.15707931148E+01 -0.12472813815E+02  0.12624037521E+02  0.51100000000E-03 0. -1.
        -11    1    4    4    0    0 -0.16454358845E+00 -0.62992693322E+01  0.16092027905E+01  0.65036453312E+01  0.51100000000E-03 0.  1.
        -12    1    4    4    0    0  0.26762735871E+02 -0.11895380279E+02 -0.11326515150E+02  0.31401179098E+02  0.00000000000E+00 0.  1.
</event>
<event>
 8    1  0.9870402E-014  0.9118800E+02  0.7816164E-02  0.1184000E+00
        -11   -1    0    0    0    0  0.00000000000E+00  0.00000000000E+00  0.45593999997E+02  0.45594000000E+02  0.51100000000E-03 0. -1.
         11   -1    0    0    0    0 -0.00000000000E+00 -0.00000000000E+00 -0.45593999997E+02  0.45594000000E+02  0.51100000000E-03 0.  1.
         23    2    1    2    0    0  0.00000000000E+00  0.00000000000E+00  0.00000000000E+00  0.91188000000E+02  0.91188000000E+02 0.  0.
    9900012    2    3    3    0    0  0.21064166770E+02  0.76747598321E+01  0.33919974084E+02  0.50528859551E+02  0.29999999092E+02 0.  0.
        -12    1    3    3    0    0 -0.21064166770E+02 -0.76747598321E+01 -0.33919974084E+02  0.40659140449E+02  0.00000000000E+00 0.  1.
         11    1    4    4    0    0  0.18499961646E+02 -0.19791879810E+01  0.26118662714E+02  0.32067901525E+02  0.51100000000E-03 0. -1.
        -11    1    4    4    0    0  0.63344311381E+00 -0.25798141639E+01 -0.14272658737E+01  0.30155894007E+01  0.51100000000E-03 0.  1.
        -12    1    4    4    0    0  0.19307620106E+01  0.12233761977E+02  0.92285772430E+01  0.15445368626E+02  0.00000000000E+00 0.  1.
</event>
<event>
 8    1  0.9870402E-014  0.9118800E+02  0.7816164E-02  0.1184000E+00
        -11   -1    0    0    0    0  0.00000000000E+00  0.00000000000E+00  0.45593999997E+02  0.45594000000E+02  0.51100000000E-03 0.  1.
         11   -1    0    0    0    0 -0.00000000000E+00 -0.00000000000E+00 -0.45593999997E+02  0.45594000000E+02  0.51100000000E-03 0. -1.
         23    2    1    2    0    0  0.35527136788E-14  0.00000000000E+00  0.35527136788E-14  0.91188000000E+02  0.91188000000E+02 0.  0.
    9900012    2    3    3    0    0  0.30102063982E+02  0.14692426864E+02  0.23047005159E+02  0.50528854535E+02  0.29999983845E+02 0.  0.
        -12    1    3    3    0    0 -0.30102063982E+02 -0.14692426864E+02 -0.23047005159E+02  0.40659145465E+02  0.00000000000E+00 0.  1.
         11    1    4    4    0    0  0.20038045774E+02  0.11191587178E+02  0.40138836849E+01  0.23299917693E+02  0.51100000000E-03 0. -1.
        -11    1    4    4    0    0  0.15347449149E+01 -0.39485325080E+01 -0.87462800522E+00  0.43256589473E+01  0.51100000000E-03 0.  1.
        -12    1    4    4    0    0  0.85292732930E+01  0.74493721942E+01  0.19907749479E+02  0.22903277895E+02  0.00000000000E+00 0.  1.
</event>
<event>
 8    1  0.9870402E-014  0.9118800E+02  0.7816164E-02  0.1184000E+00
        -11   -1    0    0    0    0  0.00000000000E+00  0.00000000000E+00  0.45593999997E+02  0.45594000000E+02  0.51100000000E-03 0. -1.
         11   -1    0    0    0    0 -0.00000000000E+00 -0.00000000000E+00 -0.45593999997E+02  0.45594000000E+02  0.51100000000E-03 0.  1.
         23    2    1    2    0    0  0.00000000000E+00  0.35527136788E-14 -0.35527136788E-14  0.91188000000E+02  0.91188000000E+02 0.  0.
    9900012    2    3    3    0    0 -0.16455209308E+02 -0.23227491330E+02  0.29032318438E+02  0.50528858583E+02  0.29999996149E+02 0.  0.
        -12    1    3    3    0    0  0.16455209308E+02  0.23227491330E+02 -0.29032318438E+02  0.40659141417E+02  0.00000000000E+00 0.  1.
         11    1    4    4    0    0  0.41067824909E+01 -0.13418906571E+02  0.14388242755E+02  0.20098613032E+02  0.51100000000E-03 0.  1.
        -11    1    4    4    0    0 -0.57055241839E+01 -0.10287867180E+02  0.73659161667E+01  0.13879839284E+02  0.51100000000E-03 0. -1.
        -12    1    4    4    0    0 -0.14856467615E+02  0.47928242060E+00  0.72781595164E+01  0.16550406266E+02  0.00000000000E+00 0.  1.
</event>
<event>
 8    1  0.9870402E-014  0.9118800E+02  0.7816164E-02  0.1184000E+00
        -11   -1    0    0    0    0  0.00000000000E+00  0.00000000000E+00  0.45593999997E+02  0.45594000000E+02  0.51100000000E-03 0. -1.
         11   -1    0    0    0    0 -0.00000000000E+00 -0.00000000000E+00 -0.45593999997E+02  0.45594000000E+02  0.51100000000E-03 0.  1.
         23    2    1    2    0    0 -0.35527136788E-14  0.35527136788E-14 -0.35527136788E-14  0.91188000000E+02  0.91188000000E+02 0.  0.
    9900012    2    3    3    0    0  0.20815081078E+02 -0.17455681041E+02  0.30252219413E+02  0.50528865967E+02  0.30000018594E+02 0.  0.
        -12    1    3    3    0    0 -0.20815081078E+02  0.17455681041E+02 -0.30252219413E+02  0.40659134033E+02  0.00000000000E+00 0.  1.
         11    1    4    4    0    0 -0.36160065345E+01 -0.41967086915E+01  0.90687159712E+01  0.10626828159E+02  0.51100000000E-03 0. -1.
        -11    1    4    4    0    0  0.15320217737E+02  0.25075420590E+01  0.83771915220E+01  0.17640129726E+02  0.51100000000E-03 0.  1.
         12    1    4    4    0    0  0.91108698752E+01 -0.15766514408E+02  0.12806311920E+02  0.22261908082E+02  0.00000000000E+00 0. -1.
</event>
<event>
 8    1  0.9870402E-014  0.9118800E+02  0.7816164E-02  0.1184000E+00
        -11   -1    0    0    0    0  0.00000000000E+00  0.00000000000E+00  0.45593999997E+02  0.45594000000E+02  0.51100000000E-03 0. -1.
         11   -1    0    0    0    0 -0.00000000000E+00 -0.00000000000E+00 -0.45593999997E+02  0.45594000000E+02  0.51100000000E-03 0.  1.
         23    2    1    2    0    0  0.00000000000E+00  0.00000000000E+00  0.00000000000E+00  0.91188000000E+02  0.91188000000E+02 0.  0.
    9900012    2    3    3    0    0  0.15552103249E+02 -0.14080749574E+02 -0.34828586781E+02  0.50528857348E+02  0.29999992395E+02 0.  0.
         12    1    3    3    0    0 -0.15552103249E+02  0.14080749574E+02  0.34828586781E+02  0.40659142652E+02  0.00000000000E+00 0. -1.
         11    1    4    4    0    0  0.10233451293E+02  0.53791984391E+01 -0.77547125467E+01  0.13921022525E+02  0.51100000000E-03 0. -1.
        -11    1    4    4    0    0  0.63975801571E+01 -0.80983165031E+01 -0.43911825595E+01  0.11215803430E+02  0.51100000000E-03 0.  1.
        -12    1    4    4    0    0 -0.10789282010E+01 -0.11361631510E+02 -0.22682691675E+02  0.25392031393E+02  0.00000000000E+00 0.  1.
</event>
<event>
 8    1  0.9870402E-014  0.9118800E+02  0.7816164E-02  0.1184000E+00
        -11   -1    0    0    0    0  0.00000000000E+00  0.00000000000E+00  0.45593999997E+02  0.45594000000E+02  0.51100000000E-03 0. -1.
         11   -1    0    0    0    0 -0.00000000000E+00 -0.00000000000E+00 -0.45593999997E+02  0.45594000000E+02  0.51100000000E-03 0.  1.
         23    2    1    2    0    0  0.88817841970E-15  0.00000000000E+00  0.00000000000E+00  0.91188000000E+02  0.91188000000E+02 0.  0.
    9900012    2    3    3    0    0 -0.64818566755E+01  0.41848116901E+01  0.39920411714E+02  0.50528851137E+02  0.29999973517E+02 0.  0.
        -12    1    3    3    0    0  0.64818566755E+01 -0.41848116901E+01 -0.39920411714E+02  0.40659148863E+02  0.00000000000E+00 0.  1.
         11    1    4    4    0    0 -0.76740069519E+01 -0.84154952508E+01  0.12161865373E+02  0.16661990056E+02  0.51100000000E-03 0. -1.
        -11    1    4    4    0    0  0.46811019510E+00  0.69336448234E-01 -0.17430160839E+01  0.18061118536E+01  0.51100000000E-03 0.  1.
         12    1    4    4    0    0  0.72404008132E+00  0.12530970493E+02  0.29501562425E+02  0.32060749228E+02  0.00000000000E+00 0. -1.
</event>
<event>
 8    1  0.9870402E-014  0.9118800E+02  0.7816164E-02  0.1184000E+00
        -11   -1    0    0    0    0  0.00000000000E+00  0.00000000000E+00  0.45593999997E+02  0.45594000000E+02  0.51100000000E-03 0. -1.
         11   -1    0    0    0    0 -0.00000000000E+00 -0.00000000000E+00 -0.45593999997E+02  0.45594000000E+02  0.51100000000E-03 0.  1.
         23    2    1    2    0    0  0.00000000000E+00  0.00000000000E+00 -0.35527136788E-14  0.91188000000E+02  0.91188000000E+02 0.  0.
    9900012    2    3    3    0    0 -0.23122783861E+02 -0.23626659910E+02 -0.23670326403E+02  0.50528849198E+02  0.29999967621E+02 0.  0.
         12    1    3    3    0    0  0.23122783861E+02  0.23626659910E+02  0.23670326403E+02  0.40659150802E+02  0.00000000000E+00 0. -1.
         11    1    4    4    0    0 -0.15577559024E+01 -0.50349044695E+01 -0.10095290660E+02  0.11388229021E+02  0.51100000000E-03 0. -1.
        -11    1    4    4    0    0  0.25469310869E+01 -0.49890958118E+01 -0.96796599304E+01  0.11183637673E+02  0.51100000000E-03 0.  1.
        -12    1    4    4    0    0 -0.24111959045E+02 -0.13602659628E+02 -0.38953758127E+01  0.27956982503E+02  0.00000000000E+00 0.  1.
</event>
<event>
 8    1  0.9870402E-014  0.9118800E+02  0.7816164E-02  0.1184000E+00
        -11   -1    0    0    0    0  0.00000000000E+00  0.00000000000E+00  0.45593999997E+02  0.45594000000E+02  0.51100000000E-03 0. -1.
         11   -1    0    0    0    0 -0.00000000000E+00 -0.00000000000E+00 -0.45593999997E+02  0.45594000000E+02  0.51100000000E-03 0.  1.
         23    2    1    2    0    0  0.88817841970E-15 -0.17763568394E-14  0.00000000000E+00  0.91188000000E+02  0.91188000000E+02 0.  0.
    9900012    2    3    3    0    0  0.41266880878E+01  0.10023198720E+02 -0.39187647460E+02  0.50528858585E+02  0.29999996155E+02 0.  0.
         12    1    3    3    0    0 -0.41266880878E+01 -0.10023198720E+02  0.39187647460E+02  0.40659141415E+02  0.00000000000E+00 0. -1.
         11    1    4    4    0    0 -0.95386294650E+01  0.41828246237E+01 -0.10021009519E+02  0.14453446161E+02  0.51100000000E-03 0. -1.
        -11    1    4    4    0    0  0.32986599903E+01  0.79745384066E+01 -0.57278567487E+01  0.10357739315E+02  0.51100000000E-03 0.  1.
        -12    1    4    4    0    0  0.10366657563E+02 -0.21341643107E+01 -0.23438781192E+02  0.25717673108E+02  0.00000000000E+00 0.  1.
</event>
<event>
 8    1  0.9870402E-014  0.9118800E+02  0.7816164E-02  0.1184000E+00
        -11   -1    0    0    0    0  0.00000000000E+00  0.00000000000E+00  0.45593999997E+02  0.45594000000E+02  0.51100000000E-03 0. -1.
         11   -1    0    0    0    0 -0.00000000000E+00 -0.00000000000E+00 -0.45593999997E+02  0.45594000000E+02  0.51100000000E-03 0.  1.
         23    2    1    2    0    0  0.00000000000E+00  0.00000000000E+00 -0.17763568394E-14  0.91188000000E+02  0.91188000000E+02 0.  0.
    9900012    2    3    3    0    0 -0.37240331218E+02  0.59377246091E+01  0.15200833298E+02  0.50528878321E+02  0.30000056143E+02 0.  0.
        -12    1    3    3    0    0  0.37240331218E+02 -0.59377246091E+01 -0.15200833298E+02  0.40659121679E+02  0.00000000000E+00 0.  1.
         11    1    4    4    0    0 -0.13111304037E+02  0.76687693130E+01  0.10537477488E+02  0.18486609976E+02  0.51100000000E-03 0. -1.
        -11    1    4    4    0    0 -0.95419525403E+01 -0.72295585555E+01  0.99652860782E+01  0.15576337890E+02  0.51100000000E-03 0.  1.
        -12    1    4    4    0    0 -0.14587074641E+02  0.54985138516E+01 -0.53019302681E+01  0.16465930454E+02  0.00000000000E+00 0.  1.
</event>
<event>
 8    1  0.9870402E-014  0.9118800E+02  0.7816164E-02  0.1184000E+00
        -11   -1    0    0    0    0  0.00000000000E+00  0.00000000000E+00  0.45593999997E+02  0.45594000000E+02  0.51100000000E-03 0. -1.
         11   -1    0    0    0    0 -0.00000000000E+00 -0.00000000000E+00 -0.45593999997E+02  0.45594000000E+02  0.51100000000E-03 0.  1.
         23    2    1    2    0    0  0.00000000000E+00  0.00000000000E+00  0.00000000000E+00  0.91188000000E+02  0.91188000000E+02 0.  0.
    9900012    2    3    3    0    0 -0.11426115387E+02  0.36867436432E+02  0.12782873462E+02  0.50528857906E+02  0.29999994091E+02 0.  0.
        -12    1    3    3    0    0  0.11426115387E+02 -0.36867436432E+02 -0.12782873462E+02  0.40659142094E+02  0.00000000000E+00 0.  1.
         11    1    4    4    0    0 -0.19844347115E+01  0.59979675166E+01  0.23412817187E+01  0.67375956989E+01  0.51100000000E-03 0. -1.
        -11    1    4    4    0    0  0.16285134398E+01 -0.48506276990E+01  0.16421095374E+01  0.53737481418E+01  0.51100000000E-03 0.  1.
        -12    1    4    4    0    0 -0.11070194115E+02  0.35720096614E+02  0.87994822057E+01  0.38417514065E+02  0.00000000000E+00 0.  1.
</event>
<event>
 8    1  0.9870402E-014  0.9118800E+02  0.7816164E-02  0.1184000E+00
        -11   -1    0    0    0    0  0.00000000000E+00  0.00000000000E+00  0.45593999997E+02  0.45594000000E+02  0.51100000000E-03 0. -1.
         11   -1    0    0    0    0 -0.00000000000E+00 -0.00000000000E+00 -0.45593999997E+02  0.45594000000E+02  0.51100000000E-03 0.  1.
         23    2    1    2    0    0 -0.88817841970E-15  0.00000000000E+00  0.00000000000E+00  0.91188000000E+02  0.91188000000E+02 0.  0.
    9900012    2    3    3    0    0  0.74712383045E+01 -0.81867896897E+01  0.39119344086E+02  0.50528855777E+02  0.29999987620E+02 0.  0.
        -12    1    3    3    0    0 -0.74712383045E+01  0.81867896897E+01 -0.39119344086E+02  0.40659144223E+02  0.00000000000E+00 0.  1.
         11    1    4    4    0    0  0.77839363467E+01 -0.28913599270E+01  0.13130979149E+02  0.15536159144E+02  0.51100000000E-03 0. -1.
        -11    1    4    4    0    0 -0.33021313064E+01  0.83123508186E+01  0.65911041855E+01  0.11110441123E+02  0.51100000000E-03 0.  1.
         12    1    4    4    0    0  0.29894332642E+01 -0.13607780581E+02  0.19397260752E+02  0.23882255510E+02  0.00000000000E+00 0. -1.
</event>
<event>
 8    1  0.9870402E-014  0.9118800E+02  0.7816164E-02  0.1184000E+00
        -11   -1    0    0    0    0  0.00000000000E+00  0.00000000000E+00  0.45593999997E+02  0.45594000000E+02  0.51100000000E-03 0.  1.
         11   -1    0    0    0    0 -0.00000000000E+00 -0.00000000000E+00 -0.45593999997E+02  0.45594000000E+02  0.51100000000E-03 0. -1.
         23    2    1    2    0    0 -0.88817841970E-15 -0.71054273576E-14 -0.17763568394E-14  0.91188000000E+02  0.91188000000E+02 0.  0.
    9900012    2    3    3    0    0 -0.57385374571E+01  0.38390765534E+02 -0.12098921616E+02  0.50528860871E+02  0.30000003104E+02 0.  0.
         12    1    3    3    0    0  0.57385374571E+01 -0.38390765534E+02  0.12098921616E+02  0.40659139129E+02  0.00000000000E+00 0. -1.
         11    1    4    4    0    0 -0.64494831939E+01  0.20267488582E+02 -0.11506944015E+01  0.21300024056E+02  0.51100000000E-03 0. -1.
        -11    1    4    4    0    0  0.51340497196E+01  0.49660527653E+01  0.45143450789E+01  0.84498200184E+01  0.51100000000E-03 0.  1.
         12    1    4    4    0    0 -0.44231039828E+01  0.13157224186E+02 -0.15462572293E+02  0.20779016797E+02  0.00000000000E+00 0. -1.
</event>
<event>
 8    1  0.9870402E-014  0.9118800E+02  0.7816164E-02  0.1184000E+00
        -11   -1    0    0    0    0  0.00000000000E+00  0.00000000000E+00  0.45593999997E+02  0.45594000000E+02  0.51100000000E-03 0. -1.
         11   -1    0    0    0    0 -0.00000000000E+00 -0.00000000000E+00 -0.45593999997E+02  0.45594000000E+02  0.51100000000E-03 0.  1.
         23    2    1    2    0    0  0.00000000000E+00  0.00000000000E+00  0.00000000000E+00  0.91188000000E+02  0.91188000000E+02 0.  0.
    9900012    2    3    3    0    0 -0.19210445410E+02  0.16712795446E+02 -0.31698683217E+02  0.50528864960E+02  0.30000015534E+02 0.  0.
         12    1    3    3    0    0  0.19210445410E+02 -0.16712795446E+02  0.31698683217E+02  0.40659135040E+02  0.00000000000E+00 0. -1.
         11    1    4    4    0    0 -0.39209586576E+01  0.13399190544E+02 -0.88446486980E+01  0.16526948747E+02  0.51100000000E-03 0. -1.
        -11    1    4    4    0    0  0.37096266962E+01 -0.32231858942E+01 -0.61550210157E+01  0.78762009560E+01  0.51100000000E-03 0.  1.
        -12    1    4    4    0    0 -0.18999113449E+02  0.65367907960E+01 -0.16699013504E+02  0.26125715258E+02  0.00000000000E+00 0.  1.
</event>
<event>
 8    1  0.9870402E-014  0.9118800E+02  0.7816164E-02  0.1184000E+00
        -11   -1    0    0    0    0  0.00000000000E+00  0.00000000000E+00  0.45593999997E+02  0.45594000000E+02  0.51100000000E-03 0. -1.
         11   -1    0    0    0    0 -0.00000000000E+00 -0.00000000000E+00 -0.45593999997E+02  0.45594000000E+02  0.51100000000E-03 0.  1.
         23    2    1    2    0    0 -0.35527136788E-14  0.00000000000E+00  0.00000000000E+00  0.91188000000E+02  0.91188000000E+02 0.  0.
    9900012    2    3    3    0    0 -0.27089473413E+02 -0.63334787314E+01  0.29651519047E+02  0.50528866900E+02  0.30000021431E+02 0.  0.
        -12    1    3    3    0    0  0.27089473413E+02  0.63334787314E+01 -0.29651519047E+02  0.40659133100E+02  0.00000000000E+00 0.  1.
         11    1    4    4    0    0 -0.16314509271E+02 -0.49457850709E+01  0.22772535732E+02  0.28446658620E+02  0.51100000000E-03 0. -1.
        -11    1    4    4    0    0 -0.25431643874E+01  0.28219788273E+01  0.11236334936E+02  0.11861132857E+02  0.51100000000E-03 0.  1.
        -12    1    4    4    0    0 -0.82317997547E+01 -0.42096724878E+01 -0.43573516212E+01  0.10221075423E+02  0.00000000000E+00 0.  1.
</event>
<event>
 8    1  0.9870402E-014  0.9118800E+02  0.7816164E-02  0.1184000E+00
        -11   -1    0    0    0    0  0.00000000000E+00  0.00000000000E+00  0.45593999997E+02  0.45594000000E+02  0.51100000000E-03 0. -1.
         11   -1    0    0    0    0 -0.00000000000E+00 -0.00000000000E+00 -0.45593999997E+02  0.45594000000E+02  0.51100000000E-03 0.  1.
         23    2    1    2    0    0 -0.88817841970E-15  0.00000000000E+00  0.00000000000E+00  0.91188000000E+02  0.91188000000E+02 0.  0.
    9900012    2    3    3    0    0  0.60534627751E+01 -0.85302141710E+01  0.39290669842E+02  0.50528859552E+02  0.29999999094E+02 0.  0.
        -12    1    3    3    0    0 -0.60534627751E+01  0.85302141710E+01 -0.39290669842E+02  0.40659140448E+02  0.00000000000E+00 0.  1.
         11    1    4    4    0    0 -0.59211807346E+00  0.75103757582E+00  0.37947348821E+02  0.37959398626E+02  0.51100000000E-03 0.  1.
        -11    1    4    4    0    0 -0.41394131146E+00 -0.25377505635E+01  0.11187032819E+01  0.28041081694E+01  0.51100000000E-03 0. -1.
         12    1    4    4    0    0  0.70595221600E+01 -0.67435011834E+01  0.22461773915E+00  0.97653527569E+01  0.00000000000E+00 0. -1.
</event>
<event>
 8    1  0.9870402E-014  0.9118800E+02  0.7816164E-02  0.1184000E+00
        -11   -1    0    0    0    0  0.00000000000E+00  0.00000000000E+00  0.45593999997E+02  0.45594000000E+02  0.51100000000E-03 0. -1.
         11   -1    0    0    0    0 -0.00000000000E+00 -0.00000000000E+00 -0.45593999997E+02  0.45594000000E+02  0.51100000000E-03 0.  1.
         23    2    1    2    0    0  0.88817841970E-15  0.17763568394E-14  0.00000000000E+00  0.91188000000E+02  0.91188000000E+02 0.  0.
    9900012    2    3    3    0    0 -0.46553008494E+01 -0.11820543308E+02  0.38623418157E+02  0.50528862032E+02  0.30000006634E+02 0.  0.
        -12    1    3    3    0    0  0.46553008494E+01  0.11820543308E+02 -0.38623418157E+02  0.40659137968E+02  0.00000000000E+00 0.  1.
         11    1    4    4    0    0 -0.41459464190E+01 -0.11843378682E+02  0.31863132673E+02  0.34244907860E+02  0.51100000000E-03 0. -1.
        -11    1    4    4    0    0  0.26608322791E+01 -0.65427770264E+01  0.53434390919E+01  0.88566529358E+01  0.51100000000E-03 0.  1.
        -12    1    4    4    0    0 -0.31701867095E+01  0.65656124003E+01  0.14168463924E+01  0.74273012369E+01  0.00000000000E+00 0.  1.
</event>
<event>
 8    1  0.9870402E-014  0.9118800E+02  0.7816164E-02  0.1184000E+00
        -11   -1    0    0    0    0  0.00000000000E+00  0.00000000000E+00  0.45593999997E+02  0.45594000000E+02  0.51100000000E-03 0. -1.
         11   -1    0    0    0    0 -0.00000000000E+00 -0.00000000000E+00 -0.45593999997E+02  0.45594000000E+02  0.51100000000E-03 0.  1.
         23    2    1    2    0    0  0.00000000000E+00  0.00000000000E+00  0.00000000000E+00  0.91188000000E+02  0.91188000000E+02 0.  0.
    9900012    2    3    3    0    0 -0.12830039610E+02 -0.81374167411E+01 -0.37713882323E+02  0.50528875717E+02  0.30000048228E+02 0.  0.
         12    1    3    3    0    0  0.12830039610E+02  0.81374167411E+01  0.37713882323E+02  0.40659124283E+02  0.00000000000E+00 0. -1.
         11    1    4    4    0    0 -0.11758263873E+02  0.41554541719E+01 -0.19577134631E+02  0.23211823912E+02  0.51100000000E-03 0.  1.
        -11    1    4    4    0    0  0.11147516604E+01  0.36853413263E+01 -0.14594857740E+01  0.41175855718E+01  0.51100000000E-03 0. -1.
        -12    1    4    4    0    0 -0.21865273973E+01 -0.15978212239E+02 -0.16677261918E+02  0.23199466233E+02  0.00000000000E+00 0.  1.
</event>
<event>
 8    1  0.9870402E-014  0.9118800E+02  0.7816164E-02  0.1184000E+00
        -11   -1    0    0    0    0  0.00000000000E+00  0.00000000000E+00  0.45593999997E+02  0.45594000000E+02  0.51100000000E-03 0. -1.
         11   -1    0    0    0    0 -0.00000000000E+00 -0.00000000000E+00 -0.45593999997E+02  0.45594000000E+02  0.51100000000E-03 0.  1.
         23    2    1    2    0    0  0.00000000000E+00 -0.35527136788E-14  0.35527136788E-14  0.91188000000E+02  0.91188000000E+02 0.  0.
    9900012    2    3    3    0    0 -0.33094249949E+02 -0.20271175651E+02  0.12125078571E+02  0.50528837781E+02  0.29999932920E+02 0.  0.
        -12    1    3    3    0    0  0.33094249949E+02  0.20271175651E+02 -0.12125078571E+02  0.40659162219E+02  0.00000000000E+00 0.  1.
         11    1    4    4    0    0 -0.14215968054E+02 -0.76106852333E+01 -0.28791509776E+01  0.16380042370E+02  0.51100000000E-03 0. -1.
        -11    1    4    4    0    0  0.37495584230E+01  0.14324149832E+01  0.21615927657E+01  0.45588907201E+01  0.51100000000E-03 0.  1.
         12    1    4    4    0    0 -0.22627840317E+02 -0.14092905401E+02  0.12842636783E+02  0.29589904691E+02  0.00000000000E+00 0. -1.
</event>
<event>
 8    1  0.9870402E-014  0.9118800E+02  0.7816164E-02  0.1184000E+00
        -11   -1    0    0    0    0  0.00000000000E+00  0.00000000000E+00  0.45593999997E+02  0.45594000000E+02  0.51100000000E-03 0. -1.
         11   -1    0    0    0    0 -0.00000000000E+00 -0.00000000000E+00 -0.45593999997E+02  0.45594000000E+02  0.51100000000E-03 0.  1.
         23    2    1    2    0    0  0.00000000000E+00  0.17763568394E-14  0.00000000000E+00  0.91188000000E+02  0.91188000000E+02 0.  0.
    9900012    2    3    3    0    0 -0.11567407640E+02 -0.10267365677E+02  0.37602389270E+02  0.50528887907E+02  0.30000085281E+02 0.  0.
        -12    1    3    3    0    0  0.11567407640E+02  0.10267365677E+02 -0.37602389270E+02  0.40659112093E+02  0.00000000000E+00 0.  1.
         11    1    4    4    0    0  0.27346157523E+00 -0.11342431603E+02  0.28475107175E+02  0.30652198368E+02  0.51100000000E-03 0. -1.
        -11    1    4    4    0    0  0.21565311012E+01  0.26830381629E+01  0.88803281518E+00  0.35549856141E+01  0.51100000000E-03 0.  1.
         12    1    4    4    0    0 -0.13997400316E+02 -0.16079722366E+01  0.82392492796E+01  0.16321703925E+02  0.00000000000E+00 0. -1.
</event>
<event>
 8    1  0.9870402E-014  0.9118800E+02  0.7816164E-02  0.1184000E+00
        -11   -1    0    0    0    0  0.00000000000E+00  0.00000000000E+00  0.45593999997E+02  0.45594000000E+02  0.51100000000E-03 0.  1.
         11   -1    0    0    0    0 -0.00000000000E+00 -0.00000000000E+00 -0.45593999997E+02  0.45594000000E+02  0.51100000000E-03 0. -1.
         23    2    1    2    0    0  0.00000000000E+00  0.00000000000E+00 -0.88817841970E-15  0.91188000000E+02  0.91188000000E+02 0.  0.
    9900012    2    3    3    0    0  0.29800898541E+02 -0.27183817388E+02 -0.51100394793E+01  0.50528856070E+02  0.29999988510E+02 0.  0.
         12    1    3    3    0    0 -0.29800898541E+02  0.27183817388E+02  0.51100394793E+01  0.40659143930E+02  0.00000000000E+00 0. -1.
         11    1    4    4    0    0  0.18149925779E+02 -0.85435794230E+01  0.64512231825E+01  0.21072039198E+02  0.51100000000E-03 0. -1.
        -11    1    4    4    0    0  0.76464706804E+01 -0.13844821112E+02  0.55377031590E+00  0.15825746343E+02  0.51100000000E-03 0.  1.
         12    1    4    4    0    0  0.40045020814E+01 -0.47954168533E+01 -0.12115032978E+02  0.13631070529E+02  0.00000000000E+00 0. -1.
</event>
<event>
 8    1  0.9870402E-014  0.9118800E+02  0.7816164E-02  0.1184000E+00
        -11   -1    0    0    0    0  0.00000000000E+00  0.00000000000E+00  0.45593999997E+02  0.45594000000E+02  0.51100000000E-03 0. -1.
         11   -1    0    0    0    0 -0.00000000000E+00 -0.00000000000E+00 -0.45593999997E+02  0.45594000000E+02  0.51100000000E-03 0.  1.
         23    2    1    2    0    0  0.35527136788E-14  0.00000000000E+00 -0.71054273576E-14  0.91188000000E+02  0.91188000000E+02 0.  0.
    9900012    2    3    3    0    0  0.18562084934E+02 -0.35391534644E+01 -0.36001245655E+02  0.50528852283E+02  0.29999977000E+02 0.  0.
         12    1    3    3    0    0 -0.18562084934E+02  0.35391534644E+01  0.36001245655E+02  0.40659147717E+02  0.00000000000E+00 0. -1.
         11    1    4    4    0    0 -0.83879548069E+00  0.40416214794E+01  0.20698146285E+01  0.46176200470E+01  0.51100000000E-03 0. -1.
        -11    1    4    4    0    0  0.89587938111E+01  0.29101249163E+01 -0.78571031336E+01  0.12266331297E+02  0.51100000000E-03 0.  1.
        -12    1    4    4    0    0  0.10442086604E+02 -0.10490899860E+02 -0.30213957150E+02  0.33644900939E+02  0.00000000000E+00 0.  1.
</event>
<event>
 8    1  0.9870402E-014  0.9118800E+02  0.7816164E-02  0.1184000E+00
        -11   -1    0    0    0    0  0.00000000000E+00  0.00000000000E+00  0.45593999997E+02  0.45594000000E+02  0.51100000000E-03 0. -1.
         11   -1    0    0    0    0 -0.00000000000E+00 -0.00000000000E+00 -0.45593999997E+02  0.45594000000E+02  0.51100000000E-03 0.  1.
         23    2    1    2    0    0  0.00000000000E+00  0.00000000000E+00 -0.35527136788E-14  0.91188000000E+02  0.91188000000E+02 0.  0.
    9900012    2    3    3    0    0  0.94495838854E+01 -0.35704135032E+02  0.17002508199E+02  0.50528865982E+02  0.30000018640E+02 0.  0.
        -12    1    3    3    0    0 -0.94495838854E+01  0.35704135032E+02 -0.17002508199E+02  0.40659134018E+02  0.00000000000E+00 0.  1.
         11    1    4    4    0    0  0.29160083400E+00 -0.15735750148E+02  0.18734226139E+02  0.24467735757E+02  0.51100000000E-03 0. -1.
        -11    1    4    4    0    0  0.15365010475E+01 -0.26525046603E+01  0.50967710307E+01  0.59475786369E+01  0.51100000000E-03 0.  1.
         12    1    4    4    0    0  0.76214820039E+01 -0.17315880225E+02 -0.68284889712E+01  0.20113551589E+02  0.00000000000E+00 0. -1.
</event>
<event>
 8    1  0.9870402E-014  0.9118800E+02  0.7816164E-02  0.1184000E+00
        -11   -1    0    0    0    0  0.00000000000E+00  0.00000000000E+00  0.45593999997E+02  0.45594000000E+02  0.51100000000E-03 0. -1.
         11   -1    0    0    0    0 -0.00000000000E+00 -0.00000000000E+00 -0.45593999997E+02  0.45594000000E+02  0.51100000000E-03 0.  1.
         23    2    1    2    0    0  0.00000000000E+00 -0.35527136788E-14  0.00000000000E+00  0.91188000000E+02  0.91188000000E+02 0.  0.
    9900012    2    3    3    0    0 -0.11284652525E+02  0.25185343091E+02 -0.29858337564E+02  0.50528865586E+02  0.30000017435E+02 0.  0.
         12    1    3    3    0    0  0.11284652525E+02 -0.25185343091E+02  0.29858337564E+02  0.40659134414E+02  0.00000000000E+00 0. -1.
         11    1    4    4    0    0 -0.31725251219E+01  0.18448574540E+02 -0.70951521333E+01  0.20018891134E+02  0.51100000000E-03 0. -1.
        -11    1    4    4    0    0  0.13622891251E+01  0.88304946324E+01 -0.17051619272E+02  0.19250745107E+02  0.51100000000E-03 0.  1.
        -12    1    4    4    0    0 -0.94744165278E+01 -0.20937260810E+01 -0.57115661586E+01  0.11259229344E+02  0.00000000000E+00 0.  1.
</event>
<event>
 8    1  0.1019580E-013  0.9118800E+02  0.7816164E-02  0.1184000E+00
        -11   -1    0    0    0    0  0.00000000000E+00  0.00000000000E+00  0.45593999997E+02  0.45594000000E+02  0.51100000000E-03 0. -1.
         11   -1    0    0    0    0 -0.00000000000E+00 -0.00000000000E+00 -0.45593999997E+02  0.45594000000E+02  0.51100000000E-03 0.  1.
         23    2    1    2    0    0 -0.35527136788E-14  0.44408920985E-15 -0.14210854715E-13  0.91188000000E+02  0.91188000000E+02 0.  0.
    9900012    2    3    3    0    0 -0.16787318499E+02 -0.19670963572E+01 -0.36979505655E+02  0.50528839052E+02  0.29999936784E+02 0.  0.
         12    1    3    3    0    0  0.16787318499E+02  0.19670963572E+01  0.36979505655E+02  0.40659160948E+02  0.00000000000E+00 0. -1.
         11    1    4    4    0    0 -0.88894669154E+00  0.62906977669E+01 -0.15084138318E+02  0.16367477926E+02  0.51100000000E-03 0. -1.
        -11    1    4    4    0    0 -0.12721285523E+02 -0.52068960613E+00 -0.22417854223E+02  0.25781047521E+02  0.51100000000E-03 0.  1.
         12    1    4    4    0    0 -0.31770862841E+01 -0.77371045180E+01  0.52248688581E+00  0.83803136055E+01  0.00000000000E+00 0. -1.
</event>
<event>
 8    1  0.9870402E-014  0.9118800E+02  0.7816164E-02  0.1184000E+00
        -11   -1    0    0    0    0  0.00000000000E+00  0.00000000000E+00  0.45593999997E+02  0.45594000000E+02  0.51100000000E-03 0. -1.
         11   -1    0    0    0    0 -0.00000000000E+00 -0.00000000000E+00 -0.45593999997E+02  0.45594000000E+02  0.51100000000E-03 0.  1.
         23    2    1    2    0    0 -0.88817841970E-15 -0.35527136788E-14  0.35527136788E-14  0.91188000000E+02  0.91188000000E+02 0.  0.
    9900012    2    3    3    0    0 -0.51804630125E+01 -0.24752714154E+02  0.31837586903E+02  0.50528855950E+02  0.29999988147E+02 0.  0.
        -12    1    3    3    0    0  0.51804630125E+01  0.24752714154E+02 -0.31837586903E+02  0.40659144050E+02  0.00000000000E+00 0.  1.
         11    1    4    4    0    0  0.48374473662E+00 -0.26651269823E+01  0.13639473070E+02  0.13905831032E+02  0.51100000000E-03 0. -1.
        -11    1    4    4    0    0 -0.40473379458E+01  0.67290036888E+00 -0.33058526848E+01  0.52690038517E+01  0.51100000000E-03 0.  1.
         12    1    4    4    0    0 -0.16168698033E+01 -0.22760487541E+02  0.21503966518E+02  0.31354021067E+02  0.00000000000E+00 0. -1.
</event>
<event>
 8    1  0.9870402E-014  0.9118800E+02  0.7816164E-02  0.1184000E+00
        -11   -1    0    0    0    0  0.00000000000E+00  0.00000000000E+00  0.45593999997E+02  0.45594000000E+02  0.51100000000E-03 0. -1.
         11   -1    0    0    0    0 -0.00000000000E+00 -0.00000000000E+00 -0.45593999997E+02  0.45594000000E+02  0.51100000000E-03 0.  1.
         23    2    1    2    0    0 -0.17763568394E-14  0.35527136788E-14  0.00000000000E+00  0.91188000000E+02  0.91188000000E+02 0.  0.
    9900012    2    3    3    0    0  0.89988583605E+01 -0.28305692126E+02  0.27766427680E+02  0.50528853862E+02  0.29999981799E+02 0.  0.
        -12    1    3    3    0    0 -0.89988583605E+01  0.28305692126E+02 -0.27766427680E+02  0.40659146138E+02  0.00000000000E+00 0.  1.
         11    1    4    4    0    0 -0.17661513173E+01  0.64301108529E+00  0.31716681388E+01  0.36867645402E+01  0.51100000000E-03 0.  1.
        -11    1    4    4    0    0 -0.52389754636E+01 -0.21543559454E+02  0.12416785910E+02  0.25411579849E+02  0.51100000000E-03 0. -1.
         12    1    4    4    0    0  0.16003985141E+02 -0.74051437577E+01  0.12177973632E+02  0.21430509473E+02  0.00000000000E+00 0. -1.
</event>
<event>
 8    1  0.9870402E-014  0.9118800E+02  0.7816164E-02  0.1184000E+00
        -11   -1    0    0    0    0  0.00000000000E+00  0.00000000000E+00  0.45593999997E+02  0.45594000000E+02  0.51100000000E-03 0. -1.
         11   -1    0    0    0    0 -0.00000000000E+00 -0.00000000000E+00 -0.45593999997E+02  0.45594000000E+02  0.51100000000E-03 0.  1.
         23    2    1    2    0    0 -0.17763568394E-14  0.00000000000E+00 -0.71054273576E-14  0.91188000000E+02  0.91188000000E+02 0.  0.
    9900012    2    3    3    0    0 -0.10969618367E+02 -0.14583944929E+02 -0.36333755157E+02  0.50528859077E+02  0.29999997649E+02 0.  0.
         12    1    3    3    0    0  0.10969618367E+02  0.14583944929E+02  0.36333755157E+02  0.40659140923E+02  0.00000000000E+00 0. -1.
         11    1    4    4    0    0 -0.41810995635E+01  0.47524050683E+00  0.25563127928E+01  0.49236350855E+01  0.51100000000E-03 0. -1.
        -11    1    4    4    0    0  0.41393742490E+01 -0.48517592933E+01 -0.37082308644E+01  0.73773276881E+01  0.51100000000E-03 0.  1.
        -12    1    4    4    0    0 -0.10927893053E+02 -0.10207426142E+02 -0.35181837086E+02  0.38227896303E+02  0.00000000000E+00 0.  1.
</event>
<event>
 8    1  0.9870402E-014  0.9118800E+02  0.7816164E-02  0.1184000E+00
        -11   -1    0    0    0    0  0.00000000000E+00  0.00000000000E+00  0.45593999997E+02  0.45594000000E+02  0.51100000000E-03 0.  1.
         11   -1    0    0    0    0 -0.00000000000E+00 -0.00000000000E+00 -0.45593999997E+02  0.45594000000E+02  0.51100000000E-03 0. -1.
         23    2    1    2    0    0 -0.71054273576E-14  0.00000000000E+00  0.17763568394E-14  0.91188000000E+02  0.91188000000E+02 0.  0.
    9900012    2    3    3    0    0 -0.36346121756E+02  0.16146099360E+02  0.84515643873E+01  0.50528855496E+02  0.29999986765E+02 0.  0.
         12    1    3    3    0    0  0.36346121756E+02 -0.16146099360E+02 -0.84515643873E+01  0.40659144504E+02  0.00000000000E+00 0. -1.
         11    1    4    4    0    0  0.22122711617E+01  0.19478270169E+01 -0.18712569195E+00  0.29535047090E+01  0.51100000000E-03 0. -1.
        -11    1    4    4    0    0 -0.20239756928E+02  0.39673800968E+01  0.15166928110E+02  0.25601241648E+02  0.51100000000E-03 0.  1.
         12    1    4    4    0    0 -0.18318635989E+02  0.10230892246E+02 -0.65282380311E+01  0.21974109139E+02  0.00000000000E+00 0. -1.
</event>
<event>
 8    1  0.1606067E-013  0.9118800E+02  0.7816164E-02  0.1184000E+00
        -11   -1    0    0    0    0  0.00000000000E+00  0.00000000000E+00  0.45593999997E+02  0.45594000000E+02  0.51100000000E-03 0. -1.
         11   -1    0    0    0    0 -0.00000000000E+00 -0.00000000000E+00 -0.45593999997E+02  0.45594000000E+02  0.51100000000E-03 0.  1.
         23    2    1    2    0    0  0.00000000000E+00  0.00000000000E+00  0.00000000000E+00  0.91188000000E+02  0.91188000000E+02 0.  0.
    9900012    2    3    3    0    0  0.26457526652E+02 -0.10768971295E+02 -0.28934305929E+02  0.50528861803E+02  0.30000005937E+02 0.  0.
         12    1    3    3    0    0 -0.26457526652E+02  0.10768971295E+02  0.28934305929E+02  0.40659138197E+02  0.00000000000E+00 0. -1.
         11    1    4    4    0    0  0.91875907210E+01  0.57473264603E+01 -0.85190604935E+01  0.13784700818E+02  0.51100000000E-03 0. -1.
        -11    1    4    4    0    0  0.16012864809E+02 -0.41645661096E+01 -0.17311238235E+02  0.23946490761E+02  0.51100000000E-03 0.  1.
         12    1    4    4    0    0  0.12570711221E+01 -0.12351731646E+02 -0.31040072006E+01  0.12797670224E+02  0.00000000000E+00 0. -1.
</event>
<event>
 8    1  0.9870402E-014  0.9118800E+02  0.7816164E-02  0.1184000E+00
        -11   -1    0    0    0    0  0.00000000000E+00  0.00000000000E+00  0.45593999997E+02  0.45594000000E+02  0.51100000000E-03 0. -1.
         11   -1    0    0    0    0 -0.00000000000E+00 -0.00000000000E+00 -0.45593999997E+02  0.45594000000E+02  0.51100000000E-03 0.  1.
         23    2    1    2    0    0  0.00000000000E+00  0.17763568394E-14  0.00000000000E+00  0.91188000000E+02  0.91188000000E+02 0.  0.
    9900012    2    3    3    0    0  0.31970738980E+02 -0.12343021598E+02 -0.21878917458E+02  0.50528863729E+02  0.30000011792E+02 0.  0.
         12    1    3    3    0    0 -0.31970738980E+02  0.12343021598E+02  0.21878917458E+02  0.40659136271E+02  0.00000000000E+00 0. -1.
         11    1    4    4    0    0  0.13558877353E+02 -0.19484932836E+01 -0.29156999785E+01  0.14005037943E+02  0.51100000000E-03 0. -1.
        -11    1    4    4    0    0  0.10425777533E+01  0.60901116958E+01 -0.82061467937E+01  0.10272160157E+02  0.51100000000E-03 0.  1.
         12    1    4    4    0    0  0.17369283874E+02 -0.16484640010E+02 -0.10757070686E+02  0.26251665629E+02  0.00000000000E+00 0. -1.
</event>
<event>
 8    1  0.9870402E-014  0.9118800E+02  0.7816164E-02  0.1184000E+00
        -11   -1    0    0    0    0  0.00000000000E+00  0.00000000000E+00  0.45593999997E+02  0.45594000000E+02  0.51100000000E-03 0. -1.
         11   -1    0    0    0    0 -0.00000000000E+00 -0.00000000000E+00 -0.45593999997E+02  0.45594000000E+02  0.51100000000E-03 0.  1.
         23    2    1    2    0    0  0.17763568394E-14  0.44408920985E-15  0.71054273576E-14  0.91188000000E+02  0.91188000000E+02 0.  0.
    9900012    2    3    3    0    0  0.12802873543E+02 -0.23339208750E+01 -0.38520189657E+02  0.50528858730E+02  0.29999996595E+02 0.  0.
         12    1    3    3    0    0 -0.12802873543E+02  0.23339208750E+01  0.38520189657E+02  0.40659141270E+02  0.00000000000E+00 0. -1.
         11    1    4    4    0    0  0.32873285624E+01  0.30619143535E+01 -0.28692084681E+02  0.29041652367E+02  0.51100000000E-03 0. -1.
        -11    1    4    4    0    0  0.96978523257E+01 -0.72387588129E+01 -0.13033439599E+02  0.17785345567E+02  0.51100000000E-03 0.  1.
         12    1    4    4    0    0 -0.18230734561E+00  0.18429235843E+01  0.32053346231E+01  0.37018607959E+01  0.00000000000E+00 0. -1.
</event>
<event>
 8    1  0.9870402E-014  0.9118800E+02  0.7816164E-02  0.1184000E+00
        -11   -1    0    0    0    0  0.00000000000E+00  0.00000000000E+00  0.45593999997E+02  0.45594000000E+02  0.51100000000E-03 0.  1.
         11   -1    0    0    0    0 -0.00000000000E+00 -0.00000000000E+00 -0.45593999997E+02  0.45594000000E+02  0.51100000000E-03 0. -1.
         23    2    1    2    0    0  0.17763568394E-14  0.00000000000E+00  0.00000000000E+00  0.91188000000E+02  0.91188000000E+02 0.  0.
    9900012    2    3    3    0    0 -0.11563995118E+02  0.36495803159E+02  0.13692928255E+02  0.50528856926E+02  0.29999991111E+02 0.  0.
        -12    1    3    3    0    0  0.11563995118E+02 -0.36495803159E+02 -0.13692928255E+02  0.40659143074E+02  0.00000000000E+00 0.  1.
         11    1    4    4    0    0  0.12791943528E-01 -0.20630890546E+01 -0.27332337818E+01  0.34244805807E+01  0.51100000000E-03 0. -1.
        -11    1    4    4    0    0  0.42370977432E+01  0.56755030800E+01  0.56437819877E+01  0.90563021086E+01  0.51100000000E-03 0.  1.
         12    1    4    4    0    0 -0.15813884805E+02  0.32883389134E+02  0.10782380049E+02  0.38048074236E+02  0.00000000000E+00 0. -1.
</event>
<event>
 8    1  0.9870402E-014  0.9118800E+02  0.7816164E-02  0.1184000E+00
        -11   -1    0    0    0    0  0.00000000000E+00  0.00000000000E+00  0.45593999997E+02  0.45594000000E+02  0.51100000000E-03 0. -1.
         11   -1    0    0    0    0 -0.00000000000E+00 -0.00000000000E+00 -0.45593999997E+02  0.45594000000E+02  0.51100000000E-03 0.  1.
         23    2    1    2    0    0  0.44408920985E-15  0.00000000000E+00 -0.71054273576E-14  0.91188000000E+02  0.91188000000E+02 0.  0.
    9900012    2    3    3    0    0  0.33976820855E+01 -0.18936606005E+02 -0.35819354605E+02  0.50528862591E+02  0.30000008330E+02 0.  0.
         12    1    3    3    0    0 -0.33976820855E+01  0.18936606005E+02  0.35819354605E+02  0.40659137409E+02  0.00000000000E+00 0. -1.
         11    1    4    4    0    0  0.86910915222E+01 -0.51957963951E+01 -0.64459363744E+01  0.12003394021E+02  0.51100000000E-03 0. -1.
        -11    1    4    4    0    0 -0.25322718142E+00 -0.16412127839E+02 -0.12262620941E+02  0.20488873488E+02  0.51100000000E-03 0.  1.
         12    1    4    4    0    0 -0.50401822553E+01  0.26713182285E+01 -0.17110797290E+02  0.18036595081E+02  0.00000000000E+00 0. -1.
</event>
<event>
 8    1  0.9870402E-014  0.9118800E+02  0.7816164E-02  0.1184000E+00
        -11   -1    0    0    0    0  0.00000000000E+00  0.00000000000E+00  0.45593999997E+02  0.45594000000E+02  0.51100000000E-03 0. -1.
         11   -1    0    0    0    0 -0.00000000000E+00 -0.00000000000E+00 -0.45593999997E+02  0.45594000000E+02  0.51100000000E-03 0.  1.
         23    2    1    2    0    0  0.00000000000E+00  0.00000000000E+00  0.00000000000E+00  0.91188000000E+02  0.91188000000E+02 0.  0.
    9900012    2    3    3    0    0 -0.23957195775E+02 -0.28783339166E+02  0.15834710580E+02  0.50528857091E+02  0.29999991614E+02 0.  0.
        -12    1    3    3    0    0  0.23957195775E+02  0.28783339166E+02 -0.15834710580E+02  0.40659142909E+02  0.00000000000E+00 0.  1.
         11    1    4    4    0    0 -0.14169363730E+02 -0.22447593013E+02  0.41119949665E+01  0.26862125817E+02  0.51100000000E-03 0. -1.
        -11    1    4    4    0    0 -0.59488737913E+01  0.11428057712E+01 -0.29643554314E+01  0.67440720488E+01  0.51100000000E-03 0.  1.
        -12    1    4    4    0    0 -0.38389582543E+01 -0.74785519242E+01  0.14687071045E+02  0.16922659225E+02  0.00000000000E+00 0.  1.
</event>
<event>
 8    1  0.9870402E-014  0.9118800E+02  0.7816164E-02  0.1184000E+00
        -11   -1    0    0    0    0  0.00000000000E+00  0.00000000000E+00  0.45593999997E+02  0.45594000000E+02  0.51100000000E-03 0. -1.
         11   -1    0    0    0    0 -0.00000000000E+00 -0.00000000000E+00 -0.45593999997E+02  0.45594000000E+02  0.51100000000E-03 0.  1.
         23    2    1    2    0    0  0.00000000000E+00  0.00000000000E+00  0.00000000000E+00  0.91188000000E+02  0.91188000000E+02 0.  0.
    9900012    2    3    3    0    0  0.25643262448E+02 -0.19267901353E+02  0.24986732093E+02  0.50528859426E+02  0.29999998711E+02 0.  0.
        -12    1    3    3    0    0 -0.25643262448E+02  0.19267901353E+02 -0.24986732093E+02  0.40659140574E+02  0.00000000000E+00 0.  1.
         11    1    4    4    0    0 -0.22762608706E+01  0.44809787607E+00  0.56690617873E+01  0.61253911767E+01  0.51100000000E-03 0. -1.
        -11    1    4    4    0    0  0.75035720068E+00  0.38386766256E+01  0.29302934468E+01  0.48872378815E+01  0.51100000000E-03 0.  1.
         12    1    4    4    0    0  0.27169166118E+02 -0.23554675855E+02  0.16387376859E+02  0.39516230368E+02  0.00000000000E+00 0. -1.
</event>
<event>
 8    1  0.9870402E-014  0.9118800E+02  0.7816164E-02  0.1184000E+00
        -11   -1    0    0    0    0  0.00000000000E+00  0.00000000000E+00  0.45593999997E+02  0.45594000000E+02  0.51100000000E-03 0. -1.
         11   -1    0    0    0    0 -0.00000000000E+00 -0.00000000000E+00 -0.45593999997E+02  0.45594000000E+02  0.51100000000E-03 0.  1.
         23    2    1    2    0    0  0.00000000000E+00  0.00000000000E+00  0.71054273576E-14  0.91188000000E+02  0.91188000000E+02 0.  0.
    9900012    2    3    3    0    0  0.12727652086E+02 -0.21430915259E+02 -0.32123015493E+02  0.50528863502E+02  0.30000011100E+02 0.  0.
         12    1    3    3    0    0 -0.12727652086E+02  0.21430915259E+02  0.32123015493E+02  0.40659136498E+02  0.00000000000E+00 0. -1.
         11    1    4    4    0    0 -0.44184599488E+01 -0.29334756226E+01  0.85598156246E+00  0.53722222817E+01  0.51100000000E-03 0. -1.
        -11    1    4    4    0    0  0.80357021899E+01 -0.14235746341E+02 -0.79406731188E+01  0.18173697296E+02  0.51100000000E-03 0.  1.
         12    1    4    4    0    0  0.91104098448E+01 -0.42616932956E+01 -0.25038323936E+02  0.26982943924E+02  0.00000000000E+00 0. -1.
</event>
<event>
 8    1  0.9870402E-014  0.9118800E+02  0.7816164E-02  0.1184000E+00
        -11   -1    0    0    0    0  0.00000000000E+00  0.00000000000E+00  0.45593999997E+02  0.45594000000E+02  0.51100000000E-03 0. -1.
         11   -1    0    0    0    0 -0.00000000000E+00 -0.00000000000E+00 -0.45593999997E+02  0.45594000000E+02  0.51100000000E-03 0.  1.
         23    2    1    2    0    0 -0.88817841970E-15  0.00000000000E+00 -0.71054273576E-14  0.91188000000E+02  0.91188000000E+02 0.  0.
    9900012    2    3    3    0    0 -0.42378465031E+01 -0.53450030532E+01 -0.40082886896E+02  0.50528853150E+02  0.29999979636E+02 0.  0.
         12    1    3    3    0    0  0.42378465031E+01  0.53450030532E+01  0.40082886896E+02  0.40659146850E+02  0.00000000000E+00 0. -1.
         11    1    4    4    0    0  0.74091248023E+00 -0.34017209059E+01  0.86124722885E+00  0.35864193112E+01  0.51100000000E-03 0. -1.
        -11    1    4    4    0    0 -0.10603236982E+02  0.27131756316E+01 -0.89872137575E+01  0.14161919640E+02  0.51100000000E-03 0.  1.
        -12    1    4    4    0    0  0.56244779986E+01 -0.46564577788E+01 -0.31956920367E+02  0.32780514199E+02  0.00000000000E+00 0.  1.
</event>
<event>
 8    1  0.9870402E-014  0.9118800E+02  0.7816164E-02  0.1184000E+00
        -11   -1    0    0    0    0  0.00000000000E+00  0.00000000000E+00  0.45593999997E+02  0.45594000000E+02  0.51100000000E-03 0. -1.
         11   -1    0    0    0    0 -0.00000000000E+00 -0.00000000000E+00 -0.45593999997E+02  0.45594000000E+02  0.51100000000E-03 0.  1.
         23    2    1    2    0    0  0.35527136788E-14  0.00000000000E+00 -0.71054273576E-14  0.91188000000E+02  0.91188000000E+02 0.  0.
    9900012    2    3    3    0    0 -0.19175718343E+02  0.47610488316E+01  0.35535790965E+02  0.50528828840E+02  0.29999905742E+02 0.  0.
        -12    1    3    3    0    0  0.19175718343E+02 -0.47610488316E+01 -0.35535790965E+02  0.40659171160E+02  0.00000000000E+00 0.  1.
         11    1    4    4    0    0 -0.78145384745E+00  0.18156872958E+01  0.26886603402E+02  0.26959169743E+02  0.51100000000E-03 0. -1.
        -11    1    4    4    0    0 -0.76301874632E+01  0.98788802421E+00  0.99216767689E+01  0.12555291858E+02  0.51100000000E-03 0.  1.
        -12    1    4    4    0    0 -0.10764077032E+02  0.19574735116E+01 -0.12724892064E+01  0.11014367239E+02  0.00000000000E+00 0.  1.
</event>
<event>
 8    1  0.9870402E-014  0.9118800E+02  0.7816164E-02  0.1184000E+00
        -11   -1    0    0    0    0  0.00000000000E+00  0.00000000000E+00  0.45593999997E+02  0.45594000000E+02  0.51100000000E-03 0. -1.
         11   -1    0    0    0    0 -0.00000000000E+00 -0.00000000000E+00 -0.45593999997E+02  0.45594000000E+02  0.51100000000E-03 0.  1.
         23    2    1    2    0    0  0.17763568394E-14  0.17763568394E-14 -0.71054273576E-14  0.91188000000E+02  0.91188000000E+02 0.  0.
    9900012    2    3    3    0    0  0.98152026057E+01  0.12541650497E+02 -0.37410352481E+02  0.50528859919E+02  0.30000000211E+02 0.  0.
         12    1    3    3    0    0 -0.98152026057E+01 -0.12541650497E+02  0.37410352481E+02  0.40659140081E+02  0.00000000000E+00 0. -1.
         11    1    4    4    0    0 -0.36464272420E+01 -0.24684760708E+01 -0.26422092610E+01  0.51352775760E+01  0.51100000000E-03 0. -1.
        -11    1    4    4    0    0  0.26313413960E+01  0.15994819564E+02 -0.12021669918E+02  0.20181148587E+02  0.51100000000E-03 0.  1.
        -12    1    4    4    0    0  0.10830288452E+02 -0.98469299649E+00 -0.22746473301E+02  0.25212433756E+02  0.00000000000E+00 0.  1.
</event>
<event>
 8    1  0.9870402E-014  0.9118800E+02  0.7816164E-02  0.1184000E+00
        -11   -1    0    0    0    0  0.00000000000E+00  0.00000000000E+00  0.45593999997E+02  0.45594000000E+02  0.51100000000E-03 0. -1.
         11   -1    0    0    0    0 -0.00000000000E+00 -0.00000000000E+00 -0.45593999997E+02  0.45594000000E+02  0.51100000000E-03 0.  1.
         23    2    1    2    0    0  0.00000000000E+00 -0.83266726847E-15 -0.35527136788E-14  0.91188000000E+02  0.91188000000E+02 0.  0.
    9900012    2    3    3    0    0  0.27425319712E+02 -0.35702247326E+00 -0.30014856930E+02  0.50528840357E+02  0.29999940749E+02 0.  0.
         12    1    3    3    0    0 -0.27425319712E+02  0.35702247326E+00  0.30014856930E+02  0.40659159643E+02  0.00000000000E+00 0. -1.
         11    1    4    4    0    0  0.75536949136E+01 -0.23575317094E+01 -0.23050293867E+02  0.24370726502E+02  0.51100000000E-03 0. -1.
        -11    1    4    4    0    0  0.44221871373E+01  0.75524375695E+01 -0.16787766042E+01  0.89114164680E+01  0.51100000000E-03 0.  1.
        -12    1    4    4    0    0  0.15449437661E+02 -0.55519283334E+01 -0.52857864585E+01  0.17246697387E+02  0.00000000000E+00 0.  1.
</event>
<event>
 8    1  0.9870402E-014  0.9118800E+02  0.7816164E-02  0.1184000E+00
        -11   -1    0    0    0    0  0.00000000000E+00  0.00000000000E+00  0.45593999997E+02  0.45594000000E+02  0.51100000000E-03 0.  1.
         11   -1    0    0    0    0 -0.00000000000E+00 -0.00000000000E+00 -0.45593999997E+02  0.45594000000E+02  0.51100000000E-03 0. -1.
         23    2    1    2    0    0  0.00000000000E+00  0.00000000000E+00  0.88817841970E-15  0.91188000000E+02  0.91188000000E+02 0.  0.
    9900012    2    3    3    0    0 -0.21684814060E+02 -0.34298598637E+02  0.25581377582E+01  0.50528817789E+02  0.29999872152E+02 0.  0.
         12    1    3    3    0    0  0.21684814060E+02  0.34298598637E+02 -0.25581377582E+01  0.40659182211E+02  0.00000000000E+00 0. -1.
         11    1    4    4    0    0  0.31293994230E+01 -0.10511297960E+02  0.96107675767E+01  0.14582433927E+02  0.51100000000E-03 0. -1.
        -11    1    4    4    0    0 -0.53534808950E+01 -0.13047493066E+01 -0.95376157771E+00  0.55921185480E+01  0.51100000000E-03 0.  1.
        -12    1    4    4    0    0 -0.19460732588E+02 -0.22482551370E+02 -0.60988682408E+01  0.30354265314E+02  0.00000000000E+00 0.  1.
</event>
<event>
 8    1  0.9870402E-014  0.9118800E+02  0.7816164E-02  0.1184000E+00
        -11   -1    0    0    0    0  0.00000000000E+00  0.00000000000E+00  0.45593999997E+02  0.45594000000E+02  0.51100000000E-03 0. -1.
         11   -1    0    0    0    0 -0.00000000000E+00 -0.00000000000E+00 -0.45593999997E+02  0.45594000000E+02  0.51100000000E-03 0.  1.
         23    2    1    2    0    0  0.00000000000E+00  0.00000000000E+00  0.00000000000E+00  0.91188000000E+02  0.91188000000E+02 0.  0.
    9900012    2    3    3    0    0 -0.31439178847E+02  0.12798805502E+02 -0.22381548589E+02  0.50528866880E+02  0.30000021368E+02 0.  0.
         12    1    3    3    0    0  0.31439178847E+02 -0.12798805502E+02  0.22381548589E+02  0.40659133120E+02  0.00000000000E+00 0. -1.
         11    1    4    4    0    0 -0.13395117630E+01  0.37697680350E+01  0.23539199548E+01  0.46418080761E+01  0.51100000000E-03 0. -1.
        -11    1    4    4    0    0 -0.12749346791E+02 -0.69191574061E+01 -0.56717458519E+01  0.15575277977E+02  0.51100000000E-03 0.  1.
        -12    1    4    4    0    0 -0.17350320293E+02  0.15948194873E+02 -0.19063722692E+02  0.30311780826E+02  0.00000000000E+00 0.  1.
</event>
<event>
 8    1  0.9870402E-014  0.9118800E+02  0.7816164E-02  0.1184000E+00
        -11   -1    0    0    0    0  0.00000000000E+00  0.00000000000E+00  0.45593999997E+02  0.45594000000E+02  0.51100000000E-03 0.  1.
         11   -1    0    0    0    0 -0.00000000000E+00 -0.00000000000E+00 -0.45593999997E+02  0.45594000000E+02  0.51100000000E-03 0. -1.
         23    2    1    2    0    0  0.00000000000E+00  0.00000000000E+00  0.35527136788E-14  0.91188000000E+02  0.91188000000E+02 0.  0.
    9900012    2    3    3    0    0 -0.10229416602E+02 -0.31184385367E+02 -0.24001314233E+02  0.50528807440E+02  0.29999840693E+02 0.  0.
         12    1    3    3    0    0  0.10229416602E+02  0.31184385367E+02  0.24001314233E+02  0.40659192560E+02  0.00000000000E+00 0. -1.
         11    1    4    4    0    0  0.16331867820E+01 -0.10414178604E+02  0.28456038243E+01  0.10918785484E+02  0.51100000000E-03 0. -1.
        -11    1    4    4    0    0 -0.81044309397E+01 -0.36285356301E+01 -0.18535398307E+01  0.90710353235E+01  0.51100000000E-03 0.  1.
         12    1    4    4    0    0 -0.37581724445E+01 -0.17141671133E+02 -0.24993378227E+02  0.30538986633E+02  0.00000000000E+00 0. -1.
</event>
<event>
 8    1  0.9870402E-014  0.9118800E+02  0.7816164E-02  0.1184000E+00
        -11   -1    0    0    0    0  0.00000000000E+00  0.00000000000E+00  0.45593999997E+02  0.45594000000E+02  0.51100000000E-03 0. -1.
         11   -1    0    0    0    0 -0.00000000000E+00 -0.00000000000E+00 -0.45593999997E+02  0.45594000000E+02  0.51100000000E-03 0.  1.
         23    2    1    2    0    0  0.00000000000E+00 -0.22204460493E-15  0.00000000000E+00  0.91188000000E+02  0.91188000000E+02 0.  0.
    9900012    2    3    3    0    0  0.13510983969E+02  0.17825279737E+01  0.38307197831E+02  0.50528862043E+02  0.30000006666E+02 0.  0.
        -12    1    3    3    0    0 -0.13510983969E+02 -0.17825279737E+01 -0.38307197831E+02  0.40659137957E+02  0.00000000000E+00 0.  1.
         11    1    4    4    0    0 -0.33482598840E+01 -0.10229634487E+01  0.71668121596E+00  0.35736438959E+01  0.51100000000E-03 0. -1.
        -11    1    4    4    0    0  0.16507457927E+02 -0.72809909461E+01  0.24459185696E+02  0.30393432869E+02  0.51100000000E-03 0.  1.
         12    1    4    4    0    0  0.35178592541E+00  0.10086482369E+02  0.13131330918E+02  0.16561785278E+02  0.00000000000E+00 0. -1.
</event>
<event>
 8    1  0.9870402E-014  0.9118800E+02  0.7816164E-02  0.1184000E+00
        -11   -1    0    0    0    0  0.00000000000E+00  0.00000000000E+00  0.45593999997E+02  0.45594000000E+02  0.51100000000E-03 0.  1.
         11   -1    0    0    0    0 -0.00000000000E+00 -0.00000000000E+00 -0.45593999997E+02  0.45594000000E+02  0.51100000000E-03 0. -1.
         23    2    1    2    0    0  0.00000000000E+00 -0.35527136788E-14  0.00000000000E+00  0.91188000000E+02  0.91188000000E+02 0.  0.
    9900012    2    3    3    0    0  0.34312035482E+02  0.19691405630E+02 -0.93860682028E+01  0.50528861901E+02  0.30000006235E+02 0.  0.
        -12    1    3    3    0    0 -0.34312035482E+02 -0.19691405630E+02  0.93860682028E+01  0.40659138099E+02  0.00000000000E+00 0.  1.
         11    1    4    4    0    0  0.95183622143E+01  0.19369532599E+01  0.27019155135E+01  0.10082229658E+02  0.51100000000E-03 0. -1.
        -11    1    4    4    0    0  0.23831950171E+02  0.88035630619E+01 -0.39060914175E-01  0.25406024828E+02  0.51100000000E-03 0.  1.
         12    1    4    4    0    0  0.96172309705E+00  0.89508893083E+01 -0.12048922802E+02  0.15040607415E+02  0.00000000000E+00 0. -1.
</event>
<event>
 8    1  0.9870402E-014  0.9118800E+02  0.7816164E-02  0.1184000E+00
        -11   -1    0    0    0    0  0.00000000000E+00  0.00000000000E+00  0.45593999997E+02  0.45594000000E+02  0.51100000000E-03 0.  1.
         11   -1    0    0    0    0 -0.00000000000E+00 -0.00000000000E+00 -0.45593999997E+02  0.45594000000E+02  0.51100000000E-03 0. -1.
         23    2    1    2    0    0  0.00000000000E+00 -0.35527136788E-14 -0.88817841970E-15  0.91188000000E+02  0.91188000000E+02 0.  0.
    9900012    2    3    3    0    0 -0.33142177191E+02  0.23427937648E+02 -0.24277183857E+01  0.50528856035E+02  0.29999988404E+02 0.  0.
         12    1    3    3    0    0  0.33142177191E+02 -0.23427937648E+02  0.24277183857E+01  0.40659143965E+02  0.00000000000E+00 0. -1.
         11    1    4    4    0    0  0.21347394717E+01 -0.20538094622E+01  0.28809472242E-01  0.29624442891E+01  0.51100000000E-03 0. -1.
        -11    1    4    4    0    0 -0.17981493146E+02  0.83374045694E+01 -0.98268820288E+01  0.22122703754E+02  0.51100000000E-03 0.  1.
        -12    1    4    4    0    0 -0.17295423517E+02  0.17144342541E+02  0.73703541709E+01  0.25443707992E+02  0.00000000000E+00 0.  1.
</event>
<event>
 8    1  0.9870402E-014  0.9118800E+02  0.7816164E-02  0.1184000E+00
        -11   -1    0    0    0    0  0.00000000000E+00  0.00000000000E+00  0.45593999997E+02  0.45594000000E+02  0.51100000000E-03 0.  1.
         11   -1    0    0    0    0 -0.00000000000E+00 -0.00000000000E+00 -0.45593999997E+02  0.45594000000E+02  0.51100000000E-03 0. -1.
         23    2    1    2    0    0  0.00000000000E+00  0.00000000000E+00  0.00000000000E+00  0.91188000000E+02  0.91188000000E+02 0.  0.
    9900012    2    3    3    0    0 -0.31604081629E+02 -0.22917904431E+02 -0.11363031559E+02  0.50528845983E+02  0.29999957851E+02 0.  0.
         12    1    3    3    0    0  0.31604081629E+02  0.22917904431E+02  0.11363031559E+02  0.40659154017E+02  0.00000000000E+00 0. -1.
         11    1    4    4    0    0 -0.97647698234E+00  0.32555992414E+01  0.41884484018E+01  0.53940276225E+01  0.51100000000E-03 0. -1.
        -11    1    4    4    0    0 -0.12821794886E+01 -0.73490863555E+01 -0.35602523525E+01  0.82661025627E+01  0.51100000000E-03 0.  1.
         12    1    4    4    0    0 -0.29345425158E+02 -0.18824417317E+02 -0.11991227608E+02  0.36868715798E+02  0.00000000000E+00 0. -1.
</event>
<event>
 8    1  0.9870402E-014  0.9118800E+02  0.7816164E-02  0.1184000E+00
        -11   -1    0    0    0    0  0.00000000000E+00  0.00000000000E+00  0.45593999997E+02  0.45594000000E+02  0.51100000000E-03 0. -1.
         11   -1    0    0    0    0 -0.00000000000E+00 -0.00000000000E+00 -0.45593999997E+02  0.45594000000E+02  0.51100000000E-03 0.  1.
         23    2    1    2    0    0  0.00000000000E+00  0.00000000000E+00  0.17763568394E-14  0.91188000000E+02  0.91188000000E+02 0.  0.
    9900012    2    3    3    0    0  0.23911138914E+02  0.30572399070E+02 -0.12114125896E+02  0.50528853485E+02  0.29999980653E+02 0.  0.
         12    1    3    3    0    0 -0.23911138914E+02 -0.30572399070E+02  0.12114125896E+02  0.40659146515E+02  0.00000000000E+00 0. -1.
         11    1    4    4    0    0  0.40412891338E+00 -0.13154157161E+00  0.36259174538E+01  0.36507397889E+01  0.51100000000E-03 0. -1.
        -11    1    4    4    0    0  0.10545035627E+02  0.26519519578E+02 -0.16967793729E+02  0.33202239673E+02  0.51100000000E-03 0.  1.
         12    1    4    4    0    0  0.12961974374E+02  0.41844210642E+01  0.12277503790E+01  0.13675874023E+02  0.00000000000E+00 0. -1.
</event>
<event>
 8    1  0.9870402E-014  0.9118800E+02  0.7816164E-02  0.1184000E+00
        -11   -1    0    0    0    0  0.00000000000E+00  0.00000000000E+00  0.45593999997E+02  0.45594000000E+02  0.51100000000E-03 0. -1.
         11   -1    0    0    0    0 -0.00000000000E+00 -0.00000000000E+00 -0.45593999997E+02  0.45594000000E+02  0.51100000000E-03 0.  1.
         23    2    1    2    0    0  0.00000000000E+00  0.00000000000E+00  0.00000000000E+00  0.91188000000E+02  0.91188000000E+02 0.  0.
    9900012    2    3    3    0    0  0.12555505801E+02 -0.34371208019E+01  0.38518974136E+02  0.50528857193E+02  0.29999991924E+02 0.  0.
        -12    1    3    3    0    0 -0.12555505801E+02  0.34371208019E+01 -0.38518974136E+02  0.40659142807E+02  0.00000000000E+00 0.  1.
         11    1    4    4    0    0 -0.11009122378E+01 -0.41837441433E+01  0.13844522443E+02  0.14504706985E+02  0.51100000000E-03 0. -1.
        -11    1    4    4    0    0 -0.57371413580E+01  0.26828159032E+01  0.34637362794E+01  0.72187091233E+01  0.51100000000E-03 0.  1.
         12    1    4    4    0    0  0.19393559397E+02 -0.19361925618E+01  0.21210715414E+02  0.28805441084E+02  0.00000000000E+00 0. -1.
</event>
<event>
 8    1  0.9870402E-014  0.9118800E+02  0.7816164E-02  0.1184000E+00
        -11   -1    0    0    0    0  0.00000000000E+00  0.00000000000E+00  0.45593999997E+02  0.45594000000E+02  0.51100000000E-03 0. -1.
         11   -1    0    0    0    0 -0.00000000000E+00 -0.00000000000E+00 -0.45593999997E+02  0.45594000000E+02  0.51100000000E-03 0.  1.
         23    2    1    2    0    0  0.00000000000E+00  0.00000000000E+00  0.00000000000E+00  0.91188000000E+02  0.91188000000E+02 0.  0.
    9900012    2    3    3    0    0 -0.24830411376E+02  0.26985969459E+02 -0.17560561047E+02  0.50528865958E+02  0.30000018567E+02 0.  0.
         12    1    3    3    0    0  0.24830411376E+02 -0.26985969459E+02  0.17560561047E+02  0.40659134042E+02  0.00000000000E+00 0. -1.
         11    1    4    4    0    0 -0.91046872227E+01  0.22738691017E+02 -0.60990001492E+01  0.25241656080E+02  0.51100000000E-03 0. -1.
        -11    1    4    4    0    0  0.14917842144E+01  0.82927916408E-01  0.23776725361E+01  0.28081353478E+01  0.51100000000E-03 0.  1.
        -12    1    4    4    0    0 -0.17217508367E+02  0.41643505251E+01 -0.13839233434E+02  0.22479074530E+02  0.00000000000E+00 0.  1.
</event>
<event>
 8    1  0.9870402E-014  0.9118800E+02  0.7816164E-02  0.1184000E+00
        -11   -1    0    0    0    0  0.00000000000E+00  0.00000000000E+00  0.45593999997E+02  0.45594000000E+02  0.51100000000E-03 0. -1.
         11   -1    0    0    0    0 -0.00000000000E+00 -0.00000000000E+00 -0.45593999997E+02  0.45594000000E+02  0.51100000000E-03 0.  1.
         23    2    1    2    0    0  0.88817841970E-15 -0.71054273576E-14 -0.14432899320E-14  0.91188000000E+02  0.91188000000E+02 0.  0.
    9900012    2    3    3    0    0 -0.76723854698E+01 -0.39924245104E+02  0.59572030949E+00  0.50528859224E+02  0.29999998098E+02 0.  0.
        -12    1    3    3    0    0  0.76723854698E+01  0.39924245104E+02 -0.59572030949E+00  0.40659140776E+02  0.00000000000E+00 0.  1.
         11    1    4    4    0    0 -0.10936647798E+02 -0.22934604552E+02  0.14098037810E+00  0.25409176034E+02  0.51100000000E-03 0. -1.
        -11    1    4    4    0    0  0.12448380072E+01 -0.95415743292E+01 -0.88208503101E+01  0.13053683878E+02  0.51100000000E-03 0.  1.
        -12    1    4    4    0    0  0.20194243214E+01 -0.74480662234E+01  0.92755902415E+01  0.12065999312E+02  0.00000000000E+00 0.  1.
</event>
<event>
 8    1  0.9870402E-014  0.9118800E+02  0.7816164E-02  0.1184000E+00
        -11   -1    0    0    0    0  0.00000000000E+00  0.00000000000E+00  0.45593999997E+02  0.45594000000E+02  0.51100000000E-03 0. -1.
         11   -1    0    0    0    0 -0.00000000000E+00 -0.00000000000E+00 -0.45593999997E+02  0.45594000000E+02  0.51100000000E-03 0.  1.
         23    2    1    2    0    0  0.00000000000E+00  0.00000000000E+00  0.00000000000E+00  0.91188000000E+02  0.91188000000E+02 0.  0.
    9900012    2    3    3    0    0  0.17263414174E+02  0.14852869362E+02  0.33682823552E+02  0.50528858351E+02  0.29999995443E+02 0.  0.
        -12    1    3    3    0    0 -0.17263414174E+02 -0.14852869362E+02 -0.33682823552E+02  0.40659141649E+02  0.00000000000E+00 0.  1.
         11    1    4    4    0    0 -0.59119069323E+00 -0.16067321581E+01  0.16889055441E+02  0.16975608637E+02  0.51100000000E-03 0. -1.
        -11    1    4    4    0    0 -0.82422035329E+00  0.18113475113E+01 -0.23346647272E+01  0.30677318407E+01  0.51100000000E-03 0.  1.
        -12    1    4    4    0    0  0.18678825221E+02  0.14648254009E+02  0.19128432838E+02  0.30485517873E+02  0.00000000000E+00 0.  1.
</event>
<event>
 8    1  0.9870402E-014  0.9118800E+02  0.7816164E-02  0.1184000E+00
        -11   -1    0    0    0    0  0.00000000000E+00  0.00000000000E+00  0.45593999997E+02  0.45594000000E+02  0.51100000000E-03 0. -1.
         11   -1    0    0    0    0 -0.00000000000E+00 -0.00000000000E+00 -0.45593999997E+02  0.45594000000E+02  0.51100000000E-03 0.  1.
         23    2    1    2    0    0  0.00000000000E+00  0.00000000000E+00  0.17763568394E-14  0.91188000000E+02  0.91188000000E+02 0.  0.
    9900012    2    3    3    0    0  0.16536055843E+02 -0.34029696090E+02  0.14889726111E+02  0.50528864464E+02  0.30000014026E+02 0.  0.
        -12    1    3    3    0    0 -0.16536055843E+02  0.34029696090E+02 -0.14889726111E+02  0.40659135536E+02  0.00000000000E+00 0.  1.
         11    1    4    4    0    0  0.92752278406E+00 -0.19209097316E+01 -0.55884812327E+01  0.59817485287E+01  0.51100000000E-03 0.  1.
        -11    1    4    4    0    0 -0.63471893641E+00  0.85606846097E+00  0.42365991356E+01  0.43685802997E+01  0.51100000000E-03 0. -1.
         12    1    4    4    0    0  0.16243251995E+02 -0.32964854820E+02  0.16241608208E+02  0.40178535636E+02  0.00000000000E+00 0. -1.
</event>
<event>
 8    1  0.9870402E-014  0.9118800E+02  0.7816164E-02  0.1184000E+00
        -11   -1    0    0    0    0  0.00000000000E+00  0.00000000000E+00  0.45593999997E+02  0.45594000000E+02  0.51100000000E-03 0. -1.
         11   -1    0    0    0    0 -0.00000000000E+00 -0.00000000000E+00 -0.45593999997E+02  0.45594000000E+02  0.51100000000E-03 0.  1.
         23    2    1    2    0    0  0.00000000000E+00  0.88817841970E-15  0.00000000000E+00  0.91188000000E+02  0.91188000000E+02 0.  0.
    9900012    2    3    3    0    0 -0.20560959888E+01  0.28035205433E+01 -0.40510225674E+02  0.50528860286E+02  0.30000001324E+02 0.  0.
         12    1    3    3    0    0  0.20560959888E+01 -0.28035205433E+01  0.40510225674E+02  0.40659139714E+02  0.00000000000E+00 0. -1.
         11    1    4    4    0    0  0.53291678750E+01  0.10525365570E+01 -0.12389014015E+02  0.13527584115E+02  0.51100000000E-03 0. -1.
        -11    1    4    4    0    0 -0.11124009526E+02  0.93532942899E+01 -0.12238040595E+02  0.18999929997E+02  0.51100000000E-03 0.  1.
         12    1    4    4    0    0  0.37387456617E+01 -0.76023103036E+01 -0.15883171063E+02  0.18001346175E+02  0.00000000000E+00 0. -1.
</event>
<event>
 8    1  0.9870402E-014  0.9118800E+02  0.7816164E-02  0.1184000E+00
        -11   -1    0    0    0    0  0.00000000000E+00  0.00000000000E+00  0.45593999997E+02  0.45594000000E+02  0.51100000000E-03 0. -1.
         11   -1    0    0    0    0 -0.00000000000E+00 -0.00000000000E+00 -0.45593999997E+02  0.45594000000E+02  0.51100000000E-03 0.  1.
         23    2    1    2    0    0  0.00000000000E+00  0.17763568394E-14  0.00000000000E+00  0.91188000000E+02  0.91188000000E+02 0.  0.
    9900012    2    3    3    0    0 -0.11405252249E+02  0.10908215542E+02 -0.37471279922E+02  0.50528858787E+02  0.29999996770E+02 0.  0.
         12    1    3    3    0    0  0.11405252249E+02 -0.10908215542E+02  0.37471279922E+02  0.40659141213E+02  0.00000000000E+00 0. -1.
         11    1    4    4    0    0 -0.30880997175E+01 -0.25474402603E+01  0.18577705412E+00  0.40075335457E+01  0.51100000000E-03 0. -1.
        -11    1    4    4    0    0  0.64082679335E+01  0.92358511737E+01 -0.10719617432E+02  0.15533095086E+02  0.51100000000E-03 0.  1.
        -12    1    4    4    0    0 -0.14725420465E+02  0.42198046282E+01 -0.26937439544E+02  0.30988230156E+02  0.00000000000E+00 0.  1.
</event>
<event>
 8    1  0.9870402E-014  0.9118800E+02  0.7816164E-02  0.1184000E+00
        -11   -1    0    0    0    0  0.00000000000E+00  0.00000000000E+00  0.45593999997E+02  0.45594000000E+02  0.51100000000E-03 0. -1.
         11   -1    0    0    0    0 -0.00000000000E+00 -0.00000000000E+00 -0.45593999997E+02  0.45594000000E+02  0.51100000000E-03 0.  1.
         23    2    1    2    0    0 -0.35527136788E-14 -0.44408920985E-15  0.00000000000E+00  0.91188000000E+02  0.91188000000E+02 0.  0.
    9900012    2    3    3    0    0  0.21725946670E+02 -0.21132022678E+01 -0.34302814574E+02  0.50528862402E+02  0.30000007757E+02 0.  0.
         12    1    3    3    0    0 -0.21725946670E+02  0.21132022678E+01  0.34302814574E+02  0.40659137598E+02  0.00000000000E+00 0. -1.
         11    1    4    4    0    0  0.57912681245E+01 -0.13894376437E+01 -0.15135516992E+02  0.16265091402E+02  0.51100000000E-03 0. -1.
        -11    1    4    4    0    0  0.14406729533E+02 -0.76463919229E+01 -0.21330662495E+02  0.26851784447E+02  0.51100000000E-03 0.  1.
         12    1    4    4    0    0  0.15279490124E+01  0.69226272988E+01  0.21633649131E+01  0.74119865521E+01  0.00000000000E+00 0. -1.
</event>
<event>
 8    1  0.9870402E-014  0.9118800E+02  0.7816164E-02  0.1184000E+00
        -11   -1    0    0    0    0  0.00000000000E+00  0.00000000000E+00  0.45593999997E+02  0.45594000000E+02  0.51100000000E-03 0.  1.
         11   -1    0    0    0    0 -0.00000000000E+00 -0.00000000000E+00 -0.45593999997E+02  0.45594000000E+02  0.51100000000E-03 0. -1.
         23    2    1    2    0    0  0.35527136788E-14  0.00000000000E+00  0.00000000000E+00  0.91188000000E+02  0.91188000000E+02 0.  0.
    9900012    2    3    3    0    0  0.30588911970E+02 -0.16134330479E+02  0.21381556600E+02  0.50528817541E+02  0.29999871399E+02 0.  0.
        -12    1    3    3    0    0 -0.30588911970E+02  0.16134330479E+02 -0.21381556600E+02  0.40659182459E+02  0.00000000000E+00 0.  1.
         11    1    4    4    0    0  0.92066145836E+01  0.27463604707E+00  0.13739379241E+02  0.16541091839E+02  0.51100000000E-03 0.  1.
        -11    1    4    4    0    0  0.29796434811E+00 -0.66128654249E+01  0.84386172940E+01  0.10725158925E+02  0.51100000000E-03 0. -1.
         12    1    4    4    0    0  0.21084333039E+02 -0.97961011016E+01 -0.79643993451E+00  0.23262566777E+02  0.00000000000E+00 0. -1.
</event>
<event>
 8    1  0.9870402E-014  0.9118800E+02  0.7816164E-02  0.1184000E+00
        -11   -1    0    0    0    0  0.00000000000E+00  0.00000000000E+00  0.45593999997E+02  0.45594000000E+02  0.51100000000E-03 0. -1.
         11   -1    0    0    0    0 -0.00000000000E+00 -0.00000000000E+00 -0.45593999997E+02  0.45594000000E+02  0.51100000000E-03 0.  1.
         23    2    1    2    0    0 -0.26645352591E-14 -0.35527136788E-14  0.00000000000E+00  0.91188000000E+02  0.91188000000E+02 0.  0.
    9900012    2    3    3    0    0  0.76722134648E+01 -0.20563343737E+02 -0.34226476938E+02  0.50528859716E+02  0.29999999592E+02 0.  0.
         12    1    3    3    0    0 -0.76722134648E+01  0.20563343737E+02  0.34226476938E+02  0.40659140284E+02  0.00000000000E+00 0. -1.
         11    1    4    4    0    0 -0.64475356037E+01 -0.88423092237E+01 -0.69808639326E+01  0.12980354744E+02  0.51100000000E-03 0. -1.
        -11    1    4    4    0    0  0.47950797088E+00  0.39173872093E+01 -0.96501706639E+00  0.40628941213E+01  0.51100000000E-03 0.  1.
        -12    1    4    4    0    0  0.13640241098E+02 -0.15638421722E+02 -0.26280595939E+02  0.33485610851E+02  0.00000000000E+00 0.  1.
</event>
<event>
 8    1  0.9870402E-014  0.9118800E+02  0.7816164E-02  0.1184000E+00
        -11   -1    0    0    0    0  0.00000000000E+00  0.00000000000E+00  0.45593999997E+02  0.45594000000E+02  0.51100000000E-03 0. -1.
         11   -1    0    0    0    0 -0.00000000000E+00 -0.00000000000E+00 -0.45593999997E+02  0.45594000000E+02  0.51100000000E-03 0.  1.
         23    2    1    2    0    0  0.71054273576E-14  0.00000000000E+00  0.44408920985E-15  0.91188000000E+02  0.91188000000E+02 0.  0.
    9900012    2    3    3    0    0 -0.39853496302E+02 -0.76587909447E+01  0.24915264349E+01  0.50528856499E+02  0.29999989816E+02 0.  0.
        -12    1    3    3    0    0  0.39853496302E+02  0.76587909447E+01 -0.24915264349E+01  0.40659143501E+02  0.00000000000E+00 0.  1.
         11    1    4    4    0    0 -0.92713740237E+01 -0.70435144040E+01 -0.56559829451E+00  0.11657159737E+02  0.51100000000E-03 0. -1.
        -11    1    4    4    0    0 -0.51040446034E+01 -0.53803232125E+01  0.96076142416E+01  0.12136943638E+02  0.51100000000E-03 0.  1.
        -12    1    4    4    0    0 -0.25478077675E+02  0.47650466719E+01 -0.65504895122E+01  0.26734753125E+02  0.00000000000E+00 0.  1.
</event>
<event>
 8    1  0.9870402E-014  0.9118800E+02  0.7816164E-02  0.1184000E+00
        -11   -1    0    0    0    0  0.00000000000E+00  0.00000000000E+00  0.45593999997E+02  0.45594000000E+02  0.51100000000E-03 0. -1.
         11   -1    0    0    0    0 -0.00000000000E+00 -0.00000000000E+00 -0.45593999997E+02  0.45594000000E+02  0.51100000000E-03 0.  1.
         23    2    1    2    0    0  0.88817841970E-15  0.71054273576E-14  0.00000000000E+00  0.91188000000E+02  0.91188000000E+02 0.  0.
    9900012    2    3    3    0    0  0.13213039031E+01 -0.37184701756E+02  0.16392616036E+02  0.50528858972E+02  0.29999997331E+02 0.  0.
        -12    1    3    3    0    0 -0.13213039031E+01  0.37184701756E+02 -0.16392616036E+02  0.40659141028E+02  0.00000000000E+00 0.  1.
         11    1    4    4    0    0  0.86357451058E+01 -0.10443344619E+02  0.12497823775E+02  0.18434617971E+02  0.51100000000E-03 0. -1.
        -11    1    4    4    0    0 -0.32814653109E-01 -0.15100407253E+02  0.88428637579E+01  0.17499131856E+02  0.51100000000E-03 0.  1.
        -12    1    4    4    0    0 -0.72816265496E+01 -0.11640949884E+02 -0.49480714977E+01  0.14595109145E+02  0.00000000000E+00 0.  1.
</event>
<event>
 8    1  0.9870402E-014  0.9118800E+02  0.7816164E-02  0.1184000E+00
        -11   -1    0    0    0    0  0.00000000000E+00  0.00000000000E+00  0.45593999997E+02  0.45594000000E+02  0.51100000000E-03 0. -1.
         11   -1    0    0    0    0 -0.00000000000E+00 -0.00000000000E+00 -0.45593999997E+02  0.45594000000E+02  0.51100000000E-03 0.  1.
         23    2    1    2    0    0  0.17763568394E-14 -0.53290705182E-14 -0.71054273576E-14  0.91188000000E+02  0.91188000000E+02 0.  0.
    9900012    2    3    3    0    0  0.99173101221E+01 -0.10140834455E+02 -0.38104791299E+02  0.50528872077E+02  0.30000037164E+02 0.  0.
         12    1    3    3    0    0 -0.99173101221E+01  0.10140834455E+02  0.38104791299E+02  0.40659127923E+02  0.00000000000E+00 0. -1.
         11    1    4    4    0    0  0.13004732036E+01 -0.14242608704E+02 -0.91428986945E+01  0.16974561262E+02  0.51100000000E-03 0. -1.
        -11    1    4    4    0    0  0.45325315932E+01 -0.32083922171E+01 -0.21922165073E+02  0.22614573731E+02  0.51100000000E-03 0.  1.
         12    1    4    4    0    0  0.40843053253E+01  0.73101664655E+01 -0.70397275315E+01  0.10939737084E+02  0.00000000000E+00 0. -1.
</event>
<event>
 8    1  0.9870402E-014  0.9118800E+02  0.7816164E-02  0.1184000E+00
        -11   -1    0    0    0    0  0.00000000000E+00  0.00000000000E+00  0.45593999997E+02  0.45594000000E+02  0.51100000000E-03 0. -1.
         11   -1    0    0    0    0 -0.00000000000E+00 -0.00000000000E+00 -0.45593999997E+02  0.45594000000E+02  0.51100000000E-03 0.  1.
         23    2    1    2    0    0  0.00000000000E+00  0.71054273576E-14  0.00000000000E+00  0.91188000000E+02  0.91188000000E+02 0.  0.
    9900012    2    3    3    0    0 -0.10865092368E+02  0.32412424165E+02 -0.22012502112E+02  0.50528859310E+02  0.29999998359E+02 0.  0.
         12    1    3    3    0    0  0.10865092368E+02 -0.32412424165E+02  0.22012502112E+02  0.40659140690E+02  0.00000000000E+00 0. -1.
         11    1    4    4    0    0  0.15951971401E+01  0.16545541673E+01 -0.54400336802E+01  0.59056049742E+01  0.51100000000E-03 0. -1.
        -11    1    4    4    0    0 -0.15644585489E+02  0.65385737340E+01 -0.78496628814E+01  0.18684839020E+02  0.51100000000E-03 0.  1.
        -12    1    4    4    0    0  0.31842959808E+01  0.24219296264E+02 -0.87228055500E+01  0.25938415316E+02  0.00000000000E+00 0.  1.
</event>
<event>
 8    1  0.9870402E-014  0.9118800E+02  0.7816164E-02  0.1184000E+00
        -11   -1    0    0    0    0  0.00000000000E+00  0.00000000000E+00  0.45593999997E+02  0.45594000000E+02  0.51100000000E-03 0. -1.
         11   -1    0    0    0    0 -0.00000000000E+00 -0.00000000000E+00 -0.45593999997E+02  0.45594000000E+02  0.51100000000E-03 0.  1.
         23    2    1    2    0    0  0.00000000000E+00  0.00000000000E+00  0.00000000000E+00  0.91188000000E+02  0.91188000000E+02 0.  0.
    9900012    2    3    3    0    0  0.26194815009E+02  0.25432451538E+02 -0.17893792604E+02  0.50528859105E+02  0.29999997735E+02 0.  0.
         12    1    3    3    0    0 -0.26194815009E+02 -0.25432451538E+02  0.17893792604E+02  0.40659140895E+02  0.00000000000E+00 0. -1.
         11    1    4    4    0    0  0.12600116501E+02  0.25550945717E+01 -0.12250494989E+01  0.12914805095E+02  0.51100000000E-03 0. -1.
        -11    1    4    4    0    0  0.18436420302E+02  0.20610173371E+02 -0.10831526728E+02  0.29698532143E+02  0.51100000000E-03 0.  1.
        -12    1    4    4    0    0 -0.48417217940E+01  0.22671835950E+01 -0.58372163774E+01  0.79155218666E+01  0.00000000000E+00 0.  1.
</event>
<event>
 8    1  0.9870402E-014  0.9118800E+02  0.7816164E-02  0.1184000E+00
        -11   -1    0    0    0    0  0.00000000000E+00  0.00000000000E+00  0.45593999997E+02  0.45594000000E+02  0.51100000000E-03 0. -1.
         11   -1    0    0    0    0 -0.00000000000E+00 -0.00000000000E+00 -0.45593999997E+02  0.45594000000E+02  0.51100000000E-03 0.  1.
         23    2    1    2    0    0  0.35527136788E-14  0.17763568394E-14 -0.35527136788E-14  0.91188000000E+02  0.91188000000E+02 0.  0.
    9900012    2    3    3    0    0  0.31440418104E+02  0.89862858696E+01  0.24164297835E+02  0.50528849564E+02  0.29999968734E+02 0.  0.
        -12    1    3    3    0    0 -0.31440418104E+02 -0.89862858696E+01 -0.24164297835E+02  0.40659150436E+02  0.00000000000E+00 0.  1.
         11    1    4    4    0    0  0.95008934443E-01  0.81919804970E+01  0.65017568996E+01  0.10458987246E+02  0.51100000000E-03 0.  1.
        -11    1    4    4    0    0  0.30413366448E+02  0.56961322300E+01  0.14583713432E+02  0.34206775335E+02  0.51100000000E-03 0. -1.
         12    1    4    4    0    0  0.93204272164E+00 -0.49018268574E+01  0.30788275032E+01  0.58630869829E+01  0.00000000000E+00 0. -1.
</event>
<event>
 8    1  0.9870402E-014  0.9118800E+02  0.7816164E-02  0.1184000E+00
        -11   -1    0    0    0    0  0.00000000000E+00  0.00000000000E+00  0.45593999997E+02  0.45594000000E+02  0.51100000000E-03 0.  1.
         11   -1    0    0    0    0 -0.00000000000E+00 -0.00000000000E+00 -0.45593999997E+02  0.45594000000E+02  0.51100000000E-03 0. -1.
         23    2    1    2    0    0  0.00000000000E+00 -0.71054273576E-14  0.00000000000E+00  0.91188000000E+02  0.91188000000E+02 0.  0.
    9900012    2    3    3    0    0  0.84426762840E+01 -0.35528012869E+02 -0.17878893425E+02  0.50528765977E+02  0.29999714661E+02 0.  0.
        -12    1    3    3    0    0 -0.84426762840E+01  0.35528012869E+02  0.17878893425E+02  0.40659234023E+02  0.00000000000E+00 0.  1.
         11    1    4    4    0    0  0.11670362240E+02 -0.11513362458E+02 -0.15356735637E+02  0.22462951712E+02  0.51100000000E-03 0. -1.
        -11    1    4    4    0    0 -0.35357467495E+01 -0.95080956051E+01 -0.76190580741E+01  0.12686821245E+02  0.51100000000E-03 0.  1.
        -12    1    4    4    0    0  0.30806079387E+00 -0.14506554805E+02  0.50969002861E+01  0.15378993020E+02  0.00000000000E+00 0.  1.
</event>
<event>
 8    1  0.9870402E-014  0.9118800E+02  0.7816164E-02  0.1184000E+00
        -11   -1    0    0    0    0  0.00000000000E+00  0.00000000000E+00  0.45593999997E+02  0.45594000000E+02  0.51100000000E-03 0. -1.
         11   -1    0    0    0    0 -0.00000000000E+00 -0.00000000000E+00 -0.45593999997E+02  0.45594000000E+02  0.51100000000E-03 0.  1.
         23    2    1    2    0    0  0.00000000000E+00  0.00000000000E+00  0.00000000000E+00  0.91188000000E+02  0.91188000000E+02 0.  0.
    9900012    2    3    3    0    0 -0.14119972830E+02  0.21853140052E+02 -0.31244709950E+02  0.50528864953E+02  0.30000015512E+02 0.  0.
         12    1    3    3    0    0  0.14119972830E+02 -0.21853140052E+02  0.31244709950E+02  0.40659135047E+02  0.00000000000E+00 0. -1.
         11    1    4    4    0    0 -0.13410107129E+02 -0.61971945782E+00 -0.15477713853E+02  0.20488402862E+02  0.51100000000E-03 0. -1.
        -11    1    4    4    0    0 -0.20571794550E+01  0.76113347792E+01 -0.12477340967E+02  0.14759689776E+02  0.51100000000E-03 0.  1.
        -12    1    4    4    0    0  0.13473137549E+01  0.14861524731E+02 -0.32896551303E+01  0.15280772315E+02  0.00000000000E+00 0.  1.
</event>
<event>
 8    1  0.9870402E-014  0.9118800E+02  0.7816164E-02  0.1184000E+00
        -11   -1    0    0    0    0  0.00000000000E+00  0.00000000000E+00  0.45593999997E+02  0.45594000000E+02  0.51100000000E-03 0. -1.
         11   -1    0    0    0    0 -0.00000000000E+00 -0.00000000000E+00 -0.45593999997E+02  0.45594000000E+02  0.51100000000E-03 0.  1.
         23    2    1    2    0    0  0.88817841970E-15  0.35527136788E-14 -0.71054273576E-14  0.91188000000E+02  0.91188000000E+02 0.  0.
    9900012    2    3    3    0    0  0.12151614065E+01  0.22801991292E+02 -0.33641621772E+02  0.50528854171E+02  0.29999982738E+02 0.  0.
         12    1    3    3    0    0 -0.12151614065E+01 -0.22801991292E+02  0.33641621772E+02  0.40659145829E+02  0.00000000000E+00 0. -1.
         11    1    4    4    0    0  0.12243233740E+02  0.97771202265E+01 -0.12416703067E+02  0.19991582420E+02  0.51100000000E-03 0. -1.
        -11    1    4    4    0    0 -0.14285718511E+01  0.82651160384E+01 -0.21497178310E+01  0.86587670991E+01  0.51100000000E-03 0.  1.
        -12    1    4    4    0    0 -0.95995004823E+01  0.47597550268E+01 -0.19075200874E+02  0.21878504652E+02  0.00000000000E+00 0.  1.
</event>
<event>
 8    1  0.9870402E-014  0.9118800E+02  0.7816164E-02  0.1184000E+00
        -11   -1    0    0    0    0  0.00000000000E+00  0.00000000000E+00  0.45593999997E+02  0.45594000000E+02  0.51100000000E-03 0. -1.
         11   -1    0    0    0    0 -0.00000000000E+00 -0.00000000000E+00 -0.45593999997E+02  0.45594000000E+02  0.51100000000E-03 0.  1.
         23    2    1    2    0    0  0.00000000000E+00  0.00000000000E+00  0.17763568394E-14  0.91188000000E+02  0.91188000000E+02 0.  0.
    9900012    2    3    3    0    0 -0.34115469585E+02  0.20979818166E+02 -0.70105626327E+01  0.50528855595E+02  0.29999987067E+02 0.  0.
         12    1    3    3    0    0  0.34115469585E+02 -0.20979818166E+02  0.70105626327E+01  0.40659144405E+02  0.00000000000E+00 0. -1.
         11    1    4    4    0    0 -0.99126890824E+01 -0.73647753399E+00 -0.76344627837E+01  0.12533508139E+02  0.51100000000E-03 0.  1.
        -11    1    4    4    0    0 -0.19950983205E+02  0.20771092037E+02 -0.66117580591E+01  0.29549878852E+02  0.51100000000E-03 0. -1.
         12    1    4    4    0    0 -0.42517972971E+01  0.94520366381E+00  0.72356582102E+01  0.84454686049E+01  0.00000000000E+00 0. -1.
</event>
<event>
 8    1  0.9870402E-014  0.9118800E+02  0.7816164E-02  0.1184000E+00
        -11   -1    0    0    0    0  0.00000000000E+00  0.00000000000E+00  0.45593999997E+02  0.45594000000E+02  0.51100000000E-03 0.  1.
         11   -1    0    0    0    0 -0.00000000000E+00 -0.00000000000E+00 -0.45593999997E+02  0.45594000000E+02  0.51100000000E-03 0. -1.
         23    2    1    2    0    0  0.00000000000E+00  0.00000000000E+00  0.00000000000E+00  0.91188000000E+02  0.91188000000E+02 0.  0.
    9900012    2    3    3    0    0 -0.17321684479E+02  0.33083275381E+02  0.16081724543E+02  0.50528859239E+02  0.29999998143E+02 0.  0.
        -12    1    3    3    0    0  0.17321684479E+02 -0.33083275381E+02 -0.16081724543E+02  0.40659140761E+02  0.00000000000E+00 0.  1.
         11    1    4    4    0    0 -0.28766825023E+01  0.70312404432E+01  0.10561107600E+02  0.13009636367E+02  0.51100000000E-03 0. -1.
        -11    1    4    4    0    0  0.35323203859E+01  0.15423097290E+02  0.51226739503E+01  0.16631025404E+02  0.51100000000E-03 0.  1.
         12    1    4    4    0    0 -0.17977322363E+02  0.10628937648E+02  0.39794299270E+00  0.20888197468E+02  0.00000000000E+00 0. -1.
</event>
<event>
 8    1  0.9870402E-014  0.9118800E+02  0.7816164E-02  0.1184000E+00
        -11   -1    0    0    0    0  0.00000000000E+00  0.00000000000E+00  0.45593999997E+02  0.45594000000E+02  0.51100000000E-03 0. -1.
         11   -1    0    0    0    0 -0.00000000000E+00 -0.00000000000E+00 -0.45593999997E+02  0.45594000000E+02  0.51100000000E-03 0.  1.
         23    2    1    2    0    0  0.00000000000E+00  0.35527136788E-14  0.00000000000E+00  0.91188000000E+02  0.91188000000E+02 0.  0.
    9900012    2    3    3    0    0  0.16021971039E+02  0.27141662710E+02 -0.25686372357E+02  0.50528891113E+02  0.30000095027E+02 0.  0.
         12    1    3    3    0    0 -0.16021971039E+02 -0.27141662710E+02  0.25686372357E+02  0.40659108887E+02  0.00000000000E+00 0. -1.
         11    1    4    4    0    0  0.13483804105E+02  0.70877374966E+01 -0.81154508421E+01  0.17260056158E+02  0.51100000000E-03 0. -1.
        -11    1    4    4    0    0  0.75469508839E+01  0.10383545458E+00 -0.61877198998E+01  0.97598733222E+01  0.51100000000E-03 0.  1.
        -12    1    4    4    0    0 -0.50087839495E+01  0.19950089758E+02 -0.11383201615E+02  0.23508961632E+02  0.00000000000E+00 0.  1.
</event>
<event>
 8    1  0.9870402E-014  0.9118800E+02  0.7816164E-02  0.1184000E+00
        -11   -1    0    0    0    0  0.00000000000E+00  0.00000000000E+00  0.45593999997E+02  0.45594000000E+02  0.51100000000E-03 0. -1.
         11   -1    0    0    0    0 -0.00000000000E+00 -0.00000000000E+00 -0.45593999997E+02  0.45594000000E+02  0.51100000000E-03 0.  1.
         23    2    1    2    0    0  0.35527136788E-14 -0.17763568394E-14  0.00000000000E+00  0.91188000000E+02  0.91188000000E+02 0.  0.
    9900012    2    3    3    0    0  0.19952322075E+02 -0.10020298964E+02  0.33980344917E+02  0.50528863411E+02  0.30000010823E+02 0.  0.
        -12    1    3    3    0    0 -0.19952322075E+02  0.10020298964E+02 -0.33980344917E+02  0.40659136589E+02  0.00000000000E+00 0.  1.
         11    1    4    4    0    0  0.21590460866E+01 -0.48406041699E+01  0.33949597722E+01  0.62943372049E+01  0.51100000000E-03 0. -1.
        -11    1    4    4    0    0 -0.32092330304E+01  0.13418390614E+01 -0.26562969808E+01  0.43767136782E+01  0.51100000000E-03 0.  1.
         12    1    4    4    0    0  0.21002509019E+02 -0.65215338551E+01  0.33241682126E+02  0.39857812527E+02  0.00000000000E+00 0. -1.
</event>
<event>
 8    1  0.9870402E-014  0.9118800E+02  0.7816164E-02  0.1184000E+00
        -11   -1    0    0    0    0  0.00000000000E+00  0.00000000000E+00  0.45593999997E+02  0.45594000000E+02  0.51100000000E-03 0. -1.
         11   -1    0    0    0    0 -0.00000000000E+00 -0.00000000000E+00 -0.45593999997E+02  0.45594000000E+02  0.51100000000E-03 0.  1.
         23    2    1    2    0    0 -0.17763568394E-14 -0.71054273576E-14  0.17763568394E-14  0.91188000000E+02  0.91188000000E+02 0.  0.
    9900012    2    3    3    0    0  0.13354018024E+02 -0.36103165206E+02  0.13091868164E+02  0.50528863914E+02  0.30000012352E+02 0.  0.
        -12    1    3    3    0    0 -0.13354018024E+02  0.36103165206E+02 -0.13091868164E+02  0.40659136086E+02  0.00000000000E+00 0.  1.
         11    1    4    4    0    0  0.13570909134E+02 -0.31002568850E+02  0.12567144132E+01  0.33866032856E+02  0.51100000000E-03 0. -1.
        -11    1    4    4    0    0 -0.21323056945E+01 -0.25158223350E+01 -0.98765483169E+00  0.34426083024E+01  0.51100000000E-03 0.  1.
         12    1    4    4    0    0  0.19154145844E+01 -0.25847740210E+01  0.12822808582E+02  0.13220222756E+02  0.00000000000E+00 0. -1.
</event>
<event>
 8    1  0.9870402E-014  0.9118800E+02  0.7816164E-02  0.1184000E+00
        -11   -1    0    0    0    0  0.00000000000E+00  0.00000000000E+00  0.45593999997E+02  0.45594000000E+02  0.51100000000E-03 0. -1.
         11   -1    0    0    0    0 -0.00000000000E+00 -0.00000000000E+00 -0.45593999997E+02  0.45594000000E+02  0.51100000000E-03 0.  1.
         23    2    1    2    0    0  0.35527136788E-14 -0.10658141036E-13 -0.17763568394E-14  0.91188000000E+02  0.91188000000E+02 0.  0.
    9900012    2    3    3    0    0 -0.23865748441E+02  0.30774929400E+02  0.11683116395E+02  0.50528862811E+02  0.30000009001E+02 0.  0.
        -12    1    3    3    0    0  0.23865748441E+02 -0.30774929400E+02 -0.11683116395E+02  0.40659137189E+02  0.00000000000E+00 0.  1.
         11    1    4    4    0    0  0.23119903861E+01  0.45773007055E+01 -0.36636892617E+00  0.51411290341E+01  0.51100000000E-03 0.  1.
        -11    1    4    4    0    0 -0.24710576190E+02  0.28246607678E+02  0.15921894743E+02  0.40767513456E+02  0.51100000000E-03 0. -1.
         12    1    4    4    0    0 -0.14671626374E+01 -0.20489789834E+01 -0.38724094222E+01  0.46202203208E+01  0.00000000000E+00 0. -1.
</event>
<event>
 8    1  0.9870402E-014  0.9118800E+02  0.7816164E-02  0.1184000E+00
        -11   -1    0    0    0    0  0.00000000000E+00  0.00000000000E+00  0.45593999997E+02  0.45594000000E+02  0.51100000000E-03 0. -1.
         11   -1    0    0    0    0 -0.00000000000E+00 -0.00000000000E+00 -0.45593999997E+02  0.45594000000E+02  0.51100000000E-03 0.  1.
         23    2    1    2    0    0  0.00000000000E+00  0.00000000000E+00  0.35527136788E-14  0.91188000000E+02  0.91188000000E+02 0.  0.
    9900012    2    3    3    0    0  0.23656715794E+02  0.28110062289E+02  0.17416968894E+02  0.50528848392E+02  0.29999965172E+02 0.  0.
        -12    1    3    3    0    0 -0.23656715794E+02 -0.28110062289E+02 -0.17416968894E+02  0.40659151608E+02  0.00000000000E+00 0.  1.
         11    1    4    4    0    0 -0.15622141761E+01 -0.99448760541E-01 -0.13556246262E+01  0.20707780123E+01  0.51100000000E-03 0.  1.
        -11    1    4    4    0    0  0.80485030587E+01  0.13944239978E+02  0.20501816781E+02  0.26068078595E+02  0.51100000000E-03 0. -1.
         12    1    4    4    0    0  0.17170426911E+02  0.14265271071E+02 -0.17292232601E+01  0.22389991785E+02  0.00000000000E+00 0. -1.
</event>
<event>
 8    1  0.9870402E-014  0.9118800E+02  0.7816164E-02  0.1184000E+00
        -11   -1    0    0    0    0  0.00000000000E+00  0.00000000000E+00  0.45593999997E+02  0.45594000000E+02  0.51100000000E-03 0. -1.
         11   -1    0    0    0    0 -0.00000000000E+00 -0.00000000000E+00 -0.45593999997E+02  0.45594000000E+02  0.51100000000E-03 0.  1.
         23    2    1    2    0    0  0.00000000000E+00  0.44408920985E-15 -0.71054273576E-14  0.91188000000E+02  0.91188000000E+02 0.  0.
    9900012    2    3    3    0    0  0.63097913336E+00 -0.24272259113E+01 -0.40581706928E+02  0.50528874364E+02  0.30000044116E+02 0.  0.
         12    1    3    3    0    0 -0.63097913336E+00  0.24272259113E+01  0.40581706928E+02  0.40659125636E+02  0.00000000000E+00 0. -1.
         11    1    4    4    0    0 -0.42402531408E-01  0.41824562815E+01 -0.26984522896E+02  0.27306761337E+02  0.51100000000E-03 0. -1.
        -11    1    4    4    0    0 -0.32343421446E+01 -0.92074007311E+01 -0.15369646383E+02  0.18206131591E+02  0.51100000000E-03 0.  1.
         12    1    4    4    0    0  0.39077238093E+01  0.25977185383E+01  0.17724623509E+01  0.50159814353E+01  0.00000000000E+00 0. -1.
</event>
<event>
 8    1  0.9870402E-014  0.9118800E+02  0.7816164E-02  0.1184000E+00
        -11   -1    0    0    0    0  0.00000000000E+00  0.00000000000E+00  0.45593999997E+02  0.45594000000E+02  0.51100000000E-03 0. -1.
         11   -1    0    0    0    0 -0.00000000000E+00 -0.00000000000E+00 -0.45593999997E+02  0.45594000000E+02  0.51100000000E-03 0.  1.
         23    2    1    2    0    0  0.00000000000E+00  0.17763568394E-14  0.71054273576E-14  0.91188000000E+02  0.91188000000E+02 0.  0.
    9900012    2    3    3    0    0  0.19610372631E+02  0.13419032088E+02  0.32992784388E+02  0.50528917884E+02  0.30000176399E+02 0.  0.
        -12    1    3    3    0    0 -0.19610372631E+02 -0.13419032088E+02 -0.32992784388E+02  0.40659082116E+02  0.00000000000E+00 0.  1.
         11    1    4    4    0    0  0.76017132214E+01  0.12185666525E+02  0.24989757145E+02  0.28822985185E+02  0.51100000000E-03 0. -1.
        -11    1    4    4    0    0 -0.29382368450E+01 -0.38333597203E+00  0.57976195282E+01  0.65109580462E+01  0.51100000000E-03 0.  1.
        -12    1    4    4    0    0  0.14946896254E+02  0.16167015349E+01  0.22054077143E+01  0.15194974652E+02  0.00000000000E+00 0.  1.
</event>
<event>
 8    1  0.9870402E-014  0.9118800E+02  0.7816164E-02  0.1184000E+00
        -11   -1    0    0    0    0  0.00000000000E+00  0.00000000000E+00  0.45593999997E+02  0.45594000000E+02  0.51100000000E-03 0. -1.
         11   -1    0    0    0    0 -0.00000000000E+00 -0.00000000000E+00 -0.45593999997E+02  0.45594000000E+02  0.51100000000E-03 0.  1.
         23    2    1    2    0    0 -0.35527136788E-14  0.00000000000E+00  0.00000000000E+00  0.91188000000E+02  0.91188000000E+02 0.  0.
    9900012    2    3    3    0    0 -0.25033480314E+02  0.23396196448E+02  0.21888545012E+02  0.50528861450E+02  0.30000004865E+02 0.  0.
        -12    1    3    3    0    0  0.25033480314E+02 -0.23396196448E+02 -0.21888545012E+02  0.40659138550E+02  0.00000000000E+00 0.  1.
         11    1    4    4    0    0 -0.58389269265E+01  0.10636930985E+01  0.81785174815E+01  0.10105080857E+02  0.51100000000E-03 0. -1.
        -11    1    4    4    0    0 -0.61750530945E+01  0.57623956418E+00  0.13734061877E+02  0.15069432260E+02  0.51100000000E-03 0.  1.
        -12    1    4    4    0    0 -0.13019500293E+02  0.21756263785E+02 -0.24034346211E-01  0.25354348334E+02  0.00000000000E+00 0.  1.
</event>
<event>
 8    1  0.9870402E-014  0.9118800E+02  0.7816164E-02  0.1184000E+00
        -11   -1    0    0    0    0  0.00000000000E+00  0.00000000000E+00  0.45593999997E+02  0.45594000000E+02  0.51100000000E-03 0. -1.
         11   -1    0    0    0    0 -0.00000000000E+00 -0.00000000000E+00 -0.45593999997E+02  0.45594000000E+02  0.51100000000E-03 0.  1.
         23    2    1    2    0    0 -0.88817841970E-15  0.00000000000E+00  0.00000000000E+00  0.91188000000E+02  0.91188000000E+02 0.  0.
    9900012    2    3    3    0    0 -0.59572108736E+01  0.30101828994E+02  0.26675028139E+02  0.50528860850E+02  0.30000003041E+02 0.  0.
        -12    1    3    3    0    0  0.59572108736E+01 -0.30101828994E+02 -0.26675028139E+02  0.40659139150E+02  0.00000000000E+00 0.  1.
         11    1    4    4    0    0  0.48237561748E+01 -0.23064671638E+01 -0.19047245026E+01  0.56759483881E+01  0.51100000000E-03 0. -1.
        -11    1    4    4    0    0  0.23517380150E-01  0.55226894361E+01  0.56656297435E+01  0.79120169569E+01  0.51100000000E-03 0.  1.
         12    1    4    4    0    0 -0.10804484429E+02  0.26885606722E+02  0.22914122898E+02  0.36940895505E+02  0.00000000000E+00 0. -1.
</event>
<event>
 8    1  0.9870402E-014  0.9118800E+02  0.7816164E-02  0.1184000E+00
        -11   -1    0    0    0    0  0.00000000000E+00  0.00000000000E+00  0.45593999997E+02  0.45594000000E+02  0.51100000000E-03 0. -1.
         11   -1    0    0    0    0 -0.00000000000E+00 -0.00000000000E+00 -0.45593999997E+02  0.45594000000E+02  0.51100000000E-03 0.  1.
         23    2    1    2    0    0 -0.88817841970E-15  0.00000000000E+00 -0.35527136788E-14  0.91188000000E+02  0.91188000000E+02 0.  0.
    9900012    2    3    3    0    0  0.21364629005E+01  0.30332796639E+02  0.26991074104E+02  0.50528916059E+02  0.30000170852E+02 0.  0.
        -12    1    3    3    0    0 -0.21364629005E+01 -0.30332796639E+02 -0.26991074104E+02  0.40659083941E+02  0.00000000000E+00 0.  1.
         11    1    4    4    0    0 -0.63407555048E+01  0.13141122298E+02  0.15764558772E+02  0.21480586332E+02  0.51100000000E-03 0. -1.
        -11    1    4    4    0    0  0.40240857011E+01  0.54715060501E+01  0.14567604629E+02  0.16073137500E+02  0.51100000000E-03 0.  1.
        -12    1    4    4    0    0  0.44531327042E+01  0.11720168291E+02 -0.33410892971E+01  0.12975192227E+02  0.00000000000E+00 0.  1.
</event>
<event>
 8    1  0.9870402E-014  0.9118800E+02  0.7816164E-02  0.1184000E+00
        -11   -1    0    0    0    0  0.00000000000E+00  0.00000000000E+00  0.45593999997E+02  0.45594000000E+02  0.51100000000E-03 0. -1.
         11   -1    0    0    0    0 -0.00000000000E+00 -0.00000000000E+00 -0.45593999997E+02  0.45594000000E+02  0.51100000000E-03 0.  1.
         23    2    1    2    0    0  0.00000000000E+00  0.00000000000E+00  0.00000000000E+00  0.91188000000E+02  0.91188000000E+02 0.  0.
    9900012    2    3    3    0    0  0.26158806964E+02 -0.42438787373E+01 -0.30836219796E+02  0.50528854168E+02  0.29999982729E+02 0.  0.
         12    1    3    3    0    0 -0.26158806964E+02  0.42438787373E+01  0.30836219796E+02  0.40659145832E+02  0.00000000000E+00 0. -1.
         11    1    4    4    0    0  0.84531191827E+01  0.75929954489E+01 -0.12179423770E+02  0.16656745404E+02  0.51100000000E-03 0. -1.
        -11    1    4    4    0    0  0.49229230077E+01  0.33847507761E+01 -0.11102745922E+02  0.12608040134E+02  0.51100000000E-03 0.  1.
         12    1    4    4    0    0  0.12782764773E+02 -0.15221624962E+02 -0.75540501036E+01  0.21264068630E+02  0.00000000000E+00 0. -1.
</event>
<event>
 8    1  0.9870402E-014  0.9118800E+02  0.7816164E-02  0.1184000E+00
        -11   -1    0    0    0    0  0.00000000000E+00  0.00000000000E+00  0.45593999997E+02  0.45594000000E+02  0.51100000000E-03 0. -1.
         11   -1    0    0    0    0 -0.00000000000E+00 -0.00000000000E+00 -0.45593999997E+02  0.45594000000E+02  0.51100000000E-03 0.  1.
         23    2    1    2    0    0 -0.44408920985E-15  0.17763568394E-14  0.00000000000E+00  0.91188000000E+02  0.91188000000E+02 0.  0.
    9900012    2    3    3    0    0 -0.27056935008E+01 -0.40371222361E+01  0.40367649742E+02  0.50528852457E+02  0.29999977527E+02 0.  0.
        -12    1    3    3    0    0  0.27056935008E+01  0.40371222361E+01 -0.40367649742E+02  0.40659147543E+02  0.00000000000E+00 0.  1.
         11    1    4    4    0    0 -0.14091887287E+01  0.23068825062E+01 -0.84755883578E-01  0.27045708701E+01  0.51100000000E-03 0. -1.
        -11    1    4    4    0    0  0.10417438869E+02 -0.83647814749E+01  0.17963032302E+02  0.22386673077E+02  0.51100000000E-03 0.  1.
         12    1    4    4    0    0 -0.11713943641E+02  0.20207767327E+01  0.22489373323E+02  0.25437608510E+02  0.00000000000E+00 0. -1.
</event>
<event>
 8    1  0.9870402E-014  0.9118800E+02  0.7816164E-02  0.1184000E+00
        -11   -1    0    0    0    0  0.00000000000E+00  0.00000000000E+00  0.45593999997E+02  0.45594000000E+02  0.51100000000E-03 0. -1.
         11   -1    0    0    0    0 -0.00000000000E+00 -0.00000000000E+00 -0.45593999997E+02  0.45594000000E+02  0.51100000000E-03 0.  1.
         23    2    1    2    0    0  0.00000000000E+00 -0.44408920985E-15  0.00000000000E+00  0.91188000000E+02  0.91188000000E+02 0.  0.
    9900012    2    3    3    0    0  0.31990146396E+01  0.29546793915E+01  0.40425305306E+02  0.50528817346E+02  0.29999870805E+02 0.  0.
        -12    1    3    3    0    0 -0.31990146396E+01 -0.29546793915E+01 -0.40425305306E+02  0.40659182654E+02  0.00000000000E+00 0.  1.
         11    1    4    4    0    0  0.24365417112E+01  0.75033521779E+00  0.33068200775E+02  0.33166332948E+02  0.51100000000E-03 0. -1.
        -11    1    4    4    0    0 -0.53363426322E+01  0.47329801852E+01  0.80129292657E+01  0.10727753250E+02  0.51100000000E-03 0.  1.
         12    1    4    4    0    0  0.60988155606E+01 -0.25286360116E+01 -0.65582473425E+00  0.66347311478E+01  0.00000000000E+00 0. -1.
</event>
<event>
 8    1  0.9870402E-014  0.9118800E+02  0.7816164E-02  0.1184000E+00
        -11   -1    0    0    0    0  0.00000000000E+00  0.00000000000E+00  0.45593999997E+02  0.45594000000E+02  0.51100000000E-03 0. -1.
         11   -1    0    0    0    0 -0.00000000000E+00 -0.00000000000E+00 -0.45593999997E+02  0.45594000000E+02  0.51100000000E-03 0.  1.
         23    2    1    2    0    0  0.00000000000E+00  0.71054273576E-14 -0.88817841970E-15  0.91188000000E+02  0.91188000000E+02 0.  0.
    9900012    2    3    3    0    0  0.11490937411E+02  0.38245348049E+02 -0.76431658549E+01  0.50528852515E+02  0.29999977703E+02 0.  0.
         12    1    3    3    0    0 -0.11490937411E+02 -0.38245348049E+02  0.76431658549E+01  0.40659147485E+02  0.00000000000E+00 0. -1.
         11    1    4    4    0    0  0.55565819359E+00  0.17590228859E+02 -0.18201555371E+01  0.17692876357E+02  0.51100000000E-03 0. -1.
        -11    1    4    4    0    0 -0.84675279891E+00  0.17479736837E+02 -0.97300838735E+01  0.20023304489E+02  0.51100000000E-03 0.  1.
         12    1    4    4    0    0  0.11782032017E+02  0.31753823523E+01  0.39070735557E+01  0.12812671669E+02  0.00000000000E+00 0. -1.
</event>
<event>
 8    1  0.9870402E-014  0.9118800E+02  0.7816164E-02  0.1184000E+00
        -11   -1    0    0    0    0  0.00000000000E+00  0.00000000000E+00  0.45593999997E+02  0.45594000000E+02  0.51100000000E-03 0. -1.
         11   -1    0    0    0    0 -0.00000000000E+00 -0.00000000000E+00 -0.45593999997E+02  0.45594000000E+02  0.51100000000E-03 0.  1.
         23    2    1    2    0    0 -0.17763568394E-14  0.26645352591E-14  0.71054273576E-14  0.91188000000E+02  0.91188000000E+02 0.  0.
    9900012    2    3    3    0    0  0.13934155107E+02 -0.77844114207E+01 -0.37395316440E+02  0.50528838285E+02  0.29999934450E+02 0.  0.
         12    1    3    3    0    0 -0.13934155107E+02  0.77844114207E+01  0.37395316440E+02  0.40659161715E+02  0.00000000000E+00 0. -1.
         11    1    4    4    0    0  0.70351832511E+01 -0.72188689343E+01 -0.33794122702E+01  0.10631382771E+02  0.51100000000E-03 0. -1.
        -11    1    4    4    0    0  0.12063377398E+02 -0.46117301194E+01 -0.28633852069E+02  0.31411631819E+02  0.51100000000E-03 0.  1.
        -12    1    4    4    0    0 -0.51644055421E+01  0.40461876330E+01 -0.53820521008E+01  0.84858236949E+01  0.00000000000E+00 0.  1.
</event>
<event>
 8    1  0.9870402E-014  0.9118800E+02  0.7816164E-02  0.1184000E+00
        -11   -1    0    0    0    0  0.00000000000E+00  0.00000000000E+00  0.45593999997E+02  0.45594000000E+02  0.51100000000E-03 0. -1.
         11   -1    0    0    0    0 -0.00000000000E+00 -0.00000000000E+00 -0.45593999997E+02  0.45594000000E+02  0.51100000000E-03 0.  1.
         23    2    1    2    0    0 -0.17763568394E-14  0.00000000000E+00 -0.71054273576E-14  0.91188000000E+02  0.91188000000E+02 0.  0.
    9900012    2    3    3    0    0 -0.10939298997E+02  0.21043599324E+02  0.33025206487E+02  0.50528860823E+02  0.30000002959E+02 0.  0.
        -12    1    3    3    0    0  0.10939298997E+02 -0.21043599324E+02 -0.33025206487E+02  0.40659139177E+02  0.00000000000E+00 0.  1.
         11    1    4    4    0    0  0.49786105201E+01  0.13614680119E+01  0.12253900585E+02  0.13296549841E+02  0.51100000000E-03 0. -1.
        -11    1    4    4    0    0  0.23869452467E+01  0.71534772463E+01  0.11711158814E+01  0.76315959663E+01  0.51100000000E-03 0.  1.
        -12    1    4    4    0    0 -0.18304854764E+02  0.12528654066E+02  0.19600190021E+02  0.29600715016E+02  0.00000000000E+00 0.  1.
</event>
<event>
 8    1  0.9870402E-014  0.9118800E+02  0.7816164E-02  0.1184000E+00
        -11   -1    0    0    0    0  0.00000000000E+00  0.00000000000E+00  0.45593999997E+02  0.45594000000E+02  0.51100000000E-03 0.  1.
         11   -1    0    0    0    0 -0.00000000000E+00 -0.00000000000E+00 -0.45593999997E+02  0.45594000000E+02  0.51100000000E-03 0. -1.
         23    2    1    2    0    0  0.00000000000E+00  0.00000000000E+00  0.00000000000E+00  0.91188000000E+02  0.91188000000E+02 0.  0.
    9900012    2    3    3    0    0  0.34256673946E+02  0.11900900496E+02  0.18385165896E+02  0.50528862435E+02  0.30000007858E+02 0.  0.
         12    1    3    3    0    0 -0.34256673946E+02 -0.11900900496E+02 -0.18385165896E+02  0.40659137565E+02  0.00000000000E+00 0. -1.
         11    1    4    4    0    0  0.15184392615E+02  0.21809602056E+01  0.24827404883E+00  0.15342229524E+02  0.51100000000E-03 0.  1.
        -11    1    4    4    0    0  0.16801969346E+02  0.30805895135E+01  0.15206508017E+01  0.17149594304E+02  0.51100000000E-03 0. -1.
         12    1    4    4    0    0  0.22703119851E+01  0.66393507769E+01  0.16616241045E+02  0.18037038607E+02  0.00000000000E+00 0. -1.
</event>
<event>
 8    1  0.9870402E-014  0.9118800E+02  0.7816164E-02  0.1184000E+00
        -11   -1    0    0    0    0  0.00000000000E+00  0.00000000000E+00  0.45593999997E+02  0.45594000000E+02  0.51100000000E-03 0.  1.
         11   -1    0    0    0    0 -0.00000000000E+00 -0.00000000000E+00 -0.45593999997E+02  0.45594000000E+02  0.51100000000E-03 0. -1.
         23    2    1    2    0    0  0.00000000000E+00  0.00000000000E+00  0.00000000000E+00  0.91188000000E+02  0.91188000000E+02 0.  0.
    9900012    2    3    3    0    0  0.37847345263E+02 -0.29755906007E+01 -0.14556447281E+02  0.50528857850E+02  0.29999993922E+02 0.  0.
        -12    1    3    3    0    0 -0.37847345263E+02  0.29755906007E+01  0.14556447281E+02  0.40659142150E+02  0.00000000000E+00 0.  1.
         11    1    4    4    0    0  0.11708626054E+02 -0.11133178484E+02 -0.42017612317E+01  0.16694142235E+02  0.51100000000E-03 0. -1.
        -11    1    4    4    0    0  0.51054063252E+01  0.53062559022E+01  0.38354805440E+01  0.83025560347E+01  0.51100000000E-03 0.  1.
         12    1    4    4    0    0  0.21033312883E+02  0.28513319812E+01 -0.14190166594E+02  0.25532159581E+02  0.00000000000E+00 0. -1.
</event>
<event>
 8    1  0.9870402E-014  0.9118800E+02  0.7816164E-02  0.1184000E+00
        -11   -1    0    0    0    0  0.00000000000E+00  0.00000000000E+00  0.45593999997E+02  0.45594000000E+02  0.51100000000E-03 0. -1.
         11   -1    0    0    0    0 -0.00000000000E+00 -0.00000000000E+00 -0.45593999997E+02  0.45594000000E+02  0.51100000000E-03 0.  1.
         23    2    1    2    0    0  0.35527136788E-14 -0.17763568394E-14  0.00000000000E+00  0.91188000000E+02  0.91188000000E+02 0.  0.
    9900012    2    3    3    0    0  0.27965982508E+02  0.10362929704E+02 -0.27634765924E+02  0.50528846327E+02  0.29999958896E+02 0.  0.
         12    1    3    3    0    0 -0.27965982508E+02 -0.10362929704E+02  0.27634765924E+02  0.40659153673E+02  0.00000000000E+00 0. -1.
         11    1    4    4    0    0  0.64365078462E+00  0.41406598345E+01  0.26291342978E+01  0.49468876695E+01  0.51100000000E-03 0.  1.
        -11    1    4    4    0    0  0.23297287489E+01  0.16699513739E+01  0.27183707627E+01  0.39504320649E+01  0.51100000000E-03 0. -1.
        -12    1    4    4    0    0  0.24992602975E+02  0.45523184960E+01 -0.32982270985E+02  0.41631526593E+02  0.00000000000E+00 0.  1.
</event>
<event>
 8    1  0.9870402E-014  0.9118800E+02  0.7816164E-02  0.1184000E+00
        -11   -1    0    0    0    0  0.00000000000E+00  0.00000000000E+00  0.45593999997E+02  0.45594000000E+02  0.51100000000E-03 0. -1.
         11   -1    0    0    0    0 -0.00000000000E+00 -0.00000000000E+00 -0.45593999997E+02  0.45594000000E+02  0.51100000000E-03 0.  1.
         23    2    1    2    0    0  0.35527136788E-14  0.00000000000E+00  0.00000000000E+00  0.91188000000E+02  0.91188000000E+02 0.  0.
    9900012    2    3    3    0    0 -0.91828963785E+01 -0.19620079001E+02 -0.34407746134E+02  0.50528854904E+02  0.29999984967E+02 0.  0.
         12    1    3    3    0    0  0.91828963785E+01  0.19620079001E+02  0.34407746134E+02  0.40659145096E+02  0.00000000000E+00 0. -1.
         11    1    4    4    0    0 -0.20362026962E+01 -0.15382720214E+02 -0.60047619596E+01  0.16638250180E+02  0.51100000000E-03 0. -1.
        -11    1    4    4    0    0 -0.11133010567E+02 -0.68275621004E+01 -0.16294283390E+02  0.20882126328E+02  0.51100000000E-03 0.  1.
        -12    1    4    4    0    0  0.39863168847E+01  0.25902033133E+01 -0.12108700785E+02  0.13008478397E+02  0.00000000000E+00 0.  1.
</event>
<event>
 8    1  0.9870402E-014  0.9118800E+02  0.7816164E-02  0.1184000E+00
        -11   -1    0    0    0    0  0.00000000000E+00  0.00000000000E+00  0.45593999997E+02  0.45594000000E+02  0.51100000000E-03 0. -1.
         11   -1    0    0    0    0 -0.00000000000E+00 -0.00000000000E+00 -0.45593999997E+02  0.45594000000E+02  0.51100000000E-03 0.  1.
         23    2    1    2    0    0  0.00000000000E+00  0.35527136788E-14  0.88817841970E-15  0.91188000000E+02  0.91188000000E+02 0.  0.
    9900012    2    3    3    0    0 -0.36164359683E+02 -0.17455211843E+02 -0.63733922732E+01  0.50528862518E+02  0.30000008109E+02 0.  0.
         12    1    3    3    0    0  0.36164359683E+02  0.17455211843E+02  0.63733922732E+01  0.40659137482E+02  0.00000000000E+00 0. -1.
         11    1    4    4    0    0 -0.66610628278E+00  0.88742033995E+00 -0.73500013580E+01  0.74332854556E+01  0.51100000000E-03 0. -1.
        -11    1    4    4    0    0 -0.20848822914E+02 -0.19174534800E+02  0.19329223029E+01  0.28391414030E+02  0.51100000000E-03 0.  1.
         12    1    4    4    0    0 -0.14649430485E+02  0.83190261752E+00 -0.95631321809E+00  0.14704163032E+02  0.00000000000E+00 0. -1.
</event>
<event>
 8    1  0.9870402E-014  0.9118800E+02  0.7816164E-02  0.1184000E+00
        -11   -1    0    0    0    0  0.00000000000E+00  0.00000000000E+00  0.45593999997E+02  0.45594000000E+02  0.51100000000E-03 0. -1.
         11   -1    0    0    0    0 -0.00000000000E+00 -0.00000000000E+00 -0.45593999997E+02  0.45594000000E+02  0.51100000000E-03 0.  1.
         23    2    1    2    0    0 -0.71054273576E-14  0.00000000000E+00 -0.35527136788E-14  0.91188000000E+02  0.91188000000E+02 0.  0.
    9900012    2    3    3    0    0  0.33059552071E+02  0.17072455303E+02  0.16393999019E+02  0.50528856907E+02  0.29999991056E+02 0.  0.
        -12    1    3    3    0    0 -0.33059552071E+02 -0.17072455303E+02 -0.16393999019E+02  0.40659143093E+02  0.00000000000E+00 0.  1.
         11    1    4    4    0    0  0.19555723304E+02  0.12430979931E+02  0.11984798675E+02  0.26088138599E+02  0.51100000000E-03 0. -1.
        -11    1    4    4    0    0  0.13427794874E+02 -0.25148202980E+01  0.86043125606E+01  0.16145098055E+02  0.51100000000E-03 0.  1.
        -12    1    4    4    0    0  0.76033892256E-01  0.71562956703E+01 -0.41951122172E+01  0.82956202534E+01  0.00000000000E+00 0.  1.
</event>
<event>
 8    1  0.9870402E-014  0.9118800E+02  0.7816164E-02  0.1184000E+00
        -11   -1    0    0    0    0  0.00000000000E+00  0.00000000000E+00  0.45593999997E+02  0.45594000000E+02  0.51100000000E-03 0. -1.
         11   -1    0    0    0    0 -0.00000000000E+00 -0.00000000000E+00 -0.45593999997E+02  0.45594000000E+02  0.51100000000E-03 0.  1.
         23    2    1    2    0    0 -0.66613381478E-15  0.00000000000E+00  0.71054273576E-14  0.91188000000E+02  0.91188000000E+02 0.  0.
    9900012    2    3    3    0    0  0.15625907775E+01  0.16267091524E+02 -0.37230444564E+02  0.50528856391E+02  0.29999989486E+02 0.  0.
         12    1    3    3    0    0 -0.15625907775E+01 -0.16267091524E+02  0.37230444564E+02  0.40659143609E+02  0.00000000000E+00 0. -1.
         11    1    4    4    0    0  0.86175220106E+00 -0.33431967957E+01  0.14447335337E+01  0.37425708965E+01  0.51100000000E-03 0. -1.
        -11    1    4    4    0    0 -0.66238744990E+01  0.19161644410E+01 -0.13459318570E+02  0.15122852117E+02  0.51100000000E-03 0.  1.
         12    1    4    4    0    0  0.73247130755E+01  0.17694123879E+02 -0.25215859528E+02  0.31663433377E+02  0.00000000000E+00 0. -1.
</event>
<event>
 8    1  0.9870402E-014  0.9118800E+02  0.7816164E-02  0.1184000E+00
        -11   -1    0    0    0    0  0.00000000000E+00  0.00000000000E+00  0.45593999997E+02  0.45594000000E+02  0.51100000000E-03 0. -1.
         11   -1    0    0    0    0 -0.00000000000E+00 -0.00000000000E+00 -0.45593999997E+02  0.45594000000E+02  0.51100000000E-03 0.  1.
         23    2    1    2    0    0  0.00000000000E+00  0.00000000000E+00  0.00000000000E+00  0.91188000000E+02  0.91188000000E+02 0.  0.
    9900012    2    3    3    0    0 -0.51863412401E+01  0.21512242944E+02  0.34110004816E+02  0.50528841616E+02  0.29999944574E+02 0.  0.
        -12    1    3    3    0    0  0.51863412401E+01 -0.21512242944E+02 -0.34110004816E+02  0.40659158384E+02  0.00000000000E+00 0.  1.
         11    1    4    4    0    0 -0.39029753153E+01  0.11874902655E+02  0.15061093454E+02  0.19572507904E+02  0.51100000000E-03 0. -1.
        -11    1    4    4    0    0 -0.69410233460E+01  0.14813297061E+02  0.10340108498E+02  0.19352762565E+02  0.51100000000E-03 0.  1.
        -12    1    4    4    0    0  0.56576574212E+01 -0.51759567716E+01  0.87088028646E+01  0.11603571146E+02  0.00000000000E+00 0.  1.
</event>
<event>
 8    1  0.9870402E-014  0.9118800E+02  0.7816164E-02  0.1184000E+00
        -11   -1    0    0    0    0  0.00000000000E+00  0.00000000000E+00  0.45593999997E+02  0.45594000000E+02  0.51100000000E-03 0. -1.
         11   -1    0    0    0    0 -0.00000000000E+00 -0.00000000000E+00 -0.45593999997E+02  0.45594000000E+02  0.51100000000E-03 0.  1.
         23    2    1    2    0    0  0.00000000000E+00  0.00000000000E+00  0.00000000000E+00  0.91188000000E+02  0.91188000000E+02 0.  0.
    9900012    2    3    3    0    0  0.12615877930E+02  0.29867995185E+02 -0.24533824997E+02  0.50528854887E+02  0.29999984915E+02 0.  0.
         12    1    3    3    0    0 -0.12615877930E+02 -0.29867995185E+02  0.24533824997E+02  0.40659145113E+02  0.00000000000E+00 0. -1.
         11    1    4    4    0    0 -0.12033052351E+01  0.55275678153E+01 -0.44151031598E+01  0.71760076375E+01  0.51100000000E-03 0.  1.
        -11    1    4    4    0    0  0.85213973147E+01  0.17682695382E+02  0.19260490408E+01  0.19723123316E+02  0.51100000000E-03 0. -1.
         12    1    4    4    0    0  0.52977858506E+01  0.66577319880E+01 -0.22044770878E+02  0.23629723934E+02  0.00000000000E+00 0. -1.
</event>
<event>
 8    1  0.9870402E-014  0.9118800E+02  0.7816164E-02  0.1184000E+00
        -11   -1    0    0    0    0  0.00000000000E+00  0.00000000000E+00  0.45593999997E+02  0.45594000000E+02  0.51100000000E-03 0. -1.
         11   -1    0    0    0    0 -0.00000000000E+00 -0.00000000000E+00 -0.45593999997E+02  0.45594000000E+02  0.51100000000E-03 0.  1.
         23    2    1    2    0    0  0.44408920985E-15 -0.35527136788E-14  0.00000000000E+00  0.91188000000E+02  0.91188000000E+02 0.  0.
    9900012    2    3    3    0    0  0.32522850078E+01  0.22356586782E+02  0.33804902497E+02  0.50528858799E+02  0.29999996806E+02 0.  0.
        -12    1    3    3    0    0 -0.32522850078E+01 -0.22356586782E+02 -0.33804902497E+02  0.40659141201E+02  0.00000000000E+00 0.  1.
         11    1    4    4    0    0 -0.10353205456E+01  0.94143037379E+01  0.54556999860E+01  0.10930035046E+02  0.51100000000E-03 0. -1.
        -11    1    4    4    0    0  0.57719011076E+01  0.42102883853E+01 -0.24489049965E+01  0.75523841683E+01  0.51100000000E-03 0.  1.
         12    1    4    4    0    0 -0.14842955541E+01  0.87319946592E+01  0.30798107508E+02  0.32046439585E+02  0.00000000000E+00 0. -1.
</event>
<event>
 8    1  0.9870402E-014  0.9118800E+02  0.7816164E-02  0.1184000E+00
        -11   -1    0    0    0    0  0.00000000000E+00  0.00000000000E+00  0.45593999997E+02  0.45594000000E+02  0.51100000000E-03 0. -1.
         11   -1    0    0    0    0 -0.00000000000E+00 -0.00000000000E+00 -0.45593999997E+02  0.45594000000E+02  0.51100000000E-03 0.  1.
         23    2    1    2    0    0  0.00000000000E+00  0.88817841970E-15  0.71054273576E-14  0.91188000000E+02  0.91188000000E+02 0.  0.
    9900012    2    3    3    0    0  0.10299533824E+02 -0.60587212580E+01  0.38863563182E+02  0.50528867649E+02  0.30000023707E+02 0.  0.
        -12    1    3    3    0    0 -0.10299533824E+02  0.60587212580E+01 -0.38863563182E+02  0.40659132351E+02  0.00000000000E+00 0.  1.
         11    1    4    4    0    0  0.11335276507E+02 -0.48586549012E+01  0.24372420963E+02  0.27315012810E+02  0.51100000000E-03 0. -1.
        -11    1    4    4    0    0 -0.41133520587E+01 -0.45537979048E+01 -0.17222647698E+01  0.63736125325E+01  0.51100000000E-03 0.  1.
         12    1    4    4    0    0  0.30776093751E+01  0.33537315480E+01  0.16213406989E+02  0.16840242307E+02  0.00000000000E+00 0. -1.
</event>
<event>
 8    1  0.9870402E-014  0.9118800E+02  0.7816164E-02  0.1184000E+00
        -11   -1    0    0    0    0  0.00000000000E+00  0.00000000000E+00  0.45593999997E+02  0.45594000000E+02  0.51100000000E-03 0. -1.
         11   -1    0    0    0    0 -0.00000000000E+00 -0.00000000000E+00 -0.45593999997E+02  0.45594000000E+02  0.51100000000E-03 0.  1.
         23    2    1    2    0    0  0.00000000000E+00  0.00000000000E+00  0.71054273576E-14  0.91188000000E+02  0.91188000000E+02 0.  0.
    9900012    2    3    3    0    0  0.14803775623E+01 -0.73853424908E+01  0.39955363549E+02  0.50528857390E+02  0.29999992524E+02 0.  0.
        -12    1    3    3    0    0 -0.14803775623E+01  0.73853424908E+01 -0.39955363549E+02  0.40659142610E+02  0.00000000000E+00 0.  1.
         11    1    4    4    0    0  0.33817759956E+01  0.81102310519E+00  0.39433345829E+02  0.39586398307E+02  0.51100000000E-03 0. -1.
        -11    1    4    4    0    0  0.17600936654E+01 -0.30077239295E+01  0.25025108584E+01  0.42903256060E+01  0.51100000000E-03 0.  1.
         12    1    4    4    0    0 -0.36614920987E+01 -0.51886416664E+01 -0.19804931389E+01  0.66521334776E+01  0.00000000000E+00 0. -1.
</event>
<event>
 8    1  0.9870402E-014  0.9118800E+02  0.7816164E-02  0.1184000E+00
        -11   -1    0    0    0    0  0.00000000000E+00  0.00000000000E+00  0.45593999997E+02  0.45594000000E+02  0.51100000000E-03 0. -1.
         11   -1    0    0    0    0 -0.00000000000E+00 -0.00000000000E+00 -0.45593999997E+02  0.45594000000E+02  0.51100000000E-03 0.  1.
         23    2    1    2    0    0  0.00000000000E+00  0.00000000000E+00  0.00000000000E+00  0.91188000000E+02  0.91188000000E+02 0.  0.
    9900012    2    3    3    0    0 -0.17773882095E+02 -0.18627854569E+02 -0.31468388436E+02  0.50528839638E+02  0.29999938564E+02 0.  0.
         12    1    3    3    0    0  0.17773882095E+02  0.18627854569E+02  0.31468388436E+02  0.40659160362E+02  0.00000000000E+00 0. -1.
         11    1    4    4    0    0 -0.43052462695E+01  0.25091940097E+01 -0.65263594356E+01  0.82112464196E+01  0.51100000000E-03 0. -1.
        -11    1    4    4    0    0 -0.16185800198E+02 -0.62168671208E+01 -0.66835271818E+01  0.18582225397E+02  0.51100000000E-03 0.  1.
        -12    1    4    4    0    0  0.27171643725E+01 -0.14920181458E+02 -0.18258501819E+02  0.23735367821E+02  0.00000000000E+00 0.  1.
</event>
<event>
 8    1  0.9870402E-014  0.9118800E+02  0.7816164E-02  0.1184000E+00
        -11   -1    0    0    0    0  0.00000000000E+00  0.00000000000E+00  0.45593999997E+02  0.45594000000E+02  0.51100000000E-03 0. -1.
         11   -1    0    0    0    0 -0.00000000000E+00 -0.00000000000E+00 -0.45593999997E+02  0.45594000000E+02  0.51100000000E-03 0.  1.
         23    2    1    2    0    0 -0.88817841970E-15  0.00000000000E+00  0.00000000000E+00  0.91188000000E+02  0.91188000000E+02 0.  0.
    9900012    2    3    3    0    0  0.77317174156E+01  0.26864004748E+02  0.29524757892E+02  0.50528861619E+02  0.30000005377E+02 0.  0.
        -12    1    3    3    0    0 -0.77317174156E+01 -0.26864004748E+02 -0.29524757892E+02  0.40659138381E+02  0.00000000000E+00 0.  1.
         11    1    4    4    0    0 -0.57228050536E+01  0.62685672134E+01  0.14888707355E+02  0.17138233268E+02  0.51100000000E-03 0. -1.
        -11    1    4    4    0    0 -0.23124869478E+00  0.49093830362E+01 -0.32937565026E+01  0.59164474065E+01  0.51100000000E-03 0.  1.
        -12    1    4    4    0    0  0.13685771164E+02  0.15686054499E+02  0.17929807040E+02  0.27474180944E+02  0.00000000000E+00 0.  1.
</event>
<event>
 8    1  0.9870402E-014  0.9118800E+02  0.7816164E-02  0.1184000E+00
        -11   -1    0    0    0    0  0.00000000000E+00  0.00000000000E+00  0.45593999997E+02  0.45594000000E+02  0.51100000000E-03 0.  1.
         11   -1    0    0    0    0 -0.00000000000E+00 -0.00000000000E+00 -0.45593999997E+02  0.45594000000E+02  0.51100000000E-03 0. -1.
         23    2    1    2    0    0  0.00000000000E+00 -0.17763568394E-14 -0.71054273576E-14  0.91188000000E+02  0.91188000000E+02 0.  0.
    9900012    2    3    3    0    0  0.22596184895E+02  0.95420374584E+01  0.32427281935E+02  0.50528847717E+02  0.29999963122E+02 0.  0.
        -12    1    3    3    0    0 -0.22596184895E+02 -0.95420374584E+01 -0.32427281935E+02  0.40659152283E+02  0.00000000000E+00 0.  1.
         11    1    4    4    0    0  0.54726522955E+01  0.44651493478E+01  0.21952806485E+01  0.73964004240E+01  0.51100000000E-03 0. -1.
        -11    1    4    4    0    0 -0.60146454395E+01  0.83495092687E+00  0.20192886618E+01  0.63992679092E+01  0.51100000000E-03 0.  1.
         12    1    4    4    0    0  0.23138178039E+02  0.42419371837E+01  0.28212712624E+02  0.36733179384E+02  0.00000000000E+00 0. -1.
</event>
<event>
 8    1  0.9870402E-014  0.9118800E+02  0.7816164E-02  0.1184000E+00
        -11   -1    0    0    0    0  0.00000000000E+00  0.00000000000E+00  0.45593999997E+02  0.45594000000E+02  0.51100000000E-03 0. -1.
         11   -1    0    0    0    0 -0.00000000000E+00 -0.00000000000E+00 -0.45593999997E+02  0.45594000000E+02  0.51100000000E-03 0.  1.
         23    2    1    2    0    0 -0.35527136788E-14  0.00000000000E+00  0.00000000000E+00  0.91188000000E+02  0.91188000000E+02 0.  0.
    9900012    2    3    3    0    0 -0.27237277553E+02 -0.23272741145E+02  0.19226946852E+02  0.50528865059E+02  0.30000015834E+02 0.  0.
        -12    1    3    3    0    0  0.27237277553E+02  0.23272741145E+02 -0.19226946852E+02  0.40659134941E+02  0.00000000000E+00 0.  1.
         11    1    4    4    0    0 -0.13443684275E+02 -0.42475648741E+01  0.59759091312E+01  0.15312933895E+02  0.51100000000E-03 0. -1.
        -11    1    4    4    0    0 -0.36364604379E+01  0.14631435433E+01  0.11650400833E+02  0.12292130547E+02  0.51100000000E-03 0.  1.
        -12    1    4    4    0    0 -0.10157132840E+02 -0.20488319814E+02  0.16006368874E+01  0.22923800618E+02  0.00000000000E+00 0.  1.
</event>
<event>
 8    1  0.1115472E-013  0.9118800E+02  0.7816164E-02  0.1184000E+00
        -11   -1    0    0    0    0  0.00000000000E+00  0.00000000000E+00  0.45593999997E+02  0.45594000000E+02  0.51100000000E-03 0. -1.
         11   -1    0    0    0    0 -0.00000000000E+00 -0.00000000000E+00 -0.45593999997E+02  0.45594000000E+02  0.51100000000E-03 0.  1.
         23    2    1    2    0    0  0.00000000000E+00  0.00000000000E+00 -0.35527136788E-14  0.91188000000E+02  0.91188000000E+02 0.  0.
    9900012    2    3    3    0    0 -0.15429679106E+02 -0.23619033476E+02 -0.29278522842E+02  0.50528860321E+02  0.30000001431E+02 0.  0.
         12    1    3    3    0    0  0.15429679106E+02  0.23619033476E+02  0.29278522842E+02  0.40659139679E+02  0.00000000000E+00 0. -1.
         11    1    4    4    0    0 -0.31040698393E+01  0.30752694198E+01 -0.14823854725E+02  0.15454423339E+02  0.51100000000E-03 0. -1.
        -11    1    4    4    0    0 -0.57421495967E+01 -0.88654213560E+01 -0.11877829707E+02  0.15894993445E+02  0.51100000000E-03 0.  1.
         12    1    4    4    0    0 -0.65834596702E+01 -0.17828881540E+02 -0.25768384100E+01  0.19179443537E+02  0.00000000000E+00 0. -1.
</event>
<event>
 8    1  0.9870402E-014  0.9118800E+02  0.7816164E-02  0.1184000E+00
        -11   -1    0    0    0    0  0.00000000000E+00  0.00000000000E+00  0.45593999997E+02  0.45594000000E+02  0.51100000000E-03 0. -1.
         11   -1    0    0    0    0 -0.00000000000E+00 -0.00000000000E+00 -0.45593999997E+02  0.45594000000E+02  0.51100000000E-03 0.  1.
         23    2    1    2    0    0  0.00000000000E+00 -0.13322676296E-14  0.00000000000E+00  0.91188000000E+02  0.91188000000E+02 0.  0.
    9900012    2    3    3    0    0  0.62401311221E+01  0.35615964981E+01  0.40019260572E+02  0.50528862986E+02  0.30000009532E+02 0.  0.
        -12    1    3    3    0    0 -0.62401311221E+01 -0.35615964981E+01 -0.40019260572E+02  0.40659137014E+02  0.00000000000E+00 0.  1.
         11    1    4    4    0    0 -0.30994691167E+01  0.11989164772E+02  0.22531863903E+02  0.25710536205E+02  0.51100000000E-03 0. -1.
        -11    1    4    4    0    0  0.50097301834E+01  0.26432432858E+01  0.47140682829E+01  0.73692992621E+01  0.51100000000E-03 0.  1.
        -12    1    4    4    0    0  0.43298700554E+01 -0.11070811560E+02  0.12773328385E+02  0.17449027518E+02  0.00000000000E+00 0.  1.
</event>
<event>
 8    1  0.9870402E-014  0.9118800E+02  0.7816164E-02  0.1184000E+00
        -11   -1    0    0    0    0  0.00000000000E+00  0.00000000000E+00  0.45593999997E+02  0.45594000000E+02  0.51100000000E-03 0. -1.
         11   -1    0    0    0    0 -0.00000000000E+00 -0.00000000000E+00 -0.45593999997E+02  0.45594000000E+02  0.51100000000E-03 0.  1.
         23    2    1    2    0    0  0.00000000000E+00 -0.66613381478E-15  0.00000000000E+00  0.91188000000E+02  0.91188000000E+02 0.  0.
    9900012    2    3    3    0    0  0.37164051544E+02  0.14895042318E+01  0.16424991405E+02  0.50528859666E+02  0.29999999442E+02 0.  0.
        -12    1    3    3    0    0 -0.37164051544E+02 -0.14895042318E+01 -0.16424991405E+02  0.40659140334E+02  0.00000000000E+00 0.  1.
         11    1    4    4    0    0  0.14644350654E+02  0.85375609412E+01  0.35316674508E+01  0.17315300406E+02  0.51100000000E-03 0.  1.
        -11    1    4    4    0    0  0.22425934700E+02 -0.14186689213E+01  0.15200348488E+02  0.27129057541E+02  0.51100000000E-03 0. -1.
         12    1    4    4    0    0  0.93766190494E-01 -0.56293877881E+01 -0.23070245343E+01  0.60845017190E+01  0.00000000000E+00 0. -1.
</event>
<event>
 8    1  0.9870402E-014  0.9118800E+02  0.7816164E-02  0.1184000E+00
        -11   -1    0    0    0    0  0.00000000000E+00  0.00000000000E+00  0.45593999997E+02  0.45594000000E+02  0.51100000000E-03 0. -1.
         11   -1    0    0    0    0 -0.00000000000E+00 -0.00000000000E+00 -0.45593999997E+02  0.45594000000E+02  0.51100000000E-03 0.  1.
         23    2    1    2    0    0  0.11102230246E-14 -0.35527136788E-14  0.35527136788E-14  0.91188000000E+02  0.91188000000E+02 0.  0.
    9900012    2    3    3    0    0 -0.12653550730E+01 -0.27375325767E+02  0.30035891973E+02  0.50528875674E+02  0.30000048099E+02 0.  0.
        -12    1    3    3    0    0  0.12653550730E+01  0.27375325767E+02 -0.30035891973E+02  0.40659124326E+02  0.00000000000E+00 0.  1.
         11    1    4    4    0    0 -0.10230803955E+02 -0.82033951673E+01  0.11491090686E+02  0.17435888484E+02  0.51100000000E-03 0. -1.
        -11    1    4    4    0    0 -0.77468539992E+00  0.30394756556E+01  0.25248253777E+01  0.40265733793E+01  0.51100000000E-03 0.  1.
         12    1    4    4    0    0  0.97401342816E+01 -0.22211406256E+02  0.16019975910E+02  0.29066413811E+02  0.00000000000E+00 0. -1.
</event>
<event>
 8    1  0.9870402E-014  0.9118800E+02  0.7816164E-02  0.1184000E+00
        -11   -1    0    0    0    0  0.00000000000E+00  0.00000000000E+00  0.45593999997E+02  0.45594000000E+02  0.51100000000E-03 0. -1.
         11   -1    0    0    0    0 -0.00000000000E+00 -0.00000000000E+00 -0.45593999997E+02  0.45594000000E+02  0.51100000000E-03 0.  1.
         23    2    1    2    0    0  0.00000000000E+00  0.88817841970E-15  0.00000000000E+00  0.91188000000E+02  0.91188000000E+02 0.  0.
    9900012    2    3    3    0    0  0.86213541445E+01  0.45617591960E+01  0.39471850201E+02  0.50528876147E+02  0.30000049535E+02 0.  0.
        -12    1    3    3    0    0 -0.86213541445E+01 -0.45617591960E+01 -0.39471850201E+02  0.40659123853E+02  0.00000000000E+00 0.  1.
         11    1    4    4    0    0 -0.18779757176E+01  0.25089922805E+01  0.25250549340E+02  0.25444293610E+02  0.51100000000E-03 0. -1.
        -11    1    4    4    0    0  0.16290407653E+01 -0.67848081794E+01  0.93097332749E+01  0.11634368473E+02  0.51100000000E-03 0.  1.
        -12    1    4    4    0    0  0.88702890968E+01  0.88375750950E+01  0.49115675856E+01  0.13450214064E+02  0.00000000000E+00 0.  1.
</event>
<event>
 8    1  0.9870402E-014  0.9118800E+02  0.7816164E-02  0.1184000E+00
        -11   -1    0    0    0    0  0.00000000000E+00  0.00000000000E+00  0.45593999997E+02  0.45594000000E+02  0.51100000000E-03 0. -1.
         11   -1    0    0    0    0 -0.00000000000E+00 -0.00000000000E+00 -0.45593999997E+02  0.45594000000E+02  0.51100000000E-03 0.  1.
         23    2    1    2    0    0  0.00000000000E+00  0.00000000000E+00  0.00000000000E+00  0.91188000000E+02  0.91188000000E+02 0.  0.
    9900012    2    3    3    0    0 -0.36961525033E+02 -0.10880825433E+02 -0.12985341085E+02  0.50528858617E+02  0.29999996253E+02 0.  0.
         12    1    3    3    0    0  0.36961525033E+02  0.10880825433E+02  0.12985341085E+02  0.40659141383E+02  0.00000000000E+00 0. -1.
         11    1    4    4    0    0  0.19941911851E+01 -0.30673962874E+01  0.21895602510E+01  0.42637885525E+01  0.51100000000E-03 0. -1.
        -11    1    4    4    0    0 -0.12534441115E+02 -0.15308844819E+01 -0.14321821984E+02  0.19093726891E+02  0.51100000000E-03 0.  1.
         12    1    4    4    0    0 -0.26421275103E+02 -0.62825446640E+01 -0.85307935235E+00  0.27171343174E+02  0.00000000000E+00 0. -1.
</event>
<event>
 8    1  0.9870402E-014  0.9118800E+02  0.7816164E-02  0.1184000E+00
        -11   -1    0    0    0    0  0.00000000000E+00  0.00000000000E+00  0.45593999997E+02  0.45594000000E+02  0.51100000000E-03 0.  1.
         11   -1    0    0    0    0 -0.00000000000E+00 -0.00000000000E+00 -0.45593999997E+02  0.45594000000E+02  0.51100000000E-03 0. -1.
         23    2    1    2    0    0 -0.71054273576E-14  0.35527136788E-14  0.00000000000E+00  0.91188000000E+02  0.91188000000E+02 0.  0.
    9900012    2    3    3    0    0  0.32101822159E+02 -0.22347575247E+02 -0.11100653380E+02  0.50528860673E+02  0.30000002503E+02 0.  0.
         12    1    3    3    0    0 -0.32101822159E+02  0.22347575247E+02  0.11100653380E+02  0.40659139327E+02  0.00000000000E+00 0. -1.
         11    1    4    4    0    0  0.25279623315E+01 -0.10235116048E+02 -0.36150130531E+01  0.11145246238E+02  0.51100000000E-03 0. -1.
        -11    1    4    4    0    0  0.16107131176E+01  0.44449635682E+00  0.57552917295E+01  0.59929422583E+01  0.51100000000E-03 0.  1.
        -12    1    4    4    0    0  0.27963146710E+02 -0.12556955556E+02 -0.13240932056E+02  0.33390672177E+02  0.00000000000E+00 0.  1.
</event>
<event>
 8    1  0.9870402E-014  0.9118800E+02  0.7816164E-02  0.1184000E+00
        -11   -1    0    0    0    0  0.00000000000E+00  0.00000000000E+00  0.45593999997E+02  0.45594000000E+02  0.51100000000E-03 0. -1.
         11   -1    0    0    0    0 -0.00000000000E+00 -0.00000000000E+00 -0.45593999997E+02  0.45594000000E+02  0.51100000000E-03 0.  1.
         23    2    1    2    0    0  0.17763568394E-14  0.88817841970E-15  0.00000000000E+00  0.91188000000E+02  0.91188000000E+02 0.  0.
    9900012    2    3    3    0    0 -0.12036648665E+02  0.44856323952E+01 -0.38576712683E+02  0.50528873467E+02  0.30000041389E+02 0.  0.
         12    1    3    3    0    0  0.12036648665E+02 -0.44856323952E+01  0.38576712683E+02  0.40659126533E+02  0.00000000000E+00 0. -1.
         11    1    4    4    0    0  0.46131812921E+01  0.85338022075E+00 -0.87036927440E+00  0.47715031563E+01  0.51100000000E-03 0. -1.
        -11    1    4    4    0    0 -0.18623685632E+01  0.27335525325E+01 -0.27660975389E+02  0.27858038084E+02  0.51100000000E-03 0.  1.
        -12    1    4    4    0    0 -0.14787461394E+02  0.89869964201E+00 -0.10045368019E+02  0.17899332227E+02  0.00000000000E+00 0.  1.
</event>
<event>
 8    1  0.9870402E-014  0.9118800E+02  0.7816164E-02  0.1184000E+00
        -11   -1    0    0    0    0  0.00000000000E+00  0.00000000000E+00  0.45593999997E+02  0.45594000000E+02  0.51100000000E-03 0. -1.
         11   -1    0    0    0    0 -0.00000000000E+00 -0.00000000000E+00 -0.45593999997E+02  0.45594000000E+02  0.51100000000E-03 0.  1.
         23    2    1    2    0    0 -0.13322676296E-14  0.00000000000E+00  0.00000000000E+00  0.91188000000E+02  0.91188000000E+02 0.  0.
    9900012    2    3    3    0    0  0.33655404347E+01 -0.12539271626E+02  0.38530609146E+02  0.50528830844E+02  0.29999911832E+02 0.  0.
        -12    1    3    3    0    0 -0.33655404347E+01  0.12539271626E+02 -0.38530609146E+02  0.40659169156E+02  0.00000000000E+00 0.  1.
         11    1    4    4    0    0  0.50737934503E+01 -0.56809744012E+01  0.86419262887E+01  0.11519537333E+02  0.51100000000E-03 0. -1.
        -11    1    4    4    0    0  0.73173596585E+01 -0.87614189186E+01  0.27047312893E+02  0.29357509241E+02  0.51100000000E-03 0.  1.
        -12    1    4    4    0    0 -0.90256126741E+01  0.19031216942E+01  0.28413699647E+01  0.96517842703E+01  0.00000000000E+00 0.  1.
</event>
<event>
 8    1  0.9870402E-014  0.9118800E+02  0.7816164E-02  0.1184000E+00
        -11   -1    0    0    0    0  0.00000000000E+00  0.00000000000E+00  0.45593999997E+02  0.45594000000E+02  0.51100000000E-03 0. -1.
         11   -1    0    0    0    0 -0.00000000000E+00 -0.00000000000E+00 -0.45593999997E+02  0.45594000000E+02  0.51100000000E-03 0.  1.
         23    2    1    2    0    0  0.88817841970E-15  0.00000000000E+00 -0.35527136788E-14  0.91188000000E+02  0.91188000000E+02 0.  0.
    9900012    2    3    3    0    0  0.76146979840E+01  0.35169726092E+02  0.18928080009E+02  0.50528862385E+02  0.30000007705E+02 0.  0.
        -12    1    3    3    0    0 -0.76146979840E+01 -0.35169726092E+02 -0.18928080009E+02  0.40659137615E+02  0.00000000000E+00 0.  1.
         11    1    4    4    0    0 -0.50589188075E+00 -0.45808943457E+01  0.34681333855E+01  0.57678825441E+01  0.51100000000E-03 0. -1.
        -11    1    4    4    0    0 -0.22741287940E+01  0.63237006827E+01  0.65118779468E+00  0.67516588999E+01  0.51100000000E-03 0.  1.
         12    1    4    4    0    0  0.10394718659E+02  0.33426919755E+02  0.14808758829E+02  0.38009320941E+02  0.00000000000E+00 0. -1.
</event>
<event>
 8    1  0.9870402E-014  0.9118800E+02  0.7816164E-02  0.1184000E+00
        -11   -1    0    0    0    0  0.00000000000E+00  0.00000000000E+00  0.45593999997E+02  0.45594000000E+02  0.51100000000E-03 0. -1.
         11   -1    0    0    0    0 -0.00000000000E+00 -0.00000000000E+00 -0.45593999997E+02  0.45594000000E+02  0.51100000000E-03 0.  1.
         23    2    1    2    0    0 -0.71054273576E-14  0.17763568394E-14 -0.35527136788E-14  0.91188000000E+02  0.91188000000E+02 0.  0.
    9900012    2    3    3    0    0 -0.32637790632E+02  0.10910419305E+02 -0.21654265953E+02  0.50528808410E+02  0.29999843644E+02 0.  0.
         12    1    3    3    0    0  0.32637790632E+02 -0.10910419305E+02  0.21654265953E+02  0.40659191590E+02  0.00000000000E+00 0. -1.
         11    1    4    4    0    0 -0.71750368917E+01 -0.75559820982E+01 -0.85332595777E+01  0.13468130499E+02  0.51100000000E-03 0. -1.
        -11    1    4    4    0    0 -0.24124098590E+00  0.68472123926E+01 -0.18999819577E+01  0.71100243645E+01  0.51100000000E-03 0.  1.
         12    1    4    4    0    0 -0.25221512755E+02  0.11619189011E+02 -0.11221024417E+02  0.29950653547E+02  0.00000000000E+00 0. -1.
</event>
<event>
 8    1  0.9870402E-014  0.9118800E+02  0.7816164E-02  0.1184000E+00
        -11   -1    0    0    0    0  0.00000000000E+00  0.00000000000E+00  0.45593999997E+02  0.45594000000E+02  0.51100000000E-03 0. -1.
         11   -1    0    0    0    0 -0.00000000000E+00 -0.00000000000E+00 -0.45593999997E+02  0.45594000000E+02  0.51100000000E-03 0.  1.
         23    2    1    2    0    0  0.00000000000E+00 -0.17763568394E-14  0.00000000000E+00  0.91188000000E+02  0.91188000000E+02 0.  0.
    9900012    2    3    3    0    0  0.17799434812E+02  0.30760762012E+01  0.36426425742E+02  0.50528848302E+02  0.29999964900E+02 0.  0.
        -12    1    3    3    0    0 -0.17799434812E+02 -0.30760762012E+01 -0.36426425742E+02  0.40659151698E+02  0.00000000000E+00 0.  1.
         11    1    4    4    0    0  0.93916317810E+01 -0.11511779327E+01  0.13629778542E+02  0.16592131313E+02  0.51100000000E-03 0. -1.
        -11    1    4    4    0    0  0.41942114905E+01 -0.81949834024E+01  0.21146681239E+01  0.94456860274E+01  0.51100000000E-03 0.  1.
         12    1    4    4    0    0  0.42135915403E+01  0.12422237536E+02  0.20681979076E+02  0.24491030962E+02  0.00000000000E+00 0. -1.
</event>
<event>
 8    1  0.9870402E-014  0.9118800E+02  0.7816164E-02  0.1184000E+00
        -11   -1    0    0    0    0  0.00000000000E+00  0.00000000000E+00  0.45593999997E+02  0.45594000000E+02  0.51100000000E-03 0. -1.
         11   -1    0    0    0    0 -0.00000000000E+00 -0.00000000000E+00 -0.45593999997E+02  0.45594000000E+02  0.51100000000E-03 0.  1.
         23    2    1    2    0    0  0.00000000000E+00  0.00000000000E+00 -0.71054273576E-14  0.91188000000E+02  0.91188000000E+02 0.  0.
    9900012    2    3    3    0    0 -0.16528543154E+02 -0.21282580395E+02  0.30447086400E+02  0.50528855428E+02  0.29999986560E+02 0.  0.
        -12    1    3    3    0    0  0.16528543154E+02  0.21282580395E+02 -0.30447086400E+02  0.40659144572E+02  0.00000000000E+00 0.  1.
         11    1    4    4    0    0  0.14123566417E+01 -0.54402395269E+01 -0.32909171529E+01  0.65131477307E+01  0.51100000000E-03 0. -1.
        -11    1    4    4    0    0 -0.71660240480E+01  0.19579373071E+01  0.79611753575E+01  0.10888789303E+02  0.51100000000E-03 0.  1.
        -12    1    4    4    0    0 -0.10774875748E+02 -0.17800278175E+02  0.25776828195E+02  0.33126918394E+02  0.00000000000E+00 0.  1.
</event>
<event>
 8    1  0.1056422E-013  0.9118800E+02  0.7816164E-02  0.1184000E+00
        -11   -1    0    0    0    0  0.00000000000E+00  0.00000000000E+00  0.45593999997E+02  0.45594000000E+02  0.51100000000E-03 0. -1.
         11   -1    0    0    0    0 -0.00000000000E+00 -0.00000000000E+00 -0.45593999997E+02  0.45594000000E+02  0.51100000000E-03 0.  1.
         23    2    1    2    0    0  0.00000000000E+00 -0.35527136788E-14  0.00000000000E+00  0.91188000000E+02  0.91188000000E+02 0.  0.
    9900012    2    3    3    0    0 -0.28114090009E+02  0.22373477548E+02 -0.19031286147E+02  0.50528875476E+02  0.30000047498E+02 0.  0.
         12    1    3    3    0    0  0.28114090009E+02 -0.22373477548E+02  0.19031286147E+02  0.40659124524E+02  0.00000000000E+00 0. -1.
         11    1    4    4    0    0 -0.11105771206E+01 -0.53540908718E+01 -0.32724306101E+01  0.63724777727E+01  0.51100000000E-03 0. -1.
        -11    1    4    4    0    0 -0.35630728089E+01  0.34617416331E+01  0.27461152681E+01  0.56762921263E+01  0.51100000000E-03 0.  1.
        -12    1    4    4    0    0 -0.23440440079E+02  0.24265826787E+02 -0.18504970805E+02  0.38480105577E+02  0.00000000000E+00 0.  1.
</event>
<event>
 8    1  0.1517720E-013  0.9118800E+02  0.7816164E-02  0.1184000E+00
        -11   -1    0    0    0    0  0.00000000000E+00  0.00000000000E+00  0.45593999997E+02  0.45594000000E+02  0.51100000000E-03 0. -1.
         11   -1    0    0    0    0 -0.00000000000E+00 -0.00000000000E+00 -0.45593999997E+02  0.45594000000E+02  0.51100000000E-03 0.  1.
         23    2    1    2    0    0 -0.35527136788E-14  0.00000000000E+00  0.35527136788E-14  0.91188000000E+02  0.91188000000E+02 0.  0.
    9900012    2    3    3    0    0 -0.30637029307E+02  0.40472967489E+01 -0.26422694317E+02  0.50528844196E+02  0.29999952417E+02 0.  0.
         12    1    3    3    0    0  0.30637029307E+02 -0.40472967489E+01  0.26422694317E+02  0.40659155804E+02  0.00000000000E+00 0. -1.
         11    1    4    4    0    0 -0.14864321585E+02 -0.25572758186E+01 -0.25736166873E+01  0.15300693413E+02  0.51100000000E-03 0. -1.
        -11    1    4    4    0    0 -0.19412777408E+02  0.12713777847E+01 -0.17358317234E+02  0.26072658200E+02  0.51100000000E-03 0.  1.
         12    1    4    4    0    0  0.36400696862E+01  0.53331947828E+01 -0.64907603959E+01  0.91554925825E+01  0.00000000000E+00 0. -1.
</event>
<event>
 8    1  0.9870402E-014  0.9118800E+02  0.7816164E-02  0.1184000E+00
        -11   -1    0    0    0    0  0.00000000000E+00  0.00000000000E+00  0.45593999997E+02  0.45594000000E+02  0.51100000000E-03 0. -1.
         11   -1    0    0    0    0 -0.00000000000E+00 -0.00000000000E+00 -0.45593999997E+02  0.45594000000E+02  0.51100000000E-03 0.  1.
         23    2    1    2    0    0  0.00000000000E+00  0.35527136788E-14 -0.35527136788E-14  0.91188000000E+02  0.91188000000E+02 0.  0.
    9900012    2    3    3    0    0  0.23835965512E+02 -0.20680681625E+02  0.25638289257E+02  0.50528859325E+02  0.29999998406E+02 0.  0.
        -12    1    3    3    0    0 -0.23835965512E+02  0.20680681625E+02 -0.25638289257E+02  0.40659140675E+02  0.00000000000E+00 0.  1.
         11    1    4    4    0    0  0.12318559441E+02 -0.83624156287E+01  0.24486949279E+02  0.28658115554E+02  0.51100000000E-03 0. -1.
        -11    1    4    4    0    0 -0.28522349550E+01 -0.34481230673E+01 -0.16177546264E+01  0.47583534146E+01  0.51100000000E-03 0.  1.
        -12    1    4    4    0    0  0.14369641026E+02 -0.88701429289E+01  0.27690946043E+01  0.17112390357E+02  0.00000000000E+00 0.  1.
</event>
<event>
 8    1  0.9870402E-014  0.9118800E+02  0.7816164E-02  0.1184000E+00
        -11   -1    0    0    0    0  0.00000000000E+00  0.00000000000E+00  0.45593999997E+02  0.45594000000E+02  0.51100000000E-03 0. -1.
         11   -1    0    0    0    0 -0.00000000000E+00 -0.00000000000E+00 -0.45593999997E+02  0.45594000000E+02  0.51100000000E-03 0.  1.
         23    2    1    2    0    0  0.00000000000E+00  0.88817841970E-15  0.35527136788E-14  0.91188000000E+02  0.91188000000E+02 0.  0.
    9900012    2    3    3    0    0  0.25291543312E+02  0.59476583382E+01  0.31275044834E+02  0.50528865329E+02  0.30000016654E+02 0.  0.
        -12    1    3    3    0    0 -0.25291543312E+02 -0.59476583382E+01 -0.31275044834E+02  0.40659134671E+02  0.00000000000E+00 0.  1.
         11    1    4    4    0    0  0.20106857310E+00 -0.47882236689E+01  0.13655714796E+01  0.49832018023E+01  0.51100000000E-03 0. -1.
        -11    1    4    4    0    0 -0.27090951066E+01  0.33258186982E+01  0.90311500862E+01  0.99980967414E+01  0.51100000000E-03 0.  1.
         12    1    4    4    0    0  0.27799569845E+02  0.74100633089E+01  0.20878323269E+02  0.35547566785E+02  0.00000000000E+00 0. -1.
</event>
<event>
 8    1  0.9870402E-014  0.9118800E+02  0.7816164E-02  0.1184000E+00
        -11   -1    0    0    0    0  0.00000000000E+00  0.00000000000E+00  0.45593999997E+02  0.45594000000E+02  0.51100000000E-03 0. -1.
         11   -1    0    0    0    0 -0.00000000000E+00 -0.00000000000E+00 -0.45593999997E+02  0.45594000000E+02  0.51100000000E-03 0.  1.
         23    2    1    2    0    0 -0.35527136788E-14  0.00000000000E+00  0.00000000000E+00  0.91188000000E+02  0.91188000000E+02 0.  0.
    9900012    2    3    3    0    0  0.18459289847E+02  0.16269191042E+02  0.32368711897E+02  0.50528862420E+02  0.30000007813E+02 0.  0.
        -12    1    3    3    0    0 -0.18459289847E+02 -0.16269191042E+02 -0.32368711897E+02  0.40659137580E+02  0.00000000000E+00 0.  1.
         11    1    4    4    0    0  0.20748565410E+02  0.10019826096E+02  0.17776405816E+02  0.29101554693E+02  0.51100000000E-03 0. -1.
        -11    1    4    4    0    0 -0.50056826630E+01  0.24120530862E+01  0.15651017397E+02  0.16608106600E+02  0.51100000000E-03 0.  1.
         12    1    4    4    0    0  0.27164071003E+01  0.38373118606E+01 -0.10587113161E+01  0.48192011268E+01  0.00000000000E+00 0. -1.
</event>
<event>
 8    1  0.9870402E-014  0.9118800E+02  0.7816164E-02  0.1184000E+00
        -11   -1    0    0    0    0  0.00000000000E+00  0.00000000000E+00  0.45593999997E+02  0.45594000000E+02  0.51100000000E-03 0. -1.
         11   -1    0    0    0    0 -0.00000000000E+00 -0.00000000000E+00 -0.45593999997E+02  0.45594000000E+02  0.51100000000E-03 0.  1.
         23    2    1    2    0    0 -0.71054273576E-14  0.17763568394E-14  0.00000000000E+00  0.91188000000E+02  0.91188000000E+02 0.  0.
    9900012    2    3    3    0    0 -0.37226583792E+02  0.50746579127E+01  0.15543294003E+02  0.50528872093E+02  0.30000037212E+02 0.  0.
        -12    1    3    3    0    0  0.37226583792E+02 -0.50746579127E+01 -0.15543294003E+02  0.40659127907E+02  0.00000000000E+00 0.  1.
         11    1    4    4    0    0 -0.34944198154E+01 -0.77980697785E+01  0.93434316250E+01  0.12661776215E+02  0.51100000000E-03 0. -1.
        -11    1    4    4    0    0 -0.10180257183E+02  0.64699943951E+00  0.48544387125E+01  0.11296982786E+02  0.51100000000E-03 0.  1.
        -12    1    4    4    0    0 -0.23551906793E+02  0.12225728252E+02  0.13454236652E+01  0.26570113092E+02  0.00000000000E+00 0.  1.
</event>
<event>
 8    1  0.9870402E-014  0.9118800E+02  0.7816164E-02  0.1184000E+00
        -11   -1    0    0    0    0  0.00000000000E+00  0.00000000000E+00  0.45593999997E+02  0.45594000000E+02  0.51100000000E-03 0. -1.
         11   -1    0    0    0    0 -0.00000000000E+00 -0.00000000000E+00 -0.45593999997E+02  0.45594000000E+02  0.51100000000E-03 0.  1.
         23    2    1    2    0    0 -0.71054273576E-14  0.00000000000E+00  0.00000000000E+00  0.91188000000E+02  0.91188000000E+02 0.  0.
    9900012    2    3    3    0    0 -0.29775739568E+02 -0.49508739899E+01  0.27240779135E+02  0.50528857511E+02  0.29999992890E+02 0.  0.
        -12    1    3    3    0    0  0.29775739568E+02  0.49508739899E+01 -0.27240779135E+02  0.40659142489E+02  0.00000000000E+00 0.  1.
         11    1    4    4    0    0 -0.72982771714E+01 -0.97441420911E+01  0.12325401588E+02  0.17324222330E+02  0.51100000000E-03 0. -1.
        -11    1    4    4    0    0 -0.11308964237E+02  0.60388969193E+01 -0.19198602305E+01  0.12963287071E+02  0.51100000000E-03 0.  1.
         12    1    4    4    0    0 -0.11168498159E+02 -0.12456288181E+01  0.16835237778E+02  0.20241348110E+02  0.00000000000E+00 0. -1.
</event>
<event>
 8    1  0.9870402E-014  0.9118800E+02  0.7816164E-02  0.1184000E+00
        -11   -1    0    0    0    0  0.00000000000E+00  0.00000000000E+00  0.45593999997E+02  0.45594000000E+02  0.51100000000E-03 0. -1.
         11   -1    0    0    0    0 -0.00000000000E+00 -0.00000000000E+00 -0.45593999997E+02  0.45594000000E+02  0.51100000000E-03 0.  1.
         23    2    1    2    0    0  0.22204460493E-15 -0.35527136788E-14  0.00000000000E+00  0.91188000000E+02  0.91188000000E+02 0.  0.
    9900012    2    3    3    0    0 -0.12352799225E+01  0.24524693462E+02  0.32406476554E+02  0.50528853077E+02  0.29999979412E+02 0.  0.
        -12    1    3    3    0    0  0.12352799225E+01 -0.24524693462E+02 -0.32406476554E+02  0.40659146923E+02  0.00000000000E+00 0.  1.
         11    1    4    4    0    0  0.59459175746E+01  0.17784073705E+02  0.28409220596E+02  0.34039844719E+02  0.51100000000E-03 0. -1.
        -11    1    4    4    0    0 -0.35592942500E+01 -0.32398035860E+01  0.33262205599E+01  0.58505253019E+01  0.51100000000E-03 0.  1.
        -12    1    4    4    0    0 -0.36219032470E+01  0.99804233424E+01  0.67103539795E+00  0.10638483056E+02  0.00000000000E+00 0.  1.
</event>
<event>
 8    1  0.9870402E-014  0.9118800E+02  0.7816164E-02  0.1184000E+00
        -11   -1    0    0    0    0  0.00000000000E+00  0.00000000000E+00  0.45593999997E+02  0.45594000000E+02  0.51100000000E-03 0. -1.
         11   -1    0    0    0    0 -0.00000000000E+00 -0.00000000000E+00 -0.45593999997E+02  0.45594000000E+02  0.51100000000E-03 0.  1.
         23    2    1    2    0    0  0.00000000000E+00 -0.88817841970E-15 -0.35527136788E-14  0.91188000000E+02  0.91188000000E+02 0.  0.
    9900012    2    3    3    0    0  0.27459301701E+02  0.72323127376E+01  0.29100618919E+02  0.50528860574E+02  0.30000002200E+02 0.  0.
        -12    1    3    3    0    0 -0.27459301701E+02 -0.72323127376E+01 -0.29100618919E+02  0.40659139426E+02  0.00000000000E+00 0.  1.
         11    1    4    4    0    0  0.65155863010E+01  0.24697654737E+01 -0.25535354944E+01  0.74211286287E+01  0.51100000000E-03 0. -1.
        -11    1    4    4    0    0  0.18445224146E+01  0.59427789995E+01  0.12221236105E+00  0.62236501587E+01  0.51100000000E-03 0.  1.
         12    1    4    4    0    0  0.19099192985E+02 -0.11802317356E+01  0.31531942052E+02  0.36884081786E+02  0.00000000000E+00 0. -1.
</event>
<event>
 8    1  0.9870402E-014  0.9118800E+02  0.7816164E-02  0.1184000E+00
        -11   -1    0    0    0    0  0.00000000000E+00  0.00000000000E+00  0.45593999997E+02  0.45594000000E+02  0.51100000000E-03 0. -1.
         11   -1    0    0    0    0 -0.00000000000E+00 -0.00000000000E+00 -0.45593999997E+02  0.45594000000E+02  0.51100000000E-03 0.  1.
         23    2    1    2    0    0  0.35527136788E-14  0.17763568394E-14 -0.35527136788E-14  0.91188000000E+02  0.91188000000E+02 0.  0.
    9900012    2    3    3    0    0 -0.23928452776E+02  0.10051514958E+02  0.31297949295E+02  0.50528862832E+02  0.30000009063E+02 0.  0.
        -12    1    3    3    0    0  0.23928452776E+02 -0.10051514958E+02 -0.31297949295E+02  0.40659137168E+02  0.00000000000E+00 0.  1.
         11    1    4    4    0    0 -0.15281023734E+02  0.89363300391E+01  0.29782685578E+02  0.34646443417E+02  0.51100000000E-03 0. -1.
        -11    1    4    4    0    0 -0.10101837349E+02  0.33642657150E+01  0.47703009765E+01  0.11667097895E+02  0.51100000000E-03 0.  1.
        -12    1    4    4    0    0  0.14544083072E+01 -0.22490807958E+01 -0.32550372596E+01  0.42153215194E+01  0.00000000000E+00 0.  1.
</event>
<event>
 8    1  0.9870402E-014  0.9118800E+02  0.7816164E-02  0.1184000E+00
        -11   -1    0    0    0    0  0.00000000000E+00  0.00000000000E+00  0.45593999997E+02  0.45594000000E+02  0.51100000000E-03 0. -1.
         11   -1    0    0    0    0 -0.00000000000E+00 -0.00000000000E+00 -0.45593999997E+02  0.45594000000E+02  0.51100000000E-03 0.  1.
         23    2    1    2    0    0 -0.17763568394E-14  0.00000000000E+00  0.00000000000E+00  0.91188000000E+02  0.91188000000E+02 0.  0.
    9900012    2    3    3    0    0  0.14917590980E+02  0.29826467843E+02 -0.23259694480E+02  0.50528854757E+02  0.29999984519E+02 0.  0.
         12    1    3    3    0    0 -0.14917590980E+02 -0.29826467843E+02  0.23259694480E+02  0.40659145243E+02  0.00000000000E+00 0. -1.
         11    1    4    4    0    0  0.18520691471E+01  0.19739302472E+02 -0.74214931067E+01  0.21169524850E+02  0.51100000000E-03 0.  1.
        -11    1    4    4    0    0  0.17201484686E+02  0.45724857523E+01 -0.12043293290E+02  0.21490454041E+02  0.51100000000E-03 0. -1.
         12    1    4    4    0    0 -0.41359628536E+01  0.55146796188E+01 -0.37949080830E+01  0.78688758653E+01  0.00000000000E+00 0. -1.
</event>
<event>
 8    1  0.9870402E-014  0.9118800E+02  0.7816164E-02  0.1184000E+00
        -11   -1    0    0    0    0  0.00000000000E+00  0.00000000000E+00  0.45593999997E+02  0.45594000000E+02  0.51100000000E-03 0. -1.
         11   -1    0    0    0    0 -0.00000000000E+00 -0.00000000000E+00 -0.45593999997E+02  0.45594000000E+02  0.51100000000E-03 0.  1.
         23    2    1    2    0    0 -0.35527136788E-14 -0.17763568394E-14 -0.35527136788E-14  0.91188000000E+02  0.91188000000E+02 0.  0.
    9900012    2    3    3    0    0  0.31848860230E+02 -0.12260837722E+02 -0.22101776864E+02  0.50528848753E+02  0.29999966270E+02 0.  0.
         12    1    3    3    0    0 -0.31848860230E+02  0.12260837722E+02  0.22101776864E+02  0.40659151247E+02  0.00000000000E+00 0. -1.
         11    1    4    4    0    0 -0.29847481529E+01 -0.46594981499E+01 -0.52320329595E+01  0.76153669442E+01  0.51100000000E-03 0. -1.
        -11    1    4    4    0    0  0.10641985636E+02  0.15704577246E+01 -0.12805614922E+02  0.16724292796E+02  0.51100000000E-03 0.  1.
         12    1    4    4    0    0  0.24191622746E+02 -0.91717972968E+01 -0.40641289827E+01  0.26189189013E+02  0.00000000000E+00 0. -1.
</event>
<event>
 8    1  0.9870402E-014  0.9118800E+02  0.7816164E-02  0.1184000E+00
        -11   -1    0    0    0    0  0.00000000000E+00  0.00000000000E+00  0.45593999997E+02  0.45594000000E+02  0.51100000000E-03 0. -1.
         11   -1    0    0    0    0 -0.00000000000E+00 -0.00000000000E+00 -0.45593999997E+02  0.45594000000E+02  0.51100000000E-03 0.  1.
         23    2    1    2    0    0  0.43021142204E-15  0.00000000000E+00  0.00000000000E+00  0.91188000000E+02  0.91188000000E+02 0.  0.
    9900012    2    3    3    0    0 -0.11427113662E+00 -0.39907513065E+02 -0.77809277870E+01  0.50528862108E+02  0.30000006863E+02 0.  0.
         12    1    3    3    0    0  0.11427113662E+00  0.39907513065E+02  0.77809277870E+01  0.40659137892E+02  0.00000000000E+00 0. -1.
         11    1    4    4    0    0  0.76538177919E+01 -0.42942098105E+01 -0.27718942186E+01  0.92035081632E+01  0.51100000000E-03 0. -1.
        -11    1    4    4    0    0 -0.75130928523E+01 -0.75661294554E+01 -0.76940281470E+01  0.13148800270E+02  0.51100000000E-03 0.  1.
         12    1    4    4    0    0 -0.25499607631E+00 -0.28047173799E+02  0.26849945785E+01  0.28176553675E+02  0.00000000000E+00 0. -1.
</event>
<event>
 8    1  0.9870402E-014  0.9118800E+02  0.7816164E-02  0.1184000E+00
        -11   -1    0    0    0    0  0.00000000000E+00  0.00000000000E+00  0.45593999997E+02  0.45594000000E+02  0.51100000000E-03 0. -1.
         11   -1    0    0    0    0 -0.00000000000E+00 -0.00000000000E+00 -0.45593999997E+02  0.45594000000E+02  0.51100000000E-03 0.  1.
         23    2    1    2    0    0 -0.52735593670E-15  0.35527136788E-14  0.00000000000E+00  0.91188000000E+02  0.91188000000E+02 0.  0.
    9900012    2    3    3    0    0  0.23664923197E+00 -0.27720036913E+02 -0.29744083930E+02  0.50528843858E+02  0.29999951392E+02 0.  0.
         12    1    3    3    0    0 -0.23664923197E+00  0.27720036913E+02  0.29744083930E+02  0.40659156142E+02  0.00000000000E+00 0. -1.
         11    1    4    4    0    0 -0.13556429866E+01 -0.12200170643E+02 -0.27114552768E+00  0.12278251169E+02  0.51100000000E-03 0. -1.
        -11    1    4    4    0    0  0.87792409207E+01 -0.48795447848E+01 -0.65952079749E+01  0.12015897675E+02  0.51100000000E-03 0.  1.
        -12    1    4    4    0    0 -0.71869487021E+01 -0.10640321485E+02 -0.22877730427E+02  0.26234695014E+02  0.00000000000E+00 0.  1.
</event>
<event>
 8    1  0.9870402E-014  0.9118800E+02  0.7816164E-02  0.1184000E+00
        -11   -1    0    0    0    0  0.00000000000E+00  0.00000000000E+00  0.45593999997E+02  0.45594000000E+02  0.51100000000E-03 0.  1.
         11   -1    0    0    0    0 -0.00000000000E+00 -0.00000000000E+00 -0.45593999997E+02  0.45594000000E+02  0.51100000000E-03 0. -1.
         23    2    1    2    0    0  0.71054273576E-14  0.17763568394E-14 -0.22204460493E-14  0.91188000000E+02  0.91188000000E+02 0.  0.
    9900012    2    3    3    0    0  0.38177696392E+02 -0.13868545095E+02 -0.18141875435E+01  0.50528876530E+02  0.30000050702E+02 0.  0.
         12    1    3    3    0    0 -0.38177696392E+02  0.13868545095E+02  0.18141875435E+01  0.40659123470E+02  0.00000000000E+00 0. -1.
         11    1    4    4    0    0  0.12038384876E+02 -0.15114352935E+02 -0.28589765464E+01  0.19533052045E+02  0.51100000000E-03 0. -1.
        -11    1    4    4    0    0  0.10174854488E+02 -0.26100293995E+01 -0.70849750509E+01  0.12670311324E+02  0.51100000000E-03 0.  1.
        -12    1    4    4    0    0  0.15964457028E+02  0.38558372394E+01  0.81297640537E+01  0.18325513161E+02  0.00000000000E+00 0.  1.
</event>
<event>
 8    1  0.9870402E-014  0.9118800E+02  0.7816164E-02  0.1184000E+00
        -11   -1    0    0    0    0  0.00000000000E+00  0.00000000000E+00  0.45593999997E+02  0.45594000000E+02  0.51100000000E-03 0. -1.
         11   -1    0    0    0    0 -0.00000000000E+00 -0.00000000000E+00 -0.45593999997E+02  0.45594000000E+02  0.51100000000E-03 0.  1.
         23    2    1    2    0    0 -0.14210854715E-13  0.88817841970E-15 -0.71054273576E-14  0.91188000000E+02  0.91188000000E+02 0.  0.
    9900012    2    3    3    0    0 -0.31658940915E+02  0.58199723428E+01 -0.24839585259E+02  0.50528860637E+02  0.30000002391E+02 0.  0.
         12    1    3    3    0    0  0.31658940915E+02 -0.58199723428E+01  0.24839585259E+02  0.40659139363E+02  0.00000000000E+00 0. -1.
         11    1    4    4    0    0 -0.71430514508E+01 -0.31659734489E+01 -0.51454347725E+01  0.93553231461E+01  0.51100000000E-03 0. -1.
        -11    1    4    4    0    0 -0.25939899637E+02  0.99805754026E+01 -0.23878808094E+02  0.36642703977E+02  0.51100000000E-03 0.  1.
        -12    1    4    4    0    0  0.14240101731E+01 -0.99462961102E+00  0.41846576069E+01  0.45308335130E+01  0.00000000000E+00 0.  1.
</event>
<event>
 8    1  0.9870402E-014  0.9118800E+02  0.7816164E-02  0.1184000E+00
        -11   -1    0    0    0    0  0.00000000000E+00  0.00000000000E+00  0.45593999997E+02  0.45594000000E+02  0.51100000000E-03 0. -1.
         11   -1    0    0    0    0 -0.00000000000E+00 -0.00000000000E+00 -0.45593999997E+02  0.45594000000E+02  0.51100000000E-03 0.  1.
         23    2    1    2    0    0  0.00000000000E+00  0.00000000000E+00  0.00000000000E+00  0.91188000000E+02  0.91188000000E+02 0.  0.
    9900012    2    3    3    0    0  0.18232614734E+02  0.24497464863E+02 -0.26844235709E+02  0.50528843398E+02  0.29999949993E+02 0.  0.
         12    1    3    3    0    0 -0.18232614734E+02 -0.24497464863E+02  0.26844235709E+02  0.40659156602E+02  0.00000000000E+00 0. -1.
         11    1    4    4    0    0  0.86630261035E+01  0.87028522321E+01 -0.92906128248E+01  0.15398153953E+02  0.51100000000E-03 0.  1.
        -11    1    4    4    0    0  0.69602546675E+01 -0.37674791479E+01 -0.12438927736E+02  0.14743336381E+02  0.51100000000E-03 0. -1.
         12    1    4    4    0    0  0.26093339628E+01  0.19562091779E+02 -0.51146951486E+01  0.20387353064E+02  0.00000000000E+00 0. -1.
</event>
<event>
 8    1  0.9870402E-014  0.9118800E+02  0.7816164E-02  0.1184000E+00
        -11   -1    0    0    0    0  0.00000000000E+00  0.00000000000E+00  0.45593999997E+02  0.45594000000E+02  0.51100000000E-03 0. -1.
         11   -1    0    0    0    0 -0.00000000000E+00 -0.00000000000E+00 -0.45593999997E+02  0.45594000000E+02  0.51100000000E-03 0.  1.
         23    2    1    2    0    0  0.00000000000E+00  0.00000000000E+00  0.00000000000E+00  0.91188000000E+02  0.91188000000E+02 0.  0.
    9900012    2    3    3    0    0 -0.14203471328E+01 -0.32022296307E+02 -0.25014421255E+02  0.50528854443E+02  0.29999983564E+02 0.  0.
         12    1    3    3    0    0  0.14203471328E+01  0.32022296307E+02  0.25014421255E+02  0.40659145557E+02  0.00000000000E+00 0. -1.
         11    1    4    4    0    0 -0.52460573966E+01 -0.15973739567E+02 -0.67059931259E+01  0.18101155157E+02  0.51100000000E-03 0. -1.
        -11    1    4    4    0    0  0.50061111265E+00 -0.16426406213E+02 -0.29347604341E+01  0.16694018439E+02  0.51100000000E-03 0.  1.
        -12    1    4    4    0    0  0.33250991512E+01  0.37784947358E+00 -0.15373667695E+02  0.15733680847E+02  0.00000000000E+00 0.  1.
</event>
<event>
 8    1  0.9870402E-014  0.9118800E+02  0.7816164E-02  0.1184000E+00
        -11   -1    0    0    0    0  0.00000000000E+00  0.00000000000E+00  0.45593999997E+02  0.45594000000E+02  0.51100000000E-03 0. -1.
         11   -1    0    0    0    0 -0.00000000000E+00 -0.00000000000E+00 -0.45593999997E+02  0.45594000000E+02  0.51100000000E-03 0.  1.
         23    2    1    2    0    0  0.88817841970E-15  0.00000000000E+00 -0.35527136788E-14  0.91188000000E+02  0.91188000000E+02 0.  0.
    9900012    2    3    3    0    0 -0.74471845965E+01 -0.31703200430E+02 -0.24343620262E+02  0.50528864208E+02  0.30000013246E+02 0.  0.
         12    1    3    3    0    0  0.74471845965E+01  0.31703200430E+02  0.24343620262E+02  0.40659135792E+02  0.00000000000E+00 0. -1.
         11    1    4    4    0    0  0.26458676609E+01 -0.85661432927E+01  0.44574040240E+01  0.10012386203E+02  0.51100000000E-03 0.  1.
        -11    1    4    4    0    0  0.76835346698E+00  0.74548209094E+00  0.50368540937E+00  0.11831356012E+01  0.51100000000E-03 0. -1.
        -12    1    4    4    0    0 -0.10861405724E+02 -0.23882539228E+02 -0.29304709695E+02  0.39333342403E+02  0.00000000000E+00 0.  1.
</event>
<event>
 8    1  0.1581021E-013  0.9118800E+02  0.7816164E-02  0.1184000E+00
        -11   -1    0    0    0    0  0.00000000000E+00  0.00000000000E+00  0.45593999997E+02  0.45594000000E+02  0.51100000000E-03 0. -1.
         11   -1    0    0    0    0 -0.00000000000E+00 -0.00000000000E+00 -0.45593999997E+02  0.45594000000E+02  0.51100000000E-03 0.  1.
         23    2    1    2    0    0  0.00000000000E+00 -0.35527136788E-14  0.35527136788E-14  0.91188000000E+02  0.91188000000E+02 0.  0.
    9900012    2    3    3    0    0 -0.22402011143E+02  0.21597219638E+02 -0.26170129666E+02  0.50528859747E+02  0.29999999688E+02 0.  0.
         12    1    3    3    0    0  0.22402011143E+02 -0.21597219638E+02  0.26170129666E+02  0.40659140253E+02  0.00000000000E+00 0. -1.
         11    1    4    4    0    0 -0.13193559575E+02  0.67221349679E+01 -0.13864395726E+02  0.20284934850E+02  0.51100000000E-03 0. -1.
        -11    1    4    4    0    0 -0.83356906063E+01  0.18219533491E+02 -0.15658290941E+02  0.25428669135E+02  0.51100000000E-03 0.  1.
         12    1    4    4    0    0 -0.87276096165E+00 -0.33444488213E+01  0.33525570001E+01  0.48152557620E+01  0.00000000000E+00 0. -1.
</event>
<event>
 8    1  0.9870402E-014  0.9118800E+02  0.7816164E-02  0.1184000E+00
        -11   -1    0    0    0    0  0.00000000000E+00  0.00000000000E+00  0.45593999997E+02  0.45594000000E+02  0.51100000000E-03 0. -1.
         11   -1    0    0    0    0 -0.00000000000E+00 -0.00000000000E+00 -0.45593999997E+02  0.45594000000E+02  0.51100000000E-03 0.  1.
         23    2    1    2    0    0 -0.35527136788E-14  0.35527136788E-14  0.00000000000E+00  0.91188000000E+02  0.91188000000E+02 0.  0.
    9900012    2    3    3    0    0 -0.24397059612E+02  0.29935280230E+02  0.12721011572E+02  0.50528909312E+02  0.30000150344E+02 0.  0.
        -12    1    3    3    0    0  0.24397059612E+02 -0.29935280230E+02 -0.12721011572E+02  0.40659090688E+02  0.00000000000E+00 0.  1.
         11    1    4    4    0    0 -0.82273935235E+01  0.26665161229E+02  0.77966354131E+01  0.28974270510E+02  0.51100000000E-03 0. -1.
        -11    1    4    4    0    0 -0.56052253390E+01  0.55933037723E+01 -0.26491935287E+01  0.83499595690E+01  0.51100000000E-03 0.  1.
        -12    1    4    4    0    0 -0.10564440749E+02 -0.23231847712E+01  0.75735696880E+01  0.13204679233E+02  0.00000000000E+00 0.  1.
</event>
<event>
 8    1  0.9870402E-014  0.9118800E+02  0.7816164E-02  0.1184000E+00
        -11   -1    0    0    0    0  0.00000000000E+00  0.00000000000E+00  0.45593999997E+02  0.45594000000E+02  0.51100000000E-03 0. -1.
         11   -1    0    0    0    0 -0.00000000000E+00 -0.00000000000E+00 -0.45593999997E+02  0.45594000000E+02  0.51100000000E-03 0.  1.
         23    2    1    2    0    0  0.00000000000E+00  0.00000000000E+00  0.00000000000E+00  0.91188000000E+02  0.91188000000E+02 0.  0.
    9900012    2    3    3    0    0 -0.37239444673E+02  0.74480855181E+01 -0.14522928738E+02  0.50528859864E+02  0.30000000042E+02 0.  0.
         12    1    3    3    0    0  0.37239444673E+02 -0.74480855181E+01  0.14522928738E+02  0.40659140136E+02  0.00000000000E+00 0. -1.
         11    1    4    4    0    0 -0.10208292232E+02  0.28459394250E+01 -0.10209285492E+02  0.14715234012E+02  0.51100000000E-03 0.  1.
        -11    1    4    4    0    0 -0.73211268298E+01 -0.28169233664E+01 -0.11184417038E+02  0.13661081218E+02  0.51100000000E-03 0. -1.
        -12    1    4    4    0    0 -0.19710025611E+02  0.74190694595E+01  0.68707737920E+01  0.22152544634E+02  0.00000000000E+00 0.  1.
</event>
<event>
 8    1  0.9870402E-014  0.9118800E+02  0.7816164E-02  0.1184000E+00
        -11   -1    0    0    0    0  0.00000000000E+00  0.00000000000E+00  0.45593999997E+02  0.45594000000E+02  0.51100000000E-03 0. -1.
         11   -1    0    0    0    0 -0.00000000000E+00 -0.00000000000E+00 -0.45593999997E+02  0.45594000000E+02  0.51100000000E-03 0.  1.
         23    2    1    2    0    0  0.00000000000E+00 -0.35527136788E-14  0.00000000000E+00  0.91188000000E+02  0.91188000000E+02 0.  0.
    9900012    2    3    3    0    0  0.21687082447E+02  0.24421308374E+02  0.24216434317E+02  0.50528861558E+02  0.30000005192E+02 0.  0.
        -12    1    3    3    0    0 -0.21687082447E+02 -0.24421308374E+02 -0.24216434317E+02  0.40659138442E+02  0.00000000000E+00 0.  1.
         11    1    4    4    0    0  0.11608821278E+01  0.28435172844E+01 -0.95852686785E+00  0.32174542544E+01  0.51100000000E-03 0. -1.
        -11    1    4    4    0    0 -0.38154046742E+01  0.85045134684E+01  0.15403681517E+02  0.18004373544E+02  0.51100000000E-03 0.  1.
         12    1    4    4    0    0  0.24341604994E+02  0.13073277622E+02  0.97712796677E+01  0.29307033760E+02  0.00000000000E+00 0. -1.
</event>
<event>
 8    1  0.9870402E-014  0.9118800E+02  0.7816164E-02  0.1184000E+00
        -11   -1    0    0    0    0  0.00000000000E+00  0.00000000000E+00  0.45593999997E+02  0.45594000000E+02  0.51100000000E-03 0. -1.
         11   -1    0    0    0    0 -0.00000000000E+00 -0.00000000000E+00 -0.45593999997E+02  0.45594000000E+02  0.51100000000E-03 0.  1.
         23    2    1    2    0    0  0.00000000000E+00 -0.44408920985E-15  0.00000000000E+00  0.91188000000E+02  0.91188000000E+02 0.  0.
    9900012    2    3    3    0    0  0.29592900702E+02 -0.29419545070E+01  0.27726720353E+02  0.50528857243E+02  0.29999992074E+02 0.  0.
        -12    1    3    3    0    0 -0.29592900702E+02  0.29419545070E+01 -0.27726720353E+02  0.40659142757E+02  0.00000000000E+00 0.  1.
         11    1    4    4    0    0 -0.39506041100E+01 -0.46049121073E+01  0.64952323678E+01  0.88882243515E+01  0.51100000000E-03 0. -1.
        -11    1    4    4    0    0  0.60696920266E+01  0.40025716797E+01  0.87429275842E+01  0.11371038842E+02  0.51100000000E-03 0.  1.
        -12    1    4    4    0    0  0.27473812785E+02 -0.23396140795E+01  0.12488560401E+02  0.30269594049E+02  0.00000000000E+00 0.  1.
</event>
<event>
 8    1  0.9870402E-014  0.9118800E+02  0.7816164E-02  0.1184000E+00
        -11   -1    0    0    0    0  0.00000000000E+00  0.00000000000E+00  0.45593999997E+02  0.45594000000E+02  0.51100000000E-03 0. -1.
         11   -1    0    0    0    0 -0.00000000000E+00 -0.00000000000E+00 -0.45593999997E+02  0.45594000000E+02  0.51100000000E-03 0.  1.
         23    2    1    2    0    0 -0.22204460493E-15  0.22204460493E-15  0.00000000000E+00  0.91188000000E+02  0.91188000000E+02 0.  0.
    9900012    2    3    3    0    0  0.10238410711E+01 -0.18201460168E+01 -0.40605475066E+02  0.50528858501E+02  0.29999995901E+02 0.  0.
         12    1    3    3    0    0 -0.10238410711E+01  0.18201460168E+01  0.40605475066E+02  0.40659141499E+02  0.00000000000E+00 0. -1.
         11    1    4    4    0    0  0.99391731514E+01  0.52658835358E+00 -0.75857196279E+01  0.12514295856E+02  0.51100000000E-03 0. -1.
        -11    1    4    4    0    0  0.33751168541E+01 -0.28873558387E+01 -0.18297268538E+02  0.18828655654E+02  0.51100000000E-03 0.  1.
         12    1    4    4    0    0 -0.12290448934E+02  0.54062146829E+00 -0.14722486900E+02  0.19185906992E+02  0.00000000000E+00 0. -1.
</event>
<event>
 8    1  0.9870402E-014  0.9118800E+02  0.7816164E-02  0.1184000E+00
        -11   -1    0    0    0    0  0.00000000000E+00  0.00000000000E+00  0.45593999997E+02  0.45594000000E+02  0.51100000000E-03 0. -1.
         11   -1    0    0    0    0 -0.00000000000E+00 -0.00000000000E+00 -0.45593999997E+02  0.45594000000E+02  0.51100000000E-03 0.  1.
         23    2    1    2    0    0  0.00000000000E+00  0.00000000000E+00  0.00000000000E+00  0.91188000000E+02  0.91188000000E+02 0.  0.
    9900012    2    3    3    0    0 -0.21494067756E+02  0.32459711757E+01  0.34360371368E+02  0.50528850991E+02  0.29999973073E+02 0.  0.
        -12    1    3    3    0    0  0.21494067756E+02 -0.32459711757E+01 -0.34360371368E+02  0.40659149009E+02  0.00000000000E+00 0.  1.
         11    1    4    4    0    0 -0.83388145416E+01 -0.41794054154E+01  0.11255498812E+00  0.93282327626E+01  0.51100000000E-03 0. -1.
        -11    1    4    4    0    0 -0.50951374385E+01  0.55435697375E+01  0.18378092217E+01  0.77504279849E+01  0.51100000000E-03 0.  1.
         12    1    4    4    0    0 -0.80601157762E+01  0.18818068536E+01  0.32410007158E+02  0.33450190244E+02  0.00000000000E+00 0. -1.
</event>
<event>
 8    1  0.9870402E-014  0.9118800E+02  0.7816164E-02  0.1184000E+00
        -11   -1    0    0    0    0  0.00000000000E+00  0.00000000000E+00  0.45593999997E+02  0.45594000000E+02  0.51100000000E-03 0. -1.
         11   -1    0    0    0    0 -0.00000000000E+00 -0.00000000000E+00 -0.45593999997E+02  0.45594000000E+02  0.51100000000E-03 0.  1.
         23    2    1    2    0    0  0.17763568394E-14  0.00000000000E+00  0.00000000000E+00  0.91188000000E+02  0.91188000000E+02 0.  0.
    9900012    2    3    3    0    0 -0.12860713209E+02  0.13640249934E+02 -0.36079233715E+02  0.50528862430E+02  0.30000007842E+02 0.  0.
         12    1    3    3    0    0  0.12860713209E+02 -0.13640249934E+02  0.36079233715E+02  0.40659137570E+02  0.00000000000E+00 0. -1.
         11    1    4    4    0    0  0.29539546929E+01  0.10251629363E+01 -0.16057761432E+02  0.16359355422E+02  0.51100000000E-03 0. -1.
        -11    1    4    4    0    0 -0.16044772330E+01  0.13166490123E+02 -0.75959735123E+01  0.15284947602E+02  0.51100000000E-03 0.  1.
         12    1    4    4    0    0 -0.14210190668E+02 -0.55140312537E+00 -0.12425498771E+02  0.18884559405E+02  0.00000000000E+00 0. -1.
</event>
<event>
 8    1  0.9870402E-014  0.9118800E+02  0.7816164E-02  0.1184000E+00
        -11   -1    0    0    0    0  0.00000000000E+00  0.00000000000E+00  0.45593999997E+02  0.45594000000E+02  0.51100000000E-03 0. -1.
         11   -1    0    0    0    0 -0.00000000000E+00 -0.00000000000E+00 -0.45593999997E+02  0.45594000000E+02  0.51100000000E-03 0.  1.
         23    2    1    2    0    0  0.00000000000E+00  0.00000000000E+00  0.00000000000E+00  0.91188000000E+02  0.91188000000E+02 0.  0.
    9900012    2    3    3    0    0 -0.16395077100E+02 -0.18100464969E+02  0.32507542189E+02  0.50528859768E+02  0.29999999752E+02 0.  0.
        -12    1    3    3    0    0  0.16395077100E+02  0.18100464969E+02 -0.32507542189E+02  0.40659140232E+02  0.00000000000E+00 0.  1.
         11    1    4    4    0    0 -0.53456015685E+00  0.33872021617E+01  0.11849612134E+01  0.36280885303E+01  0.51100000000E-03 0.  1.
        -11    1    4    4    0    0 -0.17329936743E+02 -0.20194974658E+02  0.15173024667E+02  0.30633060356E+02  0.51100000000E-03 0. -1.
         12    1    4    4    0    0  0.14694198004E+01 -0.12926924727E+01  0.16149556309E+02  0.16267710882E+02  0.00000000000E+00 0. -1.
</event>
<event>
 8    1  0.9870402E-014  0.9118800E+02  0.7816164E-02  0.1184000E+00
        -11   -1    0    0    0    0  0.00000000000E+00  0.00000000000E+00  0.45593999997E+02  0.45594000000E+02  0.51100000000E-03 0. -1.
         11   -1    0    0    0    0 -0.00000000000E+00 -0.00000000000E+00 -0.45593999997E+02  0.45594000000E+02  0.51100000000E-03 0.  1.
         23    2    1    2    0    0  0.35527136788E-14  0.17763568394E-14 -0.35527136788E-14  0.91188000000E+02  0.91188000000E+02 0.  0.
    9900012    2    3    3    0    0 -0.27803984828E+02 -0.30821138074E+01  0.29505999005E+02  0.50528868491E+02  0.30000026264E+02 0.  0.
        -12    1    3    3    0    0  0.27803984828E+02  0.30821138074E+01 -0.29505999005E+02  0.40659131509E+02  0.00000000000E+00 0.  1.
         11    1    4    4    0    0 -0.11129310503E+02 -0.23852814262E+01  0.62405276157E+01  0.12980574138E+02  0.51100000000E-03 0. -1.
        -11    1    4    4    0    0 -0.37237505140E+01 -0.63005401712E+01 -0.28581844252E+01  0.78569932423E+01  0.51100000000E-03 0.  1.
        -12    1    4    4    0    0 -0.12950923811E+02  0.56037077900E+01  0.26123655814E+02  0.29691301111E+02  0.00000000000E+00 0.  1.
</event>
<event>
 8    1  0.9870402E-014  0.9118800E+02  0.7816164E-02  0.1184000E+00
        -11   -1    0    0    0    0  0.00000000000E+00  0.00000000000E+00  0.45593999997E+02  0.45594000000E+02  0.51100000000E-03 0. -1.
         11   -1    0    0    0    0 -0.00000000000E+00 -0.00000000000E+00 -0.45593999997E+02  0.45594000000E+02  0.51100000000E-03 0.  1.
         23    2    1    2    0    0  0.00000000000E+00 -0.44408920985E-15  0.35527136788E-14  0.91188000000E+02  0.91188000000E+02 0.  0.
    9900012    2    3    3    0    0 -0.31883408674E+02  0.28716268230E+01  0.25067262141E+02  0.50528860554E+02  0.30000002138E+02 0.  0.
        -12    1    3    3    0    0  0.31883408674E+02 -0.28716268230E+01 -0.25067262141E+02  0.40659139446E+02  0.00000000000E+00 0.  1.
         11    1    4    4    0    0 -0.61725987917E+01  0.77678565533E+01  0.55165302652E+01  0.11352210256E+02  0.51100000000E-03 0.  1.
        -11    1    4    4    0    0 -0.13784793817E+02 -0.11005819440E+02  0.30183991077E+01  0.17895791001E+02  0.51100000000E-03 0. -1.
         12    1    4    4    0    0 -0.11926016065E+02  0.61095897099E+01  0.16532332768E+02  0.21280859296E+02  0.00000000000E+00 0. -1.
</event>
<event>
 8    1  0.9870402E-014  0.9118800E+02  0.7816164E-02  0.1184000E+00
        -11   -1    0    0    0    0  0.00000000000E+00  0.00000000000E+00  0.45593999997E+02  0.45594000000E+02  0.51100000000E-03 0. -1.
         11   -1    0    0    0    0 -0.00000000000E+00 -0.00000000000E+00 -0.45593999997E+02  0.45594000000E+02  0.51100000000E-03 0.  1.
         23    2    1    2    0    0  0.00000000000E+00  0.88817841970E-15  0.00000000000E+00  0.91188000000E+02  0.91188000000E+02 0.  0.
    9900012    2    3    3    0    0  0.82912095977E+01 -0.52731877777E+01  0.39453957337E+02  0.50528863075E+02  0.30000009802E+02 0.  0.
        -12    1    3    3    0    0 -0.82912095977E+01  0.52731877777E+01 -0.39453957337E+02  0.40659136925E+02  0.00000000000E+00 0.  1.
         11    1    4    4    0    0  0.12977348121E+02 -0.13096603288E+02  0.31637128847E+02  0.36617489044E+02  0.51100000000E-03 0. -1.
        -11    1    4    4    0    0 -0.14981628678E+01  0.29644840743E+01  0.73686958724E+01  0.80827184119E+01  0.51100000000E-03 0.  1.
        -12    1    4    4    0    0 -0.31879756552E+01  0.48589314364E+01  0.44813261813E+00  0.58286556190E+01  0.00000000000E+00 0.  1.
</event>
<event>
 8    1  0.9870402E-014  0.9118800E+02  0.7816164E-02  0.1184000E+00
        -11   -1    0    0    0    0  0.00000000000E+00  0.00000000000E+00  0.45593999997E+02  0.45594000000E+02  0.51100000000E-03 0.  1.
         11   -1    0    0    0    0 -0.00000000000E+00 -0.00000000000E+00 -0.45593999997E+02  0.45594000000E+02  0.51100000000E-03 0. -1.
         23    2    1    2    0    0  0.44408920985E-15  0.00000000000E+00 -0.17763568394E-14  0.91188000000E+02  0.91188000000E+02 0.  0.
    9900012    2    3    3    0    0 -0.30950143283E+01  0.40100294616E+02 -0.59624478768E+01  0.50528886302E+02  0.30000080405E+02 0.  0.
         12    1    3    3    0    0  0.30950143283E+01 -0.40100294616E+02  0.59624478768E+01  0.40659113698E+02  0.00000000000E+00 0. -1.
         11    1    4    4    0    0 -0.31214396090E+01  0.12374332852E+02  0.56075187388E+01  0.13939575511E+02  0.51100000000E-03 0.  1.
        -11    1    4    4    0    0  0.25021111289E+01 -0.18371472310E+01  0.22775331799E+01  0.38500425577E+01  0.51100000000E-03 0. -1.
         12    1    4    4    0    0 -0.24756858481E+01  0.29563108995E+02 -0.13847499795E+02  0.32739268234E+02  0.00000000000E+00 0. -1.
</event>
<event>
 8    1  0.9870402E-014  0.9118800E+02  0.7816164E-02  0.1184000E+00
        -11   -1    0    0    0    0  0.00000000000E+00  0.00000000000E+00  0.45593999997E+02  0.45594000000E+02  0.51100000000E-03 0. -1.
         11   -1    0    0    0    0 -0.00000000000E+00 -0.00000000000E+00 -0.45593999997E+02  0.45594000000E+02  0.51100000000E-03 0.  1.
         23    2    1    2    0    0  0.00000000000E+00 -0.71054273576E-14  0.88817841970E-15  0.91188000000E+02  0.91188000000E+02 0.  0.
    9900012    2    3    3    0    0  0.26366669429E+02  0.29950066644E+02 -0.78075604766E+01  0.50528858970E+02  0.29999997324E+02 0.  0.
         12    1    3    3    0    0 -0.26366669429E+02 -0.29950066644E+02  0.78075604766E+01  0.40659141030E+02  0.00000000000E+00 0. -1.
         11    1    4    4    0    0  0.38178066857E+01  0.12669054525E+01  0.67705905103E+01  0.78753789390E+01  0.51100000000E-03 0. -1.
        -11    1    4    4    0    0  0.23305649615E+01  0.15794487408E+02 -0.40779507945E+01  0.16478077815E+02  0.51100000000E-03 0.  1.
         12    1    4    4    0    0  0.20218297782E+02  0.12888673783E+02 -0.10500200192E+02  0.26175402216E+02  0.00000000000E+00 0. -1.
</event>
<event>
 8    1  0.1055840E-013  0.9118800E+02  0.7816164E-02  0.1184000E+00
        -11   -1    0    0    0    0  0.00000000000E+00  0.00000000000E+00  0.45593999997E+02  0.45594000000E+02  0.51100000000E-03 0. -1.
         11   -1    0    0    0    0 -0.00000000000E+00 -0.00000000000E+00 -0.45593999997E+02  0.45594000000E+02  0.51100000000E-03 0.  1.
         23    2    1    2    0    0  0.88817841970E-15  0.00000000000E+00  0.00000000000E+00  0.91188000000E+02  0.91188000000E+02 0.  0.
    9900012    2    3    3    0    0  0.66492079388E+01  0.18247687239E+02 -0.35720806027E+02  0.50528855407E+02  0.29999986496E+02 0.  0.
         12    1    3    3    0    0 -0.66492079388E+01 -0.18247687239E+02  0.35720806027E+02  0.40659144593E+02  0.00000000000E+00 0. -1.
         11    1    4    4    0    0  0.44863558243E+01  0.13076577481E+01 -0.17314371652E+02  0.17933901509E+02  0.51100000000E-03 0. -1.
        -11    1    4    4    0    0  0.28317771834E+01  0.14101557145E+02 -0.23015897422E+02  0.27140457077E+02  0.51100000000E-03 0.  1.
         12    1    4    4    0    0 -0.66892506888E+00  0.28384723450E+01  0.46094630465E+01  0.54544968217E+01  0.00000000000E+00 0. -1.
</event>
<event>
 8    1  0.9870402E-014  0.9118800E+02  0.7816164E-02  0.1184000E+00
        -11   -1    0    0    0    0  0.00000000000E+00  0.00000000000E+00  0.45593999997E+02  0.45594000000E+02  0.51100000000E-03 0. -1.
         11   -1    0    0    0    0 -0.00000000000E+00 -0.00000000000E+00 -0.45593999997E+02  0.45594000000E+02  0.51100000000E-03 0.  1.
         23    2    1    2    0    0 -0.88817841970E-15 -0.17763568394E-14  0.71054273576E-14  0.91188000000E+02  0.91188000000E+02 0.  0.
    9900012    2    3    3    0    0 -0.24734168463E+01 -0.61399208005E+01  0.40116693734E+02  0.50528861612E+02  0.30000005354E+02 0.  0.
        -12    1    3    3    0    0  0.24734168463E+01  0.61399208005E+01 -0.40116693734E+02  0.40659138388E+02  0.00000000000E+00 0.  1.
         11    1    4    4    0    0 -0.65603025432E+01  0.19569220031E+01  0.21701214097E+02  0.22755434663E+02  0.51100000000E-03 0. -1.
        -11    1    4    4    0    0 -0.18882552991E-01  0.54359217738E+01  0.13334480852E+01  0.55971140902E+01  0.51100000000E-03 0.  1.
         12    1    4    4    0    0  0.41057682499E+01 -0.13532764577E+02  0.17082031552E+02  0.22176312858E+02  0.00000000000E+00 0. -1.
</event>
<event>
 8    1  0.9870402E-014  0.9118800E+02  0.7816164E-02  0.1184000E+00
        -11   -1    0    0    0    0  0.00000000000E+00  0.00000000000E+00  0.45593999997E+02  0.45594000000E+02  0.51100000000E-03 0. -1.
         11   -1    0    0    0    0 -0.00000000000E+00 -0.00000000000E+00 -0.45593999997E+02  0.45594000000E+02  0.51100000000E-03 0.  1.
         23    2    1    2    0    0  0.00000000000E+00  0.88817841970E-15  0.00000000000E+00  0.91188000000E+02  0.91188000000E+02 0.  0.
    9900012    2    3    3    0    0 -0.35107110943E+02  0.43074095814E+01 -0.20052547688E+02  0.50528835168E+02  0.29999924977E+02 0.  0.
         12    1    3    3    0    0  0.35107110943E+02 -0.43074095814E+01  0.20052547688E+02  0.40659164832E+02  0.00000000000E+00 0. -1.
         11    1    4    4    0    0 -0.18314251003E+01  0.33060244491E+01 -0.71596664884E+01  0.80959706054E+01  0.51100000000E-03 0. -1.
        -11    1    4    4    0    0 -0.93923223274E+01 -0.10304988540E+02 -0.33665183760E+01  0.14343707810E+02  0.51100000000E-03 0.  1.
        -12    1    4    4    0    0 -0.23883363515E+02  0.11306373672E+02 -0.95263628237E+01  0.28089156752E+02  0.00000000000E+00 0.  1.
</event>
<event>
 8    1  0.9870402E-014  0.9118800E+02  0.7816164E-02  0.1184000E+00
        -11   -1    0    0    0    0  0.00000000000E+00  0.00000000000E+00  0.45593999997E+02  0.45594000000E+02  0.51100000000E-03 0. -1.
         11   -1    0    0    0    0 -0.00000000000E+00 -0.00000000000E+00 -0.45593999997E+02  0.45594000000E+02  0.51100000000E-03 0.  1.
         23    2    1    2    0    0  0.00000000000E+00  0.00000000000E+00  0.00000000000E+00  0.91188000000E+02  0.91188000000E+02 0.  0.
    9900012    2    3    3    0    0  0.63124650419E+01  0.29669605393E+02 -0.27074593099E+02  0.50528852314E+02  0.29999977093E+02 0.  0.
         12    1    3    3    0    0 -0.63124650419E+01 -0.29669605393E+02  0.27074593099E+02  0.40659147686E+02  0.00000000000E+00 0. -1.
         11    1    4    4    0    0 -0.47909302242E+01  0.11801804759E+02 -0.11131458759E+01  0.12785722584E+02  0.51100000000E-03 0. -1.
        -11    1    4    4    0    0  0.80004947056E+01  0.14736856588E+02 -0.68228014238E+01  0.18103410650E+02  0.51100000000E-03 0.  1.
        -12    1    4    4    0    0  0.31029005606E+01  0.31309440462E+01 -0.19138645799E+02  0.19639719080E+02  0.00000000000E+00 0.  1.
</event>
<event>
 8    1  0.9870402E-014  0.9118800E+02  0.7816164E-02  0.1184000E+00
        -11   -1    0    0    0    0  0.00000000000E+00  0.00000000000E+00  0.45593999997E+02  0.45594000000E+02  0.51100000000E-03 0. -1.
         11   -1    0    0    0    0 -0.00000000000E+00 -0.00000000000E+00 -0.45593999997E+02  0.45594000000E+02  0.51100000000E-03 0.  1.
         23    2    1    2    0    0  0.17763568394E-14  0.00000000000E+00 -0.35527136788E-14  0.91188000000E+02  0.91188000000E+02 0.  0.
    9900012    2    3    3    0    0  0.86984965097E+01 -0.36274605230E+02  0.16175769328E+02  0.50528851712E+02  0.29999975264E+02 0.  0.
        -12    1    3    3    0    0 -0.86984965097E+01  0.36274605230E+02 -0.16175769328E+02  0.40659148288E+02  0.00000000000E+00 0.  1.
         11    1    4    4    0    0  0.58751875967E+01 -0.45033448790E+01  0.69940705667E+01  0.10184054583E+02  0.51100000000E-03 0.  1.
        -11    1    4    4    0    0  0.10687250725E+02 -0.27622811837E+02  0.10356052828E+02  0.31376502232E+02  0.51100000000E-03 0. -1.
        -12    1    4    4    0    0 -0.78639418120E+01 -0.41484485140E+01 -0.11743540668E+01  0.89682948976E+01  0.00000000000E+00 0.  1.
</event>
<event>
 8    1  0.9870402E-014  0.9118800E+02  0.7816164E-02  0.1184000E+00
        -11   -1    0    0    0    0  0.00000000000E+00  0.00000000000E+00  0.45593999997E+02  0.45594000000E+02  0.51100000000E-03 0. -1.
         11   -1    0    0    0    0 -0.00000000000E+00 -0.00000000000E+00 -0.45593999997E+02  0.45594000000E+02  0.51100000000E-03 0.  1.
         23    2    1    2    0    0  0.00000000000E+00 -0.88817841970E-15  0.00000000000E+00  0.91188000000E+02  0.91188000000E+02 0.  0.
    9900012    2    3    3    0    0  0.85660107863E+01  0.55901880846E+01  0.39351478195E+02  0.50528861055E+02  0.30000003663E+02 0.  0.
        -12    1    3    3    0    0 -0.85660107863E+01 -0.55901880846E+01 -0.39351478195E+02  0.40659138945E+02  0.00000000000E+00 0.  1.
         11    1    4    4    0    0  0.10110441997E+02  0.51823265656E+01  0.34884439320E+02  0.36687895183E+02  0.51100000000E-03 0. -1.
        -11    1    4    4    0    0 -0.23236194289E+01 -0.35485279772E+01  0.76208418953E+01  0.87217251453E+01  0.51100000000E-03 0.  1.
        -12    1    4    4    0    0  0.77918821844E+00  0.39563894962E+01 -0.31538030209E+01  0.51192407269E+01  0.00000000000E+00 0.  1.
</event>
<event>
 8    1  0.9870402E-014  0.9118800E+02  0.7816164E-02  0.1184000E+00
        -11   -1    0    0    0    0  0.00000000000E+00  0.00000000000E+00  0.45593999997E+02  0.45594000000E+02  0.51100000000E-03 0. -1.
         11   -1    0    0    0    0 -0.00000000000E+00 -0.00000000000E+00 -0.45593999997E+02  0.45594000000E+02  0.51100000000E-03 0.  1.
         23    2    1    2    0    0 -0.71054273576E-14 -0.17763568394E-14 -0.71054273576E-14  0.91188000000E+02  0.91188000000E+02 0.  0.
    9900012    2    3    3    0    0 -0.31539421079E+02 -0.10338434744E+02 -0.23485055976E+02  0.50528853807E+02  0.29999981630E+02 0.  0.
         12    1    3    3    0    0  0.31539421079E+02  0.10338434744E+02  0.23485055976E+02  0.40659146193E+02  0.00000000000E+00 0. -1.
         11    1    4    4    0    0 -0.13346335884E+02 -0.17512162306E+02 -0.46156178314E+01  0.22496765065E+02  0.51100000000E-03 0.  1.
        -11    1    4    4    0    0 -0.51606257220E+01 -0.76942624069E+00 -0.68176476707E+01  0.85851263593E+01  0.51100000000E-03 0. -1.
        -12    1    4    4    0    0 -0.13032459474E+02  0.79431538030E+01 -0.12051790474E+02  0.19446962382E+02  0.00000000000E+00 0.  1.
</event>
<event>
 8    1  0.9870402E-014  0.9118800E+02  0.7816164E-02  0.1184000E+00
        -11   -1    0    0    0    0  0.00000000000E+00  0.00000000000E+00  0.45593999997E+02  0.45594000000E+02  0.51100000000E-03 0. -1.
         11   -1    0    0    0    0 -0.00000000000E+00 -0.00000000000E+00 -0.45593999997E+02  0.45594000000E+02  0.51100000000E-03 0.  1.
         23    2    1    2    0    0  0.88817841970E-15  0.00000000000E+00  0.00000000000E+00  0.91188000000E+02  0.91188000000E+02 0.  0.
    9900012    2    3    3    0    0  0.60976796694E+01  0.15578640557E+02 -0.37057899108E+02  0.50528885090E+02  0.30000076720E+02 0.  0.
         12    1    3    3    0    0 -0.60976796694E+01 -0.15578640557E+02  0.37057899108E+02  0.40659114910E+02  0.00000000000E+00 0. -1.
         11    1    4    4    0    0  0.63456854861E+01 -0.22706315717E+01 -0.13833699405E+02  0.15388136063E+02  0.51100000000E-03 0. -1.
        -11    1    4    4    0    0 -0.72873438442E+01  0.46165412551E+01 -0.16694519223E+02  0.18791615307E+02  0.51100000000E-03 0.  1.
        -12    1    4    4    0    0  0.70393380276E+01  0.13232730873E+02 -0.65296804800E+01  0.16349133720E+02  0.00000000000E+00 0.  1.
</event>
<event>
 8    1  0.1128531E-013  0.9118800E+02  0.7816164E-02  0.1184000E+00
        -11   -1    0    0    0    0  0.00000000000E+00  0.00000000000E+00  0.45593999997E+02  0.45594000000E+02  0.51100000000E-03 0. -1.
         11   -1    0    0    0    0 -0.00000000000E+00 -0.00000000000E+00 -0.45593999997E+02  0.45594000000E+02  0.51100000000E-03 0.  1.
         23    2    1    2    0    0  0.00000000000E+00  0.00000000000E+00  0.00000000000E+00  0.91188000000E+02  0.91188000000E+02 0.  0.
    9900012    2    3    3    0    0 -0.19861606439E+02  0.74310008315E+01 -0.34690957337E+02  0.50528859519E+02  0.29999998994E+02 0.  0.
         12    1    3    3    0    0  0.19861606439E+02 -0.74310008315E+01  0.34690957337E+02  0.40659140481E+02  0.00000000000E+00 0. -1.
         11    1    4    4    0    0 -0.19006283938E+01 -0.51536786873E+00  0.34953869570E+01  0.40119474787E+01  0.51100000000E-03 0. -1.
        -11    1    4    4    0    0 -0.17692785511E+02  0.95283631050E+01 -0.20319199698E+02  0.28577862747E+02  0.51100000000E-03 0.  1.
         12    1    4    4    0    0 -0.26819253485E+00 -0.15819944047E+01 -0.17867144596E+02  0.17939049293E+02  0.00000000000E+00 0. -1.
</event>
<event>
 8    1  0.9870402E-014  0.9118800E+02  0.7816164E-02  0.1184000E+00
        -11   -1    0    0    0    0  0.00000000000E+00  0.00000000000E+00  0.45593999997E+02  0.45594000000E+02  0.51100000000E-03 0. -1.
         11   -1    0    0    0    0 -0.00000000000E+00 -0.00000000000E+00 -0.45593999997E+02  0.45594000000E+02  0.51100000000E-03 0.  1.
         23    2    1    2    0    0  0.00000000000E+00  0.00000000000E+00  0.00000000000E+00  0.91188000000E+02  0.91188000000E+02 0.  0.
    9900012    2    3    3    0    0 -0.28948984207E+02 -0.55177761630E+01 -0.28012079098E+02  0.50528854463E+02  0.29999983625E+02 0.  0.
         12    1    3    3    0    0  0.28948984207E+02  0.55177761630E+01  0.28012079098E+02  0.40659145537E+02  0.00000000000E+00 0. -1.
         11    1    4    4    0    0 -0.22397750005E+01 -0.16943411129E+01  0.41854319320E+01  0.50403595683E+01  0.51100000000E-03 0. -1.
        -11    1    4    4    0    0 -0.56478605574E+01  0.64304147873E+01 -0.67422064802E+01  0.10895224261E+02  0.51100000000E-03 0.  1.
        -12    1    4    4    0    0 -0.21061348649E+02 -0.10253849837E+02 -0.25455304550E+02  0.34593270634E+02  0.00000000000E+00 0.  1.
</event>
<event>
 8    1  0.9870402E-014  0.9118800E+02  0.7816164E-02  0.1184000E+00
        -11   -1    0    0    0    0  0.00000000000E+00  0.00000000000E+00  0.45593999997E+02  0.45594000000E+02  0.51100000000E-03 0. -1.
         11   -1    0    0    0    0 -0.00000000000E+00 -0.00000000000E+00 -0.45593999997E+02  0.45594000000E+02  0.51100000000E-03 0.  1.
         23    2    1    2    0    0  0.00000000000E+00  0.00000000000E+00  0.00000000000E+00  0.91188000000E+02  0.91188000000E+02 0.  0.
    9900012    2    3    3    0    0  0.23837878795E+02  0.30728856744E+02 -0.11859967973E+02  0.50528856594E+02  0.29999990102E+02 0.  0.
         12    1    3    3    0    0 -0.23837878795E+02 -0.30728856744E+02  0.11859967973E+02  0.40659143406E+02  0.00000000000E+00 0. -1.
         11    1    4    4    0    0  0.66982715263E+00  0.57639989183E+01 -0.64542274169E+01  0.86792513361E+01  0.51100000000E-03 0. -1.
        -11    1    4    4    0    0 -0.10038085732E+01  0.45596651334E+01 -0.88737117810E+01  0.10027010462E+02  0.51100000000E-03 0.  1.
         12    1    4    4    0    0  0.24171860215E+02  0.20405192692E+02  0.34679712252E+01  0.31822594795E+02  0.00000000000E+00 0. -1.
</event>
<event>
 8    1  0.9870402E-014  0.9118800E+02  0.7816164E-02  0.1184000E+00
        -11   -1    0    0    0    0  0.00000000000E+00  0.00000000000E+00  0.45593999997E+02  0.45594000000E+02  0.51100000000E-03 0. -1.
         11   -1    0    0    0    0 -0.00000000000E+00 -0.00000000000E+00 -0.45593999997E+02  0.45594000000E+02  0.51100000000E-03 0.  1.
         23    2    1    2    0    0  0.00000000000E+00 -0.17763568394E-14  0.00000000000E+00  0.91188000000E+02  0.91188000000E+02 0.  0.
    9900012    2    3    3    0    0  0.16599390183E+02  0.14119499127E+02 -0.34325870784E+02  0.50528863079E+02  0.30000009815E+02 0.  0.
         12    1    3    3    0    0 -0.16599390183E+02 -0.14119499127E+02  0.34325870784E+02  0.40659136921E+02  0.00000000000E+00 0. -1.
         11    1    4    4    0    0  0.40444215814E+01 -0.78042701750E+01 -0.40874096785E+01  0.96938587278E+01  0.51100000000E-03 0. -1.
        -11    1    4    4    0    0  0.43398202735E+01  0.68225417314E+01 -0.17999272549E+02  0.19732078660E+02  0.51100000000E-03 0.  1.
        -12    1    4    4    0    0  0.82151483284E+01  0.15101227571E+02 -0.12239188557E+02  0.21102925691E+02  0.00000000000E+00 0.  1.
</event>
<event>
 8    1  0.9870402E-014  0.9118800E+02  0.7816164E-02  0.1184000E+00
        -11   -1    0    0    0    0  0.00000000000E+00  0.00000000000E+00  0.45593999997E+02  0.45594000000E+02  0.51100000000E-03 0. -1.
         11   -1    0    0    0    0 -0.00000000000E+00 -0.00000000000E+00 -0.45593999997E+02  0.45594000000E+02  0.51100000000E-03 0.  1.
         23    2    1    2    0    0 -0.35527136788E-14  0.34694469520E-15 -0.71054273576E-14  0.91188000000E+02  0.91188000000E+02 0.  0.
    9900012    2    3    3    0    0  0.14262820942E+02  0.90150697685E-01  0.38075322354E+02  0.50528851451E+02  0.29999974471E+02 0.  0.
        -12    1    3    3    0    0 -0.14262820942E+02 -0.90150697685E-01 -0.38075322354E+02  0.40659148549E+02  0.00000000000E+00 0.  1.
         11    1    4    4    0    0 -0.47478678798E+00  0.61180080178E+01 -0.77875458528E+00  0.61856207098E+01  0.51100000000E-03 0. -1.
        -11    1    4    4    0    0  0.81149993430E+01 -0.22959027785E+01  0.53494075889E+01  0.99870188604E+01  0.51100000000E-03 0.  1.
         12    1    4    4    0    0  0.66226083866E+01 -0.37319545416E+01  0.33504669350E+02  0.34356211881E+02  0.00000000000E+00 0. -1.
</event>
<event>
 8    1  0.1217731E-013  0.9118800E+02  0.7816164E-02  0.1184000E+00
        -11   -1    0    0    0    0  0.00000000000E+00  0.00000000000E+00  0.45593999997E+02  0.45594000000E+02  0.51100000000E-03 0. -1.
         11   -1    0    0    0    0 -0.00000000000E+00 -0.00000000000E+00 -0.45593999997E+02  0.45594000000E+02  0.51100000000E-03 0.  1.
         23    2    1    2    0    0  0.35527136788E-14  0.00000000000E+00  0.35527136788E-14  0.91188000000E+02  0.91188000000E+02 0.  0.
    9900012    2    3    3    0    0  0.30554116561E+02  0.17183183341E+02 -0.20599772721E+02  0.50528850172E+02  0.29999970584E+02 0.  0.
         12    1    3    3    0    0 -0.30554116561E+02 -0.17183183341E+02  0.20599772721E+02  0.40659149828E+02  0.00000000000E+00 0. -1.
         11    1    4    4    0    0 -0.42341013999E+00  0.84825745463E+01 -0.37501376299E+01  0.92842274630E+01  0.51100000000E-03 0. -1.
        -11    1    4    4    0    0  0.24041936732E+02  0.14948234163E+02 -0.12537601546E+02  0.30962168515E+02  0.51100000000E-03 0.  1.
         12    1    4    4    0    0  0.69355899690E+01 -0.62476253679E+01 -0.43120335452E+01  0.10282454194E+02  0.00000000000E+00 0. -1.
</event>
<event>
 8    1  0.9870402E-014  0.9118800E+02  0.7816164E-02  0.1184000E+00
        -11   -1    0    0    0    0  0.00000000000E+00  0.00000000000E+00  0.45593999997E+02  0.45594000000E+02  0.51100000000E-03 0. -1.
         11   -1    0    0    0    0 -0.00000000000E+00 -0.00000000000E+00 -0.45593999997E+02  0.45594000000E+02  0.51100000000E-03 0.  1.
         23    2    1    2    0    0  0.00000000000E+00  0.00000000000E+00  0.00000000000E+00  0.91188000000E+02  0.91188000000E+02 0.  0.
    9900012    2    3    3    0    0  0.35457186374E+02 -0.40266224425E+01  0.19486930898E+02  0.50528853062E+02  0.29999979367E+02 0.  0.
        -12    1    3    3    0    0 -0.35457186374E+02  0.40266224425E+01 -0.19486930898E+02  0.40659146938E+02  0.00000000000E+00 0.  1.
         11    1    4    4    0    0  0.11751967629E+02 -0.83566723494E+01 -0.81687455749E+00  0.14443337572E+02  0.51100000000E-03 0. -1.
        -11    1    4    4    0    0 -0.11390769363E+01 -0.19317608018E+01  0.67235988484E+01  0.70877343205E+01  0.51100000000E-03 0.  1.
         12    1    4    4    0    0  0.24844295681E+02  0.62618107087E+01  0.13580206608E+02  0.28997781169E+02  0.00000000000E+00 0. -1.
</event>
<event>
 8    1  0.9870402E-014  0.9118800E+02  0.7816164E-02  0.1184000E+00
        -11   -1    0    0    0    0  0.00000000000E+00  0.00000000000E+00  0.45593999997E+02  0.45594000000E+02  0.51100000000E-03 0. -1.
         11   -1    0    0    0    0 -0.00000000000E+00 -0.00000000000E+00 -0.45593999997E+02  0.45594000000E+02  0.51100000000E-03 0.  1.
         23    2    1    2    0    0 -0.88817841970E-15  0.71054273576E-14  0.35527136788E-14  0.91188000000E+02  0.91188000000E+02 0.  0.
    9900012    2    3    3    0    0 -0.40733073475E+01  0.31667501406E+02  0.25174243752E+02  0.50528867858E+02  0.30000024341E+02 0.  0.
        -12    1    3    3    0    0  0.40733073475E+01 -0.31667501406E+02 -0.25174243752E+02  0.40659132142E+02  0.00000000000E+00 0.  1.
         11    1    4    4    0    0 -0.35164957710E+01 -0.29859516126E+01  0.57942728503E+01  0.74064328570E+01  0.51100000000E-03 0. -1.
        -11    1    4    4    0    0  0.57045808232E+01  0.33902214669E+01  0.35127298559E+01  0.75083363846E+01  0.51100000000E-03 0.  1.
         12    1    4    4    0    0 -0.62613923996E+01  0.31263231552E+02  0.15867241046E+02  0.35614098616E+02  0.00000000000E+00 0. -1.
</event>
<event>
 8    1  0.9870402E-014  0.9118800E+02  0.7816164E-02  0.1184000E+00
        -11   -1    0    0    0    0  0.00000000000E+00  0.00000000000E+00  0.45593999997E+02  0.45594000000E+02  0.51100000000E-03 0. -1.
         11   -1    0    0    0    0 -0.00000000000E+00 -0.00000000000E+00 -0.45593999997E+02  0.45594000000E+02  0.51100000000E-03 0.  1.
         23    2    1    2    0    0 -0.17763568394E-14  0.35527136788E-14  0.00000000000E+00  0.91188000000E+02  0.91188000000E+02 0.  0.
    9900012    2    3    3    0    0 -0.15250611877E+02  0.17511794458E+02  0.33375467565E+02  0.50528856589E+02  0.29999990087E+02 0.  0.
        -12    1    3    3    0    0  0.15250611877E+02 -0.17511794458E+02 -0.33375467565E+02  0.40659143411E+02  0.00000000000E+00 0.  1.
         11    1    4    4    0    0  0.14633942148E+01  0.23652021993E+01  0.77573508581E+01  0.82408856726E+01  0.51100000000E-03 0. -1.
        -11    1    4    4    0    0 -0.66683458205E+01  0.14078659943E+02  0.92176992513E+00  0.15605292751E+02  0.51100000000E-03 0.  1.
         12    1    4    4    0    0 -0.10045660271E+02  0.10679323157E+01  0.24696346782E+02  0.26682678165E+02  0.00000000000E+00 0. -1.
</event>
<event>
 8    1  0.9870402E-014  0.9118800E+02  0.7816164E-02  0.1184000E+00
        -11   -1    0    0    0    0  0.00000000000E+00  0.00000000000E+00  0.45593999997E+02  0.45594000000E+02  0.51100000000E-03 0. -1.
         11   -1    0    0    0    0 -0.00000000000E+00 -0.00000000000E+00 -0.45593999997E+02  0.45594000000E+02  0.51100000000E-03 0.  1.
         23    2    1    2    0    0  0.00000000000E+00 -0.35527136788E-14  0.00000000000E+00  0.91188000000E+02  0.91188000000E+02 0.  0.
    9900012    2    3    3    0    0 -0.11574849217E+02  0.30685787476E+02  0.24032756197E+02  0.50528830581E+02  0.29999911034E+02 0.  0.
        -12    1    3    3    0    0  0.11574849217E+02 -0.30685787476E+02 -0.24032756197E+02  0.40659169419E+02  0.00000000000E+00 0.  1.
         11    1    4    4    0    0  0.37672923292E+01 -0.23748653462E+01  0.51031225049E+01  0.67730596090E+01  0.51100000000E-03 0. -1.
        -11    1    4    4    0    0  0.37136699520E-01  0.92718514580E+01 -0.69019581755E+00  0.92975792076E+01  0.51100000000E-03 0.  1.
         12    1    4    4    0    0 -0.15379278246E+02  0.23788801364E+02  0.19619829510E+02  0.34458191765E+02  0.00000000000E+00 0. -1.
</event>
<event>
 8    1  0.9870402E-014  0.9118800E+02  0.7816164E-02  0.1184000E+00
        -11   -1    0    0    0    0  0.00000000000E+00  0.00000000000E+00  0.45593999997E+02  0.45594000000E+02  0.51100000000E-03 0. -1.
         11   -1    0    0    0    0 -0.00000000000E+00 -0.00000000000E+00 -0.45593999997E+02  0.45594000000E+02  0.51100000000E-03 0.  1.
         23    2    1    2    0    0  0.00000000000E+00  0.00000000000E+00  0.00000000000E+00  0.91188000000E+02  0.91188000000E+02 0.  0.
    9900012    2    3    3    0    0 -0.17004980755E+02  0.18470545534E+02  0.31981826769E+02  0.50528835396E+02  0.29999925671E+02 0.  0.
        -12    1    3    3    0    0  0.17004980755E+02 -0.18470545534E+02 -0.31981826769E+02  0.40659164604E+02  0.00000000000E+00 0.  1.
         11    1    4    4    0    0 -0.13188746482E+02  0.72053381940E+01  0.21302960860E+02  0.26070597882E+02  0.51100000000E-03 0. -1.
        -11    1    4    4    0    0 -0.65832879904E+01  0.10937728146E+02  0.14761095731E+02  0.19515725075E+02  0.51100000000E-03 0.  1.
        -12    1    4    4    0    0  0.27670537177E+01  0.32747919390E+00 -0.40822298219E+01  0.49425124398E+01  0.00000000000E+00 0.  1.
</event>
<event>
 8    1  0.9870402E-014  0.9118800E+02  0.7816164E-02  0.1184000E+00
        -11   -1    0    0    0    0  0.00000000000E+00  0.00000000000E+00  0.45593999997E+02  0.45594000000E+02  0.51100000000E-03 0. -1.
         11   -1    0    0    0    0 -0.00000000000E+00 -0.00000000000E+00 -0.45593999997E+02  0.45594000000E+02  0.51100000000E-03 0.  1.
         23    2    1    2    0    0 -0.35527136788E-14  0.35527136788E-14 -0.17763568394E-14  0.91188000000E+02  0.91188000000E+02 0.  0.
    9900012    2    3    3    0    0 -0.27739078274E+02  0.28050228304E+02 -0.98434875371E+01  0.50528855662E+02  0.29999987271E+02 0.  0.
         12    1    3    3    0    0  0.27739078274E+02 -0.28050228304E+02  0.98434875371E+01  0.40659144338E+02  0.00000000000E+00 0. -1.
         11    1    4    4    0    0  0.16649772281E+00  0.33073539087E+01 -0.47712396935E+01  0.58078429596E+01  0.51100000000E-03 0. -1.
        -11    1    4    4    0    0 -0.77443696578E+01  0.19598015802E+02  0.49190730345E+01  0.21639195099E+02  0.51100000000E-03 0.  1.
        -12    1    4    4    0    0 -0.20161206339E+02  0.51448585932E+01 -0.99913208781E+01  0.23081817603E+02  0.00000000000E+00 0.  1.
</event>
<event>
 8    1  0.9870402E-014  0.9118800E+02  0.7816164E-02  0.1184000E+00
        -11   -1    0    0    0    0  0.00000000000E+00  0.00000000000E+00  0.45593999997E+02  0.45594000000E+02  0.51100000000E-03 0. -1.
         11   -1    0    0    0    0 -0.00000000000E+00 -0.00000000000E+00 -0.45593999997E+02  0.45594000000E+02  0.51100000000E-03 0.  1.
         23    2    1    2    0    0 -0.35527136788E-14  0.00000000000E+00  0.00000000000E+00  0.91188000000E+02  0.91188000000E+02 0.  0.
    9900012    2    3    3    0    0 -0.23638317758E+02  0.21407594412E+02 -0.25221209310E+02  0.50528873546E+02  0.30000041630E+02 0.  0.
         12    1    3    3    0    0  0.23638317758E+02 -0.21407594412E+02  0.25221209310E+02  0.40659126454E+02  0.00000000000E+00 0. -1.
         11    1    4    4    0    0 -0.53099535836E+01 -0.15765870209E+01 -0.79451883025E+00  0.55957567966E+01  0.51100000000E-03 0. -1.
        -11    1    4    4    0    0 -0.17345735403E+02  0.85269585785E+01 -0.23479402977E+02  0.30411608371E+02  0.51100000000E-03 0.  1.
        -12    1    4    4    0    0 -0.98262877082E+00  0.14457222855E+02 -0.94728750358E+00  0.14521508379E+02  0.00000000000E+00 0.  1.
</event>
<event>
 8    1  0.9870402E-014  0.9118800E+02  0.7816164E-02  0.1184000E+00
        -11   -1    0    0    0    0  0.00000000000E+00  0.00000000000E+00  0.45593999997E+02  0.45594000000E+02  0.51100000000E-03 0. -1.
         11   -1    0    0    0    0 -0.00000000000E+00 -0.00000000000E+00 -0.45593999997E+02  0.45594000000E+02  0.51100000000E-03 0.  1.
         23    2    1    2    0    0  0.88817841970E-15  0.00000000000E+00  0.00000000000E+00  0.91188000000E+02  0.91188000000E+02 0.  0.
    9900012    2    3    3    0    0 -0.31340223736E+01  0.73110412002E+01 -0.39873442805E+02  0.50528869896E+02  0.30000030536E+02 0.  0.
         12    1    3    3    0    0  0.31340223736E+01 -0.73110412002E+01  0.39873442805E+02  0.40659130104E+02  0.00000000000E+00 0. -1.
         11    1    4    4    0    0  0.17762606001E+01  0.24035524401E+00 -0.32679973798E+00  0.18219963481E+01  0.51100000000E-03 0. -1.
        -11    1    4    4    0    0  0.92109782372E+01  0.16948505787E+00 -0.27206657741E+02  0.28724085207E+02  0.51100000000E-03 0.  1.
         12    1    4    4    0    0 -0.14121261211E+02  0.69012008983E+01 -0.12339985327E+02  0.19982788341E+02  0.00000000000E+00 0. -1.
</event>
<event>
 8    1  0.9870402E-014  0.9118800E+02  0.7816164E-02  0.1184000E+00
        -11   -1    0    0    0    0  0.00000000000E+00  0.00000000000E+00  0.45593999997E+02  0.45594000000E+02  0.51100000000E-03 0. -1.
         11   -1    0    0    0    0 -0.00000000000E+00 -0.00000000000E+00 -0.45593999997E+02  0.45594000000E+02  0.51100000000E-03 0.  1.
         23    2    1    2    0    0  0.00000000000E+00  0.00000000000E+00  0.00000000000E+00  0.91188000000E+02  0.91188000000E+02 0.  0.
    9900012    2    3    3    0    0 -0.53241352880E+01  0.90094479182E+01 -0.39289295253E+02  0.50528864620E+02  0.30000014498E+02 0.  0.
         12    1    3    3    0    0  0.53241352880E+01 -0.90094479182E+01  0.39289295253E+02  0.40659135380E+02  0.00000000000E+00 0. -1.
         11    1    4    4    0    0 -0.39418666232E+01 -0.59200431158E+01 -0.50451383497E+01  0.87200140021E+01  0.51100000000E-03 0. -1.
        -11    1    4    4    0    0 -0.91963930367E+01  0.29154370812E+01 -0.13297869153E+02  0.16428838746E+02  0.51100000000E-03 0.  1.
        -12    1    4    4    0    0  0.78141243720E+01  0.12014053953E+02 -0.20946287750E+02  0.25380011872E+02  0.00000000000E+00 0.  1.
</event>
<event>
 8    1  0.9870402E-014  0.9118800E+02  0.7816164E-02  0.1184000E+00
        -11   -1    0    0    0    0  0.00000000000E+00  0.00000000000E+00  0.45593999997E+02  0.45594000000E+02  0.51100000000E-03 0. -1.
         11   -1    0    0    0    0 -0.00000000000E+00 -0.00000000000E+00 -0.45593999997E+02  0.45594000000E+02  0.51100000000E-03 0.  1.
         23    2    1    2    0    0  0.35527136788E-14 -0.88817841970E-15  0.35527136788E-14  0.91188000000E+02  0.91188000000E+02 0.  0.
    9900012    2    3    3    0    0 -0.27612201328E+02  0.57681960441E+01 -0.29282422257E+02  0.50528855875E+02  0.29999987916E+02 0.  0.
         12    1    3    3    0    0  0.27612201328E+02 -0.57681960441E+01  0.29282422257E+02  0.40659144125E+02  0.00000000000E+00 0. -1.
         11    1    4    4    0    0 -0.28787499272E+01  0.72466899415E+01  0.18951342475E+01  0.80245405057E+01  0.51100000000E-03 0. -1.
        -11    1    4    4    0    0 -0.20451868231E+02  0.14713749847E+01 -0.14710031403E+02  0.25235468742E+02  0.51100000000E-03 0.  1.
         12    1    4    4    0    0 -0.42815831695E+01 -0.29498688821E+01 -0.16467525101E+02  0.17268846627E+02  0.00000000000E+00 0. -1.
</event>
<event>
 8    1  0.9870402E-014  0.9118800E+02  0.7816164E-02  0.1184000E+00
        -11   -1    0    0    0    0  0.00000000000E+00  0.00000000000E+00  0.45593999997E+02  0.45594000000E+02  0.51100000000E-03 0. -1.
         11   -1    0    0    0    0 -0.00000000000E+00 -0.00000000000E+00 -0.45593999997E+02  0.45594000000E+02  0.51100000000E-03 0.  1.
         23    2    1    2    0    0 -0.35527136788E-14  0.00000000000E+00  0.71054273576E-14  0.91188000000E+02  0.91188000000E+02 0.  0.
    9900012    2    3    3    0    0 -0.17361373105E+02 -0.16287646355E+02  0.32961512646E+02  0.50528855693E+02  0.29999987365E+02 0.  0.
        -12    1    3    3    0    0  0.17361373105E+02  0.16287646355E+02 -0.32961512646E+02  0.40659144307E+02  0.00000000000E+00 0.  1.
         11    1    4    4    0    0 -0.65310304737E+01 -0.13978138085E+02  0.16764742673E+02  0.22783750800E+02  0.51100000000E-03 0. -1.
        -11    1    4    4    0    0 -0.13358760054E+02 -0.43893354762E+01  0.33056207751E+01  0.14444717549E+02  0.51100000000E-03 0.  1.
         12    1    4    4    0    0  0.25284174229E+01  0.20798272058E+01  0.12891149198E+02  0.13300387344E+02  0.00000000000E+00 0. -1.
</event>
<event>
 8    1  0.9870402E-014  0.9118800E+02  0.7816164E-02  0.1184000E+00
        -11   -1    0    0    0    0  0.00000000000E+00  0.00000000000E+00  0.45593999997E+02  0.45594000000E+02  0.51100000000E-03 0. -1.
         11   -1    0    0    0    0 -0.00000000000E+00 -0.00000000000E+00 -0.45593999997E+02  0.45594000000E+02  0.51100000000E-03 0.  1.
         23    2    1    2    0    0  0.00000000000E+00  0.00000000000E+00  0.00000000000E+00  0.91188000000E+02  0.91188000000E+02 0.  0.
    9900012    2    3    3    0    0  0.17534019779E+02 -0.13126382072E+02 -0.34255251070E+02  0.50528856111E+02  0.29999988636E+02 0.  0.
         12    1    3    3    0    0 -0.17534019779E+02  0.13126382072E+02  0.34255251070E+02  0.40659143889E+02  0.00000000000E+00 0. -1.
         11    1    4    4    0    0 -0.25847230499E+01  0.23279437981E+01 -0.14303424152E+01  0.37611162250E+01  0.51100000000E-03 0. -1.
        -11    1    4    4    0    0  0.15417746246E+02 -0.20251211514E+02 -0.30350099417E+02  0.39609935647E+02  0.51100000000E-03 0.  1.
         12    1    4    4    0    0  0.47009965830E+01  0.47968856447E+01 -0.24748092377E+01  0.71578042390E+01  0.00000000000E+00 0. -1.
</event>
<event>
 8    1  0.9870402E-014  0.9118800E+02  0.7816164E-02  0.1184000E+00
        -11   -1    0    0    0    0  0.00000000000E+00  0.00000000000E+00  0.45593999997E+02  0.45594000000E+02  0.51100000000E-03 0. -1.
         11   -1    0    0    0    0 -0.00000000000E+00 -0.00000000000E+00 -0.45593999997E+02  0.45594000000E+02  0.51100000000E-03 0.  1.
         23    2    1    2    0    0  0.00000000000E+00  0.00000000000E+00 -0.88817841970E-15  0.91188000000E+02  0.91188000000E+02 0.  0.
    9900012    2    3    3    0    0  0.36742509387E+02  0.16582948295E+02 -0.53065437618E+01  0.50528861090E+02  0.30000003769E+02 0.  0.
         12    1    3    3    0    0 -0.36742509387E+02 -0.16582948295E+02  0.53065437618E+01  0.40659138910E+02  0.00000000000E+00 0. -1.
         11    1    4    4    0    0 -0.91516962818E-01 -0.21464645273E+00  0.35860030190E+01  0.35935868388E+01  0.51100000000E-03 0. -1.
        -11    1    4    4    0    0  0.30550711918E+02  0.17962112984E+02  0.65570188672E+00  0.35445922851E+02  0.51100000000E-03 0.  1.
         12    1    4    4    0    0  0.62833144325E+01 -0.11645182366E+01 -0.95482486675E+01  0.11489351400E+02  0.00000000000E+00 0. -1.
</event>
<event>
 8    1  0.9870402E-014  0.9118800E+02  0.7816164E-02  0.1184000E+00
        -11   -1    0    0    0    0  0.00000000000E+00  0.00000000000E+00  0.45593999997E+02  0.45594000000E+02  0.51100000000E-03 0. -1.
         11   -1    0    0    0    0 -0.00000000000E+00 -0.00000000000E+00 -0.45593999997E+02  0.45594000000E+02  0.51100000000E-03 0.  1.
         23    2    1    2    0    0 -0.35527136788E-14  0.00000000000E+00  0.17763568394E-14  0.91188000000E+02  0.91188000000E+02 0.  0.
    9900012    2    3    3    0    0 -0.28393442044E+02  0.26063282918E+02  0.12949259178E+02  0.50528861042E+02  0.30000003622E+02 0.  0.
        -12    1    3    3    0    0  0.28393442044E+02 -0.26063282918E+02 -0.12949259178E+02  0.40659138958E+02  0.00000000000E+00 0.  1.
         11    1    4    4    0    0 -0.10643694435E+02  0.15019413191E+02  0.75296056862E+01  0.19888840235E+02  0.51100000000E-03 0. -1.
        -11    1    4    4    0    0 -0.21342988545E+02  0.38286458395E+01  0.61708424589E+01  0.22544644284E+02  0.51100000000E-03 0.  1.
        -12    1    4    4    0    0  0.35932409361E+01  0.72152238877E+01 -0.75118896718E+00  0.80953765223E+01  0.00000000000E+00 0.  1.
</event>
<event>
 8    1  0.9870402E-014  0.9118800E+02  0.7816164E-02  0.1184000E+00
        -11   -1    0    0    0    0  0.00000000000E+00  0.00000000000E+00  0.45593999997E+02  0.45594000000E+02  0.51100000000E-03 0. -1.
         11   -1    0    0    0    0 -0.00000000000E+00 -0.00000000000E+00 -0.45593999997E+02  0.45594000000E+02  0.51100000000E-03 0.  1.
         23    2    1    2    0    0  0.00000000000E+00  0.00000000000E+00  0.00000000000E+00  0.91188000000E+02  0.91188000000E+02 0.  0.
    9900012    2    3    3    0    0 -0.17320881697E+02  0.27457818643E+02  0.24479014210E+02  0.50528845015E+02  0.29999954908E+02 0.  0.
        -12    1    3    3    0    0  0.17320881697E+02 -0.27457818643E+02 -0.24479014210E+02  0.40659154985E+02  0.00000000000E+00 0.  1.
         11    1    4    4    0    0  0.54728998231E+00  0.12857101631E+02  0.23338875326E+02  0.26651598271E+02  0.51100000000E-03 0.  1.
        -11    1    4    4    0    0 -0.93958640465E+01  0.99862440351E+01  0.30399271256E+01  0.14044518087E+02  0.51100000000E-03 0. -1.
        -12    1    4    4    0    0 -0.84723076330E+01  0.46144729761E+01 -0.18997882409E+01  0.98327286566E+01  0.00000000000E+00 0.  1.
</event>
<event>
 8    1  0.1019771E-013  0.9118800E+02  0.7816164E-02  0.1184000E+00
        -11   -1    0    0    0    0  0.00000000000E+00  0.00000000000E+00  0.45593999997E+02  0.45594000000E+02  0.51100000000E-03 0. -1.
         11   -1    0    0    0    0 -0.00000000000E+00 -0.00000000000E+00 -0.45593999997E+02  0.45594000000E+02  0.51100000000E-03 0.  1.
         23    2    1    2    0    0  0.44408920985E-15  0.00000000000E+00  0.00000000000E+00  0.91188000000E+02  0.91188000000E+02 0.  0.
    9900012    2    3    3    0    0 -0.21049137165E+01 -0.27155778957E+02 -0.30187735995E+02  0.50528851004E+02  0.29999973112E+02 0.  0.
         12    1    3    3    0    0  0.21049137165E+01  0.27155778957E+02  0.30187735995E+02  0.40659148996E+02  0.00000000000E+00 0. -1.
         11    1    4    4    0    0  0.43474390581E+01 -0.13453699313E+02 -0.17749016464E+02  0.22692065513E+02  0.51100000000E-03 0. -1.
        -11    1    4    4    0    0 -0.57540375297E+01 -0.16969995499E+02 -0.15203441030E+02  0.23499666265E+02  0.51100000000E-03 0.  1.
         12    1    4    4    0    0 -0.69831524491E+00  0.32679158550E+01  0.27647214983E+01  0.43371192259E+01  0.00000000000E+00 0. -1.
</event>
<event>
 8    1  0.9870402E-014  0.9118800E+02  0.7816164E-02  0.1184000E+00
        -11   -1    0    0    0    0  0.00000000000E+00  0.00000000000E+00  0.45593999997E+02  0.45594000000E+02  0.51100000000E-03 0. -1.
         11   -1    0    0    0    0 -0.00000000000E+00 -0.00000000000E+00 -0.45593999997E+02  0.45594000000E+02  0.51100000000E-03 0.  1.
         23    2    1    2    0    0  0.88817841970E-15  0.00000000000E+00 -0.17763568394E-14  0.91188000000E+02  0.91188000000E+02 0.  0.
    9900012    2    3    3    0    0  0.71391046753E+01  0.38394804767E+02 -0.11315359683E+02  0.50528865560E+02  0.30000017355E+02 0.  0.
         12    1    3    3    0    0 -0.71391046753E+01 -0.38394804767E+02  0.11315359683E+02  0.40659134440E+02  0.00000000000E+00 0. -1.
         11    1    4    4    0    0  0.20318119257E+01  0.11292482179E+02  0.73912690098E+01  0.13648416440E+02  0.51100000000E-03 0.  1.
        -11    1    4    4    0    0  0.12586119464E+01 -0.91869757184E+00 -0.54041474020E+01  0.56243149506E+01  0.51100000000E-03 0. -1.
        -12    1    4    4    0    0  0.38486808032E+01  0.28021020160E+02 -0.13302481290E+02  0.31256134169E+02  0.00000000000E+00 0.  1.
</event>
<event>
 8    1  0.9870402E-014  0.9118800E+02  0.7816164E-02  0.1184000E+00
        -11   -1    0    0    0    0  0.00000000000E+00  0.00000000000E+00  0.45593999997E+02  0.45594000000E+02  0.51100000000E-03 0. -1.
         11   -1    0    0    0    0 -0.00000000000E+00 -0.00000000000E+00 -0.45593999997E+02  0.45594000000E+02  0.51100000000E-03 0.  1.
         23    2    1    2    0    0 -0.35527136788E-14 -0.44408920985E-15 -0.71054273576E-14  0.91188000000E+02  0.91188000000E+02 0.  0.
    9900012    2    3    3    0    0  0.11078431204E+02 -0.37105960215E+01 -0.38944400905E+02  0.50528849460E+02  0.29999968420E+02 0.  0.
         12    1    3    3    0    0 -0.11078431204E+02  0.37105960215E+01  0.38944400905E+02  0.40659150540E+02  0.00000000000E+00 0. -1.
         11    1    4    4    0    0  0.86101936031E+01 -0.72868517373E+01 -0.10971508115E+02  0.15735553143E+02  0.51100000000E-03 0. -1.
        -11    1    4    4    0    0  0.81014212475E+01  0.89409025061E+01 -0.21582568825E+02  0.24726100404E+02  0.51100000000E-03 0.  1.
        -12    1    4    4    0    0 -0.56331836470E+01 -0.53646467903E+01 -0.63903239646E+01  0.10067195913E+02  0.00000000000E+00 0.  1.
</event>
<event>
 8    1  0.9870402E-014  0.9118800E+02  0.7816164E-02  0.1184000E+00
        -11   -1    0    0    0    0  0.00000000000E+00  0.00000000000E+00  0.45593999997E+02  0.45594000000E+02  0.51100000000E-03 0. -1.
         11   -1    0    0    0    0 -0.00000000000E+00 -0.00000000000E+00 -0.45593999997E+02  0.45594000000E+02  0.51100000000E-03 0.  1.
         23    2    1    2    0    0  0.00000000000E+00  0.00000000000E+00  0.00000000000E+00  0.91188000000E+02  0.91188000000E+02 0.  0.
    9900012    2    3    3    0    0  0.81295496817E+01  0.49403171148E+01  0.39530611745E+02  0.50528861099E+02  0.30000003797E+02 0.  0.
        -12    1    3    3    0    0 -0.81295496817E+01 -0.49403171148E+01 -0.39530611745E+02  0.40659138901E+02  0.00000000000E+00 0.  1.
         11    1    4    4    0    0 -0.92223625065E+00  0.79103353628E+01  0.76399426077E+01  0.11035970667E+02  0.51100000000E-03 0. -1.
        -11    1    4    4    0    0  0.94178281551E+01  0.12638663315E+01  0.25396082960E+01  0.98357742868E+01  0.51100000000E-03 0.  1.
         12    1    4    4    0    0 -0.36604222274E+00 -0.42338845795E+01  0.29351060841E+02  0.29657116145E+02  0.00000000000E+00 0. -1.
</event>
<event>
 8    1  0.9870402E-014  0.9118800E+02  0.7816164E-02  0.1184000E+00
        -11   -1    0    0    0    0  0.00000000000E+00  0.00000000000E+00  0.45593999997E+02  0.45594000000E+02  0.51100000000E-03 0. -1.
         11   -1    0    0    0    0 -0.00000000000E+00 -0.00000000000E+00 -0.45593999997E+02  0.45594000000E+02  0.51100000000E-03 0.  1.
         23    2    1    2    0    0  0.00000000000E+00  0.00000000000E+00  0.00000000000E+00  0.91188000000E+02  0.91188000000E+02 0.  0.
    9900012    2    3    3    0    0  0.25858103424E+02 -0.23874576536E+02  0.20359978846E+02  0.50528860117E+02  0.30000000810E+02 0.  0.
        -12    1    3    3    0    0 -0.25858103424E+02  0.23874576536E+02 -0.20359978846E+02  0.40659139883E+02  0.00000000000E+00 0.  1.
         11    1    4    4    0    0  0.76917436693E+00  0.17482667193E+01 -0.18938204355E+01  0.26897252335E+01  0.51100000000E-03 0. -1.
        -11    1    4    4    0    0  0.13855439137E+02 -0.16694381878E+01  0.14822762456E+02  0.20358646925E+02  0.51100000000E-03 0.  1.
         12    1    4    4    0    0  0.11233489920E+02 -0.23953405067E+02  0.74310368258E+01  0.27480487958E+02  0.00000000000E+00 0. -1.
</event>
<event>
 8    1  0.9870402E-014  0.9118800E+02  0.7816164E-02  0.1184000E+00
        -11   -1    0    0    0    0  0.00000000000E+00  0.00000000000E+00  0.45593999997E+02  0.45594000000E+02  0.51100000000E-03 0. -1.
         11   -1    0    0    0    0 -0.00000000000E+00 -0.00000000000E+00 -0.45593999997E+02  0.45594000000E+02  0.51100000000E-03 0.  1.
         23    2    1    2    0    0  0.00000000000E+00  0.00000000000E+00  0.00000000000E+00  0.91188000000E+02  0.91188000000E+02 0.  0.
    9900012    2    3    3    0    0 -0.19321160130E+02 -0.30433196443E+02  0.18806370979E+02  0.50528852642E+02  0.29999978090E+02 0.  0.
        -12    1    3    3    0    0  0.19321160130E+02  0.30433196443E+02 -0.18806370979E+02  0.40659147358E+02  0.00000000000E+00 0.  1.
         11    1    4    4    0    0 -0.29559173004E+01 -0.22805139202E+02  0.75760592097E+01  0.24211742906E+02  0.51100000000E-03 0. -1.
        -11    1    4    4    0    0 -0.12599650790E+02 -0.10663940554E+02  0.13158842848E+02  0.21109854891E+02  0.51100000000E-03 0.  1.
        -12    1    4    4    0    0 -0.37655920393E+01  0.30358833133E+01 -0.19285310787E+01  0.52072548449E+01  0.00000000000E+00 0.  1.
</event>
<event>
 8    1  0.9870402E-014  0.9118800E+02  0.7816164E-02  0.1184000E+00
        -11   -1    0    0    0    0  0.00000000000E+00  0.00000000000E+00  0.45593999997E+02  0.45594000000E+02  0.51100000000E-03 0. -1.
         11   -1    0    0    0    0 -0.00000000000E+00 -0.00000000000E+00 -0.45593999997E+02  0.45594000000E+02  0.51100000000E-03 0.  1.
         23    2    1    2    0    0  0.00000000000E+00  0.17763568394E-14 -0.71054273576E-14  0.91188000000E+02  0.91188000000E+02 0.  0.
    9900012    2    3    3    0    0 -0.10689885510E+02  0.10728837970E+02 -0.37733063711E+02  0.50528859412E+02  0.29999998668E+02 0.  0.
         12    1    3    3    0    0  0.10689885510E+02 -0.10728837970E+02  0.37733063711E+02  0.40659140588E+02  0.00000000000E+00 0. -1.
         11    1    4    4    0    0  0.62864015291E+00  0.30991322137E+01 -0.45096156058E+00  0.31942409913E+01  0.51100000000E-03 0. -1.
        -11    1    4    4    0    0  0.37817039352E+01  0.69930603012E+01 -0.29062830937E+02  0.30130587770E+02  0.51100000000E-03 0.  1.
        -12    1    4    4    0    0 -0.15100229598E+02  0.63664545462E+00 -0.82192712133E+01  0.17204030651E+02  0.00000000000E+00 0.  1.
</event>
<event>
 8    1  0.9870402E-014  0.9118800E+02  0.7816164E-02  0.1184000E+00
        -11   -1    0    0    0    0  0.00000000000E+00  0.00000000000E+00  0.45593999997E+02  0.45594000000E+02  0.51100000000E-03 0. -1.
         11   -1    0    0    0    0 -0.00000000000E+00 -0.00000000000E+00 -0.45593999997E+02  0.45594000000E+02  0.51100000000E-03 0.  1.
         23    2    1    2    0    0  0.00000000000E+00  0.35527136788E-14  0.00000000000E+00  0.91188000000E+02  0.91188000000E+02 0.  0.
    9900012    2    3    3    0    0  0.14516340869E+02  0.27978898777E+02  0.25683134165E+02  0.50528852080E+02  0.29999976383E+02 0.  0.
        -12    1    3    3    0    0 -0.14516340869E+02 -0.27978898777E+02 -0.25683134165E+02  0.40659147920E+02  0.00000000000E+00 0.  1.
         11    1    4    4    0    0 -0.83158077141E-01  0.16858619083E+02  0.14751793298E+02  0.22401682044E+02  0.51100000000E-03 0. -1.
        -11    1    4    4    0    0  0.61545001620E+01  0.50617238641E+01  0.14984328369E+02  0.16971417668E+02  0.51100000000E-03 0.  1.
        -12    1    4    4    0    0  0.84449987841E+01  0.60585558302E+01 -0.40529875018E+01  0.11155752368E+02  0.00000000000E+00 0.  1.
</event>
<event>
 8    1  0.9870402E-014  0.9118800E+02  0.7816164E-02  0.1184000E+00
        -11   -1    0    0    0    0  0.00000000000E+00  0.00000000000E+00  0.45593999997E+02  0.45594000000E+02  0.51100000000E-03 0. -1.
         11   -1    0    0    0    0 -0.00000000000E+00 -0.00000000000E+00 -0.45593999997E+02  0.45594000000E+02  0.51100000000E-03 0.  1.
         23    2    1    2    0    0  0.00000000000E+00  0.00000000000E+00  0.00000000000E+00  0.91188000000E+02  0.91188000000E+02 0.  0.
    9900012    2    3    3    0    0  0.21535085471E+02 -0.68554643518E+00 -0.34480934026E+02  0.50528871978E+02  0.30000036865E+02 0.  0.
         12    1    3    3    0    0 -0.21535085471E+02  0.68554643518E+00  0.34480934026E+02  0.40659128022E+02  0.00000000000E+00 0. -1.
         11    1    4    4    0    0  0.58250356713E+01 -0.25121168947E+01  0.12996489688E+01  0.64754042012E+01  0.51100000000E-03 0. -1.
        -11    1    4    4    0    0 -0.48669473613E+01  0.15898462195E+01 -0.72831709327E+01  0.89027729790E+01  0.51100000000E-03 0.  1.
        -12    1    4    4    0    0  0.20576997161E+02  0.23672424000E+00 -0.28497412062E+02  0.35150694798E+02  0.00000000000E+00 0.  1.
</event>
<event>
 8    1  0.9870402E-014  0.9118800E+02  0.7816164E-02  0.1184000E+00
        -11   -1    0    0    0    0  0.00000000000E+00  0.00000000000E+00  0.45593999997E+02  0.45594000000E+02  0.51100000000E-03 0. -1.
         11   -1    0    0    0    0 -0.00000000000E+00 -0.00000000000E+00 -0.45593999997E+02  0.45594000000E+02  0.51100000000E-03 0.  1.
         23    2    1    2    0    0  0.00000000000E+00 -0.35527136788E-14  0.35527136788E-14  0.91188000000E+02  0.91188000000E+02 0.  0.
    9900012    2    3    3    0    0  0.26769754130E+02  0.18285552228E+02 -0.24539454785E+02  0.50528855917E+02  0.29999988044E+02 0.  0.
         12    1    3    3    0    0 -0.26769754130E+02 -0.18285552228E+02  0.24539454785E+02  0.40659144083E+02  0.00000000000E+00 0. -1.
         11    1    4    4    0    0 -0.28729685287E+01  0.94619200332E+01 -0.10756824991E+02  0.14611336798E+02  0.51100000000E-03 0. -1.
        -11    1    4    4    0    0  0.12149055890E+01 -0.19585401041E+01  0.44832149057E+00  0.23479496054E+01  0.51100000000E-03 0.  1.
        -12    1    4    4    0    0  0.28427817070E+02  0.10782172299E+02 -0.14230951284E+02  0.33569569513E+02  0.00000000000E+00 0.  1.
</event>
<event>
 8    1  0.9870402E-014  0.9118800E+02  0.7816164E-02  0.1184000E+00
        -11   -1    0    0    0    0  0.00000000000E+00  0.00000000000E+00  0.45593999997E+02  0.45594000000E+02  0.51100000000E-03 0. -1.
         11   -1    0    0    0    0 -0.00000000000E+00 -0.00000000000E+00 -0.45593999997E+02  0.45594000000E+02  0.51100000000E-03 0.  1.
         23    2    1    2    0    0  0.00000000000E+00  0.00000000000E+00  0.00000000000E+00  0.91188000000E+02  0.91188000000E+02 0.  0.
    9900012    2    3    3    0    0  0.37797144435E+01 -0.10658400007E+02 -0.39054823993E+02  0.50528843478E+02  0.29999950234E+02 0.  0.
         12    1    3    3    0    0 -0.37797144435E+01  0.10658400007E+02  0.39054823993E+02  0.40659156522E+02  0.00000000000E+00 0. -1.
         11    1    4    4    0    0 -0.34222241128E+01 -0.57158394167E+01 -0.70919914146E+01  0.97303021845E+01  0.51100000000E-03 0.  1.
        -11    1    4    4    0    0 -0.19864242319E+01  0.86837878397E+01 -0.10627416323E+02  0.13867084425E+02  0.51100000000E-03 0. -1.
         12    1    4    4    0    0  0.91883627882E+01 -0.13626348430E+02 -0.21335416255E+02  0.26931456868E+02  0.00000000000E+00 0. -1.
</event>
<event>
 8    1  0.9870402E-014  0.9118800E+02  0.7816164E-02  0.1184000E+00
        -11   -1    0    0    0    0  0.00000000000E+00  0.00000000000E+00  0.45593999997E+02  0.45594000000E+02  0.51100000000E-03 0. -1.
         11   -1    0    0    0    0 -0.00000000000E+00 -0.00000000000E+00 -0.45593999997E+02  0.45594000000E+02  0.51100000000E-03 0.  1.
         23    2    1    2    0    0  0.00000000000E+00  0.00000000000E+00 -0.17763568394E-14  0.91188000000E+02  0.91188000000E+02 0.  0.
    9900012    2    3    3    0    0 -0.16803138809E+02  0.34454372021E+02 -0.13554191475E+02  0.50528864105E+02  0.30000012934E+02 0.  0.
         12    1    3    3    0    0  0.16803138809E+02 -0.34454372021E+02  0.13554191475E+02  0.40659135895E+02  0.00000000000E+00 0. -1.
         11    1    4    4    0    0 -0.14705584187E+02  0.71125306730E+01 -0.86073517849E+01  0.18464257469E+02  0.51100000000E-03 0. -1.
        -11    1    4    4    0    0 -0.48966450509E+01  0.21552570186E+02 -0.96309276374E+01  0.24109026977E+02  0.51100000000E-03 0.  1.
         12    1    4    4    0    0  0.27990904291E+01  0.57892711620E+01  0.46840879472E+01  0.79555796592E+01  0.00000000000E+00 0. -1.
</event>
<event>
 8    1  0.1232933E-013  0.9118800E+02  0.7816164E-02  0.1184000E+00
        -11   -1    0    0    0    0  0.00000000000E+00  0.00000000000E+00  0.45593999997E+02  0.45594000000E+02  0.51100000000E-03 0. -1.
         11   -1    0    0    0    0 -0.00000000000E+00 -0.00000000000E+00 -0.45593999997E+02  0.45594000000E+02  0.51100000000E-03 0.  1.
         23    2    1    2    0    0  0.00000000000E+00  0.00000000000E+00  0.00000000000E+00  0.91188000000E+02  0.91188000000E+02 0.  0.
    9900012    2    3    3    0    0 -0.40320711545E+01 -0.20488573175E+02 -0.34887343555E+02  0.50528856270E+02  0.29999989118E+02 0.  0.
         12    1    3    3    0    0  0.40320711545E+01  0.20488573175E+02  0.34887343555E+02  0.40659143730E+02  0.00000000000E+00 0. -1.
         11    1    4    4    0    0  0.84327908116E+01 -0.64962925165E+01 -0.81669662605E+01  0.13416896642E+02  0.51100000000E-03 0. -1.
        -11    1    4    4    0    0 -0.76910604521E+00 -0.37199877386E+01 -0.19652366833E+02  0.20016127379E+02  0.51100000000E-03 0.  1.
         12    1    4    4    0    0 -0.11695755921E+02 -0.10272292920E+02 -0.70680104618E+01  0.17095832249E+02  0.00000000000E+00 0. -1.
</event>
<event>
 8    1  0.9870402E-014  0.9118800E+02  0.7816164E-02  0.1184000E+00
        -11   -1    0    0    0    0  0.00000000000E+00  0.00000000000E+00  0.45593999997E+02  0.45594000000E+02  0.51100000000E-03 0. -1.
         11   -1    0    0    0    0 -0.00000000000E+00 -0.00000000000E+00 -0.45593999997E+02  0.45594000000E+02  0.51100000000E-03 0.  1.
         23    2    1    2    0    0  0.00000000000E+00  0.00000000000E+00  0.00000000000E+00  0.91188000000E+02  0.91188000000E+02 0.  0.
    9900012    2    3    3    0    0 -0.28175604254E+02 -0.17509703398E+02 -0.23509839919E+02  0.50528844067E+02  0.29999952027E+02 0.  0.
         12    1    3    3    0    0  0.28175604254E+02  0.17509703398E+02  0.23509839919E+02  0.40659155933E+02  0.00000000000E+00 0. -1.
         11    1    4    4    0    0 -0.84392123646E+01 -0.74690664183E+00  0.45165781602E+01  0.96009194041E+01  0.51100000000E-03 0. -1.
        -11    1    4    4    0    0 -0.14020504572E+02 -0.57416091300E+01 -0.74189451619E+01  0.16869539752E+02  0.51100000000E-03 0.  1.
         12    1    4    4    0    0 -0.57158873171E+01 -0.11021187626E+02 -0.20607472917E+02  0.24058384911E+02  0.00000000000E+00 0. -1.
</event>
<event>
 8    1  0.9870402E-014  0.9118800E+02  0.7816164E-02  0.1184000E+00
        -11   -1    0    0    0    0  0.00000000000E+00  0.00000000000E+00  0.45593999997E+02  0.45594000000E+02  0.51100000000E-03 0.  1.
         11   -1    0    0    0    0 -0.00000000000E+00 -0.00000000000E+00 -0.45593999997E+02  0.45594000000E+02  0.51100000000E-03 0. -1.
         23    2    1    2    0    0 -0.88817841970E-15  0.00000000000E+00 -0.35527136788E-14  0.91188000000E+02  0.91188000000E+02 0.  0.
    9900012    2    3    3    0    0 -0.42549286782E+01 -0.35332653716E+02  0.19663796760E+02  0.50528859089E+02  0.29999997686E+02 0.  0.
        -12    1    3    3    0    0  0.42549286782E+01  0.35332653716E+02 -0.19663796760E+02  0.40659140911E+02  0.00000000000E+00 0.  1.
         11    1    4    4    0    0 -0.50060407746E+01 -0.25348331862E+02  0.12050257669E+02  0.28509771703E+02  0.51100000000E-03 0. -1.
        -11    1    4    4    0    0  0.13141061852E+01 -0.88658402481E+01  0.13387606235E+02  0.16110803808E+02  0.51100000000E-03 0.  1.
         12    1    4    4    0    0 -0.56299408887E+00 -0.11184816051E+01 -0.57740671439E+01  0.59082835771E+01  0.00000000000E+00 0. -1.
</event>
<event>
 8    1  0.9870402E-014  0.9118800E+02  0.7816164E-02  0.1184000E+00
        -11   -1    0    0    0    0  0.00000000000E+00  0.00000000000E+00  0.45593999997E+02  0.45594000000E+02  0.51100000000E-03 0. -1.
         11   -1    0    0    0    0 -0.00000000000E+00 -0.00000000000E+00 -0.45593999997E+02  0.45594000000E+02  0.51100000000E-03 0.  1.
         23    2    1    2    0    0  0.00000000000E+00  0.00000000000E+00  0.35527136788E-14  0.91188000000E+02  0.91188000000E+02 0.  0.
    9900012    2    3    3    0    0  0.26417590503E+02 -0.55890116025E+01  0.30398014435E+02  0.50528863016E+02  0.30000009625E+02 0.  0.
        -12    1    3    3    0    0 -0.26417590503E+02  0.55890116025E+01 -0.30398014435E+02  0.40659136984E+02  0.00000000000E+00 0.  1.
         11    1    4    4    0    0  0.18768028624E+02 -0.73424463475E+01  0.14131223132E+02  0.24613855534E+02  0.51100000000E-03 0.  1.
        -11    1    4    4    0    0  0.52984393337E+01 -0.52287382657E+01  0.16953392431E+02  0.18515687359E+02  0.51100000000E-03 0. -1.
        -12    1    4    4    0    0  0.23511225449E+01  0.69821730107E+01 -0.68660112736E+00  0.73993201228E+01  0.00000000000E+00 0.  1.
</event>
<event>
 8    1  0.9870402E-014  0.9118800E+02  0.7816164E-02  0.1184000E+00
        -11   -1    0    0    0    0  0.00000000000E+00  0.00000000000E+00  0.45593999997E+02  0.45594000000E+02  0.51100000000E-03 0. -1.
         11   -1    0    0    0    0 -0.00000000000E+00 -0.00000000000E+00 -0.45593999997E+02  0.45594000000E+02  0.51100000000E-03 0.  1.
         23    2    1    2    0    0 -0.35527136788E-14  0.00000000000E+00  0.00000000000E+00  0.91188000000E+02  0.91188000000E+02 0.  0.
    9900012    2    3    3    0    0 -0.23950119685E+02 -0.36848690522E+00 -0.32854564210E+02  0.50528850907E+02  0.29999972818E+02 0.  0.
         12    1    3    3    0    0  0.23950119685E+02  0.36848690522E+00  0.32854564210E+02  0.40659149093E+02  0.00000000000E+00 0. -1.
         11    1    4    4    0    0 -0.18791856021E+01 -0.26856862987E+00  0.93517762084E+00  0.21161344664E+01  0.51100000000E-03 0. -1.
        -11    1    4    4    0    0 -0.28137668480E+02 -0.77086979212E+00 -0.30401781537E+02  0.41431762557E+02  0.51100000000E-03 0.  1.
        -12    1    4    4    0    0  0.60667343966E+01  0.67095151677E+00 -0.33879602938E+01  0.69809538839E+01  0.00000000000E+00 0.  1.
</event>
<event>
 8    1  0.1271280E-013  0.9118800E+02  0.7816164E-02  0.1184000E+00
        -11   -1    0    0    0    0  0.00000000000E+00  0.00000000000E+00  0.45593999997E+02  0.45594000000E+02  0.51100000000E-03 0. -1.
         11   -1    0    0    0    0 -0.00000000000E+00 -0.00000000000E+00 -0.45593999997E+02  0.45594000000E+02  0.51100000000E-03 0.  1.
         23    2    1    2    0    0  0.00000000000E+00  0.00000000000E+00 -0.35527136788E-14  0.91188000000E+02  0.91188000000E+02 0.  0.
    9900012    2    3    3    0    0  0.20093720590E+02 -0.16602897069E+02 -0.31205019373E+02  0.50528843193E+02  0.29999949368E+02 0.  0.
         12    1    3    3    0    0 -0.20093720590E+02  0.16602897069E+02  0.31205019373E+02  0.40659156807E+02  0.00000000000E+00 0. -1.
         11    1    4    4    0    0 -0.18397038440E+01 -0.71487194908E+01 -0.10664420586E+02  0.12969910073E+02  0.51100000000E-03 0. -1.
        -11    1    4    4    0    0  0.15596113302E+02 -0.91141990877E+00 -0.21829991522E+02  0.26844328386E+02  0.51100000000E-03 0.  1.
         12    1    4    4    0    0  0.63373111321E+01 -0.85427576695E+01  0.12893927353E+01  0.10714604734E+02  0.00000000000E+00 0. -1.
</event>
<event>
 8    1  0.9870402E-014  0.9118800E+02  0.7816164E-02  0.1184000E+00
        -11   -1    0    0    0    0  0.00000000000E+00  0.00000000000E+00  0.45593999997E+02  0.45594000000E+02  0.51100000000E-03 0. -1.
         11   -1    0    0    0    0 -0.00000000000E+00 -0.00000000000E+00 -0.45593999997E+02  0.45594000000E+02  0.51100000000E-03 0.  1.
         23    2    1    2    0    0  0.00000000000E+00  0.00000000000E+00  0.35527136788E-14  0.91188000000E+02  0.91188000000E+02 0.  0.
    9900012    2    3    3    0    0  0.99118550173E+01 -0.25220011402E+02  0.30312904636E+02  0.50528855488E+02  0.29999986741E+02 0.  0.
        -12    1    3    3    0    0 -0.99118550173E+01  0.25220011402E+02 -0.30312904636E+02  0.40659144512E+02  0.00000000000E+00 0.  1.
         11    1    4    4    0    0  0.54639521847E+00 -0.11024152487E+02  0.10948956124E+02  0.15547029499E+02  0.51100000000E-03 0. -1.
        -11    1    4    4    0    0 -0.62513197641E+00 -0.12737104846E+02 -0.43202766707E+00  0.12759752271E+02  0.51100000000E-03 0.  1.
        -12    1    4    4    0    0  0.99905917753E+01 -0.14587540693E+01  0.19795976179E+02  0.22222073718E+02  0.00000000000E+00 0.  1.
</event>
<event>
 8    1  0.9870402E-014  0.9118800E+02  0.7816164E-02  0.1184000E+00
        -11   -1    0    0    0    0  0.00000000000E+00  0.00000000000E+00  0.45593999997E+02  0.45594000000E+02  0.51100000000E-03 0. -1.
         11   -1    0    0    0    0 -0.00000000000E+00 -0.00000000000E+00 -0.45593999997E+02  0.45594000000E+02  0.51100000000E-03 0.  1.
         23    2    1    2    0    0  0.00000000000E+00  0.00000000000E+00  0.00000000000E+00  0.91188000000E+02  0.91188000000E+02 0.  0.
    9900012    2    3    3    0    0  0.12172570417E+02 -0.18819311513E+02 -0.33923846762E+02  0.50528864059E+02  0.30000012794E+02 0.  0.
         12    1    3    3    0    0 -0.12172570417E+02  0.18819311513E+02  0.33923846762E+02  0.40659135941E+02  0.00000000000E+00 0. -1.
         11    1    4    4    0    0  0.10096720521E+02  0.30005100224E+01 -0.96817881976E+01  0.14306776319E+02  0.51100000000E-03 0. -1.
        -11    1    4    4    0    0 -0.26434051296E+01  0.11276967399E+01 -0.55548210932E+01  0.62542248324E+01  0.51100000000E-03 0.  1.
        -12    1    4    4    0    0  0.47192550257E+01 -0.22947518275E+02 -0.18687237471E+02  0.29967862908E+02  0.00000000000E+00 0.  1.
</event>
<event>
 8    1  0.1314294E-013  0.9118800E+02  0.7816164E-02  0.1184000E+00
        -11   -1    0    0    0    0  0.00000000000E+00  0.00000000000E+00  0.45593999997E+02  0.45594000000E+02  0.51100000000E-03 0. -1.
         11   -1    0    0    0    0 -0.00000000000E+00 -0.00000000000E+00 -0.45593999997E+02  0.45594000000E+02  0.51100000000E-03 0.  1.
         23    2    1    2    0    0  0.35527136788E-14 -0.38857805862E-15  0.00000000000E+00  0.91188000000E+02  0.91188000000E+02 0.  0.
    9900012    2    3    3    0    0  0.30289168295E+02 -0.26503932916E+00 -0.27123079144E+02  0.50528863461E+02  0.30000010976E+02 0.  0.
         12    1    3    3    0    0 -0.30289168295E+02  0.26503932916E+00  0.27123079144E+02  0.40659136539E+02  0.00000000000E+00 0. -1.
         11    1    4    4    0    0  0.98551135283E+01 -0.93009913591E+01 -0.98170437946E+01  0.16733381369E+02  0.51100000000E-03 0. -1.
        -11    1    4    4    0    0  0.17295744754E+02 -0.62636411761E+00 -0.15968849836E+02  0.23548657795E+02  0.51100000000E-03 0.  1.
         12    1    4    4    0    0  0.31383100134E+01  0.96623161476E+01 -0.13371855128E+01  0.10246824297E+02  0.00000000000E+00 0. -1.
</event>
<event>
 8    1  0.9870402E-014  0.9118800E+02  0.7816164E-02  0.1184000E+00
        -11   -1    0    0    0    0  0.00000000000E+00  0.00000000000E+00  0.45593999997E+02  0.45594000000E+02  0.51100000000E-03 0. -1.
         11   -1    0    0    0    0 -0.00000000000E+00 -0.00000000000E+00 -0.45593999997E+02  0.45594000000E+02  0.51100000000E-03 0.  1.
         23    2    1    2    0    0  0.00000000000E+00 -0.35527136788E-14  0.00000000000E+00  0.91188000000E+02  0.91188000000E+02 0.  0.
    9900012    2    3    3    0    0 -0.13061803843E+02  0.17160911885E+02  0.34468117034E+02  0.50528945557E+02  0.30000260513E+02 0.  0.
        -12    1    3    3    0    0  0.13061803843E+02 -0.17160911885E+02 -0.34468117034E+02  0.40659054443E+02  0.00000000000E+00 0.  1.
         11    1    4    4    0    0 -0.47013750210E+01 -0.28653942231E+01  0.88874805369E+01  0.10454698546E+02  0.51100000000E-03 0. -1.
        -11    1    4    4    0    0 -0.76049861708E+01 -0.25864321963E+01  0.87307495006E+01  0.11863870923E+02  0.51100000000E-03 0.  1.
         12    1    4    4    0    0 -0.75544265150E+00  0.22612738305E+02  0.16849886996E+02  0.28210376088E+02  0.00000000000E+00 0. -1.
</event>
<event>
 8    1  0.9870402E-014  0.9118800E+02  0.7816164E-02  0.1184000E+00
        -11   -1    0    0    0    0  0.00000000000E+00  0.00000000000E+00  0.45593999997E+02  0.45594000000E+02  0.51100000000E-03 0. -1.
         11   -1    0    0    0    0 -0.00000000000E+00 -0.00000000000E+00 -0.45593999997E+02  0.45594000000E+02  0.51100000000E-03 0.  1.
         23    2    1    2    0    0  0.00000000000E+00  0.00000000000E+00  0.35527136788E-14  0.91188000000E+02  0.91188000000E+02 0.  0.
    9900012    2    3    3    0    0  0.24165056346E+02  0.14560073460E+02  0.29278317969E+02  0.50528860924E+02  0.30000003264E+02 0.  0.
        -12    1    3    3    0    0 -0.24165056346E+02 -0.14560073460E+02 -0.29278317969E+02  0.40659139076E+02  0.00000000000E+00 0.  1.
         11    1    4    4    0    0  0.78926770948E+01  0.12942017360E+02  0.16033032301E+02  0.22064638907E+02  0.51100000000E-03 0. -1.
        -11    1    4    4    0    0 -0.22392907319E+01 -0.72874584106E-01  0.91624298923E+01  0.94323833404E+01  0.51100000000E-03 0.  1.
         12    1    4    4    0    0  0.18511669983E+02  0.16909306837E+01  0.40828557753E+01  0.19031838677E+02  0.00000000000E+00 0. -1.
</event>
<event>
 8    1  0.9870402E-014  0.9118800E+02  0.7816164E-02  0.1184000E+00
        -11   -1    0    0    0    0  0.00000000000E+00  0.00000000000E+00  0.45593999997E+02  0.45594000000E+02  0.51100000000E-03 0. -1.
         11   -1    0    0    0    0 -0.00000000000E+00 -0.00000000000E+00 -0.45593999997E+02  0.45594000000E+02  0.51100000000E-03 0.  1.
         23    2    1    2    0    0  0.17763568394E-14  0.00000000000E+00  0.35527136788E-14  0.91188000000E+02  0.91188000000E+02 0.  0.
    9900012    2    3    3    0    0 -0.13955639170E+02 -0.28515717790E+02 -0.25401957725E+02  0.50528862258E+02  0.30000007318E+02 0.  0.
         12    1    3    3    0    0  0.13955639170E+02  0.28515717790E+02  0.25401957725E+02  0.40659137742E+02  0.00000000000E+00 0. -1.
         11    1    4    4    0    0 -0.27541961573E+01  0.11657054809E+01  0.25428132402E+01  0.39256037978E+01  0.51100000000E-03 0. -1.
        -11    1    4    4    0    0 -0.15605684452E+01 -0.18062748838E+02 -0.44374025563E+01  0.18665176430E+02  0.51100000000E-03 0.  1.
        -12    1    4    4    0    0 -0.96408745680E+01 -0.11618674432E+02 -0.23507368409E+02  0.27938082030E+02  0.00000000000E+00 0.  1.
</event>
<event>
 8    1  0.9870402E-014  0.9118800E+02  0.7816164E-02  0.1184000E+00
        -11   -1    0    0    0    0  0.00000000000E+00  0.00000000000E+00  0.45593999997E+02  0.45594000000E+02  0.51100000000E-03 0. -1.
         11   -1    0    0    0    0 -0.00000000000E+00 -0.00000000000E+00 -0.45593999997E+02  0.45594000000E+02  0.51100000000E-03 0.  1.
         23    2    1    2    0    0  0.00000000000E+00  0.00000000000E+00  0.00000000000E+00  0.91188000000E+02  0.91188000000E+02 0.  0.
    9900012    2    3    3    0    0 -0.32219520084E+02  0.20804197058E+02  0.13500126608E+02  0.50528861936E+02  0.30000006339E+02 0.  0.
        -12    1    3    3    0    0  0.32219520084E+02 -0.20804197058E+02 -0.13500126608E+02  0.40659138064E+02  0.00000000000E+00 0.  1.
         11    1    4    4    0    0 -0.14788622954E+00  0.35256813554E+01 -0.12849519472E+01  0.37554495237E+01  0.51100000000E-03 0. -1.
        -11    1    4    4    0    0 -0.19949121278E+01 -0.49323010103E+01  0.66381883779E+01  0.85072212182E+01  0.51100000000E-03 0.  1.
         12    1    4    4    0    0 -0.30076721727E+02  0.22210816713E+02  0.81468901775E+01  0.38266191194E+02  0.00000000000E+00 0. -1.
</event>
<event>
 8    1  0.9870402E-014  0.9118800E+02  0.7816164E-02  0.1184000E+00
        -11   -1    0    0    0    0  0.00000000000E+00  0.00000000000E+00  0.45593999997E+02  0.45594000000E+02  0.51100000000E-03 0. -1.
         11   -1    0    0    0    0 -0.00000000000E+00 -0.00000000000E+00 -0.45593999997E+02  0.45594000000E+02  0.51100000000E-03 0.  1.
         23    2    1    2    0    0  0.00000000000E+00 -0.35527136788E-14 -0.71054273576E-14  0.91188000000E+02  0.91188000000E+02 0.  0.
    9900012    2    3    3    0    0  0.93277681923E+01  0.21913538542E+02  0.32953847140E+02  0.50528850080E+02  0.29999970302E+02 0.  0.
        -12    1    3    3    0    0 -0.93277681923E+01 -0.21913538542E+02 -0.32953847140E+02  0.40659149920E+02  0.00000000000E+00 0.  1.
         11    1    4    4    0    0  0.18789743922E+01  0.22542910726E+01  0.53335719121E+01  0.60876401511E+01  0.51100000000E-03 0. -1.
        -11    1    4    4    0    0 -0.24491429300E+01  0.46284620193E+01 -0.49651248477E+01  0.72161919854E+01  0.51100000000E-03 0.  1.
        -12    1    4    4    0    0  0.98979367302E+01  0.15030785450E+02  0.32585400076E+02  0.37225017943E+02  0.00000000000E+00 0.  1.
</event>
<event>
 8    1  0.9870402E-014  0.9118800E+02  0.7816164E-02  0.1184000E+00
        -11   -1    0    0    0    0  0.00000000000E+00  0.00000000000E+00  0.45593999997E+02  0.45594000000E+02  0.51100000000E-03 0. -1.
         11   -1    0    0    0    0 -0.00000000000E+00 -0.00000000000E+00 -0.45593999997E+02  0.45594000000E+02  0.51100000000E-03 0.  1.
         23    2    1    2    0    0  0.00000000000E+00  0.88817841970E-15  0.00000000000E+00  0.91188000000E+02  0.91188000000E+02 0.  0.
    9900012    2    3    3    0    0 -0.31493054559E+02 -0.52926499998E+01  0.25166289570E+02  0.50528846538E+02  0.29999959538E+02 0.  0.
        -12    1    3    3    0    0  0.31493054559E+02  0.52926499998E+01 -0.25166289570E+02  0.40659153462E+02  0.00000000000E+00 0.  1.
         11    1    4    4    0    0  0.91355992351E+00  0.49471679236E+01  0.26041877445E+01  0.56648791927E+01  0.51100000000E-03 0. -1.
        -11    1    4    4    0    0 -0.11460790576E+02 -0.13346797387E+02  0.10763252646E+02  0.20623635201E+02  0.51100000000E-03 0.  1.
         12    1    4    4    0    0 -0.20945823907E+02  0.31069794639E+01  0.11798849179E+02  0.24240332144E+02  0.00000000000E+00 0. -1.
</event>
<event>
 8    1  0.1000459E-013  0.9118800E+02  0.7816164E-02  0.1184000E+00
        -11   -1    0    0    0    0  0.00000000000E+00  0.00000000000E+00  0.45593999997E+02  0.45594000000E+02  0.51100000000E-03 0. -1.
         11   -1    0    0    0    0 -0.00000000000E+00 -0.00000000000E+00 -0.45593999997E+02  0.45594000000E+02  0.51100000000E-03 0.  1.
         23    2    1    2    0    0  0.00000000000E+00  0.00000000000E+00  0.00000000000E+00  0.91188000000E+02  0.91188000000E+02 0.  0.
    9900012    2    3    3    0    0  0.20942706688E+02  0.21402352001E+02 -0.27504637092E+02  0.50528896516E+02  0.30000111450E+02 0.  0.
         12    1    3    3    0    0 -0.20942706688E+02 -0.21402352001E+02  0.27504637092E+02  0.40659103484E+02  0.00000000000E+00 0. -1.
         11    1    4    4    0    0 -0.51813089347E+01 -0.18937847368E+01 -0.40540492061E+01  0.68459986951E+01  0.51100000000E-03 0. -1.
        -11    1    4    4    0    0  0.90891607193E+01  0.61023309383E+01 -0.15786473023E+01  0.11060895670E+02  0.51100000000E-03 0.  1.
        -12    1    4    4    0    0  0.17034854903E+02  0.17193805799E+02 -0.21871940583E+02  0.32622002151E+02  0.00000000000E+00 0.  1.
</event>
<event>
 8    1  0.9870402E-014  0.9118800E+02  0.7816164E-02  0.1184000E+00
        -11   -1    0    0    0    0  0.00000000000E+00  0.00000000000E+00  0.45593999997E+02  0.45594000000E+02  0.51100000000E-03 0. -1.
         11   -1    0    0    0    0 -0.00000000000E+00 -0.00000000000E+00 -0.45593999997E+02  0.45594000000E+02  0.51100000000E-03 0.  1.
         23    2    1    2    0    0  0.00000000000E+00  0.35527136788E-14  0.00000000000E+00  0.91188000000E+02  0.91188000000E+02 0.  0.
    9900012    2    3    3    0    0 -0.25772799033E+02  0.29575542975E+02 -0.10687164374E+02  0.50528863332E+02  0.30000010583E+02 0.  0.
         12    1    3    3    0    0  0.25772799033E+02 -0.29575542975E+02  0.10687164374E+02  0.40659136668E+02  0.00000000000E+00 0. -1.
         11    1    4    4    0    0 -0.32339325308E+01 -0.15191406614E+00  0.21445388951E+01  0.38833548423E+01  0.51100000000E-03 0. -1.
        -11    1    4    4    0    0 -0.54182616514E+01  0.20781664341E+02  0.29804443171E+01  0.21682208852E+02  0.51100000000E-03 0.  1.
        -12    1    4    4    0    0 -0.17120604851E+02  0.89457926999E+01 -0.15812147586E+02  0.24963299637E+02  0.00000000000E+00 0.  1.
</event>
<event>
 8    1  0.9870402E-014  0.9118800E+02  0.7816164E-02  0.1184000E+00
        -11   -1    0    0    0    0  0.00000000000E+00  0.00000000000E+00  0.45593999997E+02  0.45594000000E+02  0.51100000000E-03 0. -1.
         11   -1    0    0    0    0 -0.00000000000E+00 -0.00000000000E+00 -0.45593999997E+02  0.45594000000E+02  0.51100000000E-03 0.  1.
         23    2    1    2    0    0 -0.17763568394E-14  0.00000000000E+00  0.00000000000E+00  0.91188000000E+02  0.91188000000E+02 0.  0.
    9900012    2    3    3    0    0 -0.12302137189E+02  0.30695849476E+02  0.23655625817E+02  0.50528851125E+02  0.29999973479E+02 0.  0.
        -12    1    3    3    0    0  0.12302137189E+02 -0.30695849476E+02 -0.23655625817E+02  0.40659148875E+02  0.00000000000E+00 0.  1.
         11    1    4    4    0    0 -0.74364379915E+01  0.27110919121E+02  0.96731298388E+01  0.29729984641E+02  0.51100000000E-03 0. -1.
        -11    1    4    4    0    0 -0.80370770957E+01  0.37909366895E+01  0.30206692404E+01  0.93856407425E+01  0.51100000000E-03 0.  1.
         12    1    4    4    0    0  0.31713778985E+01 -0.20600633496E+00  0.10961826738E+02  0.11413225741E+02  0.00000000000E+00 0. -1.
</event>
<event>
 8    1  0.9870402E-014  0.9118800E+02  0.7816164E-02  0.1184000E+00
        -11   -1    0    0    0    0  0.00000000000E+00  0.00000000000E+00  0.45593999997E+02  0.45594000000E+02  0.51100000000E-03 0. -1.
         11   -1    0    0    0    0 -0.00000000000E+00 -0.00000000000E+00 -0.45593999997E+02  0.45594000000E+02  0.51100000000E-03 0.  1.
         23    2    1    2    0    0  0.11102230246E-15 -0.44408920985E-15  0.00000000000E+00  0.91188000000E+02  0.91188000000E+02 0.  0.
    9900012    2    3    3    0    0  0.69850689759E+00  0.22416096322E+01  0.40591297618E+02  0.50528853821E+02  0.29999981675E+02 0.  0.
        -12    1    3    3    0    0 -0.69850689759E+00 -0.22416096322E+01 -0.40591297618E+02  0.40659146179E+02  0.00000000000E+00 0.  1.
         11    1    4    4    0    0  0.67339117494E+01 -0.72799703478E+01  0.27086345213E+02  0.28844646522E+02  0.51100000000E-03 0. -1.
        -11    1    4    4    0    0 -0.89853915121E+00  0.16215800309E+01 -0.24993041552E+01  0.31118187486E+01  0.51100000000E-03 0.  1.
        -12    1    4    4    0    0 -0.51368657006E+01  0.78999999490E+01  0.16004256560E+02  0.18572388550E+02  0.00000000000E+00 0.  1.
</event>
<event>
 8    1  0.9870402E-014  0.9118800E+02  0.7816164E-02  0.1184000E+00
        -11   -1    0    0    0    0  0.00000000000E+00  0.00000000000E+00  0.45593999997E+02  0.45594000000E+02  0.51100000000E-03 0. -1.
         11   -1    0    0    0    0 -0.00000000000E+00 -0.00000000000E+00 -0.45593999997E+02  0.45594000000E+02  0.51100000000E-03 0.  1.
         23    2    1    2    0    0  0.00000000000E+00  0.00000000000E+00  0.00000000000E+00  0.91188000000E+02  0.91188000000E+02 0.  0.
    9900012    2    3    3    0    0 -0.21278842401E+02  0.23823427840E+02 -0.25155968160E+02  0.50528836432E+02  0.29999928819E+02 0.  0.
         12    1    3    3    0    0  0.21278842401E+02 -0.23823427840E+02  0.25155968160E+02  0.40659163568E+02  0.00000000000E+00 0. -1.
         11    1    4    4    0    0 -0.67147700668E+01  0.49063186331E+00 -0.17088228271E+02  0.18366719968E+02  0.51100000000E-03 0. -1.
        -11    1    4    4    0    0 -0.17014647403E+01  0.37233818370E+01 -0.76851039786E+01  0.87074323419E+01  0.51100000000E-03 0.  1.
         12    1    4    4    0    0 -0.12862607594E+02  0.19609414140E+02 -0.38263591033E+00  0.23454684122E+02  0.00000000000E+00 0. -1.
</event>
<event>
 8    1  0.9870402E-014  0.9118800E+02  0.7816164E-02  0.1184000E+00
        -11   -1    0    0    0    0  0.00000000000E+00  0.00000000000E+00  0.45593999997E+02  0.45594000000E+02  0.51100000000E-03 0. -1.
         11   -1    0    0    0    0 -0.00000000000E+00 -0.00000000000E+00 -0.45593999997E+02  0.45594000000E+02  0.51100000000E-03 0.  1.
         23    2    1    2    0    0 -0.17763568394E-14  0.71054273576E-14  0.71054273576E-14  0.91188000000E+02  0.91188000000E+02 0.  0.
    9900012    2    3    3    0    0  0.78081064858E+01 -0.24887469987E+02 -0.31189962655E+02  0.50528850235E+02  0.29999970774E+02 0.  0.
         12    1    3    3    0    0 -0.78081064858E+01  0.24887469987E+02  0.31189962655E+02  0.40659149765E+02  0.00000000000E+00 0. -1.
         11    1    4    4    0    0  0.15289417555E+02 -0.73858719149E+01 -0.95824469040E+01  0.19497196774E+02  0.51100000000E-03 0. -1.
        -11    1    4    4    0    0  0.18333359115E+01 -0.96816128088E+01 -0.73587843161E+01  0.12298229711E+02  0.51100000000E-03 0.  1.
         12    1    4    4    0    0 -0.93146469811E+01 -0.78199852629E+01 -0.14248731435E+02  0.18733423750E+02  0.00000000000E+00 0. -1.
</event>
<event>
 8    1  0.9870402E-014  0.9118800E+02  0.7816164E-02  0.1184000E+00
        -11   -1    0    0    0    0  0.00000000000E+00  0.00000000000E+00  0.45593999997E+02  0.45594000000E+02  0.51100000000E-03 0. -1.
         11   -1    0    0    0    0 -0.00000000000E+00 -0.00000000000E+00 -0.45593999997E+02  0.45594000000E+02  0.51100000000E-03 0.  1.
         23    2    1    2    0    0  0.00000000000E+00  0.22204460493E-15  0.00000000000E+00  0.91188000000E+02  0.91188000000E+02 0.  0.
    9900012    2    3    3    0    0 -0.19086408501E+02 -0.19072384945E+01 -0.35850203900E+02  0.50528859972E+02  0.30000000370E+02 0.  0.
         12    1    3    3    0    0  0.19086408501E+02  0.19072384945E+01  0.35850203900E+02  0.40659140028E+02  0.00000000000E+00 0. -1.
         11    1    4    4    0    0 -0.29197320542E+01  0.28667269665E+01  0.69754214912E-01  0.40924106197E+01  0.51100000000E-03 0. -1.
        -11    1    4    4    0    0 -0.11385219776E+02 -0.47219150737E+01 -0.38897380173E+02  0.40803503476E+02  0.51100000000E-03 0.  1.
         12    1    4    4    0    0 -0.47814566709E+01 -0.52050387296E-01  0.29774220576E+01  0.56329458765E+01  0.00000000000E+00 0. -1.
</event>
<event>
 8    1  0.9870402E-014  0.9118800E+02  0.7816164E-02  0.1184000E+00
        -11   -1    0    0    0    0  0.00000000000E+00  0.00000000000E+00  0.45593999997E+02  0.45594000000E+02  0.51100000000E-03 0.  1.
         11   -1    0    0    0    0 -0.00000000000E+00 -0.00000000000E+00 -0.45593999997E+02  0.45594000000E+02  0.51100000000E-03 0. -1.
         23    2    1    2    0    0 -0.88817841970E-15  0.00000000000E+00  0.88817841970E-15  0.91188000000E+02  0.91188000000E+02 0.  0.
    9900012    2    3    3    0    0  0.40913646614E+01 -0.40022319092E+02  0.58856125183E+01  0.50528859269E+02  0.29999998234E+02 0.  0.
         12    1    3    3    0    0 -0.40913646614E+01  0.40022319092E+02 -0.58856125183E+01  0.40659140731E+02  0.00000000000E+00 0. -1.
         11    1    4    4    0    0 -0.66062578585E+00 -0.44202734728E+01 -0.15040881628E+01  0.47156680827E+01  0.51100000000E-03 0. -1.
        -11    1    4    4    0    0  0.85995217463E+01 -0.26116119135E+02 -0.67929640723E+01  0.28322214145E+02  0.51100000000E-03 0.  1.
         12    1    4    4    0    0 -0.38475312990E+01 -0.94859264841E+01  0.14182664753E+02  0.17490977041E+02  0.00000000000E+00 0. -1.
</event>
<event>
 8    1  0.9870402E-014  0.9118800E+02  0.7816164E-02  0.1184000E+00
        -11   -1    0    0    0    0  0.00000000000E+00  0.00000000000E+00  0.45593999997E+02  0.45594000000E+02  0.51100000000E-03 0.  1.
         11   -1    0    0    0    0 -0.00000000000E+00 -0.00000000000E+00 -0.45593999997E+02  0.45594000000E+02  0.51100000000E-03 0. -1.
         23    2    1    2    0    0  0.00000000000E+00  0.00000000000E+00  0.00000000000E+00  0.91188000000E+02  0.91188000000E+02 0.  0.
    9900012    2    3    3    0    0  0.36821211513E+02 -0.11158561109E+02 -0.13147268787E+02  0.50528858594E+02  0.29999996183E+02 0.  0.
         12    1    3    3    0    0 -0.36821211513E+02  0.11158561109E+02  0.13147268787E+02  0.40659141406E+02  0.00000000000E+00 0. -1.
         11    1    4    4    0    0  0.13958108769E+01 -0.11164538933E+02  0.29955396240E+00  0.11255440926E+02  0.51100000000E-03 0. -1.
        -11    1    4    4    0    0  0.75770290624E+01 -0.17894221116E+01  0.10000448321E+01  0.78494261468E+01  0.51100000000E-03 0.  1.
        -12    1    4    4    0    0  0.27848371574E+02  0.17953999358E+01 -0.14446867581E+02  0.31423991521E+02  0.00000000000E+00 0.  1.
</event>
<event>
 8    1  0.9870402E-014  0.9118800E+02  0.7816164E-02  0.1184000E+00
        -11   -1    0    0    0    0  0.00000000000E+00  0.00000000000E+00  0.45593999997E+02  0.45594000000E+02  0.51100000000E-03 0. -1.
         11   -1    0    0    0    0 -0.00000000000E+00 -0.00000000000E+00 -0.45593999997E+02  0.45594000000E+02  0.51100000000E-03 0.  1.
         23    2    1    2    0    0  0.15543122345E-14 -0.71054273576E-14  0.00000000000E+00  0.91188000000E+02  0.91188000000E+02 0.  0.
    9900012    2    3    3    0    0  0.16575022398E+01  0.30504076274E+02  0.26831334491E+02  0.50528849818E+02  0.29999969506E+02 0.  0.
        -12    1    3    3    0    0 -0.16575022398E+01 -0.30504076274E+02 -0.26831334491E+02  0.40659150182E+02  0.00000000000E+00 0.  1.
         11    1    4    4    0    0 -0.85962398720E+01  0.17537446826E+02  0.13736265072E+02  0.23877653979E+02  0.51100000000E-03 0. -1.
        -11    1    4    4    0    0  0.35922912972E+01  0.15612004693E+02  0.96103516333E+01  0.18681491002E+02  0.51100000000E-03 0.  1.
        -12    1    4    4    0    0  0.66614508146E+01 -0.26453752455E+01  0.34847177849E+01  0.79697048368E+01  0.00000000000E+00 0.  1.
</event>
<event>
 8    1  0.9870402E-014  0.9118800E+02  0.7816164E-02  0.1184000E+00
        -11   -1    0    0    0    0  0.00000000000E+00  0.00000000000E+00  0.45593999997E+02  0.45594000000E+02  0.51100000000E-03 0. -1.
         11   -1    0    0    0    0 -0.00000000000E+00 -0.00000000000E+00 -0.45593999997E+02  0.45594000000E+02  0.51100000000E-03 0.  1.
         23    2    1    2    0    0  0.00000000000E+00  0.17763568394E-14  0.00000000000E+00  0.91188000000E+02  0.91188000000E+02 0.  0.
    9900012    2    3    3    0    0  0.16303014852E+02  0.91733665004E+01  0.36100188566E+02  0.50528898181E+02  0.30000116511E+02 0.  0.
        -12    1    3    3    0    0 -0.16303014852E+02 -0.91733665004E+01 -0.36100188566E+02  0.40659101819E+02  0.00000000000E+00 0.  1.
         11    1    4    4    0    0 -0.52717446103E+01  0.74605294824E+00  0.54893772691E+01  0.76472968624E+01  0.51100000000E-03 0.  1.
        -11    1    4    4    0    0  0.71622923855E+01  0.12927205225E+02  0.12983187100E+02  0.19671660191E+02  0.51100000000E-03 0. -1.
         12    1    4    4    0    0  0.14412467077E+02 -0.44998916724E+01  0.17627624197E+02  0.23209941128E+02  0.00000000000E+00 0. -1.
</event>
<event>
 8    1  0.9870402E-014  0.9118800E+02  0.7816164E-02  0.1184000E+00
        -11   -1    0    0    0    0  0.00000000000E+00  0.00000000000E+00  0.45593999997E+02  0.45594000000E+02  0.51100000000E-03 0.  1.
         11   -1    0    0    0    0 -0.00000000000E+00 -0.00000000000E+00 -0.45593999997E+02  0.45594000000E+02  0.51100000000E-03 0. -1.
         23    2    1    2    0    0  0.00000000000E+00  0.35527136788E-14  0.00000000000E+00  0.91188000000E+02  0.91188000000E+02 0.  0.
    9900012    2    3    3    0    0 -0.21175241163E+02  0.27971655666E+02  0.20551443590E+02  0.50528853518E+02  0.29999980753E+02 0.  0.
        -12    1    3    3    0    0  0.21175241163E+02 -0.27971655666E+02 -0.20551443590E+02  0.40659146482E+02  0.00000000000E+00 0.  1.
         11    1    4    4    0    0 -0.59642902823E+01  0.59399277954E+01 -0.46389115462E+01  0.96111914652E+01  0.51100000000E-03 0. -1.
        -11    1    4    4    0    0  0.28642301030E+01  0.66427156112E+00  0.68557686804E+01  0.74596672345E+01  0.51100000000E-03 0.  1.
        -12    1    4    4    0    0 -0.18075180984E+02  0.21367456310E+02  0.18334586455E+02  0.33457994818E+02  0.00000000000E+00 0.  1.
</event>
<event>
 8    1  0.9870402E-014  0.9118800E+02  0.7816164E-02  0.1184000E+00
        -11   -1    0    0    0    0  0.00000000000E+00  0.00000000000E+00  0.45593999997E+02  0.45594000000E+02  0.51100000000E-03 0. -1.
         11   -1    0    0    0    0 -0.00000000000E+00 -0.00000000000E+00 -0.45593999997E+02  0.45594000000E+02  0.51100000000E-03 0.  1.
         23    2    1    2    0    0  0.35527136788E-14  0.00000000000E+00  0.00000000000E+00  0.91188000000E+02  0.91188000000E+02 0.  0.
    9900012    2    3    3    0    0  0.22501538117E+02  0.49454500171E+01 -0.33502079162E+02  0.50528855866E+02  0.29999987890E+02 0.  0.
         12    1    3    3    0    0 -0.22501538117E+02 -0.49454500171E+01  0.33502079162E+02  0.40659144134E+02  0.00000000000E+00 0. -1.
         11    1    4    4    0    0  0.14822914303E+01 -0.38709664144E+01 -0.24406312662E+01  0.48102234983E+01  0.51100000000E-03 0. -1.
        -11    1    4    4    0    0 -0.23865967714E+01 -0.45348459541E+01 -0.77921385643E+00  0.51834203449E+01  0.51100000000E-03 0.  1.
         12    1    4    4    0    0  0.23405843459E+02  0.13351262386E+02 -0.30282234040E+02  0.40535212023E+02  0.00000000000E+00 0. -1.
</event>
<event>
 8    1  0.9870402E-014  0.9118800E+02  0.7816164E-02  0.1184000E+00
        -11   -1    0    0    0    0  0.00000000000E+00  0.00000000000E+00  0.45593999997E+02  0.45594000000E+02  0.51100000000E-03 0. -1.
         11   -1    0    0    0    0 -0.00000000000E+00 -0.00000000000E+00 -0.45593999997E+02  0.45594000000E+02  0.51100000000E-03 0.  1.
         23    2    1    2    0    0  0.00000000000E+00  0.00000000000E+00  0.00000000000E+00  0.91188000000E+02  0.91188000000E+02 0.  0.
    9900012    2    3    3    0    0 -0.28003559774E+01 -0.18843413924E+02 -0.35920035913E+02  0.50528865455E+02  0.30000017038E+02 0.  0.
         12    1    3    3    0    0  0.28003559774E+01  0.18843413924E+02  0.35920035913E+02  0.40659134545E+02  0.00000000000E+00 0. -1.
         11    1    4    4    0    0 -0.65588552722E+01 -0.67663628860E+01 -0.82990985600E+01  0.12556961669E+02  0.51100000000E-03 0. -1.
        -11    1    4    4    0    0  0.13222672701E+01 -0.17555981255E+02 -0.12181820136E+02  0.21409287953E+02  0.51100000000E-03 0.  1.
        -12    1    4    4    0    0  0.24362320247E+01  0.54789302170E+01 -0.15439117217E+02  0.16562615834E+02  0.00000000000E+00 0.  1.
</event>
<event>
 8    1  0.9870402E-014  0.9118800E+02  0.7816164E-02  0.1184000E+00
        -11   -1    0    0    0    0  0.00000000000E+00  0.00000000000E+00  0.45593999997E+02  0.45594000000E+02  0.51100000000E-03 0. -1.
         11   -1    0    0    0    0 -0.00000000000E+00 -0.00000000000E+00 -0.45593999997E+02  0.45594000000E+02  0.51100000000E-03 0.  1.
         23    2    1    2    0    0  0.00000000000E+00  0.17763568394E-14  0.00000000000E+00  0.91188000000E+02  0.91188000000E+02 0.  0.
    9900012    2    3    3    0    0 -0.85910919722E+01  0.11074171940E+02 -0.38167046437E+02  0.50528836467E+02  0.29999928926E+02 0.  0.
         12    1    3    3    0    0  0.85910919722E+01 -0.11074171940E+02  0.38167046437E+02  0.40659163533E+02  0.00000000000E+00 0. -1.
         11    1    4    4    0    0  0.14007350620E+00  0.21727230381E+00  0.30273934590E+01  0.30384106466E+01  0.51100000000E-03 0. -1.
        -11    1    4    4    0    0 -0.12073396213E+02 -0.19713578875E+00 -0.20505796995E+02  0.23796921425E+02  0.51100000000E-03 0.  1.
         12    1    4    4    0    0  0.33422307345E+01  0.11054035425E+02 -0.20688642901E+02  0.23693504396E+02  0.00000000000E+00 0. -1.
</event>
<event>
 8    1  0.9870402E-014  0.9118800E+02  0.7816164E-02  0.1184000E+00
        -11   -1    0    0    0    0  0.00000000000E+00  0.00000000000E+00  0.45593999997E+02  0.45594000000E+02  0.51100000000E-03 0. -1.
         11   -1    0    0    0    0 -0.00000000000E+00 -0.00000000000E+00 -0.45593999997E+02  0.45594000000E+02  0.51100000000E-03 0.  1.
         23    2    1    2    0    0 -0.71054273576E-14  0.22204460493E-15 -0.35527136788E-14  0.91188000000E+02  0.91188000000E+02 0.  0.
    9900012    2    3    3    0    0  0.30496830778E+02 -0.93454123153E+00  0.26874439805E+02  0.50528861179E+02  0.30000004041E+02 0.  0.
        -12    1    3    3    0    0 -0.30496830778E+02  0.93454123153E+00 -0.26874439805E+02  0.40659138821E+02  0.00000000000E+00 0.  1.
         11    1    4    4    0    0  0.98784546636E+01  0.59128431463E+01  0.71820664055E+01  0.13569364714E+02  0.51100000000E-03 0. -1.
        -11    1    4    4    0    0 -0.46299834028E+01 -0.18674899511E+01  0.85030246558E+00  0.50643143239E+01  0.51100000000E-03 0.  1.
         12    1    4    4    0    0  0.25248359517E+02 -0.49798944267E+01  0.18842070934E+02  0.31895182142E+02  0.00000000000E+00 0. -1.
</event>
<event>
 8    1  0.9870402E-014  0.9118800E+02  0.7816164E-02  0.1184000E+00
        -11   -1    0    0    0    0  0.00000000000E+00  0.00000000000E+00  0.45593999997E+02  0.45594000000E+02  0.51100000000E-03 0. -1.
         11   -1    0    0    0    0 -0.00000000000E+00 -0.00000000000E+00 -0.45593999997E+02  0.45594000000E+02  0.51100000000E-03 0.  1.
         23    2    1    2    0    0  0.65225602697E-15 -0.17763568394E-14 -0.71054273576E-14  0.91188000000E+02  0.91188000000E+02 0.  0.
    9900012    2    3    3    0    0  0.97163678453E-01 -0.13239659390E+02  0.38443046712E+02  0.50528857583E+02  0.29999993110E+02 0.  0.
        -12    1    3    3    0    0 -0.97163678453E-01  0.13239659390E+02 -0.38443046712E+02  0.40659142417E+02  0.00000000000E+00 0.  1.
         11    1    4    4    0    0  0.32941581005E+01  0.21736352563E+01  0.14762088026E+02  0.15280556631E+02  0.51100000000E-03 0. -1.
        -11    1    4    4    0    0  0.47790709106E+01 -0.15548917732E+02  0.21533606563E+02  0.26987118654E+02  0.51100000000E-03 0.  1.
         12    1    4    4    0    0 -0.79760653327E+01  0.13562308572E+00  0.21473521238E+01  0.82611822977E+01  0.00000000000E+00 0. -1.
</event>
<event>
 8    1  0.9870402E-014  0.9118800E+02  0.7816164E-02  0.1184000E+00
        -11   -1    0    0    0    0  0.00000000000E+00  0.00000000000E+00  0.45593999997E+02  0.45594000000E+02  0.51100000000E-03 0. -1.
         11   -1    0    0    0    0 -0.00000000000E+00 -0.00000000000E+00 -0.45593999997E+02  0.45594000000E+02  0.51100000000E-03 0.  1.
         23    2    1    2    0    0 -0.71054273576E-14  0.00000000000E+00 -0.35527136788E-14  0.91188000000E+02  0.91188000000E+02 0.  0.
    9900012    2    3    3    0    0 -0.33451633970E+02  0.88072278735E+01 -0.21367862380E+02  0.50528872848E+02  0.30000039510E+02 0.  0.
         12    1    3    3    0    0  0.33451633970E+02 -0.88072278735E+01  0.21367862380E+02  0.40659127152E+02  0.00000000000E+00 0. -1.
         11    1    4    4    0    0  0.11303034570E+01 -0.24253906941E+01 -0.62584596627E+01  0.68064986252E+01  0.51100000000E-03 0. -1.
        -11    1    4    4    0    0 -0.21771390817E+02 -0.64488149569E+00 -0.19832684036E+01  0.21871046708E+02  0.51100000000E-03 0.  1.
         12    1    4    4    0    0 -0.12810546609E+02  0.11877500063E+02 -0.13126134313E+02  0.21851327515E+02  0.00000000000E+00 0. -1.
</event>
<event>
 8    1  0.9870402E-014  0.9118800E+02  0.7816164E-02  0.1184000E+00
        -11   -1    0    0    0    0  0.00000000000E+00  0.00000000000E+00  0.45593999997E+02  0.45594000000E+02  0.51100000000E-03 0. -1.
         11   -1    0    0    0    0 -0.00000000000E+00 -0.00000000000E+00 -0.45593999997E+02  0.45594000000E+02  0.51100000000E-03 0.  1.
         23    2    1    2    0    0  0.00000000000E+00 -0.88817841970E-15  0.00000000000E+00  0.91188000000E+02  0.91188000000E+02 0.  0.
    9900012    2    3    3    0    0  0.29590857832E+02  0.69030047717E+01 -0.27016550012E+02  0.50528876588E+02  0.30000050876E+02 0.  0.
         12    1    3    3    0    0 -0.29590857832E+02 -0.69030047717E+01  0.27016550012E+02  0.40659123412E+02  0.00000000000E+00 0. -1.
         11    1    4    4    0    0  0.93395867467E+01  0.10766963283E+02 -0.64129609434E+01  0.15629505663E+02  0.51100000000E-03 0. -1.
        -11    1    4    4    0    0  0.86654380856E-01 -0.15889646175E+00  0.33584836397E+01  0.33633569074E+01  0.51100000000E-03 0.  1.
        -12    1    4    4    0    0  0.20164616704E+02 -0.37050620498E+01 -0.23962072708E+02  0.31536014017E+02  0.00000000000E+00 0.  1.
</event>
<event>
 8    1  0.9870402E-014  0.9118800E+02  0.7816164E-02  0.1184000E+00
        -11   -1    0    0    0    0  0.00000000000E+00  0.00000000000E+00  0.45593999997E+02  0.45594000000E+02  0.51100000000E-03 0. -1.
         11   -1    0    0    0    0 -0.00000000000E+00 -0.00000000000E+00 -0.45593999997E+02  0.45594000000E+02  0.51100000000E-03 0.  1.
         23    2    1    2    0    0 -0.71054273576E-14  0.17763568394E-14  0.17763568394E-14  0.91188000000E+02  0.91188000000E+02 0.  0.
    9900012    2    3    3    0    0  0.36352888693E+02 -0.12206842454E+02 -0.13513912677E+02  0.50528863821E+02  0.30000012070E+02 0.  0.
         12    1    3    3    0    0 -0.36352888693E+02  0.12206842454E+02  0.13513912677E+02  0.40659136179E+02  0.00000000000E+00 0. -1.
         11    1    4    4    0    0  0.46547219197E+01  0.25781702183E+01 -0.86320893067E+01  0.10140333519E+02  0.51100000000E-03 0. -1.
        -11    1    4    4    0    0  0.11006336770E+02  0.25677559073E+01  0.39558237842E+01  0.11974195654E+02  0.51100000000E-03 0.  1.
         12    1    4    4    0    0  0.20691830003E+02 -0.17352768579E+02 -0.88376471547E+01  0.28414334648E+02  0.00000000000E+00 0. -1.
</event>
<event>
 8    1  0.9870402E-014  0.9118800E+02  0.7816164E-02  0.1184000E+00
        -11   -1    0    0    0    0  0.00000000000E+00  0.00000000000E+00  0.45593999997E+02  0.45594000000E+02  0.51100000000E-03 0. -1.
         11   -1    0    0    0    0 -0.00000000000E+00 -0.00000000000E+00 -0.45593999997E+02  0.45594000000E+02  0.51100000000E-03 0.  1.
         23    2    1    2    0    0  0.17763568394E-14  0.00000000000E+00  0.00000000000E+00  0.91188000000E+02  0.91188000000E+02 0.  0.
    9900012    2    3    3    0    0 -0.11960430543E+02 -0.84014874855E+01  0.37941126763E+02  0.50528856000E+02  0.29999988299E+02 0.  0.
        -12    1    3    3    0    0  0.11960430543E+02  0.84014874855E+01 -0.37941126763E+02  0.40659144000E+02  0.00000000000E+00 0.  1.
         11    1    4    4    0    0 -0.13801083765E+02 -0.68848581810E+01  0.10736412358E+02  0.18792065768E+02  0.51100000000E-03 0. -1.
        -11    1    4    4    0    0 -0.45412612356E+01 -0.49216705011E+01  0.21516890146E+02  0.22534916373E+02  0.51100000000E-03 0.  1.
        -12    1    4    4    0    0  0.63819144583E+01  0.34050411966E+01  0.56878242592E+01  0.92018738584E+01  0.00000000000E+00 0.  1.
</event>
<event>
 8    1  0.1025095E-013  0.9118800E+02  0.7816164E-02  0.1184000E+00
        -11   -1    0    0    0    0  0.00000000000E+00  0.00000000000E+00  0.45593999997E+02  0.45594000000E+02  0.51100000000E-03 0. -1.
         11   -1    0    0    0    0 -0.00000000000E+00 -0.00000000000E+00 -0.45593999997E+02  0.45594000000E+02  0.51100000000E-03 0.  1.
         23    2    1    2    0    0  0.00000000000E+00  0.00000000000E+00 -0.71054273576E-14  0.91188000000E+02  0.91188000000E+02 0.  0.
    9900012    2    3    3    0    0  0.68450883237E+00  0.23361557925E+02 -0.33270632901E+02  0.50528856444E+02  0.29999989648E+02 0.  0.
         12    1    3    3    0    0 -0.68450883237E+00 -0.23361557925E+02  0.33270632901E+02  0.40659143556E+02  0.00000000000E+00 0. -1.
         11    1    4    4    0    0  0.90780107206E+01  0.13503863294E+02 -0.19013163084E+02  0.25025286676E+02  0.51100000000E-03 0. -1.
        -11    1    4    4    0    0  0.14752293329E+01  0.46540067149E+01 -0.13460452371E+02  0.14318514531E+02  0.51100000000E-03 0.  1.
         12    1    4    4    0    0 -0.98687312212E+01  0.52036879160E+01 -0.79701744616E+00  0.11185055237E+02  0.00000000000E+00 0. -1.
</event>
<event>
 8    1  0.9870402E-014  0.9118800E+02  0.7816164E-02  0.1184000E+00
        -11   -1    0    0    0    0  0.00000000000E+00  0.00000000000E+00  0.45593999997E+02  0.45594000000E+02  0.51100000000E-03 0. -1.
         11   -1    0    0    0    0 -0.00000000000E+00 -0.00000000000E+00 -0.45593999997E+02  0.45594000000E+02  0.51100000000E-03 0.  1.
         23    2    1    2    0    0  0.00000000000E+00  0.00000000000E+00  0.17763568394E-14  0.91188000000E+02  0.91188000000E+02 0.  0.
    9900012    2    3    3    0    0 -0.37406273340E+02 -0.66024205361E+01  0.14503281492E+02  0.50528850769E+02  0.29999972398E+02 0.  0.
        -12    1    3    3    0    0  0.37406273340E+02  0.66024205361E+01 -0.14503281492E+02  0.40659149231E+02  0.00000000000E+00 0.  1.
         11    1    4    4    0    0 -0.26812490063E+02 -0.85443886247E+01  0.17356264338E+02  0.33062911433E+02  0.51100000000E-03 0. -1.
        -11    1    4    4    0    0 -0.13137253693E+02 -0.27873074902E+00 -0.15044006891E+00  0.13141071414E+02  0.51100000000E-03 0.  1.
        -12    1    4    4    0    0  0.25434704164E+01  0.22206988376E+01 -0.27025427769E+01  0.43248679226E+01  0.00000000000E+00 0.  1.
</event>
<event>
 8    1  0.9870402E-014  0.9118800E+02  0.7816164E-02  0.1184000E+00
        -11   -1    0    0    0    0  0.00000000000E+00  0.00000000000E+00  0.45593999997E+02  0.45594000000E+02  0.51100000000E-03 0. -1.
         11   -1    0    0    0    0 -0.00000000000E+00 -0.00000000000E+00 -0.45593999997E+02  0.45594000000E+02  0.51100000000E-03 0.  1.
         23    2    1    2    0    0  0.35527136788E-14 -0.17763568394E-14  0.00000000000E+00  0.91188000000E+02  0.91188000000E+02 0.  0.
    9900012    2    3    3    0    0 -0.17457683314E+02  0.12974485985E+02 -0.34351908880E+02  0.50528909541E+02  0.30000151041E+02 0.  0.
         12    1    3    3    0    0  0.17457683314E+02 -0.12974485985E+02  0.34351908880E+02  0.40659090459E+02  0.00000000000E+00 0. -1.
         11    1    4    4    0    0  0.40548735024E+00  0.60905474526E+01 -0.98379354550E+01  0.11577744277E+02  0.51100000000E-03 0. -1.
        -11    1    4    4    0    0 -0.88406980760E+01  0.20581873080E+01 -0.26946295513E+02  0.28434080249E+02  0.51100000000E-03 0.  1.
        -12    1    4    4    0    0 -0.90224725877E+01  0.48257512239E+01  0.24323220881E+01  0.10517085015E+02  0.00000000000E+00 0.  1.
</event>
<event>
 8    1  0.9870402E-014  0.9118800E+02  0.7816164E-02  0.1184000E+00
        -11   -1    0    0    0    0  0.00000000000E+00  0.00000000000E+00  0.45593999997E+02  0.45594000000E+02  0.51100000000E-03 0.  1.
         11   -1    0    0    0    0 -0.00000000000E+00 -0.00000000000E+00 -0.45593999997E+02  0.45594000000E+02  0.51100000000E-03 0. -1.
         23    2    1    2    0    0  0.35527136788E-14  0.00000000000E+00  0.00000000000E+00  0.91188000000E+02  0.91188000000E+02 0.  0.
    9900012    2    3    3    0    0 -0.31964247804E+02 -0.23401096479E+02 -0.91564671794E+01  0.50528863938E+02  0.30000012427E+02 0.  0.
         12    1    3    3    0    0  0.31964247804E+02  0.23401096479E+02  0.91564671794E+01  0.40659136062E+02  0.00000000000E+00 0. -1.
         11    1    4    4    0    0 -0.91711461518E+00  0.23946624895E+01 -0.40267893191E+00  0.25956999517E+01  0.51100000000E-03 0. -1.
        -11    1    4    4    0    0 -0.28358077404E+01 -0.15467299751E+02 -0.85302083041E+01  0.17889763025E+02  0.51100000000E-03 0.  1.
         12    1    4    4    0    0 -0.28211325448E+02 -0.10328459218E+02 -0.22357994340E+00  0.30043400962E+02  0.00000000000E+00 0. -1.
</event>
<event>
 8    1  0.9870402E-014  0.9118800E+02  0.7816164E-02  0.1184000E+00
        -11   -1    0    0    0    0  0.00000000000E+00  0.00000000000E+00  0.45593999997E+02  0.45594000000E+02  0.51100000000E-03 0. -1.
         11   -1    0    0    0    0 -0.00000000000E+00 -0.00000000000E+00 -0.45593999997E+02  0.45594000000E+02  0.51100000000E-03 0.  1.
         23    2    1    2    0    0 -0.35527136788E-14  0.00000000000E+00  0.35527136788E-14  0.91188000000E+02  0.91188000000E+02 0.  0.
    9900012    2    3    3    0    0  0.18628431817E+02 -0.18437272968E+02  0.31083986334E+02  0.50528859418E+02  0.29999998686E+02 0.  0.
        -12    1    3    3    0    0 -0.18628431817E+02  0.18437272968E+02 -0.31083986334E+02  0.40659140582E+02  0.00000000000E+00 0.  1.
         11    1    4    4    0    0  0.58440781334E+01 -0.25732656985E+01  0.26651219851E+01  0.69193801052E+01  0.51100000000E-03 0. -1.
        -11    1    4    4    0    0 -0.38442641194E+01 -0.61660380229E+01  0.22232616858E+02  0.23389904748E+02  0.51100000000E-03 0.  1.
        -12    1    4    4    0    0  0.16628617803E+02 -0.96979692468E+01  0.61862474916E+01  0.20219574564E+02  0.00000000000E+00 0.  1.
</event>
<event>
 8    1  0.9870402E-014  0.9118800E+02  0.7816164E-02  0.1184000E+00
        -11   -1    0    0    0    0  0.00000000000E+00  0.00000000000E+00  0.45593999997E+02  0.45594000000E+02  0.51100000000E-03 0. -1.
         11   -1    0    0    0    0 -0.00000000000E+00 -0.00000000000E+00 -0.45593999997E+02  0.45594000000E+02  0.51100000000E-03 0.  1.
         23    2    1    2    0    0 -0.77715611724E-15  0.00000000000E+00  0.00000000000E+00  0.91188000000E+02  0.91188000000E+02 0.  0.
    9900012    2    3    3    0    0  0.71858366783E+00  0.25545044345E+02 -0.31624354286E+02  0.50528862809E+02  0.30000008996E+02 0.  0.
         12    1    3    3    0    0 -0.71858366783E+00 -0.25545044345E+02  0.31624354286E+02  0.40659137191E+02  0.00000000000E+00 0. -1.
         11    1    4    4    0    0  0.59040487552E+01  0.13991450553E+02 -0.15786463317E+02  0.21905042903E+02  0.51100000000E-03 0. -1.
        -11    1    4    4    0    0  0.17028974013E+01 -0.27817909897E+01 -0.11761315965E+02  0.12205194556E+02  0.51100000000E-03 0.  1.
         12    1    4    4    0    0 -0.68883624886E+01  0.14335384782E+02 -0.40765750040E+01  0.16418625350E+02  0.00000000000E+00 0. -1.
</event>
<event>
 8    1  0.9870402E-014  0.9118800E+02  0.7816164E-02  0.1184000E+00
        -11   -1    0    0    0    0  0.00000000000E+00  0.00000000000E+00  0.45593999997E+02  0.45594000000E+02  0.51100000000E-03 0. -1.
         11   -1    0    0    0    0 -0.00000000000E+00 -0.00000000000E+00 -0.45593999997E+02  0.45594000000E+02  0.51100000000E-03 0.  1.
         23    2    1    2    0    0  0.00000000000E+00 -0.35527136788E-14  0.00000000000E+00  0.91188000000E+02  0.91188000000E+02 0.  0.
    9900012    2    3    3    0    0  0.63918138266E+01  0.29554416088E+02 -0.27181723987E+02  0.50528869252E+02  0.30000028579E+02 0.  0.
         12    1    3    3    0    0 -0.63918138266E+01 -0.29554416088E+02  0.27181723987E+02  0.40659130748E+02  0.00000000000E+00 0. -1.
         11    1    4    4    0    0 -0.38188676672E+01  0.31061645947E+01  0.21898542362E+01  0.53877147833E+01  0.51100000000E-03 0. -1.
        -11    1    4    4    0    0 -0.45033110216E+01  0.14905194308E+02 -0.12900322975E+02  0.20220360052E+02  0.51100000000E-03 0.  1.
         12    1    4    4    0    0  0.14713992515E+02  0.11543057186E+02 -0.16471255247E+02  0.24920794417E+02  0.00000000000E+00 0. -1.
</event>
<event>
 8    1  0.9870402E-014  0.9118800E+02  0.7816164E-02  0.1184000E+00
        -11   -1    0    0    0    0  0.00000000000E+00  0.00000000000E+00  0.45593999997E+02  0.45594000000E+02  0.51100000000E-03 0. -1.
         11   -1    0    0    0    0 -0.00000000000E+00 -0.00000000000E+00 -0.45593999997E+02  0.45594000000E+02  0.51100000000E-03 0.  1.
         23    2    1    2    0    0 -0.17763568394E-14 -0.35527136788E-14  0.00000000000E+00  0.91188000000E+02  0.91188000000E+02 0.  0.
    9900012    2    3    3    0    0  0.99998414575E+01  0.21871174104E+02  0.32784457798E+02  0.50528858850E+02  0.29999996962E+02 0.  0.
        -12    1    3    3    0    0 -0.99998414575E+01 -0.21871174104E+02 -0.32784457798E+02  0.40659141150E+02  0.00000000000E+00 0.  1.
         11    1    4    4    0    0 -0.87119986038E+00  0.14162745459E+02  0.16170276667E+02  0.21513256283E+02  0.51100000000E-03 0. -1.
        -11    1    4    4    0    0  0.55349177670E+01 -0.79046302323E+00  0.18033666251E+02  0.18880499601E+02  0.51100000000E-03 0.  1.
        -12    1    4    4    0    0  0.53361235508E+01  0.84988916682E+01 -0.14194851193E+01  0.10135102966E+02  0.00000000000E+00 0.  1.
</event>
<event>
 8    1  0.9870402E-014  0.9118800E+02  0.7816164E-02  0.1184000E+00
        -11   -1    0    0    0    0  0.00000000000E+00  0.00000000000E+00  0.45593999997E+02  0.45594000000E+02  0.51100000000E-03 0. -1.
         11   -1    0    0    0    0 -0.00000000000E+00 -0.00000000000E+00 -0.45593999997E+02  0.45594000000E+02  0.51100000000E-03 0.  1.
         23    2    1    2    0    0 -0.44408920985E-15  0.00000000000E+00  0.00000000000E+00  0.91188000000E+02  0.91188000000E+02 0.  0.
    9900012    2    3    3    0    0 -0.34839174456E+01  0.22259599706E+02  0.33845766525E+02  0.50528888210E+02  0.30000086204E+02 0.  0.
        -12    1    3    3    0    0  0.34839174456E+01 -0.22259599706E+02 -0.33845766525E+02  0.40659111790E+02  0.00000000000E+00 0.  1.
         11    1    4    4    0    0 -0.33224619524E+01  0.23599867380E+02  0.13199891289E+02  0.27243891501E+02  0.51100000000E-03 0. -1.
        -11    1    4    4    0    0  0.65274783556E+00  0.38589540337E+01  0.31778644323E+01  0.50414708749E+01  0.51100000000E-03 0.  1.
        -12    1    4    4    0    0 -0.81420332884E+00 -0.51992217084E+01  0.17468010804E+02  0.18243525835E+02  0.00000000000E+00 0.  1.
</event>
<event>
 8    1  0.9870402E-014  0.9118800E+02  0.7816164E-02  0.1184000E+00
        -11   -1    0    0    0    0  0.00000000000E+00  0.00000000000E+00  0.45593999997E+02  0.45594000000E+02  0.51100000000E-03 0.  1.
         11   -1    0    0    0    0 -0.00000000000E+00 -0.00000000000E+00 -0.45593999997E+02  0.45594000000E+02  0.51100000000E-03 0. -1.
         23    2    1    2    0    0  0.00000000000E+00  0.17763568394E-14  0.00000000000E+00  0.91188000000E+02  0.91188000000E+02 0.  0.
    9900012    2    3    3    0    0  0.34779308173E+02  0.99324767997E+01  0.18571789375E+02  0.50528859171E+02  0.29999997936E+02 0.  0.
         12    1    3    3    0    0 -0.34779308173E+02 -0.99324767997E+01 -0.18571789375E+02  0.40659140829E+02  0.00000000000E+00 0. -1.
         11    1    4    4    0    0 -0.20144982263E+01  0.12951056744E+01  0.42987523664E+01  0.49208509407E+01  0.51100000000E-03 0. -1.
        -11    1    4    4    0    0  0.20609394459E+02 -0.53087948657E+01  0.31258731910E+01  0.21510498050E+02  0.51100000000E-03 0.  1.
        -12    1    4    4    0    0  0.16184411941E+02  0.13946165991E+02  0.11147163818E+02  0.24097510180E+02  0.00000000000E+00 0.  1.
</event>
<event>
 8    1  0.9870402E-014  0.9118800E+02  0.7816164E-02  0.1184000E+00
        -11   -1    0    0    0    0  0.00000000000E+00  0.00000000000E+00  0.45593999997E+02  0.45594000000E+02  0.51100000000E-03 0. -1.
         11   -1    0    0    0    0 -0.00000000000E+00 -0.00000000000E+00 -0.45593999997E+02  0.45594000000E+02  0.51100000000E-03 0.  1.
         23    2    1    2    0    0  0.00000000000E+00  0.14155343564E-14 -0.71054273576E-14  0.91188000000E+02  0.91188000000E+02 0.  0.
    9900012    2    3    3    0    0 -0.11080256473E+01  0.64684559960E-01 -0.40643961564E+02  0.50528886427E+02  0.30000080783E+02 0.  0.
         12    1    3    3    0    0  0.11080256473E+01 -0.64684559960E-01  0.40643961564E+02  0.40659113573E+02  0.00000000000E+00 0. -1.
         11    1    4    4    0    0  0.75074718162E+01  0.47676938235E+01 -0.11486029773E+02  0.14526593464E+02  0.51100000000E-03 0. -1.
        -11    1    4    4    0    0 -0.97537803961E+01  0.48209085297E+01 -0.19852644916E+02  0.22638571101E+02  0.51100000000E-03 0.  1.
        -12    1    4    4    0    0  0.11382829326E+01 -0.95239177933E+01 -0.93052868753E+01  0.13363721862E+02  0.00000000000E+00 0.  1.
</event>
<event>
 8    1  0.9870402E-014  0.9118800E+02  0.7816164E-02  0.1184000E+00
        -11   -1    0    0    0    0  0.00000000000E+00  0.00000000000E+00  0.45593999997E+02  0.45594000000E+02  0.51100000000E-03 0. -1.
         11   -1    0    0    0    0 -0.00000000000E+00 -0.00000000000E+00 -0.45593999997E+02  0.45594000000E+02  0.51100000000E-03 0.  1.
         23    2    1    2    0    0  0.00000000000E+00 -0.17763568394E-14  0.00000000000E+00  0.91188000000E+02  0.91188000000E+02 0.  0.
    9900012    2    3    3    0    0 -0.35773026213E+02  0.98480281675E+01  0.16627471177E+02  0.50528857597E+02  0.29999993153E+02 0.  0.
        -12    1    3    3    0    0  0.35773026213E+02 -0.98480281675E+01 -0.16627471177E+02  0.40659142403E+02  0.00000000000E+00 0.  1.
         11    1    4    4    0    0 -0.27239954275E+02  0.93861042404E+01  0.14113556847E+02  0.32082807683E+02  0.51100000000E-03 0. -1.
        -11    1    4    4    0    0 -0.30272252179E+01  0.75614279304E+01 -0.20068453070E+01  0.83884869442E+01  0.51100000000E-03 0.  1.
        -12    1    4    4    0    0 -0.55058467195E+01 -0.70995040033E+01  0.45207596369E+01  0.10057562970E+02  0.00000000000E+00 0.  1.
</event>
<event>
 8    1  0.9870402E-014  0.9118800E+02  0.7816164E-02  0.1184000E+00
        -11   -1    0    0    0    0  0.00000000000E+00  0.00000000000E+00  0.45593999997E+02  0.45594000000E+02  0.51100000000E-03 0. -1.
         11   -1    0    0    0    0 -0.00000000000E+00 -0.00000000000E+00 -0.45593999997E+02  0.45594000000E+02  0.51100000000E-03 0.  1.
         23    2    1    2    0    0  0.00000000000E+00  0.00000000000E+00 -0.71054273576E-14  0.91188000000E+02  0.91188000000E+02 0.  0.
    9900012    2    3    3    0    0  0.18722570059E+02  0.25804632676E+01 -0.35999610643E+02  0.50528863429E+02  0.30000010878E+02 0.  0.
         12    1    3    3    0    0 -0.18722570059E+02 -0.25804632676E+01  0.35999610643E+02  0.40659136571E+02  0.00000000000E+00 0. -1.
         11    1    4    4    0    0  0.11825216814E+02  0.15091102641E+02 -0.24074651897E+02  0.30776062059E+02  0.51100000000E-03 0. -1.
        -11    1    4    4    0    0 -0.77406215022E+00 -0.35552478817E+01 -0.12516678569E+01  0.38478087788E+01  0.51100000000E-03 0.  1.
        -12    1    4    4    0    0  0.76714153946E+01 -0.89553914917E+01 -0.10673290888E+02  0.15904992591E+02  0.00000000000E+00 0.  1.
</event>
<event>
 8    1  0.9870402E-014  0.9118800E+02  0.7816164E-02  0.1184000E+00
        -11   -1    0    0    0    0  0.00000000000E+00  0.00000000000E+00  0.45593999997E+02  0.45594000000E+02  0.51100000000E-03 0. -1.
         11   -1    0    0    0    0 -0.00000000000E+00 -0.00000000000E+00 -0.45593999997E+02  0.45594000000E+02  0.51100000000E-03 0.  1.
         23    2    1    2    0    0  0.00000000000E+00  0.00000000000E+00  0.00000000000E+00  0.91188000000E+02  0.91188000000E+02 0.  0.
    9900012    2    3    3    0    0  0.13453990440E+02  0.33549651685E+02  0.18616588426E+02  0.50528851563E+02  0.29999974811E+02 0.  0.
        -12    1    3    3    0    0 -0.13453990440E+02 -0.33549651685E+02 -0.18616588426E+02  0.40659148437E+02  0.00000000000E+00 0.  1.
         11    1    4    4    0    0 -0.35160518994E+01  0.18377500268E+02  0.18176879189E+00  0.18711712301E+02  0.51100000000E-03 0. -1.
        -11    1    4    4    0    0  0.11321806140E+02  0.37785121188E+01  0.40196295356E+01  0.12594358657E+02  0.51100000000E-03 0.  1.
        -12    1    4    4    0    0  0.56482361994E+01  0.11393639298E+02  0.14415190099E+02  0.19222780605E+02  0.00000000000E+00 0.  1.
</event>
<event>
 8    1  0.9870402E-014  0.9118800E+02  0.7816164E-02  0.1184000E+00
        -11   -1    0    0    0    0  0.00000000000E+00  0.00000000000E+00  0.45593999997E+02  0.45594000000E+02  0.51100000000E-03 0.  1.
         11   -1    0    0    0    0 -0.00000000000E+00 -0.00000000000E+00 -0.45593999997E+02  0.45594000000E+02  0.51100000000E-03 0. -1.
         23    2    1    2    0    0  0.00000000000E+00 -0.35527136788E-14  0.55511151231E-16  0.91188000000E+02  0.91188000000E+02 0.  0.
    9900012    2    3    3    0    0 -0.37706027312E+02 -0.15205509640E+02  0.46258896263E+00  0.50528855794E+02  0.29999987670E+02 0.  0.
        -12    1    3    3    0    0  0.37706027312E+02  0.15205509640E+02 -0.46258896263E+00  0.40659144206E+02  0.00000000000E+00 0.  1.
         11    1    4    4    0    0 -0.10319295838E+02 -0.19773641401E+02  0.24520638766E+00  0.22305714229E+02  0.51100000000E-03 0.  1.
        -11    1    4    4    0    0 -0.33401372851E+01  0.21337716850E+01 -0.75190794926E+00  0.40342117585E+01  0.51100000000E-03 0. -1.
        -12    1    4    4    0    0 -0.24046594188E+02  0.24343600757E+01  0.96929052423E+00  0.24188929806E+02  0.00000000000E+00 0.  1.
</event>
<event>
 8    1  0.9870402E-014  0.9118800E+02  0.7816164E-02  0.1184000E+00
        -11   -1    0    0    0    0  0.00000000000E+00  0.00000000000E+00  0.45593999997E+02  0.45594000000E+02  0.51100000000E-03 0. -1.
         11   -1    0    0    0    0 -0.00000000000E+00 -0.00000000000E+00 -0.45593999997E+02  0.45594000000E+02  0.51100000000E-03 0.  1.
         23    2    1    2    0    0  0.00000000000E+00  0.00000000000E+00  0.00000000000E+00  0.91188000000E+02  0.91188000000E+02 0.  0.
    9900012    2    3    3    0    0 -0.38281194820E+01 -0.37746250082E+02 -0.14619565691E+02  0.50528860867E+02  0.30000003092E+02 0.  0.
         12    1    3    3    0    0  0.38281194820E+01  0.37746250082E+02  0.14619565691E+02  0.40659139133E+02  0.00000000000E+00 0. -1.
         11    1    4    4    0    0 -0.55255691826E+01 -0.88992602107E+01 -0.92317863579E+01  0.13962615325E+02  0.51100000000E-03 0. -1.
        -11    1    4    4    0    0  0.55499971845E+01 -0.59761768818E+01 -0.10015372721E+02  0.12916069444E+02  0.51100000000E-03 0.  1.
         12    1    4    4    0    0 -0.38525474839E+01 -0.22870812990E+02  0.46275933883E+01  0.23650176098E+02  0.00000000000E+00 0. -1.
</event>
<event>
 8    1  0.9870402E-014  0.9118800E+02  0.7816164E-02  0.1184000E+00
        -11   -1    0    0    0    0  0.00000000000E+00  0.00000000000E+00  0.45593999997E+02  0.45594000000E+02  0.51100000000E-03 0. -1.
         11   -1    0    0    0    0 -0.00000000000E+00 -0.00000000000E+00 -0.45593999997E+02  0.45594000000E+02  0.51100000000E-03 0.  1.
         23    2    1    2    0    0  0.17763568394E-14  0.00000000000E+00 -0.35527136788E-14  0.91188000000E+02  0.91188000000E+02 0.  0.
    9900012    2    3    3    0    0  0.12151531244E+02  0.28706267531E+02  0.26104722200E+02  0.50528855539E+02  0.29999986896E+02 0.  0.
        -12    1    3    3    0    0 -0.12151531244E+02 -0.28706267531E+02 -0.26104722200E+02  0.40659144461E+02  0.00000000000E+00 0.  1.
         11    1    4    4    0    0  0.33979492090E+01  0.82482447087E+01  0.41621188585E+01  0.98439236717E+01  0.51100000000E-03 0. -1.
        -11    1    4    4    0    0 -0.73647892718E+01  0.10579261161E+02  0.17243500764E+01  0.13005163251E+02  0.51100000000E-03 0.  1.
        -12    1    4    4    0    0  0.16118371307E+02  0.98787616616E+01  0.20218253266E+02  0.27679768616E+02  0.00000000000E+00 0.  1.
</event>
<event>
 8    1  0.9870402E-014  0.9118800E+02  0.7816164E-02  0.1184000E+00
        -11   -1    0    0    0    0  0.00000000000E+00  0.00000000000E+00  0.45593999997E+02  0.45594000000E+02  0.51100000000E-03 0. -1.
         11   -1    0    0    0    0 -0.00000000000E+00 -0.00000000000E+00 -0.45593999997E+02  0.45594000000E+02  0.51100000000E-03 0.  1.
         23    2    1    2    0    0 -0.44408920985E-15  0.00000000000E+00  0.00000000000E+00  0.91188000000E+02  0.91188000000E+02 0.  0.
    9900012    2    3    3    0    0  0.23574658050E+01 -0.42502507534E+01 -0.40367600757E+02  0.50528862437E+02  0.30000007863E+02 0.  0.
         12    1    3    3    0    0 -0.23574658050E+01  0.42502507534E+01  0.40367600757E+02  0.40659137563E+02  0.00000000000E+00 0. -1.
         11    1    4    4    0    0 -0.55004953778E+01 -0.50641823131E+00 -0.17751252518E+02  0.18590827712E+02  0.51100000000E-03 0. -1.
        -11    1    4    4    0    0 -0.28313138767E+01  0.68625242177E+01 -0.63189063868E+01  0.97488027518E+01  0.51100000000E-03 0.  1.
         12    1    4    4    0    0  0.10689275060E+02 -0.10606356740E+02 -0.16297441853E+02  0.22189231973E+02  0.00000000000E+00 0. -1.
</event>
<event>
 8    1  0.9870402E-014  0.9118800E+02  0.7816164E-02  0.1184000E+00
        -11   -1    0    0    0    0  0.00000000000E+00  0.00000000000E+00  0.45593999997E+02  0.45594000000E+02  0.51100000000E-03 0. -1.
         11   -1    0    0    0    0 -0.00000000000E+00 -0.00000000000E+00 -0.45593999997E+02  0.45594000000E+02  0.51100000000E-03 0.  1.
         23    2    1    2    0    0  0.35527136788E-14  0.88817841970E-15  0.00000000000E+00  0.91188000000E+02  0.91188000000E+02 0.  0.
    9900012    2    3    3    0    0 -0.20026211649E+02 -0.12107500333E+01 -0.35364539375E+02  0.50528859405E+02  0.29999998648E+02 0.  0.
         12    1    3    3    0    0  0.20026211649E+02  0.12107500333E+01  0.35364539375E+02  0.40659140595E+02  0.00000000000E+00 0. -1.
         11    1    4    4    0    0 -0.14028183873E+02  0.78925700420E+01 -0.70035331497E+01  0.17553691392E+02  0.51100000000E-03 0. -1.
        -11    1    4    4    0    0 -0.35047098350E+01  0.23557654169E+01 -0.12874930346E+02  0.13549776877E+02  0.51100000000E-03 0.  1.
        -12    1    4    4    0    0 -0.24933179415E+01 -0.11459085492E+02 -0.15486075879E+02  0.19425391137E+02  0.00000000000E+00 0.  1.
</event>
<event>
 8    1  0.9917867E-014  0.9118800E+02  0.7816164E-02  0.1184000E+00
        -11   -1    0    0    0    0  0.00000000000E+00  0.00000000000E+00  0.45593999997E+02  0.45594000000E+02  0.51100000000E-03 0. -1.
         11   -1    0    0    0    0 -0.00000000000E+00 -0.00000000000E+00 -0.45593999997E+02  0.45594000000E+02  0.51100000000E-03 0.  1.
         23    2    1    2    0    0  0.00000000000E+00  0.00000000000E+00 -0.35527136788E-14  0.91188000000E+02  0.91188000000E+02 0.  0.
    9900012    2    3    3    0    0 -0.88986328543E+01  0.28001659262E+02 -0.28104949768E+02  0.50528846178E+02  0.29999958442E+02 0.  0.
         12    1    3    3    0    0  0.88986328543E+01 -0.28001659262E+02  0.28104949768E+02  0.40659153822E+02  0.00000000000E+00 0. -1.
         11    1    4    4    0    0 -0.93939972573E+01  0.89731393315E+01 -0.20799667271E+02  0.24523265948E+02  0.51100000000E-03 0. -1.
        -11    1    4    4    0    0  0.21157533840E+01  0.98882698757E+01 -0.11926311811E+02  0.15636214605E+02  0.51100000000E-03 0.  1.
         12    1    4    4    0    0 -0.16203889810E+01  0.91402500549E+01  0.46210293142E+01  0.10369365624E+02  0.00000000000E+00 0. -1.
</event>
<event>
 8    1  0.9870402E-014  0.9118800E+02  0.7816164E-02  0.1184000E+00
        -11   -1    0    0    0    0  0.00000000000E+00  0.00000000000E+00  0.45593999997E+02  0.45594000000E+02  0.51100000000E-03 0. -1.
         11   -1    0    0    0    0 -0.00000000000E+00 -0.00000000000E+00 -0.45593999997E+02  0.45594000000E+02  0.51100000000E-03 0.  1.
         23    2    1    2    0    0  0.35527136788E-14  0.00000000000E+00 -0.35527136788E-14  0.91188000000E+02  0.91188000000E+02 0.  0.
    9900012    2    3    3    0    0  0.20493954703E+02  0.16862342669E+02 -0.30802996538E+02  0.50528863568E+02  0.30000011301E+02 0.  0.
         12    1    3    3    0    0 -0.20493954703E+02 -0.16862342669E+02  0.30802996538E+02  0.40659136432E+02  0.00000000000E+00 0. -1.
         11    1    4    4    0    0  0.61418350945E+01 -0.31490310103E+01 -0.90250186159E+01  0.11361755846E+02  0.51100000000E-03 0. -1.
        -11    1    4    4    0    0  0.11276546959E+02  0.85213209424E+01  0.24615835628E+00  0.14136265989E+02  0.51100000000E-03 0.  1.
        -12    1    4    4    0    0  0.30755726500E+01  0.11490052737E+02 -0.22024136279E+02  0.25030841733E+02  0.00000000000E+00 0.  1.
</event>
<event>
 8    1  0.9870402E-014  0.9118800E+02  0.7816164E-02  0.1184000E+00
        -11   -1    0    0    0    0  0.00000000000E+00  0.00000000000E+00  0.45593999997E+02  0.45594000000E+02  0.51100000000E-03 0. -1.
         11   -1    0    0    0    0 -0.00000000000E+00 -0.00000000000E+00 -0.45593999997E+02  0.45594000000E+02  0.51100000000E-03 0.  1.
         23    2    1    2    0    0  0.00000000000E+00  0.00000000000E+00 -0.17763568394E-14  0.91188000000E+02  0.91188000000E+02 0.  0.
    9900012    2    3    3    0    0 -0.34468415611E+02 -0.19649628602E+02  0.88873965933E+01  0.50528863300E+02  0.30000010488E+02 0.  0.
        -12    1    3    3    0    0  0.34468415611E+02  0.19649628602E+02 -0.88873965933E+01  0.40659136700E+02  0.00000000000E+00 0.  1.
         11    1    4    4    0    0 -0.52172417541E+01 -0.13572249178E+02  0.14605766336E+01  0.14613652646E+02  0.51100000000E-03 0. -1.
        -11    1    4    4    0    0 -0.18574133406E+02 -0.89216828489E+01 -0.28787388055E+01  0.20805816351E+02  0.51100000000E-03 0.  1.
         12    1    4    4    0    0 -0.10677040451E+02  0.28443034257E+01  0.10305558765E+02  0.15109394304E+02  0.00000000000E+00 0. -1.
</event>
<event>
 8    1  0.9870402E-014  0.9118800E+02  0.7816164E-02  0.1184000E+00
        -11   -1    0    0    0    0  0.00000000000E+00  0.00000000000E+00  0.45593999997E+02  0.45594000000E+02  0.51100000000E-03 0. -1.
         11   -1    0    0    0    0 -0.00000000000E+00 -0.00000000000E+00 -0.45593999997E+02  0.45594000000E+02  0.51100000000E-03 0.  1.
         23    2    1    2    0    0  0.00000000000E+00 -0.11102230246E-14  0.00000000000E+00  0.91188000000E+02  0.91188000000E+02 0.  0.
    9900012    2    3    3    0    0  0.20019305097E+02 -0.18386583904E+01  0.35341330280E+02  0.50528894412E+02  0.30000105055E+02 0.  0.
        -12    1    3    3    0    0 -0.20019305097E+02  0.18386583904E+01 -0.35341330280E+02  0.40659105588E+02  0.00000000000E+00 0.  1.
         11    1    4    4    0    0 -0.12041621340E+01 -0.53261890152E+01  0.19368630599E+02  0.20123671320E+02  0.51100000000E-03 0.  1.
        -11    1    4    4    0    0  0.96897137787E-01 -0.51869426735E+00 -0.21933014075E+01  0.22558821165E+01  0.51100000000E-03 0. -1.
         12    1    4    4    0    0  0.21126570093E+02  0.40062248922E+01  0.18166001089E+02  0.28149340975E+02  0.00000000000E+00 0. -1.
</event>
<event>
 8    1  0.9870402E-014  0.9118800E+02  0.7816164E-02  0.1184000E+00
        -11   -1    0    0    0    0  0.00000000000E+00  0.00000000000E+00  0.45593999997E+02  0.45594000000E+02  0.51100000000E-03 0.  1.
         11   -1    0    0    0    0 -0.00000000000E+00 -0.00000000000E+00 -0.45593999997E+02  0.45594000000E+02  0.51100000000E-03 0. -1.
         23    2    1    2    0    0  0.13322676296E-14  0.00000000000E+00 -0.35527136788E-14  0.91188000000E+02  0.91188000000E+02 0.  0.
    9900012    2    3    3    0    0  0.33892012208E+01 -0.34841943846E+02 -0.20681350470E+02  0.50528855971E+02  0.29999988210E+02 0.  0.
         12    1    3    3    0    0 -0.33892012208E+01  0.34841943846E+02  0.20681350470E+02  0.40659144029E+02  0.00000000000E+00 0. -1.
         11    1    4    4    0    0  0.20774691593E+01  0.12953218221E+00  0.64528759948E+00  0.21792322137E+01  0.51100000000E-03 0. -1.
        -11    1    4    4    0    0  0.42356324047E+01 -0.34272061436E+02 -0.25697214789E+02  0.43044879197E+02  0.51100000000E-03 0.  1.
         12    1    4    4    0    0 -0.29239003432E+01 -0.69941459247E+00  0.43705767194E+01  0.53047445602E+01  0.00000000000E+00 0. -1.
</event>
<event>
 8    1  0.9870402E-014  0.9118800E+02  0.7816164E-02  0.1184000E+00
        -11   -1    0    0    0    0  0.00000000000E+00  0.00000000000E+00  0.45593999997E+02  0.45594000000E+02  0.51100000000E-03 0. -1.
         11   -1    0    0    0    0 -0.00000000000E+00 -0.00000000000E+00 -0.45593999997E+02  0.45594000000E+02  0.51100000000E-03 0.  1.
         23    2    1    2    0    0 -0.17763568394E-14  0.35527136788E-14  0.00000000000E+00  0.91188000000E+02  0.91188000000E+02 0.  0.
    9900012    2    3    3    0    0  0.81824633736E+01 -0.20622943862E+02  0.34072077265E+02  0.50528868559E+02  0.30000026472E+02 0.  0.
        -12    1    3    3    0    0 -0.81824633736E+01  0.20622943862E+02 -0.34072077265E+02  0.40659131441E+02  0.00000000000E+00 0.  1.
         11    1    4    4    0    0  0.30436995736E+01 -0.66172080162E+01  0.16370366769E+02  0.17917601888E+02  0.51100000000E-03 0. -1.
        -11    1    4    4    0    0  0.59534480042E+01 -0.80636000507E+01  0.22693211515E+02  0.24808205055E+02  0.51100000000E-03 0.  1.
        -12    1    4    4    0    0 -0.81468420417E+00 -0.59421357953E+01 -0.49915010187E+01  0.78030616159E+01  0.00000000000E+00 0.  1.
</event>
<event>
 8    1  0.9870402E-014  0.9118800E+02  0.7816164E-02  0.1184000E+00
        -11   -1    0    0    0    0  0.00000000000E+00  0.00000000000E+00  0.45593999997E+02  0.45594000000E+02  0.51100000000E-03 0. -1.
         11   -1    0    0    0    0 -0.00000000000E+00 -0.00000000000E+00 -0.45593999997E+02  0.45594000000E+02  0.51100000000E-03 0.  1.
         23    2    1    2    0    0  0.17763568394E-14  0.00000000000E+00  0.71054273576E-14  0.91188000000E+02  0.91188000000E+02 0.  0.
    9900012    2    3    3    0    0  0.13740213168E+02 -0.15428043720E+02  0.35019235018E+02  0.50528870494E+02  0.30000032355E+02 0.  0.
        -12    1    3    3    0    0 -0.13740213168E+02  0.15428043720E+02 -0.35019235018E+02  0.40659129506E+02  0.00000000000E+00 0.  1.
         11    1    4    4    0    0  0.38380406180E+01 -0.53510673728E+01  0.19885496585E+02  0.20947492750E+02  0.51100000000E-03 0. -1.
        -11    1    4    4    0    0 -0.58976763087E+01 -0.72853138214E+00  0.78155765961E+01  0.98181760835E+01  0.51100000000E-03 0.  1.
         12    1    4    4    0    0  0.15799848859E+02 -0.93484449651E+01  0.73181618361E+01  0.19763201661E+02  0.00000000000E+00 0. -1.
</event>
<event>
 8    1  0.9870402E-014  0.9118800E+02  0.7816164E-02  0.1184000E+00
        -11   -1    0    0    0    0  0.00000000000E+00  0.00000000000E+00  0.45593999997E+02  0.45594000000E+02  0.51100000000E-03 0.  1.
         11   -1    0    0    0    0 -0.00000000000E+00 -0.00000000000E+00 -0.45593999997E+02  0.45594000000E+02  0.51100000000E-03 0. -1.
         23    2    1    2    0    0  0.00000000000E+00  0.00000000000E+00  0.00000000000E+00  0.91188000000E+02  0.91188000000E+02 0.  0.
    9900012    2    3    3    0    0 -0.12919572183E+01  0.39655207000E+02  0.88860245680E+01  0.50528855539E+02  0.29999986898E+02 0.  0.
        -12    1    3    3    0    0  0.12919572183E+01 -0.39655207000E+02 -0.88860245680E+01  0.40659144461E+02  0.00000000000E+00 0.  1.
         11    1    4    4    0    0  0.73499421728E+01  0.11332257898E+02 -0.11396329431E+01  0.13555090649E+02  0.51100000000E-03 0.  1.
        -11    1    4    4    0    0  0.54824395742E+01  0.14808568471E+02  0.23145900630E+01  0.15959579295E+02  0.51100000000E-03 0. -1.
        -12    1    4    4    0    0 -0.14124338965E+02  0.13514380630E+02  0.77110674481E+01  0.21014185595E+02  0.00000000000E+00 0.  1.
</event>
<event>
 8    1  0.9870402E-014  0.9118800E+02  0.7816164E-02  0.1184000E+00
        -11   -1    0    0    0    0  0.00000000000E+00  0.00000000000E+00  0.45593999997E+02  0.45594000000E+02  0.51100000000E-03 0. -1.
         11   -1    0    0    0    0 -0.00000000000E+00 -0.00000000000E+00 -0.45593999997E+02  0.45594000000E+02  0.51100000000E-03 0.  1.
         23    2    1    2    0    0 -0.17763568394E-14  0.00000000000E+00  0.00000000000E+00  0.91188000000E+02  0.91188000000E+02 0.  0.
    9900012    2    3    3    0    0  0.12074155821E+02  0.37286698067E+02  0.10820476127E+02  0.50528858406E+02  0.29999995612E+02 0.  0.
        -12    1    3    3    0    0 -0.12074155821E+02 -0.37286698067E+02 -0.10820476127E+02  0.40659141594E+02  0.00000000000E+00 0.  1.
         11    1    4    4    0    0  0.16739722155E+02  0.26629502002E+02  0.24251739732E+01  0.31547268404E+02  0.51100000000E-03 0. -1.
        -11    1    4    4    0    0 -0.18326254432E+01  0.10104286374E+02  0.11032251227E+02  0.15072016671E+02  0.51100000000E-03 0.  1.
        -12    1    4    4    0    0 -0.28329408910E+01  0.55290969143E+00 -0.26369490731E+01  0.39095733313E+01  0.00000000000E+00 0.  1.
</event>
<event>
 8    1  0.9870402E-014  0.9118800E+02  0.7816164E-02  0.1184000E+00
        -11   -1    0    0    0    0  0.00000000000E+00  0.00000000000E+00  0.45593999997E+02  0.45594000000E+02  0.51100000000E-03 0. -1.
         11   -1    0    0    0    0 -0.00000000000E+00 -0.00000000000E+00 -0.45593999997E+02  0.45594000000E+02  0.51100000000E-03 0.  1.
         23    2    1    2    0    0  0.33306690739E-15  0.00000000000E+00  0.00000000000E+00  0.91188000000E+02  0.91188000000E+02 0.  0.
    9900012    2    3    3    0    0  0.57146598664E+00 -0.12756471902E+02 -0.38601964557E+02  0.50528858145E+02  0.29999994817E+02 0.  0.
         12    1    3    3    0    0 -0.57146598664E+00  0.12756471902E+02  0.38601964557E+02  0.40659141855E+02  0.00000000000E+00 0. -1.
         11    1    4    4    0    0 -0.38093257582E+01 -0.11890739985E+02 -0.30550620990E+02  0.33003652878E+02  0.51100000000E-03 0. -1.
        -11    1    4    4    0    0  0.47587475363E+01  0.21956262396E+01 -0.11656536791E+02  0.12780504799E+02  0.51100000000E-03 0.  1.
         12    1    4    4    0    0 -0.37795579151E+00 -0.30613581564E+01  0.36051932247E+01  0.47447004678E+01  0.00000000000E+00 0. -1.
</event>
<event>
 8    1  0.9870402E-014  0.9118800E+02  0.7816164E-02  0.1184000E+00
        -11   -1    0    0    0    0  0.00000000000E+00  0.00000000000E+00  0.45593999997E+02  0.45594000000E+02  0.51100000000E-03 0.  1.
         11   -1    0    0    0    0 -0.00000000000E+00 -0.00000000000E+00 -0.45593999997E+02  0.45594000000E+02  0.51100000000E-03 0. -1.
         23    2    1    2    0    0  0.00000000000E+00  0.00000000000E+00  0.00000000000E+00  0.91188000000E+02  0.91188000000E+02 0.  0.
    9900012    2    3    3    0    0  0.85441470611E+01 -0.39695217641E+02  0.21103412416E+01  0.50528852288E+02  0.29999977014E+02 0.  0.
         12    1    3    3    0    0 -0.85441470611E+01  0.39695217641E+02 -0.21103412416E+01  0.40659147712E+02  0.00000000000E+00 0. -1.
         11    1    4    4    0    0  0.13446224326E+01  0.95353616349E+00 -0.23694045738E+01  0.28864024316E+01  0.51100000000E-03 0. -1.
        -11    1    4    4    0    0 -0.77233671387E+00 -0.78133105203E+01  0.10713988557E+02  0.13282841426E+02  0.51100000000E-03 0.  1.
         12    1    4    4    0    0  0.79718613424E+01 -0.32835443284E+02 -0.62342427417E+01  0.34359608430E+02  0.00000000000E+00 0. -1.
</event>
<event>
 8    1  0.9870402E-014  0.9118800E+02  0.7816164E-02  0.1184000E+00
        -11   -1    0    0    0    0  0.00000000000E+00  0.00000000000E+00  0.45593999997E+02  0.45594000000E+02  0.51100000000E-03 0. -1.
         11   -1    0    0    0    0 -0.00000000000E+00 -0.00000000000E+00 -0.45593999997E+02  0.45594000000E+02  0.51100000000E-03 0.  1.
         23    2    1    2    0    0  0.00000000000E+00  0.00000000000E+00 -0.71054273576E-14  0.91188000000E+02  0.91188000000E+02 0.  0.
    9900012    2    3    3    0    0  0.22603003265E+02  0.34612257635E+01  0.33619781467E+02  0.50528861466E+02  0.30000004913E+02 0.  0.
        -12    1    3    3    0    0 -0.22603003265E+02 -0.34612257635E+01 -0.33619781467E+02  0.40659138534E+02  0.00000000000E+00 0.  1.
         11    1    4    4    0    0  0.14843959051E+02  0.63127300859E+01  0.23641291886E+02  0.28619999366E+02  0.51100000000E-03 0. -1.
        -11    1    4    4    0    0 -0.39093018230E+01 -0.32573873637E+01  0.88115394564E+01  0.10175285796E+02  0.51100000000E-03 0.  1.
        -12    1    4    4    0    0  0.11668346037E+02  0.40588304125E+00  0.11669501251E+01  0.11733576304E+02  0.00000000000E+00 0.  1.
</event>
<event>
 8    1  0.9870402E-014  0.9118800E+02  0.7816164E-02  0.1184000E+00
        -11   -1    0    0    0    0  0.00000000000E+00  0.00000000000E+00  0.45593999997E+02  0.45594000000E+02  0.51100000000E-03 0. -1.
         11   -1    0    0    0    0 -0.00000000000E+00 -0.00000000000E+00 -0.45593999997E+02  0.45594000000E+02  0.51100000000E-03 0.  1.
         23    2    1    2    0    0 -0.35527136788E-14  0.00000000000E+00  0.17763568394E-14  0.91188000000E+02  0.91188000000E+02 0.  0.
    9900012    2    3    3    0    0  0.25967437876E+02  0.29768913825E+02  0.96264615257E+01  0.50528870377E+02  0.30000031999E+02 0.  0.
        -12    1    3    3    0    0 -0.25967437876E+02 -0.29768913825E+02 -0.96264615257E+01  0.40659129623E+02  0.00000000000E+00 0.  1.
         11    1    4    4    0    0 -0.29445430119E+01  0.93941489288E+01  0.12590209204E+00  0.98456192920E+01  0.51100000000E-03 0. -1.
        -11    1    4    4    0    0  0.11655449165E+02 -0.22624466710E+00 -0.12804899636E+01  0.11727759236E+02  0.51100000000E-03 0.  1.
         12    1    4    4    0    0  0.17256531723E+02  0.20601009563E+02  0.10781049397E+02  0.28955491849E+02  0.00000000000E+00 0. -1.
</event>
<event>
 8    1  0.9870402E-014  0.9118800E+02  0.7816164E-02  0.1184000E+00
        -11   -1    0    0    0    0  0.00000000000E+00  0.00000000000E+00  0.45593999997E+02  0.45594000000E+02  0.51100000000E-03 0. -1.
         11   -1    0    0    0    0 -0.00000000000E+00 -0.00000000000E+00 -0.45593999997E+02  0.45594000000E+02  0.51100000000E-03 0.  1.
         23    2    1    2    0    0 -0.35527136788E-14 -0.66613381478E-15 -0.71054273576E-14  0.91188000000E+02  0.91188000000E+02 0.  0.
    9900012    2    3    3    0    0 -0.13846811098E+02 -0.11200863875E+01 -0.38212265923E+02  0.50528855418E+02  0.29999986530E+02 0.  0.
         12    1    3    3    0    0  0.13846811098E+02  0.11200863875E+01  0.38212265923E+02  0.40659144582E+02  0.00000000000E+00 0. -1.
         11    1    4    4    0    0 -0.10728984122E+02  0.11408777317E+02 -0.23272033592E+02  0.28051004401E+02  0.51100000000E-03 0. -1.
        -11    1    4    4    0    0  0.23645061186E+01  0.11299383609E+00 -0.32214643955E+00  0.23890239391E+01  0.51100000000E-03 0.  1.
        -12    1    4    4    0    0 -0.54823330947E+01 -0.12641857540E+02 -0.14618085892E+02  0.20088827078E+02  0.00000000000E+00 0.  1.
</event>
<event>
 8    1  0.9870402E-014  0.9118800E+02  0.7816164E-02  0.1184000E+00
        -11   -1    0    0    0    0  0.00000000000E+00  0.00000000000E+00  0.45593999997E+02  0.45594000000E+02  0.51100000000E-03 0. -1.
         11   -1    0    0    0    0 -0.00000000000E+00 -0.00000000000E+00 -0.45593999997E+02  0.45594000000E+02  0.51100000000E-03 0.  1.
         23    2    1    2    0    0  0.00000000000E+00  0.00000000000E+00  0.00000000000E+00  0.91188000000E+02  0.91188000000E+02 0.  0.
    9900012    2    3    3    0    0 -0.85239374101E+01 -0.37135547625E+02  0.14193646553E+02  0.50528855778E+02  0.29999987623E+02 0.  0.
        -12    1    3    3    0    0  0.85239374101E+01  0.37135547625E+02 -0.14193646553E+02  0.40659144222E+02  0.00000000000E+00 0.  1.
         11    1    4    4    0    0 -0.63544112366E+01 -0.20901864756E+02  0.15415886119E+02  0.26737913859E+02  0.51100000000E-03 0. -1.
        -11    1    4    4    0    0 -0.95194669426E+01 -0.11226181299E+02 -0.20406511434E+01  0.14859732662E+02  0.51100000000E-03 0.  1.
         12    1    4    4    0    0  0.73499407692E+01 -0.50075015693E+01  0.81841157767E+00  0.89312092567E+01  0.00000000000E+00 0. -1.
</event>
<event>
 8    1  0.9870402E-014  0.9118800E+02  0.7816164E-02  0.1184000E+00
        -11   -1    0    0    0    0  0.00000000000E+00  0.00000000000E+00  0.45593999997E+02  0.45594000000E+02  0.51100000000E-03 0. -1.
         11   -1    0    0    0    0 -0.00000000000E+00 -0.00000000000E+00 -0.45593999997E+02  0.45594000000E+02  0.51100000000E-03 0.  1.
         23    2    1    2    0    0  0.00000000000E+00  0.00000000000E+00  0.00000000000E+00  0.91188000000E+02  0.91188000000E+02 0.  0.
    9900012    2    3    3    0    0 -0.16378086758E+02  0.10683017027E+02  0.35648242801E+02  0.50528858427E+02  0.29999995675E+02 0.  0.
        -12    1    3    3    0    0  0.16378086758E+02 -0.10683017027E+02 -0.35648242801E+02  0.40659141573E+02  0.00000000000E+00 0.  1.
         11    1    4    4    0    0 -0.57384052607E+01 -0.14532381724E+01  0.21169576857E+02  0.21981632803E+02  0.51100000000E-03 0. -1.
        -11    1    4    4    0    0 -0.55142185110E+00  0.28208489306E+00 -0.41928673622E+01  0.42383693708E+01  0.51100000000E-03 0.  1.
         12    1    4    4    0    0 -0.10088259646E+02  0.11854170307E+02  0.18671533306E+02  0.24308856253E+02  0.00000000000E+00 0. -1.
</event>
<event>
 8    1  0.9870402E-014  0.9118800E+02  0.7816164E-02  0.1184000E+00
        -11   -1    0    0    0    0  0.00000000000E+00  0.00000000000E+00  0.45593999997E+02  0.45594000000E+02  0.51100000000E-03 0. -1.
         11   -1    0    0    0    0 -0.00000000000E+00 -0.00000000000E+00 -0.45593999997E+02  0.45594000000E+02  0.51100000000E-03 0.  1.
         23    2    1    2    0    0 -0.88817841970E-15  0.00000000000E+00  0.00000000000E+00  0.91188000000E+02  0.91188000000E+02 0.  0.
    9900012    2    3    3    0    0  0.48574868011E+01 -0.16038778439E+02  0.37044936753E+02  0.50528869035E+02  0.30000027918E+02 0.  0.
        -12    1    3    3    0    0 -0.48574868011E+01  0.16038778439E+02 -0.37044936753E+02  0.40659130965E+02  0.00000000000E+00 0.  1.
         11    1    4    4    0    0  0.55556819662E+01 -0.41677807822E+01  0.46896086816E+01  0.83802403668E+01  0.51100000000E-03 0. -1.
        -11    1    4    4    0    0  0.40963864788E+01 -0.41495720788E+01  0.32539541152E+02  0.33057844293E+02  0.51100000000E-03 0.  1.
        -12    1    4    4    0    0 -0.47945816439E+01 -0.77214255779E+01 -0.18421308140E+00  0.90907843751E+01  0.00000000000E+00 0.  1.
</event>
<event>
 8    1  0.9870402E-014  0.9118800E+02  0.7816164E-02  0.1184000E+00
        -11   -1    0    0    0    0  0.00000000000E+00  0.00000000000E+00  0.45593999997E+02  0.45594000000E+02  0.51100000000E-03 0. -1.
         11   -1    0    0    0    0 -0.00000000000E+00 -0.00000000000E+00 -0.45593999997E+02  0.45594000000E+02  0.51100000000E-03 0.  1.
         23    2    1    2    0    0  0.88817841970E-15  0.00000000000E+00  0.00000000000E+00  0.91188000000E+02  0.91188000000E+02 0.  0.
    9900012    2    3    3    0    0  0.55785411780E+01  0.35873462237E+02  0.18306833977E+02  0.50528860993E+02  0.30000003475E+02 0.  0.
        -12    1    3    3    0    0 -0.55785411780E+01 -0.35873462237E+02 -0.18306833977E+02  0.40659139007E+02  0.00000000000E+00 0.  1.
         11    1    4    4    0    0 -0.70491512935E+01  0.10127236893E+02  0.17871078787E+02  0.21716973047E+02  0.51100000000E-03 0. -1.
        -11    1    4    4    0    0  0.71604935178E+01  0.12347134649E+02 -0.74205775620E+00  0.14292482340E+02  0.51100000000E-03 0.  1.
        -12    1    4    4    0    0  0.54671989537E+01  0.13399090694E+02  0.11778129459E+01  0.14519405607E+02  0.00000000000E+00 0.  1.
</event>
<event>
 8    1  0.9870402E-014  0.9118800E+02  0.7816164E-02  0.1184000E+00
        -11   -1    0    0    0    0  0.00000000000E+00  0.00000000000E+00  0.45593999997E+02  0.45594000000E+02  0.51100000000E-03 0. -1.
         11   -1    0    0    0    0 -0.00000000000E+00 -0.00000000000E+00 -0.45593999997E+02  0.45594000000E+02  0.51100000000E-03 0.  1.
         23    2    1    2    0    0  0.35527136788E-14 -0.69388939039E-16  0.00000000000E+00  0.91188000000E+02  0.91188000000E+02 0.  0.
    9900012    2    3    3    0    0  0.22152806137E+02  0.70998022228E-01  0.34094190759E+02  0.50528859527E+02  0.29999999018E+02 0.  0.
        -12    1    3    3    0    0 -0.22152806137E+02 -0.70998022228E-01 -0.34094190759E+02  0.40659140473E+02  0.00000000000E+00 0.  1.
         11    1    4    4    0    0  0.71971415615E+01  0.69998509198E+01  0.65233293560E+01  0.11972910494E+02  0.51100000000E-03 0. -1.
        -11    1    4    4    0    0 -0.45756179417E+01 -0.18891975764E+00  0.11506044773E+02  0.12383902325E+02  0.51100000000E-03 0.  1.
        -12    1    4    4    0    0  0.19531282517E+02 -0.67399331399E+01  0.16064816630E+02  0.26172046707E+02  0.00000000000E+00 0.  1.
</event>
<event>
 8    1  0.1011604E-013  0.9118800E+02  0.7816164E-02  0.1184000E+00
        -11   -1    0    0    0    0  0.00000000000E+00  0.00000000000E+00  0.45593999997E+02  0.45594000000E+02  0.51100000000E-03 0. -1.
         11   -1    0    0    0    0 -0.00000000000E+00 -0.00000000000E+00 -0.45593999997E+02  0.45594000000E+02  0.51100000000E-03 0.  1.
         23    2    1    2    0    0  0.00000000000E+00  0.71054273576E-14 -0.71054273576E-14  0.91188000000E+02  0.91188000000E+02 0.  0.
    9900012    2    3    3    0    0 -0.13941637436E+02  0.29282214908E+02 -0.24522398960E+02  0.50528863081E+02  0.30000009820E+02 0.  0.
         12    1    3    3    0    0  0.13941637436E+02 -0.29282214908E+02  0.24522398960E+02  0.40659136919E+02  0.00000000000E+00 0. -1.
         11    1    4    4    0    0 -0.77742284557E+01  0.72076372392E+01 -0.13054760028E+02  0.16817116944E+02  0.51100000000E-03 0. -1.
        -11    1    4    4    0    0 -0.89262038511E+01  0.25578380851E+02 -0.86584597771E+01  0.28441160457E+02  0.51100000000E-03 0.  1.
         12    1    4    4    0    0  0.27587948712E+01 -0.35038031826E+01 -0.28091791542E+01  0.52705856794E+01  0.00000000000E+00 0. -1.
</event>
<event>
 8    1  0.9870402E-014  0.9118800E+02  0.7816164E-02  0.1184000E+00
        -11   -1    0    0    0    0  0.00000000000E+00  0.00000000000E+00  0.45593999997E+02  0.45594000000E+02  0.51100000000E-03 0. -1.
         11   -1    0    0    0    0 -0.00000000000E+00 -0.00000000000E+00 -0.45593999997E+02  0.45594000000E+02  0.51100000000E-03 0.  1.
         23    2    1    2    0    0 -0.71054273576E-14  0.00000000000E+00  0.00000000000E+00  0.91188000000E+02  0.91188000000E+02 0.  0.
    9900012    2    3    3    0    0 -0.19029146636E+02  0.35219076047E+02 -0.71185567995E+01  0.50528860927E+02  0.30000003272E+02 0.  0.
         12    1    3    3    0    0  0.19029146636E+02 -0.35219076047E+02  0.71185567995E+01  0.40659139073E+02  0.00000000000E+00 0. -1.
         11    1    4    4    0    0 -0.15126031594E+02  0.21768132358E+02  0.63715473615E+01  0.27262520687E+02  0.51100000000E-03 0. -1.
        -11    1    4    4    0    0 -0.56423906563E+01  0.11863039656E+02 -0.43657997747E+01  0.13842994262E+02  0.51100000000E-03 0.  1.
        -12    1    4    4    0    0  0.17392756146E+01  0.15879040323E+01 -0.91243043863E+01  0.94233459776E+01  0.00000000000E+00 0.  1.
</event>
<event>
 8    1  0.9870402E-014  0.9118800E+02  0.7816164E-02  0.1184000E+00
        -11   -1    0    0    0    0  0.00000000000E+00  0.00000000000E+00  0.45593999997E+02  0.45594000000E+02  0.51100000000E-03 0. -1.
         11   -1    0    0    0    0 -0.00000000000E+00 -0.00000000000E+00 -0.45593999997E+02  0.45594000000E+02  0.51100000000E-03 0.  1.
         23    2    1    2    0    0  0.00000000000E+00  0.00000000000E+00 -0.35527136788E-14  0.91188000000E+02  0.91188000000E+02 0.  0.
    9900012    2    3    3    0    0  0.32910428739E+02  0.21393653108E+02 -0.10600960968E+02  0.50528867120E+02  0.30000022099E+02 0.  0.
         12    1    3    3    0    0 -0.32910428739E+02 -0.21393653108E+02  0.10600960968E+02  0.40659132880E+02  0.00000000000E+00 0. -1.
         11    1    4    4    0    0  0.11994615910E+02  0.49128950360E+01 -0.13518165512E+02  0.18728271344E+02  0.51100000000E-03 0. -1.
        -11    1    4    4    0    0  0.17710301933E+02  0.13207063025E+02 -0.50017679444E+01  0.22651688484E+02  0.51100000000E-03 0.  1.
         12    1    4    4    0    0  0.32055108954E+01  0.32736950466E+01  0.79189724893E+01  0.91489072924E+01  0.00000000000E+00 0. -1.
</event>
<event>
 8    1  0.9870402E-014  0.9118800E+02  0.7816164E-02  0.1184000E+00
        -11   -1    0    0    0    0  0.00000000000E+00  0.00000000000E+00  0.45593999997E+02  0.45594000000E+02  0.51100000000E-03 0. -1.
         11   -1    0    0    0    0 -0.00000000000E+00 -0.00000000000E+00 -0.45593999997E+02  0.45594000000E+02  0.51100000000E-03 0.  1.
         23    2    1    2    0    0  0.00000000000E+00  0.00000000000E+00  0.44408920985E-15  0.91188000000E+02  0.91188000000E+02 0.  0.
    9900012    2    3    3    0    0  0.33076562213E+02  0.23612851220E+02 -0.12407299379E+01  0.50528866692E+02  0.30000020796E+02 0.  0.
         12    1    3    3    0    0 -0.33076562213E+02 -0.23612851220E+02  0.12407299379E+01  0.40659133308E+02  0.00000000000E+00 0. -1.
         11    1    4    4    0    0  0.12556589028E+01  0.80825729144E+01  0.62924069786E+01  0.10319837695E+02  0.51100000000E-03 0. -1.
        -11    1    4    4    0    0 -0.18286901331E+00  0.37058843221E+01 -0.46789457486E+01  0.59715620455E+01  0.51100000000E-03 0.  1.
        -12    1    4    4    0    0  0.32003772324E+02  0.11824393984E+02 -0.28541911680E+01  0.34237466952E+02  0.00000000000E+00 0.  1.
</event>
<event>
 8    1  0.9870402E-014  0.9118800E+02  0.7816164E-02  0.1184000E+00
        -11   -1    0    0    0    0  0.00000000000E+00  0.00000000000E+00  0.45593999997E+02  0.45594000000E+02  0.51100000000E-03 0. -1.
         11   -1    0    0    0    0 -0.00000000000E+00 -0.00000000000E+00 -0.45593999997E+02  0.45594000000E+02  0.51100000000E-03 0.  1.
         23    2    1    2    0    0  0.00000000000E+00  0.55511151231E-15 -0.71054273576E-14  0.91188000000E+02  0.91188000000E+02 0.  0.
    9900012    2    3    3    0    0 -0.13709945419E+02  0.62911744331E+00 -0.38272791267E+02  0.50528868879E+02  0.30000027445E+02 0.  0.
         12    1    3    3    0    0  0.13709945419E+02 -0.62911744331E+00  0.38272791267E+02  0.40659131121E+02  0.00000000000E+00 0. -1.
         11    1    4    4    0    0  0.34867364315E+01 -0.38956904149E+01  0.10972188213E+01  0.53420617887E+01  0.51100000000E-03 0. -1.
        -11    1    4    4    0    0 -0.88562345693E+01 -0.37073601300E+01 -0.11682959873E+02  0.15121804176E+02  0.51100000000E-03 0.  1.
         12    1    4    4    0    0 -0.83404472814E+01  0.82321679882E+01 -0.27687050215E+02  0.30065002915E+02  0.00000000000E+00 0. -1.
</event>
<event>
 8    1  0.9870402E-014  0.9118800E+02  0.7816164E-02  0.1184000E+00
        -11   -1    0    0    0    0  0.00000000000E+00  0.00000000000E+00  0.45593999997E+02  0.45594000000E+02  0.51100000000E-03 0. -1.
         11   -1    0    0    0    0 -0.00000000000E+00 -0.00000000000E+00 -0.45593999997E+02  0.45594000000E+02  0.51100000000E-03 0.  1.
         23    2    1    2    0    0  0.00000000000E+00  0.00000000000E+00  0.71054273576E-14  0.91188000000E+02  0.91188000000E+02 0.  0.
    9900012    2    3    3    0    0 -0.13042578844E+01 -0.59018553138E+00  0.40633933420E+02  0.50528856468E+02  0.29999989719E+02 0.  0.
        -12    1    3    3    0    0  0.13042578844E+01  0.59018553138E+00 -0.40633933420E+02  0.40659143532E+02  0.00000000000E+00 0.  1.
         11    1    4    4    0    0 -0.71639264589E+01 -0.56447124627E+01  0.88817701399E+01  0.12730689776E+02  0.51100000000E-03 0. -1.
        -11    1    4    4    0    0  0.76740338647E+01  0.19497174860E+01  0.24673283194E+01  0.82933650184E+01  0.51100000000E-03 0.  1.
         12    1    4    4    0    0 -0.18143652902E+01  0.31048094453E+01  0.29284834961E+02  0.29504801673E+02  0.00000000000E+00 0. -1.
</event>
<event>
 8    1  0.9870402E-014  0.9118800E+02  0.7816164E-02  0.1184000E+00
        -11   -1    0    0    0    0  0.00000000000E+00  0.00000000000E+00  0.45593999997E+02  0.45594000000E+02  0.51100000000E-03 0. -1.
         11   -1    0    0    0    0 -0.00000000000E+00 -0.00000000000E+00 -0.45593999997E+02  0.45594000000E+02  0.51100000000E-03 0.  1.
         23    2    1    2    0    0  0.00000000000E+00  0.35527136788E-14 -0.17763568394E-14  0.91188000000E+02  0.91188000000E+02 0.  0.
    9900012    2    3    3    0    0 -0.31633643818E+02  0.23026241354E+02 -0.11057579727E+02  0.50528864722E+02  0.30000014810E+02 0.  0.
         12    1    3    3    0    0  0.31633643818E+02 -0.23026241354E+02  0.11057579727E+02  0.40659135278E+02  0.00000000000E+00 0. -1.
         11    1    4    4    0    0 -0.35379029676E+01  0.13687960538E+00  0.20622259213E+01  0.40973490754E+01  0.51100000000E-03 0. -1.
        -11    1    4    4    0    0 -0.16826329357E+01  0.15867293135E+02  0.35388439118E+00  0.15960184192E+02  0.51100000000E-03 0.  1.
        -12    1    4    4    0    0 -0.26413107915E+02  0.70220686136E+01 -0.13473690040E+02  0.30471331454E+02  0.00000000000E+00 0.  1.
</event>
<event>
 8    1  0.9870402E-014  0.9118800E+02  0.7816164E-02  0.1184000E+00
        -11   -1    0    0    0    0  0.00000000000E+00  0.00000000000E+00  0.45593999997E+02  0.45594000000E+02  0.51100000000E-03 0. -1.
         11   -1    0    0    0    0 -0.00000000000E+00 -0.00000000000E+00 -0.45593999997E+02  0.45594000000E+02  0.51100000000E-03 0.  1.
         23    2    1    2    0    0  0.00000000000E+00  0.00000000000E+00 -0.88817841970E-15  0.91188000000E+02  0.91188000000E+02 0.  0.
    9900012    2    3    3    0    0  0.44707650304E+01 -0.40058555333E+02 -0.53370423754E+01  0.50528934386E+02  0.30000226558E+02 0.  0.
        -12    1    3    3    0    0 -0.44707650304E+01  0.40058555333E+02  0.53370423754E+01  0.40659065614E+02  0.00000000000E+00 0.  1.
         11    1    4    4    0    0  0.61171476508E+01 -0.78250075424E+01  0.14187646711E+01  0.10033101807E+02  0.51100000000E-03 0. -1.
        -11    1    4    4    0    0  0.75890039135E+01 -0.10287474232E+02 -0.10308319584E+02  0.16422136261E+02  0.51100000000E-03 0.  1.
         12    1    4    4    0    0 -0.92353865338E+01 -0.21946073558E+02  0.35525125374E+01  0.24073696318E+02  0.00000000000E+00 0. -1.
</event>
<event>
 8    1  0.9870402E-014  0.9118800E+02  0.7816164E-02  0.1184000E+00
        -11   -1    0    0    0    0  0.00000000000E+00  0.00000000000E+00  0.45593999997E+02  0.45594000000E+02  0.51100000000E-03 0. -1.
         11   -1    0    0    0    0 -0.00000000000E+00 -0.00000000000E+00 -0.45593999997E+02  0.45594000000E+02  0.51100000000E-03 0.  1.
         23    2    1    2    0    0  0.00000000000E+00 -0.88817841970E-15 -0.71054273576E-14  0.91188000000E+02  0.91188000000E+02 0.  0.
    9900012    2    3    3    0    0  0.17942379508E+02  0.71682288909E+01  0.35775076894E+02  0.50528823734E+02  0.29999890222E+02 0.  0.
        -12    1    3    3    0    0 -0.17942379508E+02 -0.71682288909E+01 -0.35775076894E+02  0.40659176266E+02  0.00000000000E+00 0.  1.
         11    1    4    4    0    0  0.12956164635E+02  0.24354605316E+01  0.14843512430E+02  0.19852544713E+02  0.51100000000E-03 0. -1.
        -11    1    4    4    0    0  0.11093765343E+02 -0.38387570362E+00  0.37151903083E+01  0.11705623833E+02  0.51100000000E-03 0.  1.
         12    1    4    4    0    0 -0.61075504696E+01  0.51166440628E+01  0.17216374155E+02  0.18970655188E+02  0.00000000000E+00 0. -1.
</event>
<event>
 8    1  0.9870402E-014  0.9118800E+02  0.7816164E-02  0.1184000E+00
        -11   -1    0    0    0    0  0.00000000000E+00  0.00000000000E+00  0.45593999997E+02  0.45594000000E+02  0.51100000000E-03 0. -1.
         11   -1    0    0    0    0 -0.00000000000E+00 -0.00000000000E+00 -0.45593999997E+02  0.45594000000E+02  0.51100000000E-03 0.  1.
         23    2    1    2    0    0 -0.88817841970E-15  0.00000000000E+00  0.00000000000E+00  0.91188000000E+02  0.91188000000E+02 0.  0.
    9900012    2    3    3    0    0  0.62992571456E+01  0.19642114299E+02  0.35038140362E+02  0.50528873414E+02  0.30000041228E+02 0.  0.
        -12    1    3    3    0    0 -0.62992571456E+01 -0.19642114299E+02 -0.35038140362E+02  0.40659126586E+02  0.00000000000E+00 0.  1.
         11    1    4    4    0    0  0.37252500737E+01  0.13326817717E+02  0.18713304259E+02  0.23273790305E+02  0.51100000000E-03 0.  1.
        -11    1    4    4    0    0  0.76549631400E+01  0.26336280474E+01  0.18831884324E+02  0.20498154181E+02  0.51100000000E-03 0. -1.
        -12    1    4    4    0    0 -0.50809560681E+01  0.36816685343E+01 -0.25070482206E+01  0.67569289284E+01  0.00000000000E+00 0.  1.
</event>
<event>
 8    1  0.9870402E-014  0.9118800E+02  0.7816164E-02  0.1184000E+00
        -11   -1    0    0    0    0  0.00000000000E+00  0.00000000000E+00  0.45593999997E+02  0.45594000000E+02  0.51100000000E-03 0. -1.
         11   -1    0    0    0    0 -0.00000000000E+00 -0.00000000000E+00 -0.45593999997E+02  0.45594000000E+02  0.51100000000E-03 0.  1.
         23    2    1    2    0    0  0.22204460493E-15  0.00000000000E+00  0.00000000000E+00  0.91188000000E+02  0.91188000000E+02 0.  0.
    9900012    2    3    3    0    0  0.12547979300E+01 -0.30997988046E+02 -0.26281498008E+02  0.50528844595E+02  0.29999953629E+02 0.  0.
         12    1    3    3    0    0 -0.12547979300E+01  0.30997988046E+02  0.26281498008E+02  0.40659155405E+02  0.00000000000E+00 0. -1.
         11    1    4    4    0    0  0.36880854538E+01 -0.16270902761E+02  0.18783830853E+01  0.16789061148E+02  0.51100000000E-03 0.  1.
        -11    1    4    4    0    0  0.44359451796E+01 -0.52161628123E+01 -0.10767803178E+02  0.12760546605E+02  0.51100000000E-03 0. -1.
        -12    1    4    4    0    0 -0.68692327033E+01 -0.95109224726E+01 -0.17392077916E+02  0.20979236841E+02  0.00000000000E+00 0.  1.
</event>
<event>
 8    1  0.9870402E-014  0.9118800E+02  0.7816164E-02  0.1184000E+00
        -11   -1    0    0    0    0  0.00000000000E+00  0.00000000000E+00  0.45593999997E+02  0.45594000000E+02  0.51100000000E-03 0. -1.
         11   -1    0    0    0    0 -0.00000000000E+00 -0.00000000000E+00 -0.45593999997E+02  0.45594000000E+02  0.51100000000E-03 0.  1.
         23    2    1    2    0    0 -0.17763568394E-14  0.00000000000E+00 -0.71054273576E-14  0.91188000000E+02  0.91188000000E+02 0.  0.
    9900012    2    3    3    0    0  0.12367871003E+02 -0.74407557868E+01  0.38011005293E+02  0.50528860766E+02  0.30000002785E+02 0.  0.
        -12    1    3    3    0    0 -0.12367871003E+02  0.74407557868E+01 -0.38011005293E+02  0.40659139234E+02  0.00000000000E+00 0.  1.
         11    1    4    4    0    0  0.46237320894E+01  0.66313674605E+01  0.83811893798E+00  0.81275073944E+01  0.51100000000E-03 0. -1.
        -11    1    4    4    0    0 -0.50328007575E+00 -0.47501976977E+01  0.21609197359E+01  0.52428278027E+01  0.51100000000E-03 0.  1.
         12    1    4    4    0    0  0.82474189889E+01 -0.93219255495E+01  0.35011966619E+02  0.37158525569E+02  0.00000000000E+00 0. -1.
</event>
<event>
 8    1  0.9870402E-014  0.9118800E+02  0.7816164E-02  0.1184000E+00
        -11   -1    0    0    0    0  0.00000000000E+00  0.00000000000E+00  0.45593999997E+02  0.45594000000E+02  0.51100000000E-03 0. -1.
         11   -1    0    0    0    0 -0.00000000000E+00 -0.00000000000E+00 -0.45593999997E+02  0.45594000000E+02  0.51100000000E-03 0.  1.
         23    2    1    2    0    0 -0.35527136788E-14  0.88817841970E-15  0.00000000000E+00  0.91188000000E+02  0.91188000000E+02 0.  0.
    9900012    2    3    3    0    0 -0.16923696101E+02 -0.49736377093E+01 -0.36633547953E+02  0.50528863297E+02  0.30000010478E+02 0.  0.
         12    1    3    3    0    0  0.16923696101E+02  0.49736377093E+01  0.36633547953E+02  0.40659136703E+02  0.00000000000E+00 0. -1.
         11    1    4    4    0    0 -0.96080825226E+01  0.22945799988E+01 -0.22661239156E+01  0.10134873704E+02  0.51100000000E-03 0. -1.
        -11    1    4    4    0    0 -0.11808188255E+02 -0.54683827730E+01 -0.32831629338E+02  0.35316460826E+02  0.51100000000E-03 0.  1.
        -12    1    4    4    0    0  0.44925746772E+01 -0.17998349352E+01 -0.15357946997E+01  0.50775287674E+01  0.00000000000E+00 0.  1.
</event>
<event>
 8    1  0.9870402E-014  0.9118800E+02  0.7816164E-02  0.1184000E+00
        -11   -1    0    0    0    0  0.00000000000E+00  0.00000000000E+00  0.45593999997E+02  0.45594000000E+02  0.51100000000E-03 0. -1.
         11   -1    0    0    0    0 -0.00000000000E+00 -0.00000000000E+00 -0.45593999997E+02  0.45594000000E+02  0.51100000000E-03 0.  1.
         23    2    1    2    0    0  0.00000000000E+00  0.00000000000E+00  0.00000000000E+00  0.91188000000E+02  0.91188000000E+02 0.  0.
    9900012    2    3    3    0    0  0.98795215758E+01 -0.27891796392E+02  0.27885628024E+02  0.50528862001E+02  0.30000006538E+02 0.  0.
        -12    1    3    3    0    0 -0.98795215758E+01  0.27891796392E+02 -0.27885628024E+02  0.40659137999E+02  0.00000000000E+00 0.  1.
         11    1    4    4    0    0 -0.20940819989E+01  0.14680036325E+01  0.53518809453E+01  0.59315127917E+01  0.51100000000E-03 0. -1.
        -11    1    4    4    0    0  0.12203918233E+02 -0.36201319539E+01  0.68632029855E+01  0.14461830143E+02  0.51100000000E-03 0.  1.
        -12    1    4    4    0    0 -0.23031465812E+00 -0.25739668071E+02  0.15670544093E+02  0.30135519066E+02  0.00000000000E+00 0.  1.
</event>
<event>
 8    1  0.9870402E-014  0.9118800E+02  0.7816164E-02  0.1184000E+00
        -11   -1    0    0    0    0  0.00000000000E+00  0.00000000000E+00  0.45593999997E+02  0.45594000000E+02  0.51100000000E-03 0. -1.
         11   -1    0    0    0    0 -0.00000000000E+00 -0.00000000000E+00 -0.45593999997E+02  0.45594000000E+02  0.51100000000E-03 0.  1.
         23    2    1    2    0    0 -0.17763568394E-14  0.00000000000E+00  0.00000000000E+00  0.91188000000E+02  0.91188000000E+02 0.  0.
    9900012    2    3    3    0    0  0.15550129497E+02  0.21414564117E+02 -0.30867061394E+02  0.50528861264E+02  0.30000004297E+02 0.  0.
         12    1    3    3    0    0 -0.15550129497E+02 -0.21414564117E+02  0.30867061394E+02  0.40659138736E+02  0.00000000000E+00 0. -1.
         11    1    4    4    0    0 -0.44493487185E+01  0.11422384651E+02 -0.23517255468E+01  0.12481914455E+02  0.51100000000E-03 0. -1.
        -11    1    4    4    0    0  0.80329217224E+00  0.41660605648E+01 -0.95072839069E+01  0.10411041566E+02  0.51100000000E-03 0.  1.
         12    1    4    4    0    0  0.19196186043E+02  0.58261189005E+01 -0.19008051940E+02  0.27635905243E+02  0.00000000000E+00 0. -1.
</event>
<event>
 8    1  0.9870402E-014  0.9118800E+02  0.7816164E-02  0.1184000E+00
        -11   -1    0    0    0    0  0.00000000000E+00  0.00000000000E+00  0.45593999997E+02  0.45594000000E+02  0.51100000000E-03 0. -1.
         11   -1    0    0    0    0 -0.00000000000E+00 -0.00000000000E+00 -0.45593999997E+02  0.45594000000E+02  0.51100000000E-03 0.  1.
         23    2    1    2    0    0 -0.35527136788E-14  0.00000000000E+00  0.00000000000E+00  0.91188000000E+02  0.91188000000E+02 0.  0.
    9900012    2    3    3    0    0  0.22812634435E+02 -0.17463404859E+02  0.28771154012E+02  0.50528854629E+02  0.29999984130E+02 0.  0.
        -12    1    3    3    0    0 -0.22812634435E+02  0.17463404859E+02 -0.28771154012E+02  0.40659145371E+02  0.00000000000E+00 0.  1.
         11    1    4    4    0    0  0.15731697343E+01 -0.71798928171E+01  0.12772796844E+01  0.74603731496E+01  0.51100000000E-03 0. -1.
        -11    1    4    4    0    0  0.19330725331E+02 -0.16651258350E+02  0.25630943704E+02  0.36164715150E+02  0.51100000000E-03 0.  1.
        -12    1    4    4    0    0  0.19087393700E+01  0.63677463080E+01  0.18629306239E+01  0.69037663297E+01  0.00000000000E+00 0.  1.
</event>
<event>
 8    1  0.9870402E-014  0.9118800E+02  0.7816164E-02  0.1184000E+00
        -11   -1    0    0    0    0  0.00000000000E+00  0.00000000000E+00  0.45593999997E+02  0.45594000000E+02  0.51100000000E-03 0. -1.
         11   -1    0    0    0    0 -0.00000000000E+00 -0.00000000000E+00 -0.45593999997E+02  0.45594000000E+02  0.51100000000E-03 0.  1.
         23    2    1    2    0    0  0.00000000000E+00  0.33306690739E-15 -0.71054273576E-14  0.91188000000E+02  0.91188000000E+02 0.  0.
    9900012    2    3    3    0    0 -0.20255349531E+02  0.18929705006E+00  0.35254099794E+02  0.50528848874E+02  0.29999966638E+02 0.  0.
        -12    1    3    3    0    0  0.20255349531E+02 -0.18929705006E+00 -0.35254099794E+02  0.40659151126E+02  0.00000000000E+00 0.  1.
         11    1    4    4    0    0 -0.79386946385E+01  0.12676460004E+02  0.89115641523E+01  0.17410671633E+02  0.51100000000E-03 0. -1.
        -11    1    4    4    0    0 -0.94069076852E+01 -0.38396682144E+01  0.18411980226E+02  0.21029359959E+02  0.51100000000E-03 0.  1.
        -12    1    4    4    0    0 -0.29097472076E+01 -0.86474947397E+01  0.79305554154E+01  0.12088817282E+02  0.00000000000E+00 0.  1.
</event>
<event>
 8    1  0.9870402E-014  0.9118800E+02  0.7816164E-02  0.1184000E+00
        -11   -1    0    0    0    0  0.00000000000E+00  0.00000000000E+00  0.45593999997E+02  0.45594000000E+02  0.51100000000E-03 0. -1.
         11   -1    0    0    0    0 -0.00000000000E+00 -0.00000000000E+00 -0.45593999997E+02  0.45594000000E+02  0.51100000000E-03 0.  1.
         23    2    1    2    0    0  0.17763568394E-14 -0.35527136788E-14  0.00000000000E+00  0.91188000000E+02  0.91188000000E+02 0.  0.
    9900012    2    3    3    0    0 -0.14480024248E+02  0.30285915207E+02  0.22940308865E+02  0.50528861630E+02  0.30000005411E+02 0.  0.
        -12    1    3    3    0    0  0.14480024248E+02 -0.30285915207E+02 -0.22940308865E+02  0.40659138370E+02  0.00000000000E+00 0.  1.
         11    1    4    4    0    0 -0.35910141578E+01 -0.32581388840E+01  0.25172880670E+01  0.54632948980E+01  0.51100000000E-03 0. -1.
        -11    1    4    4    0    0 -0.13939598859E+02  0.16358957233E+02  0.57106929831E+01  0.22238253365E+02  0.51100000000E-03 0.  1.
         12    1    4    4    0    0  0.30505887685E+01  0.17185096858E+02  0.14712327814E+02  0.22827313367E+02  0.00000000000E+00 0. -1.
</event>
<event>
 8    1  0.9870402E-014  0.9118800E+02  0.7816164E-02  0.1184000E+00
        -11   -1    0    0    0    0  0.00000000000E+00  0.00000000000E+00  0.45593999997E+02  0.45594000000E+02  0.51100000000E-03 0. -1.
         11   -1    0    0    0    0 -0.00000000000E+00 -0.00000000000E+00 -0.45593999997E+02  0.45594000000E+02  0.51100000000E-03 0.  1.
         23    2    1    2    0    0  0.17763568394E-14  0.88817841970E-15  0.00000000000E+00  0.91188000000E+02  0.91188000000E+02 0.  0.
    9900012    2    3    3    0    0 -0.14837230628E+02  0.75377316495E+01 -0.37097229690E+02  0.50528864965E+02  0.30000015547E+02 0.  0.
         12    1    3    3    0    0  0.14837230628E+02 -0.75377316495E+01  0.37097229690E+02  0.40659135035E+02  0.00000000000E+00 0. -1.
         11    1    4    4    0    0 -0.11716889557E+02  0.31186023842E+01 -0.66787486102E+01  0.13842574362E+02  0.51100000000E-03 0. -1.
        -11    1    4    4    0    0 -0.12637366434E+01 -0.39519085483E+01  0.87418896676E+00  0.42401436401E+01  0.51100000000E-03 0.  1.
        -12    1    4    4    0    0 -0.18566044283E+01  0.83710378137E+01 -0.31292670046E+02  0.32446146963E+02  0.00000000000E+00 0.  1.
</event>
<event>
 8    1  0.9870402E-014  0.9118800E+02  0.7816164E-02  0.1184000E+00
        -11   -1    0    0    0    0  0.00000000000E+00  0.00000000000E+00  0.45593999997E+02  0.45594000000E+02  0.51100000000E-03 0. -1.
         11   -1    0    0    0    0 -0.00000000000E+00 -0.00000000000E+00 -0.45593999997E+02  0.45594000000E+02  0.51100000000E-03 0.  1.
         23    2    1    2    0    0 -0.35527136788E-14  0.00000000000E+00  0.35527136788E-14  0.91188000000E+02  0.91188000000E+02 0.  0.
    9900012    2    3    3    0    0  0.23100688051E+02 -0.28321297155E+02 -0.17816506803E+02  0.50528861105E+02  0.30000003815E+02 0.  0.
         12    1    3    3    0    0 -0.23100688051E+02  0.28321297155E+02  0.17816506803E+02  0.40659138895E+02  0.00000000000E+00 0. -1.
         11    1    4    4    0    0  0.32611272895E+01  0.95298171854E+00  0.23293660198E+01  0.41193533072E+01  0.51100000000E-03 0. -1.
        -11    1    4    4    0    0 -0.30457715493E+01 -0.19478479347E+01 -0.79561743836E+01  0.87390815873E+01  0.51100000000E-03 0.  1.
         12    1    4    4    0    0  0.22885332311E+02 -0.27326430939E+02 -0.12189698440E+02  0.37670426211E+02  0.00000000000E+00 0. -1.
</event>
<event>
 8    1  0.9870402E-014  0.9118800E+02  0.7816164E-02  0.1184000E+00
        -11   -1    0    0    0    0  0.00000000000E+00  0.00000000000E+00  0.45593999997E+02  0.45594000000E+02  0.51100000000E-03 0. -1.
         11   -1    0    0    0    0 -0.00000000000E+00 -0.00000000000E+00 -0.45593999997E+02  0.45594000000E+02  0.51100000000E-03 0.  1.
         23    2    1    2    0    0 -0.33306690739E-15  0.16653345369E-15  0.00000000000E+00  0.91188000000E+02  0.91188000000E+02 0.  0.
    9900012    2    3    3    0    0  0.76036003203E+00  0.30272693068E+00  0.40650879338E+02  0.50528883164E+02  0.30000070865E+02 0.  0.
        -12    1    3    3    0    0 -0.76036003203E+00 -0.30272693068E+00 -0.40650879338E+02  0.40659116836E+02  0.00000000000E+00 0.  1.
         11    1    4    4    0    0  0.31104517498E+01 -0.27032756959E+01  0.31147509696E+02  0.31418942855E+02  0.51100000000E-03 0. -1.
        -11    1    4    4    0    0  0.54606941454E+01  0.60910724286E+01  0.45889852437E+01  0.93797190634E+01  0.51100000000E-03 0.  1.
        -12    1    4    4    0    0 -0.78107858631E+01 -0.30850698021E+01  0.49143843976E+01  0.97302212457E+01  0.00000000000E+00 0.  1.
</event>
<event>
 8    1  0.9870402E-014  0.9118800E+02  0.7816164E-02  0.1184000E+00
        -11   -1    0    0    0    0  0.00000000000E+00  0.00000000000E+00  0.45593999997E+02  0.45594000000E+02  0.51100000000E-03 0. -1.
         11   -1    0    0    0    0 -0.00000000000E+00 -0.00000000000E+00 -0.45593999997E+02  0.45594000000E+02  0.51100000000E-03 0.  1.
         23    2    1    2    0    0  0.00000000000E+00  0.00000000000E+00  0.00000000000E+00  0.91188000000E+02  0.91188000000E+02 0.  0.
    9900012    2    3    3    0    0 -0.15036981413E+02  0.27462674175E+02 -0.25939479444E+02  0.50528857404E+02  0.29999992565E+02 0.  0.
         12    1    3    3    0    0  0.15036981413E+02 -0.27462674175E+02  0.25939479444E+02  0.40659142596E+02  0.00000000000E+00 0. -1.
         11    1    4    4    0    0 -0.35082612514E+01  0.13221234173E+01  0.45280511036E+01  0.58787034622E+01  0.51100000000E-03 0. -1.
        -11    1    4    4    0    0 -0.10341235419E+02  0.52967294824E+01 -0.89260775870E+01  0.14651667296E+02  0.51100000000E-03 0.  1.
        -12    1    4    4    0    0 -0.11874847419E+01  0.20843821275E+02 -0.21541452961E+02  0.29998486645E+02  0.00000000000E+00 0.  1.
</event>
<event>
 8    1  0.9870402E-014  0.9118800E+02  0.7816164E-02  0.1184000E+00
        -11   -1    0    0    0    0  0.00000000000E+00  0.00000000000E+00  0.45593999997E+02  0.45594000000E+02  0.51100000000E-03 0. -1.
         11   -1    0    0    0    0 -0.00000000000E+00 -0.00000000000E+00 -0.45593999997E+02  0.45594000000E+02  0.51100000000E-03 0.  1.
         23    2    1    2    0    0 -0.88817841970E-15  0.88817841970E-15  0.00000000000E+00  0.91188000000E+02  0.91188000000E+02 0.  0.
    9900012    2    3    3    0    0 -0.29765103818E+01 -0.47322003153E+01  0.40272963750E+02  0.50528868884E+02  0.30000027461E+02 0.  0.
        -12    1    3    3    0    0  0.29765103818E+01  0.47322003153E+01 -0.40272963750E+02  0.40659131116E+02  0.00000000000E+00 0.  1.
         11    1    4    4    0    0 -0.67955632483E+01  0.44721570871E+01  0.69760719154E+01  0.10716596871E+02  0.51100000000E-03 0. -1.
        -11    1    4    4    0    0 -0.55055464640E+01  0.22223299851E+01  0.44704217031E+01  0.74319891613E+01  0.51100000000E-03 0.  1.
         12    1    4    4    0    0  0.93245993305E+01 -0.11426687387E+02  0.28826470131E+02  0.32380282852E+02  0.00000000000E+00 0. -1.
</event>
<event>
 8    1  0.9870402E-014  0.9118800E+02  0.7816164E-02  0.1184000E+00
        -11   -1    0    0    0    0  0.00000000000E+00  0.00000000000E+00  0.45593999997E+02  0.45594000000E+02  0.51100000000E-03 0. -1.
         11   -1    0    0    0    0 -0.00000000000E+00 -0.00000000000E+00 -0.45593999997E+02  0.45594000000E+02  0.51100000000E-03 0.  1.
         23    2    1    2    0    0  0.00000000000E+00  0.00000000000E+00  0.17763568394E-14  0.91188000000E+02  0.91188000000E+02 0.  0.
    9900012    2    3    3    0    0  0.21617608080E+02  0.32589558593E+02  0.11125010596E+02  0.50528853807E+02  0.29999981632E+02 0.  0.
        -12    1    3    3    0    0 -0.21617608080E+02 -0.32589558593E+02 -0.11125010596E+02  0.40659146193E+02  0.00000000000E+00 0.  1.
         11    1    4    4    0    0  0.10408261169E+00  0.11210553617E+02  0.16023484369E+01  0.11324966506E+02  0.51100000000E-03 0. -1.
        -11    1    4    4    0    0  0.35367784874E+01  0.91574120457E+01  0.13912614870E+02  0.17027267844E+02  0.51100000000E-03 0.  1.
        -12    1    4    4    0    0  0.17976746980E+02  0.12221592931E+02 -0.43899527108E+01  0.22176619458E+02  0.00000000000E+00 0.  1.
</event>
<event>
 8    1  0.9870402E-014  0.9118800E+02  0.7816164E-02  0.1184000E+00
        -11   -1    0    0    0    0  0.00000000000E+00  0.00000000000E+00  0.45593999997E+02  0.45594000000E+02  0.51100000000E-03 0. -1.
         11   -1    0    0    0    0 -0.00000000000E+00 -0.00000000000E+00 -0.45593999997E+02  0.45594000000E+02  0.51100000000E-03 0.  1.
         23    2    1    2    0    0  0.22204460493E-15  0.00000000000E+00  0.00000000000E+00  0.91188000000E+02  0.91188000000E+02 0.  0.
    9900012    2    3    3    0    0 -0.14554355919E+01 -0.24993059261E+02  0.32037395078E+02  0.50528856043E+02  0.29999988428E+02 0.  0.
        -12    1    3    3    0    0  0.14554355919E+01  0.24993059261E+02 -0.32037395078E+02  0.40659143957E+02  0.00000000000E+00 0.  1.
         11    1    4    4    0    0 -0.37979349874E+01 -0.20981454345E+01  0.16404665343E+02  0.16968782210E+02  0.51100000000E-03 0. -1.
        -11    1    4    4    0    0  0.65395819356E+01 -0.22120727853E+02  0.17447426063E+02  0.28922403239E+02  0.51100000000E-03 0.  1.
         12    1    4    4    0    0 -0.41970825401E+01 -0.77418597315E+00 -0.18146963283E+01  0.46376705934E+01  0.00000000000E+00 0. -1.
</event>
<event>
 8    1  0.9870402E-014  0.9118800E+02  0.7816164E-02  0.1184000E+00
        -11   -1    0    0    0    0  0.00000000000E+00  0.00000000000E+00  0.45593999997E+02  0.45594000000E+02  0.51100000000E-03 0. -1.
         11   -1    0    0    0    0 -0.00000000000E+00 -0.00000000000E+00 -0.45593999997E+02  0.45594000000E+02  0.51100000000E-03 0.  1.
         23    2    1    2    0    0 -0.17763568394E-14  0.35527136788E-14  0.00000000000E+00  0.91188000000E+02  0.91188000000E+02 0.  0.
    9900012    2    3    3    0    0  0.69358514192E+01 -0.26867882766E+02  0.29718298571E+02  0.50528850609E+02  0.29999971910E+02 0.  0.
        -12    1    3    3    0    0 -0.69358514192E+01  0.26867882766E+02 -0.29718298571E+02  0.40659149391E+02  0.00000000000E+00 0.  1.
         11    1    4    4    0    0  0.19703413397E+01 -0.40770157327E+01  0.74908227861E+01  0.87530982260E+01  0.51100000000E-03 0. -1.
        -11    1    4    4    0    0 -0.10988714951E+02 -0.10328386355E+02  0.84378347929E+01  0.17280754533E+02  0.51100000000E-03 0.  1.
        -12    1    4    4    0    0  0.15954225030E+02 -0.12462480679E+02  0.13789640992E+02  0.24494997850E+02  0.00000000000E+00 0.  1.
</event>
<event>
 8    1  0.9870402E-014  0.9118800E+02  0.7816164E-02  0.1184000E+00
        -11   -1    0    0    0    0  0.00000000000E+00  0.00000000000E+00  0.45593999997E+02  0.45594000000E+02  0.51100000000E-03 0. -1.
         11   -1    0    0    0    0 -0.00000000000E+00 -0.00000000000E+00 -0.45593999997E+02  0.45594000000E+02  0.51100000000E-03 0.  1.
         23    2    1    2    0    0  0.00000000000E+00  0.00000000000E+00  0.00000000000E+00  0.91188000000E+02  0.91188000000E+02 0.  0.
    9900012    2    3    3    0    0 -0.29517408611E+01  0.18923855144E+02  0.35865590136E+02  0.50528860518E+02  0.30000002031E+02 0.  0.
        -12    1    3    3    0    0  0.29517408611E+01 -0.18923855144E+02 -0.35865590136E+02  0.40659139482E+02  0.00000000000E+00 0.  1.
         11    1    4    4    0    0  0.49489846061E+01  0.11353458015E+02  0.84700073814E+01  0.15004482092E+02  0.51100000000E-03 0. -1.
        -11    1    4    4    0    0 -0.38632337142E+01  0.14543531614E+01 -0.24445848350E+01  0.47974694502E+01  0.51100000000E-03 0.  1.
         12    1    4    4    0    0 -0.40374917531E+01  0.61160439672E+01  0.29840167590E+02  0.30726908976E+02  0.00000000000E+00 0. -1.
</event>
<event>
 8    1  0.9870402E-014  0.9118800E+02  0.7816164E-02  0.1184000E+00
        -11   -1    0    0    0    0  0.00000000000E+00  0.00000000000E+00  0.45593999997E+02  0.45594000000E+02  0.51100000000E-03 0. -1.
         11   -1    0    0    0    0 -0.00000000000E+00 -0.00000000000E+00 -0.45593999997E+02  0.45594000000E+02  0.51100000000E-03 0.  1.
         23    2    1    2    0    0  0.17763568394E-14  0.17763568394E-14  0.14210854715E-13  0.91188000000E+02  0.91188000000E+02 0.  0.
    9900012    2    3    3    0    0  0.29055644401E+01  0.80791947313E+01  0.39742297357E+02  0.50528857222E+02  0.29999992011E+02 0.  0.
        -12    1    3    3    0    0 -0.29055644401E+01 -0.80791947313E+01 -0.39742297357E+02  0.40659142778E+02  0.00000000000E+00 0.  1.
         11    1    4    4    0    0  0.39963827276E+00 -0.24102851236E+01 -0.98322062289E+00  0.26336112432E+01  0.51100000000E-03 0.  1.
        -11    1    4    4    0    0  0.10465144390E+02  0.78659294160E+01  0.35927616024E+02  0.38238536663E+02  0.51100000000E-03 0. -1.
         12    1    4    4    0    0 -0.79592182225E+01  0.26235504389E+01  0.47979019559E+01  0.96567093152E+01  0.00000000000E+00 0. -1.
</event>
<event>
 8    1  0.9870402E-014  0.9118800E+02  0.7816164E-02  0.1184000E+00
        -11   -1    0    0    0    0  0.00000000000E+00  0.00000000000E+00  0.45593999997E+02  0.45594000000E+02  0.51100000000E-03 0. -1.
         11   -1    0    0    0    0 -0.00000000000E+00 -0.00000000000E+00 -0.45593999997E+02  0.45594000000E+02  0.51100000000E-03 0.  1.
         23    2    1    2    0    0  0.13322676296E-14  0.00000000000E+00  0.00000000000E+00  0.91188000000E+02  0.91188000000E+02 0.  0.
    9900012    2    3    3    0    0 -0.28202061431E+01 -0.13796190674E+02 -0.38142860475E+02  0.50528852874E+02  0.29999978797E+02 0.  0.
         12    1    3    3    0    0  0.28202061431E+01  0.13796190674E+02  0.38142860475E+02  0.40659147126E+02  0.00000000000E+00 0. -1.
         11    1    4    4    0    0  0.26802628364E+01 -0.53585858225E+01 -0.41824059110E+01  0.73068988192E+01  0.51100000000E-03 0. -1.
        -11    1    4    4    0    0  0.52780756699E+01  0.11545219329E+01 -0.26371464458E+02  0.26919233674E+02  0.51100000000E-03 0.  1.
        -12    1    4    4    0    0 -0.10778544649E+02 -0.95921267841E+01 -0.75889901051E+01  0.16302720381E+02  0.00000000000E+00 0.  1.
</event>
<event>
 8    1  0.9870402E-014  0.9118800E+02  0.7816164E-02  0.1184000E+00
        -11   -1    0    0    0    0  0.00000000000E+00  0.00000000000E+00  0.45593999997E+02  0.45594000000E+02  0.51100000000E-03 0. -1.
         11   -1    0    0    0    0 -0.00000000000E+00 -0.00000000000E+00 -0.45593999997E+02  0.45594000000E+02  0.51100000000E-03 0.  1.
         23    2    1    2    0    0  0.88817841970E-15  0.00000000000E+00  0.00000000000E+00  0.91188000000E+02  0.91188000000E+02 0.  0.
    9900012    2    3    3    0    0 -0.77911328410E+01  0.17715987590E+02  0.35757626072E+02  0.50528858475E+02  0.29999995820E+02 0.  0.
        -12    1    3    3    0    0  0.77911328410E+01 -0.17715987590E+02 -0.35757626072E+02  0.40659141525E+02  0.00000000000E+00 0.  1.
         11    1    4    4    0    0  0.15165633263E+01  0.11819906833E+01 -0.25730685380E+01  0.32121251938E+01  0.51100000000E-03 0. -1.
        -11    1    4    4    0    0  0.55553001408E+01  0.36796802209E+01  0.40337952449E+01  0.77892817719E+01  0.51100000000E-03 0.  1.
         12    1    4    4    0    0 -0.14862996308E+02  0.12854316686E+02  0.34296899365E+02  0.39527451509E+02  0.00000000000E+00 0. -1.
</event>
<event>
 8    1  0.9870402E-014  0.9118800E+02  0.7816164E-02  0.1184000E+00
        -11   -1    0    0    0    0  0.00000000000E+00  0.00000000000E+00  0.45593999997E+02  0.45594000000E+02  0.51100000000E-03 0. -1.
         11   -1    0    0    0    0 -0.00000000000E+00 -0.00000000000E+00 -0.45593999997E+02  0.45594000000E+02  0.51100000000E-03 0.  1.
         23    2    1    2    0    0  0.00000000000E+00  0.00000000000E+00  0.00000000000E+00  0.91188000000E+02  0.91188000000E+02 0.  0.
    9900012    2    3    3    0    0 -0.12792908966E+02  0.26909726990E+02 -0.27665386625E+02  0.50528861500E+02  0.30000005015E+02 0.  0.
         12    1    3    3    0    0  0.12792908966E+02 -0.26909726990E+02  0.27665386625E+02  0.40659138500E+02  0.00000000000E+00 0. -1.
         11    1    4    4    0    0  0.34468764812E+01 -0.31743454254E+01 -0.16302936510E+01  0.49613792443E+01  0.51100000000E-03 0. -1.
        -11    1    4    4    0    0 -0.14259572449E+02  0.10538936628E+02 -0.11592955187E+02  0.21184928650E+02  0.51100000000E-03 0.  1.
        -12    1    4    4    0    0 -0.19802129979E+01  0.19545135788E+02 -0.14442137787E+02  0.24382553606E+02  0.00000000000E+00 0.  1.
</event>
<event>
 8    1  0.9870402E-014  0.9118800E+02  0.7816164E-02  0.1184000E+00
        -11   -1    0    0    0    0  0.00000000000E+00  0.00000000000E+00  0.45593999997E+02  0.45594000000E+02  0.51100000000E-03 0.  1.
         11   -1    0    0    0    0 -0.00000000000E+00 -0.00000000000E+00 -0.45593999997E+02  0.45594000000E+02  0.51100000000E-03 0. -1.
         23    2    1    2    0    0 -0.35527136788E-14  0.00000000000E+00  0.00000000000E+00  0.91188000000E+02  0.91188000000E+02 0.  0.
    9900012    2    3    3    0    0 -0.25232895210E+02  0.26575764629E+01  0.31771078639E+02  0.50528890920E+02  0.30000094439E+02 0.  0.
        -12    1    3    3    0    0  0.25232895210E+02 -0.26575764629E+01 -0.31771078639E+02  0.40659109080E+02  0.00000000000E+00 0.  1.
         11    1    4    4    0    0 -0.13929039746E+02  0.10821225632E+02  0.18231149978E+02  0.25367142177E+02  0.51100000000E-03 0. -1.
        -11    1    4    4    0    0 -0.28971462933E+00  0.78474619930E+00  0.10645804474E+02  0.10678619495E+02  0.51100000000E-03 0.  1.
         12    1    4    4    0    0 -0.11014140835E+02 -0.89483953682E+01  0.28941241863E+01  0.14483129247E+02  0.00000000000E+00 0. -1.
</event>
<event>
 8    1  0.9870402E-014  0.9118800E+02  0.7816164E-02  0.1184000E+00
        -11   -1    0    0    0    0  0.00000000000E+00  0.00000000000E+00  0.45593999997E+02  0.45594000000E+02  0.51100000000E-03 0. -1.
         11   -1    0    0    0    0 -0.00000000000E+00 -0.00000000000E+00 -0.45593999997E+02  0.45594000000E+02  0.51100000000E-03 0.  1.
         23    2    1    2    0    0 -0.35527136788E-14  0.00000000000E+00  0.35527136788E-14  0.91188000000E+02  0.91188000000E+02 0.  0.
    9900012    2    3    3    0    0 -0.25476836844E+02 -0.21506481564E+02 -0.23271598423E+02  0.50528865012E+02  0.30000015690E+02 0.  0.
         12    1    3    3    0    0  0.25476836844E+02  0.21506481564E+02  0.23271598423E+02  0.40659134988E+02  0.00000000000E+00 0. -1.
         11    1    4    4    0    0 -0.93013716963E+01 -0.74613973105E+01 -0.53041718163E+01  0.13050754927E+02  0.51100000000E-03 0. -1.
        -11    1    4    4    0    0 -0.74206957463E+01 -0.11085711326E+02 -0.23270633712E+02  0.26823163769E+02  0.51100000000E-03 0.  1.
         12    1    4    4    0    0 -0.87547694011E+01 -0.29593729270E+01  0.53032071049E+01  0.10654946315E+02  0.00000000000E+00 0. -1.
</event>
<event>
 8    1  0.1414501E-013  0.9118800E+02  0.7816164E-02  0.1184000E+00
        -11   -1    0    0    0    0  0.00000000000E+00  0.00000000000E+00  0.45593999997E+02  0.45594000000E+02  0.51100000000E-03 0. -1.
         11   -1    0    0    0    0 -0.00000000000E+00 -0.00000000000E+00 -0.45593999997E+02  0.45594000000E+02  0.51100000000E-03 0.  1.
         23    2    1    2    0    0  0.00000000000E+00 -0.44408920985E-15  0.35527136788E-14  0.91188000000E+02  0.91188000000E+02 0.  0.
    9900012    2    3    3    0    0 -0.32017841110E+02 -0.21292211907E+01 -0.24969776306E+02  0.50528862515E+02  0.30000008102E+02 0.  0.
         12    1    3    3    0    0  0.32017841110E+02  0.21292211907E+01  0.24969776306E+02  0.40659137485E+02  0.00000000000E+00 0. -1.
         11    1    4    4    0    0 -0.69363075641E+01 -0.89176036110E+01 -0.32482061662E+01  0.11755290738E+02  0.51100000000E-03 0. -1.
        -11    1    4    4    0    0 -0.16842293702E+02  0.17741490375E+00 -0.22585779198E+02  0.28174665134E+02  0.51100000000E-03 0.  1.
         12    1    4    4    0    0 -0.82392398445E+01  0.66109675165E+01  0.86420905879E+00  0.10598906643E+02  0.00000000000E+00 0. -1.
</event>
<event>
 8    1  0.9870402E-014  0.9118800E+02  0.7816164E-02  0.1184000E+00
        -11   -1    0    0    0    0  0.00000000000E+00  0.00000000000E+00  0.45593999997E+02  0.45594000000E+02  0.51100000000E-03 0. -1.
         11   -1    0    0    0    0 -0.00000000000E+00 -0.00000000000E+00 -0.45593999997E+02  0.45594000000E+02  0.51100000000E-03 0.  1.
         23    2    1    2    0    0  0.00000000000E+00  0.00000000000E+00  0.71054273576E-14  0.91188000000E+02  0.91188000000E+02 0.  0.
    9900012    2    3    3    0    0  0.20531160728E+02  0.13368292770E+02 -0.32448819489E+02  0.50528859593E+02  0.29999999218E+02 0.  0.
         12    1    3    3    0    0 -0.20531160728E+02 -0.13368292770E+02  0.32448819489E+02  0.40659140407E+02  0.00000000000E+00 0. -1.
         11    1    4    4    0    0 -0.85032406445E+00  0.38114883366E+01 -0.46051322232E+01  0.60380242968E+01  0.51100000000E-03 0. -1.
        -11    1    4    4    0    0  0.10505857196E+02  0.27211122106E+01 -0.29599148607E+02  0.31525974776E+02  0.51100000000E-03 0.  1.
         12    1    4    4    0    0  0.10875627596E+02  0.68356922232E+01  0.17554613407E+01  0.12964860520E+02  0.00000000000E+00 0. -1.
</event>
<event>
 8    1  0.9870402E-014  0.9118800E+02  0.7816164E-02  0.1184000E+00
        -11   -1    0    0    0    0  0.00000000000E+00  0.00000000000E+00  0.45593999997E+02  0.45594000000E+02  0.51100000000E-03 0. -1.
         11   -1    0    0    0    0 -0.00000000000E+00 -0.00000000000E+00 -0.45593999997E+02  0.45594000000E+02  0.51100000000E-03 0.  1.
         23    2    1    2    0    0  0.00000000000E+00  0.00000000000E+00  0.00000000000E+00  0.91188000000E+02  0.91188000000E+02 0.  0.
    9900012    2    3    3    0    0 -0.18256489712E+02  0.32062587506E+02  0.17083897417E+02  0.50528825326E+02  0.29999895061E+02 0.  0.
        -12    1    3    3    0    0  0.18256489712E+02 -0.32062587506E+02 -0.17083897417E+02  0.40659174674E+02  0.00000000000E+00 0.  1.
         11    1    4    4    0    0 -0.40355830748E+01  0.27715108268E+00 -0.22535889152E+01  0.46304866630E+01  0.51100000000E-03 0. -1.
        -11    1    4    4    0    0 -0.14539199788E+02  0.10778828382E+02  0.11922837771E+01  0.18138164534E+02  0.51100000000E-03 0.  1.
         12    1    4    4    0    0  0.31829315074E+00  0.21006608041E+02  0.18145202555E+02  0.27760174129E+02  0.00000000000E+00 0. -1.
</event>
<event>
 8    1  0.9870402E-014  0.9118800E+02  0.7816164E-02  0.1184000E+00
        -11   -1    0    0    0    0  0.00000000000E+00  0.00000000000E+00  0.45593999997E+02  0.45594000000E+02  0.51100000000E-03 0. -1.
         11   -1    0    0    0    0 -0.00000000000E+00 -0.00000000000E+00 -0.45593999997E+02  0.45594000000E+02  0.51100000000E-03 0.  1.
         23    2    1    2    0    0  0.35527136788E-14  0.17763568394E-14  0.71054273576E-14  0.91188000000E+02  0.91188000000E+02 0.  0.
    9900012    2    3    3    0    0  0.20822876365E+02  0.13944146989E+02  0.32017716580E+02  0.50528860925E+02  0.30000003266E+02 0.  0.
        -12    1    3    3    0    0 -0.20822876365E+02 -0.13944146989E+02 -0.32017716580E+02  0.40659139075E+02  0.00000000000E+00 0.  1.
         11    1    4    4    0    0  0.37345066725E+01 -0.10259001159E+00  0.13548480447E+02  0.14054123504E+02  0.51100000000E-03 0. -1.
        -11    1    4    4    0    0  0.86829957490E+01 -0.31045786209E+01 -0.90855533441E+00  0.92659752130E+01  0.51100000000E-03 0.  1.
         12    1    4    4    0    0  0.84053739435E+01  0.17151315622E+02  0.19377791468E+02  0.27208762207E+02  0.00000000000E+00 0. -1.
</event>
<event>
 8    1  0.9870402E-014  0.9118800E+02  0.7816164E-02  0.1184000E+00
        -11   -1    0    0    0    0  0.00000000000E+00  0.00000000000E+00  0.45593999997E+02  0.45594000000E+02  0.51100000000E-03 0.  1.
         11   -1    0    0    0    0 -0.00000000000E+00 -0.00000000000E+00 -0.45593999997E+02  0.45594000000E+02  0.51100000000E-03 0. -1.
         23    2    1    2    0    0 -0.88817841970E-15  0.00000000000E+00  0.44408920985E-15  0.91188000000E+02  0.91188000000E+02 0.  0.
    9900012    2    3    3    0    0 -0.50431487395E+01 -0.40234341771E+02 -0.29884458119E+01  0.50528850780E+02  0.29999972429E+02 0.  0.
         12    1    3    3    0    0  0.50431487395E+01  0.40234341771E+02  0.29884458119E+01  0.40659149220E+02  0.00000000000E+00 0. -1.
         11    1    4    4    0    0  0.62325643745E+01 -0.77382432937E+01  0.14182702565E+01  0.10036770334E+02  0.51100000000E-03 0.  1.
        -11    1    4    4    0    0  0.27249950309E+01 -0.14598916376E+02 -0.89218879548E+01  0.17324954321E+02  0.51100000000E-03 0. -1.
        -12    1    4    4    0    0 -0.14000708145E+02 -0.17897182101E+02  0.45151718863E+01  0.23167126125E+02  0.00000000000E+00 0.  1.
</event>
<event>
 8    1  0.9870402E-014  0.9118800E+02  0.7816164E-02  0.1184000E+00
        -11   -1    0    0    0    0  0.00000000000E+00  0.00000000000E+00  0.45593999997E+02  0.45594000000E+02  0.51100000000E-03 0. -1.
         11   -1    0    0    0    0 -0.00000000000E+00 -0.00000000000E+00 -0.45593999997E+02  0.45594000000E+02  0.51100000000E-03 0.  1.
         23    2    1    2    0    0  0.35527136788E-14  0.35527136788E-14  0.35527136788E-14  0.91188000000E+02  0.91188000000E+02 0.  0.
    9900012    2    3    3    0    0 -0.23044060410E+02 -0.28885516075E+02 -0.16963600158E+02  0.50528862166E+02  0.30000007039E+02 0.  0.
         12    1    3    3    0    0  0.23044060410E+02  0.28885516075E+02  0.16963600158E+02  0.40659137834E+02  0.00000000000E+00 0. -1.
         11    1    4    4    0    0 -0.20197423207E+02 -0.57224820063E+01 -0.92494906529E+01  0.22939829601E+02  0.51100000000E-03 0. -1.
        -11    1    4    4    0    0  0.15225364866E+01 -0.10559602423E+00  0.17168820440E+01  0.22971617461E+01  0.51100000000E-03 0.  1.
        -12    1    4    4    0    0 -0.43691736895E+01 -0.23057438044E+02 -0.94309915495E+01  0.25291870819E+02  0.00000000000E+00 0.  1.
</event>
<event>
 8    1  0.9870402E-014  0.9118800E+02  0.7816164E-02  0.1184000E+00
        -11   -1    0    0    0    0  0.00000000000E+00  0.00000000000E+00  0.45593999997E+02  0.45594000000E+02  0.51100000000E-03 0. -1.
         11   -1    0    0    0    0 -0.00000000000E+00 -0.00000000000E+00 -0.45593999997E+02  0.45594000000E+02  0.51100000000E-03 0.  1.
         23    2    1    2    0    0  0.00000000000E+00 -0.35527136788E-14  0.00000000000E+00  0.91188000000E+02  0.91188000000E+02 0.  0.
    9900012    2    3    3    0    0 -0.11990233753E+02 -0.16513975408E+02 -0.35166577186E+02  0.50528865231E+02  0.30000016355E+02 0.  0.
         12    1    3    3    0    0  0.11990233753E+02  0.16513975408E+02  0.35166577186E+02  0.40659134769E+02  0.00000000000E+00 0. -1.
         11    1    4    4    0    0 -0.33565582043E+01 -0.72158512748E+01  0.19106670162E+01  0.81844756280E+01  0.51100000000E-03 0. -1.
        -11    1    4    4    0    0 -0.13518562706E+01  0.68596742345E+00  0.13184607544E+01  0.20090808108E+01  0.51100000000E-03 0.  1.
        -12    1    4    4    0    0 -0.72818192779E+01 -0.99840915564E+01 -0.38395704957E+02  0.40335308792E+02  0.00000000000E+00 0.  1.
</event>
<event>
 8    1  0.9870402E-014  0.9118800E+02  0.7816164E-02  0.1184000E+00
        -11   -1    0    0    0    0  0.00000000000E+00  0.00000000000E+00  0.45593999997E+02  0.45594000000E+02  0.51100000000E-03 0. -1.
         11   -1    0    0    0    0 -0.00000000000E+00 -0.00000000000E+00 -0.45593999997E+02  0.45594000000E+02  0.51100000000E-03 0.  1.
         23    2    1    2    0    0  0.00000000000E+00  0.00000000000E+00 -0.33306690739E-15  0.91188000000E+02  0.91188000000E+02 0.  0.
    9900012    2    3    3    0    0 -0.25325431387E+02 -0.31803179001E+02 -0.58839794186E+00  0.50528857342E+02  0.29999992378E+02 0.  0.
         12    1    3    3    0    0  0.25325431387E+02  0.31803179001E+02  0.58839794186E+00  0.40659142658E+02  0.00000000000E+00 0. -1.
         11    1    4    4    0    0 -0.67298731903E+01 -0.18957566606E+02  0.95362677976E+01  0.22262545419E+02  0.51100000000E-03 0. -1.
        -11    1    4    4    0    0 -0.22338187131E+01 -0.94081430095E+01 -0.35347967719E+01  0.10295527641E+02  0.51100000000E-03 0.  1.
        -12    1    4    4    0    0 -0.16361739483E+02 -0.34374693859E+01 -0.65898689675E+01  0.17970784282E+02  0.00000000000E+00 0.  1.
</event>
<event>
 8    1  0.9870402E-014  0.9118800E+02  0.7816164E-02  0.1184000E+00
        -11   -1    0    0    0    0  0.00000000000E+00  0.00000000000E+00  0.45593999997E+02  0.45594000000E+02  0.51100000000E-03 0. -1.
         11   -1    0    0    0    0 -0.00000000000E+00 -0.00000000000E+00 -0.45593999997E+02  0.45594000000E+02  0.51100000000E-03 0.  1.
         23    2    1    2    0    0  0.44408920985E-15  0.17763568394E-14  0.00000000000E+00  0.91188000000E+02  0.91188000000E+02 0.  0.
    9900012    2    3    3    0    0  0.16220707773E+01 -0.35173635452E+01 -0.40474223965E+02  0.50528858771E+02  0.29999996721E+02 0.  0.
         12    1    3    3    0    0 -0.16220707773E+01  0.35173635452E+01  0.40474223965E+02  0.40659141229E+02  0.00000000000E+00 0. -1.
         11    1    4    4    0    0 -0.48469075401E+01 -0.18708049635E+01 -0.10622876422E+01  0.53029123328E+01  0.51100000000E-03 0. -1.
        -11    1    4    4    0    0 -0.26536335092E+01 -0.78078230628E+01 -0.28717908645E+02  0.29878456269E+02  0.51100000000E-03 0.  1.
         12    1    4    4    0    0  0.91226118266E+01  0.61612644811E+01 -0.10694027677E+02  0.15347490170E+02  0.00000000000E+00 0. -1.
</event>
<event>
 8    1  0.1859748E-013  0.9118800E+02  0.7816164E-02  0.1184000E+00
        -11   -1    0    0    0    0  0.00000000000E+00  0.00000000000E+00  0.45593999997E+02  0.45594000000E+02  0.51100000000E-03 0. -1.
         11   -1    0    0    0    0 -0.00000000000E+00 -0.00000000000E+00 -0.45593999997E+02  0.45594000000E+02  0.51100000000E-03 0.  1.
         23    2    1    2    0    0  0.00000000000E+00  0.00000000000E+00  0.00000000000E+00  0.91188000000E+02  0.91188000000E+02 0.  0.
    9900012    2    3    3    0    0 -0.22418087505E+02 -0.54281927958E+01 -0.33483276661E+02  0.50528859080E+02  0.29999997660E+02 0.  0.
         12    1    3    3    0    0  0.22418087505E+02  0.54281927958E+01  0.33483276661E+02  0.40659140920E+02  0.00000000000E+00 0. -1.
         11    1    4    4    0    0 -0.14328289629E+02 -0.94011044304E+01 -0.15691363246E+02  0.23235738184E+02  0.51100000000E-03 0. -1.
        -11    1    4    4    0    0 -0.12149721245E+02  0.77967822249E+01 -0.15721312953E+02  0.21343973871E+02  0.51100000000E-03 0.  1.
         12    1    4    4    0    0  0.40599233683E+01 -0.38238705903E+01 -0.20706004620E+01  0.59491470246E+01  0.00000000000E+00 0. -1.
</event>
<event>
 8    1  0.9870402E-014  0.9118800E+02  0.7816164E-02  0.1184000E+00
        -11   -1    0    0    0    0  0.00000000000E+00  0.00000000000E+00  0.45593999997E+02  0.45594000000E+02  0.51100000000E-03 0. -1.
         11   -1    0    0    0    0 -0.00000000000E+00 -0.00000000000E+00 -0.45593999997E+02  0.45594000000E+02  0.51100000000E-03 0.  1.
         23    2    1    2    0    0 -0.17763568394E-14 -0.17763568394E-14  0.00000000000E+00  0.91188000000E+02  0.91188000000E+02 0.  0.
    9900012    2    3    3    0    0  0.85013747655E+01 -0.45564286910E+01 -0.39498516332E+02  0.50528841035E+02  0.29999942810E+02 0.  0.
         12    1    3    3    0    0 -0.85013747655E+01  0.45564286910E+01  0.39498516332E+02  0.40659158965E+02  0.00000000000E+00 0. -1.
         11    1    4    4    0    0 -0.80052648089E+00 -0.29433916167E+00  0.14238835404E+01  0.16597960075E+01  0.51100000000E-03 0. -1.
        -11    1    4    4    0    0  0.52444695253E+00  0.86713946721E+01 -0.58559111181E+01  0.10476632353E+02  0.51100000000E-03 0.  1.
        -12    1    4    4    0    0  0.87774542938E+01 -0.12933484201E+02 -0.35066488754E+02  0.38392412675E+02  0.00000000000E+00 0.  1.
</event>
<event>
 8    1  0.9870402E-014  0.9118800E+02  0.7816164E-02  0.1184000E+00
        -11   -1    0    0    0    0  0.00000000000E+00  0.00000000000E+00  0.45593999997E+02  0.45594000000E+02  0.51100000000E-03 0. -1.
         11   -1    0    0    0    0 -0.00000000000E+00 -0.00000000000E+00 -0.45593999997E+02  0.45594000000E+02  0.51100000000E-03 0.  1.
         23    2    1    2    0    0  0.00000000000E+00 -0.17763568394E-14  0.00000000000E+00  0.91188000000E+02  0.91188000000E+02 0.  0.
    9900012    2    3    3    0    0 -0.27987954608E+02  0.12416501535E+02  0.26752112503E+02  0.50528798865E+02  0.29999814631E+02 0.  0.
        -12    1    3    3    0    0  0.27987954608E+02 -0.12416501535E+02 -0.26752112503E+02  0.40659201135E+02  0.00000000000E+00 0.  1.
         11    1    4    4    0    0 -0.18163430312E+02  0.95658016644E+01  0.18908603804E+02  0.27909676821E+02  0.51100000000E-03 0. -1.
        -11    1    4    4    0    0 -0.69421983400E+01  0.71031815484E+01 -0.32034582124E+01  0.10436064904E+02  0.51100000000E-03 0.  1.
         12    1    4    4    0    0 -0.28823259563E+01 -0.42524816774E+01  0.11046966912E+02  0.12183057141E+02  0.00000000000E+00 0. -1.
</event>
<event>
 8    1  0.9870402E-014  0.9118800E+02  0.7816164E-02  0.1184000E+00
        -11   -1    0    0    0    0  0.00000000000E+00  0.00000000000E+00  0.45593999997E+02  0.45594000000E+02  0.51100000000E-03 0. -1.
         11   -1    0    0    0    0 -0.00000000000E+00 -0.00000000000E+00 -0.45593999997E+02  0.45594000000E+02  0.51100000000E-03 0.  1.
         23    2    1    2    0    0 -0.17763568394E-14  0.35527136788E-14  0.00000000000E+00  0.91188000000E+02  0.91188000000E+02 0.  0.
    9900012    2    3    3    0    0 -0.12408729709E+02  0.22935831187E+02 -0.31195154263E+02  0.50528848819E+02  0.29999966472E+02 0.  0.
         12    1    3    3    0    0  0.12408729709E+02 -0.22935831187E+02  0.31195154263E+02  0.40659151181E+02  0.00000000000E+00 0. -1.
         11    1    4    4    0    0 -0.10035698626E+01 -0.41633012450E+01  0.16513657300E+01  0.45899061822E+01  0.51100000000E-03 0. -1.
        -11    1    4    4    0    0  0.20684988771E+01  0.97354118599E+01 -0.12598415387E+02  0.16055435286E+02  0.51100000000E-03 0.  1.
        -12    1    4    4    0    0 -0.13473658724E+02  0.17363720572E+02 -0.20248104605E+02  0.29883507352E+02  0.00000000000E+00 0.  1.
</event>
<event>
 8    1  0.9870402E-014  0.9118800E+02  0.7816164E-02  0.1184000E+00
        -11   -1    0    0    0    0  0.00000000000E+00  0.00000000000E+00  0.45593999997E+02  0.45594000000E+02  0.51100000000E-03 0. -1.
         11   -1    0    0    0    0 -0.00000000000E+00 -0.00000000000E+00 -0.45593999997E+02  0.45594000000E+02  0.51100000000E-03 0.  1.
         23    2    1    2    0    0 -0.71054273576E-14  0.17763568394E-14 -0.71054273576E-14  0.91188000000E+02  0.91188000000E+02 0.  0.
    9900012    2    3    3    0    0  0.32743428909E+02 -0.79186221289E+01  0.22766847135E+02  0.50528855376E+02  0.29999986401E+02 0.  0.
        -12    1    3    3    0    0 -0.32743428909E+02  0.79186221289E+01 -0.22766847135E+02  0.40659144624E+02  0.00000000000E+00 0.  1.
         11    1    4    4    0    0  0.77921796070E+01  0.64197301243E+01  0.33161391166E+01  0.10626748176E+02  0.51100000000E-03 0. -1.
        -11    1    4    4    0    0  0.81871728559E+01 -0.43431909361E+01 -0.33807737266E+01  0.98652287420E+01  0.51100000000E-03 0.  1.
         12    1    4    4    0    0  0.16764076446E+02 -0.99951613171E+01  0.22831481745E+02  0.30036878458E+02  0.00000000000E+00 0. -1.
</event>
<event>
 8    1  0.9870402E-014  0.9118800E+02  0.7816164E-02  0.1184000E+00
        -11   -1    0    0    0    0  0.00000000000E+00  0.00000000000E+00  0.45593999997E+02  0.45594000000E+02  0.51100000000E-03 0. -1.
         11   -1    0    0    0    0 -0.00000000000E+00 -0.00000000000E+00 -0.45593999997E+02  0.45594000000E+02  0.51100000000E-03 0.  1.
         23    2    1    2    0    0  0.00000000000E+00  0.00000000000E+00  0.00000000000E+00  0.91188000000E+02  0.91188000000E+02 0.  0.
    9900012    2    3    3    0    0 -0.97517217280E+01 -0.17251749459E+02 -0.35502768916E+02  0.50528861584E+02  0.30000005270E+02 0.  0.
         12    1    3    3    0    0  0.97517217280E+01  0.17251749459E+02  0.35502768916E+02  0.40659138416E+02  0.00000000000E+00 0. -1.
         11    1    4    4    0    0 -0.33195343684E+01 -0.89713874642E+01  0.90468716816E+00  0.96085150044E+01  0.51100000000E-03 0. -1.
        -11    1    4    4    0    0 -0.68207040562E+01 -0.41705272815E+00 -0.48092760253E+01  0.83561398354E+01  0.51100000000E-03 0.  1.
         12    1    4    4    0    0  0.38851669657E+00 -0.78633092662E+01 -0.31598180059E+02  0.32564206744E+02  0.00000000000E+00 0. -1.
</event>
<event>
 8    1  0.9870402E-014  0.9118800E+02  0.7816164E-02  0.1184000E+00
        -11   -1    0    0    0    0  0.00000000000E+00  0.00000000000E+00  0.45593999997E+02  0.45594000000E+02  0.51100000000E-03 0. -1.
         11   -1    0    0    0    0 -0.00000000000E+00 -0.00000000000E+00 -0.45593999997E+02  0.45594000000E+02  0.51100000000E-03 0.  1.
         23    2    1    2    0    0  0.66613381478E-15 -0.35527136788E-14 -0.35527136788E-14  0.91188000000E+02  0.91188000000E+02 0.  0.
    9900012    2    3    3    0    0  0.46187658848E+00 -0.29222889081E+02  0.28266150954E+02  0.50528857535E+02  0.29999992963E+02 0.  0.
        -12    1    3    3    0    0 -0.46187658848E+00  0.29222889081E+02 -0.28266150954E+02  0.40659142465E+02  0.00000000000E+00 0.  1.
         11    1    4    4    0    0  0.12302615554E+01 -0.15837567218E+02  0.10166645367E+02  0.18860083699E+02  0.51100000000E-03 0. -1.
        -11    1    4    4    0    0 -0.11336277438E+02 -0.53809656887E+01  0.69383696851E+01  0.14339001082E+02  0.51100000000E-03 0.  1.
         12    1    4    4    0    0  0.10567892471E+02 -0.80043561749E+01  0.11161135902E+02  0.17329772753E+02  0.00000000000E+00 0. -1.
</event>
<event>
 8    1  0.9870402E-014  0.9118800E+02  0.7816164E-02  0.1184000E+00
        -11   -1    0    0    0    0  0.00000000000E+00  0.00000000000E+00  0.45593999997E+02  0.45594000000E+02  0.51100000000E-03 0. -1.
         11   -1    0    0    0    0 -0.00000000000E+00 -0.00000000000E+00 -0.45593999997E+02  0.45594000000E+02  0.51100000000E-03 0.  1.
         23    2    1    2    0    0  0.35527136788E-14  0.00000000000E+00  0.35527136788E-14  0.91188000000E+02  0.91188000000E+02 0.  0.
    9900012    2    3    3    0    0 -0.25561940947E+02 -0.14598467920E+02 -0.28047055611E+02  0.50528863031E+02  0.30000009670E+02 0.  0.
         12    1    3    3    0    0  0.25561940947E+02  0.14598467920E+02  0.28047055611E+02  0.40659136969E+02  0.00000000000E+00 0. -1.
         11    1    4    4    0    0 -0.99323094661E+01 -0.52845181343E+00  0.30608033713E+00  0.99510661782E+01  0.51100000000E-03 0. -1.
        -11    1    4    4    0    0 -0.47462517054E+01  0.50917777283E+01 -0.76214798554E+01  0.10321824506E+02  0.51100000000E-03 0.  1.
        -12    1    4    4    0    0 -0.10883379775E+02 -0.19161793835E+02 -0.20731656093E+02  0.30255972347E+02  0.00000000000E+00 0.  1.
</event>
<event>
 8    1  0.9870402E-014  0.9118800E+02  0.7816164E-02  0.1184000E+00
        -11   -1    0    0    0    0  0.00000000000E+00  0.00000000000E+00  0.45593999997E+02  0.45594000000E+02  0.51100000000E-03 0. -1.
         11   -1    0    0    0    0 -0.00000000000E+00 -0.00000000000E+00 -0.45593999997E+02  0.45594000000E+02  0.51100000000E-03 0.  1.
         23    2    1    2    0    0  0.00000000000E+00  0.00000000000E+00  0.71054273576E-14  0.91188000000E+02  0.91188000000E+02 0.  0.
    9900012    2    3    3    0    0  0.17677988978E+02  0.79904807147E+01 -0.35732434629E+02  0.50528856368E+02  0.29999989418E+02 0.  0.
         12    1    3    3    0    0 -0.17677988978E+02 -0.79904807147E+01  0.35732434629E+02  0.40659143632E+02  0.00000000000E+00 0. -1.
         11    1    4    4    0    0  0.68816614599E+01  0.65920565967E+01  0.17258187578E+01  0.96845715067E+01  0.51100000000E-03 0. -1.
        -11    1    4    4    0    0 -0.18830775809E+01 -0.18692859575E+01 -0.31279875892E+01  0.41017700796E+01  0.51100000000E-03 0.  1.
         12    1    4    4    0    0  0.12679405099E+02  0.32677100755E+01 -0.34330265797E+02  0.36742514782E+02  0.00000000000E+00 0. -1.
</event>
<event>
 8    1  0.9870402E-014  0.9118800E+02  0.7816164E-02  0.1184000E+00
        -11   -1    0    0    0    0  0.00000000000E+00  0.00000000000E+00  0.45593999997E+02  0.45594000000E+02  0.51100000000E-03 0. -1.
         11   -1    0    0    0    0 -0.00000000000E+00 -0.00000000000E+00 -0.45593999997E+02  0.45594000000E+02  0.51100000000E-03 0.  1.
         23    2    1    2    0    0  0.00000000000E+00  0.00000000000E+00  0.71054273576E-14  0.91188000000E+02  0.91188000000E+02 0.  0.
    9900012    2    3    3    0    0 -0.13788615860E+02 -0.17920958969E+02  0.33791708772E+02  0.50528852451E+02  0.29999977509E+02 0.  0.
        -12    1    3    3    0    0  0.13788615860E+02  0.17920958969E+02 -0.33791708772E+02  0.40659147549E+02  0.00000000000E+00 0.  1.
         11    1    4    4    0    0 -0.69701432573E+00 -0.53791462457E+01  0.23597777987E+02  0.24213140430E+02  0.51100000000E-03 0. -1.
        -11    1    4    4    0    0 -0.16206449214E+01  0.84433924832E+00 -0.35298668125E+01  0.39748407141E+01  0.51100000000E-03 0.  1.
        -12    1    4    4    0    0 -0.11470956613E+02 -0.13386151972E+02  0.13723797597E+02  0.22340871306E+02  0.00000000000E+00 0.  1.
</event>
<event>
 8    1  0.9870402E-014  0.9118800E+02  0.7816164E-02  0.1184000E+00
        -11   -1    0    0    0    0  0.00000000000E+00  0.00000000000E+00  0.45593999997E+02  0.45594000000E+02  0.51100000000E-03 0. -1.
         11   -1    0    0    0    0 -0.00000000000E+00 -0.00000000000E+00 -0.45593999997E+02  0.45594000000E+02  0.51100000000E-03 0.  1.
         23    2    1    2    0    0  0.35527136788E-14  0.00000000000E+00 -0.35527136788E-14  0.91188000000E+02  0.91188000000E+02 0.  0.
    9900012    2    3    3    0    0 -0.24474738122E+02 -0.12645782502E+02  0.29903818252E+02  0.50528843992E+02  0.29999951798E+02 0.  0.
        -12    1    3    3    0    0  0.24474738122E+02  0.12645782502E+02 -0.29903818252E+02  0.40659156008E+02  0.00000000000E+00 0.  1.
         11    1    4    4    0    0  0.23965577092E+01 -0.37196092105E+01  0.83671274994E+01  0.94650834325E+01  0.51100000000E-03 0. -1.
        -11    1    4    4    0    0 -0.14245318830E+02 -0.72477678192E+00 -0.61832715186E+00  0.14277140423E+02  0.51100000000E-03 0.  1.
         12    1    4    4    0    0 -0.12625977002E+02 -0.82013965096E+01  0.22155017904E+02  0.26786620136E+02  0.00000000000E+00 0. -1.
</event>
<event>
 8    1  0.9870402E-014  0.9118800E+02  0.7816164E-02  0.1184000E+00
        -11   -1    0    0    0    0  0.00000000000E+00  0.00000000000E+00  0.45593999997E+02  0.45594000000E+02  0.51100000000E-03 0. -1.
         11   -1    0    0    0    0 -0.00000000000E+00 -0.00000000000E+00 -0.45593999997E+02  0.45594000000E+02  0.51100000000E-03 0.  1.
         23    2    1    2    0    0 -0.35527136788E-14  0.17763568394E-14  0.00000000000E+00  0.91188000000E+02  0.91188000000E+02 0.  0.
    9900012    2    3    3    0    0 -0.31274026489E+02  0.95725760286E+01  0.24155062191E+02  0.50528856206E+02  0.29999988923E+02 0.  0.
        -12    1    3    3    0    0  0.31274026489E+02 -0.95725760286E+01 -0.24155062191E+02  0.40659143794E+02  0.00000000000E+00 0.  1.
         11    1    4    4    0    0 -0.74865311004E+01  0.89617222674E+01  0.11208799665E+02  0.16186346225E+02  0.51100000000E-03 0. -1.
        -11    1    4    4    0    0  0.58032728662E+00 -0.38910166142E+01  0.82238088893E+01  0.91163492123E+01  0.51100000000E-03 0.  1.
         12    1    4    4    0    0 -0.24367822675E+02  0.45018703754E+01  0.47224536368E+01  0.25226160769E+02  0.00000000000E+00 0. -1.
</event>
<event>
 8    1  0.9870402E-014  0.9118800E+02  0.7816164E-02  0.1184000E+00
        -11   -1    0    0    0    0  0.00000000000E+00  0.00000000000E+00  0.45593999997E+02  0.45594000000E+02  0.51100000000E-03 0. -1.
         11   -1    0    0    0    0 -0.00000000000E+00 -0.00000000000E+00 -0.45593999997E+02  0.45594000000E+02  0.51100000000E-03 0.  1.
         23    2    1    2    0    0 -0.71054273576E-14 -0.88817841970E-15  0.00000000000E+00  0.91188000000E+02  0.91188000000E+02 0.  0.
    9900012    2    3    3    0    0 -0.31665874460E+02  0.29069889490E+01  0.25337466220E+02  0.50528863456E+02  0.30000010961E+02 0.  0.
        -12    1    3    3    0    0  0.31665874460E+02 -0.29069889490E+01 -0.25337466220E+02  0.40659136544E+02  0.00000000000E+00 0.  1.
         11    1    4    4    0    0 -0.12372692400E+02 -0.81257485967E+01  0.20458105707E+02  0.25251641469E+02  0.51100000000E-03 0. -1.
        -11    1    4    4    0    0 -0.49267245656E+01  0.16667964506E+01  0.61809937358E+01  0.80780882129E+01  0.51100000000E-03 0.  1.
        -12    1    4    4    0    0 -0.14366457494E+02  0.93659410951E+01 -0.13016332230E+01  0.17199133774E+02  0.00000000000E+00 0.  1.
</event>
<event>
 8    1  0.9870402E-014  0.9118800E+02  0.7816164E-02  0.1184000E+00
        -11   -1    0    0    0    0  0.00000000000E+00  0.00000000000E+00  0.45593999997E+02  0.45594000000E+02  0.51100000000E-03 0. -1.
         11   -1    0    0    0    0 -0.00000000000E+00 -0.00000000000E+00 -0.45593999997E+02  0.45594000000E+02  0.51100000000E-03 0.  1.
         23    2    1    2    0    0  0.17763568394E-14  0.00000000000E+00  0.00000000000E+00  0.91188000000E+02  0.91188000000E+02 0.  0.
    9900012    2    3    3    0    0  0.12755477240E+02 -0.11175370730E+02  0.36953695380E+02  0.50528847121E+02  0.29999961310E+02 0.  0.
        -12    1    3    3    0    0 -0.12755477240E+02  0.11175370730E+02 -0.36953695380E+02  0.40659152879E+02  0.00000000000E+00 0.  1.
         11    1    4    4    0    0  0.23132987250E+01  0.35863717288E+01  0.62373122736E+01  0.75576105899E+01  0.51100000000E-03 0. -1.
        -11    1    4    4    0    0  0.14877682832E+02 -0.70122215165E+01  0.29745028461E+02  0.33989460358E+02  0.51100000000E-03 0.  1.
        -12    1    4    4    0    0 -0.44355043171E+01 -0.77495209420E+01  0.97135464520E+00  0.89817761732E+01  0.00000000000E+00 0.  1.
</event>
<event>
 8    1  0.9870402E-014  0.9118800E+02  0.7816164E-02  0.1184000E+00
        -11   -1    0    0    0    0  0.00000000000E+00  0.00000000000E+00  0.45593999997E+02  0.45594000000E+02  0.51100000000E-03 0. -1.
         11   -1    0    0    0    0 -0.00000000000E+00 -0.00000000000E+00 -0.45593999997E+02  0.45594000000E+02  0.51100000000E-03 0.  1.
         23    2    1    2    0    0  0.35527136788E-14  0.00000000000E+00  0.00000000000E+00  0.91188000000E+02  0.91188000000E+02 0.  0.
    9900012    2    3    3    0    0 -0.17130852680E+02  0.24641251289E+02 -0.27431887653E+02  0.50528857869E+02  0.29999993979E+02 0.  0.
         12    1    3    3    0    0  0.17130852680E+02 -0.24641251289E+02  0.27431887653E+02  0.40659142131E+02  0.00000000000E+00 0. -1.
         11    1    4    4    0    0  0.75193954385E+00  0.97450678231E+01 -0.27656339658E+01  0.10157779848E+02  0.51100000000E-03 0. -1.
        -11    1    4    4    0    0  0.19845027217E+01 -0.19069171281E+01 -0.10272948455E+02  0.10635227040E+02  0.51100000000E-03 0.  1.
        -12    1    4    4    0    0 -0.19867294945E+02  0.16803100594E+02 -0.14393305232E+02  0.29735850980E+02  0.00000000000E+00 0.  1.
</event>
<event>
 8    1  0.9870402E-014  0.9118800E+02  0.7816164E-02  0.1184000E+00
        -11   -1    0    0    0    0  0.00000000000E+00  0.00000000000E+00  0.45593999997E+02  0.45594000000E+02  0.51100000000E-03 0. -1.
         11   -1    0    0    0    0 -0.00000000000E+00 -0.00000000000E+00 -0.45593999997E+02  0.45594000000E+02  0.51100000000E-03 0.  1.
         23    2    1    2    0    0  0.00000000000E+00  0.17763568394E-14  0.00000000000E+00  0.91188000000E+02  0.91188000000E+02 0.  0.
    9900012    2    3    3    0    0 -0.17928237144E+02  0.71599108441E+01 -0.35783787092E+02  0.50528862909E+02  0.30000009297E+02 0.  0.
         12    1    3    3    0    0  0.17928237144E+02 -0.71599108441E+01  0.35783787092E+02  0.40659137091E+02  0.00000000000E+00 0. -1.
         11    1    4    4    0    0  0.55899431033E+00 -0.45754375486E+00  0.17592709102E+01  0.19018031768E+01  0.51100000000E-03 0. -1.
        -11    1    4    4    0    0 -0.15140733759E+02  0.10006678099E+02 -0.98871579761E+01  0.20667155548E+02  0.51100000000E-03 0.  1.
        -12    1    4    4    0    0 -0.33464976957E+01 -0.23892234995E+01 -0.27655900026E+02  0.27959904184E+02  0.00000000000E+00 0.  1.
</event>
<event>
 8    1  0.9870402E-014  0.9118800E+02  0.7816164E-02  0.1184000E+00
        -11   -1    0    0    0    0  0.00000000000E+00  0.00000000000E+00  0.45593999997E+02  0.45594000000E+02  0.51100000000E-03 0. -1.
         11   -1    0    0    0    0 -0.00000000000E+00 -0.00000000000E+00 -0.45593999997E+02  0.45594000000E+02  0.51100000000E-03 0.  1.
         23    2    1    2    0    0  0.17763568394E-14  0.71054273576E-14  0.71054273576E-14  0.91188000000E+02  0.91188000000E+02 0.  0.
    9900012    2    3    3    0    0  0.22047978170E+01  0.22814311967E+02  0.33582883005E+02  0.50528880545E+02  0.30000062906E+02 0.  0.
        -12    1    3    3    0    0 -0.22047978170E+01 -0.22814311967E+02 -0.33582883005E+02  0.40659119455E+02  0.00000000000E+00 0.  1.
         11    1    4    4    0    0 -0.70402190676E+01  0.89798029846E+01  0.67012438806E+01  0.13232846102E+02  0.51100000000E-03 0. -1.
        -11    1    4    4    0    0 -0.47512371703E-01 -0.33402481365E+01  0.12779291351E+02  0.13208701781E+02  0.51100000000E-03 0.  1.
        -12    1    4    4    0    0  0.92925292563E+01  0.17174757119E+02  0.14102347773E+02  0.24087332662E+02  0.00000000000E+00 0.  1.
</event>
<event>
 8    1  0.9870402E-014  0.9118800E+02  0.7816164E-02  0.1184000E+00
        -11   -1    0    0    0    0  0.00000000000E+00  0.00000000000E+00  0.45593999997E+02  0.45594000000E+02  0.51100000000E-03 0.  1.
         11   -1    0    0    0    0 -0.00000000000E+00 -0.00000000000E+00 -0.45593999997E+02  0.45594000000E+02  0.51100000000E-03 0. -1.
         23    2    1    2    0    0 -0.88817841970E-15  0.00000000000E+00  0.35527136788E-14  0.91188000000E+02  0.91188000000E+02 0.  0.
    9900012    2    3    3    0    0  0.53336355256E+01 -0.34344370828E+02 -0.21099344704E+02  0.50528858071E+02  0.29999994592E+02 0.  0.
         12    1    3    3    0    0 -0.53336355256E+01  0.34344370828E+02  0.21099344704E+02  0.40659141929E+02  0.00000000000E+00 0. -1.
         11    1    4    4    0    0  0.28524598871E+01 -0.60762789072E+01  0.22207519336E+01  0.70703205145E+01  0.51100000000E-03 0. -1.
        -11    1    4    4    0    0 -0.74694957468E+01 -0.16666384965E+01 -0.19012633307E+01  0.78858007268E+01  0.51100000000E-03 0.  1.
        -12    1    4    4    0    0  0.99506713853E+01 -0.26601453424E+02 -0.21418833307E+02  0.35572736829E+02  0.00000000000E+00 0.  1.
</event>
<event>
 8    1  0.9870402E-014  0.9118800E+02  0.7816164E-02  0.1184000E+00
        -11   -1    0    0    0    0  0.00000000000E+00  0.00000000000E+00  0.45593999997E+02  0.45594000000E+02  0.51100000000E-03 0. -1.
         11   -1    0    0    0    0 -0.00000000000E+00 -0.00000000000E+00 -0.45593999997E+02  0.45594000000E+02  0.51100000000E-03 0.  1.
         23    2    1    2    0    0  0.88817841970E-15  0.00000000000E+00  0.00000000000E+00  0.91188000000E+02  0.91188000000E+02 0.  0.
    9900012    2    3    3    0    0  0.63898794671E+01 -0.21884125022E+02  0.33666290452E+02  0.50528873099E+02  0.30000040272E+02 0.  0.
        -12    1    3    3    0    0 -0.63898794671E+01  0.21884125022E+02 -0.33666290452E+02  0.40659126901E+02  0.00000000000E+00 0.  1.
         11    1    4    4    0    0  0.82527161430E+01 -0.79658244231E+01  0.60372554522E+01  0.12961872401E+02  0.51100000000E-03 0. -1.
        -11    1    4    4    0    0 -0.17879604172E+01  0.43921349105E+01  0.13884000313E+02  0.14671506960E+02  0.51100000000E-03 0.  1.
         12    1    4    4    0    0 -0.74876258769E-01 -0.18310435509E+02  0.13745034687E+02  0.22895493738E+02  0.00000000000E+00 0. -1.
</event>
<event>
 8    1  0.9870402E-014  0.9118800E+02  0.7816164E-02  0.1184000E+00
        -11   -1    0    0    0    0  0.00000000000E+00  0.00000000000E+00  0.45593999997E+02  0.45594000000E+02  0.51100000000E-03 0. -1.
         11   -1    0    0    0    0 -0.00000000000E+00 -0.00000000000E+00 -0.45593999997E+02  0.45594000000E+02  0.51100000000E-03 0.  1.
         23    2    1    2    0    0  0.88817841970E-15  0.00000000000E+00 -0.35527136788E-14  0.91188000000E+02  0.91188000000E+02 0.  0.
    9900012    2    3    3    0    0 -0.77832255953E+01 -0.36405546730E+02 -0.16346987982E+02  0.50528850360E+02  0.29999971153E+02 0.  0.
         12    1    3    3    0    0  0.77832255953E+01  0.36405546730E+02  0.16346987982E+02  0.40659149640E+02  0.00000000000E+00 0. -1.
         11    1    4    4    0    0  0.15343464012E+01 -0.17732153988E+02  0.38576045608E+01  0.18211661570E+02  0.51100000000E-03 0. -1.
        -11    1    4    4    0    0  0.25462292593E+01 -0.91695823263E+01 -0.11005287177E+02  0.14549256668E+02  0.51100000000E-03 0.  1.
        -12    1    4    4    0    0 -0.11863801256E+02 -0.95038104156E+01 -0.91993053666E+01  0.17767932122E+02  0.00000000000E+00 0.  1.
</event>
<event>
 8    1  0.9870402E-014  0.9118800E+02  0.7816164E-02  0.1184000E+00
        -11   -1    0    0    0    0  0.00000000000E+00  0.00000000000E+00  0.45593999997E+02  0.45594000000E+02  0.51100000000E-03 0. -1.
         11   -1    0    0    0    0 -0.00000000000E+00 -0.00000000000E+00 -0.45593999997E+02  0.45594000000E+02  0.51100000000E-03 0.  1.
         23    2    1    2    0    0  0.17763568394E-14  0.35527136788E-14  0.00000000000E+00  0.91188000000E+02  0.91188000000E+02 0.  0.
    9900012    2    3    3    0    0 -0.10534920849E+02 -0.26442733978E+02 -0.29033821827E+02  0.50528861453E+02  0.30000004872E+02 0.  0.
         12    1    3    3    0    0  0.10534920849E+02  0.26442733978E+02  0.29033821827E+02  0.40659138547E+02  0.00000000000E+00 0. -1.
         11    1    4    4    0    0  0.90172321393E+00  0.26811094139E+01  0.12526894127E+01  0.30936521249E+01  0.51100000000E-03 0. -1.
        -11    1    4    4    0    0 -0.54807180134E+01  0.11853372312E+01 -0.50920199516E+01  0.75744281462E+01  0.51100000000E-03 0.  1.
        -12    1    4    4    0    0 -0.59559260493E+01 -0.30309180623E+02 -0.25194491288E+02  0.39860781182E+02  0.00000000000E+00 0.  1.
</event>
<event>
 8    1  0.1084848E-013  0.9118800E+02  0.7816164E-02  0.1184000E+00
        -11   -1    0    0    0    0  0.00000000000E+00  0.00000000000E+00  0.45593999997E+02  0.45594000000E+02  0.51100000000E-03 0. -1.
         11   -1    0    0    0    0 -0.00000000000E+00 -0.00000000000E+00 -0.45593999997E+02  0.45594000000E+02  0.51100000000E-03 0.  1.
         23    2    1    2    0    0  0.00000000000E+00  0.00000000000E+00  0.35527136788E-14  0.91188000000E+02  0.91188000000E+02 0.  0.
    9900012    2    3    3    0    0  0.33618810283E+02  0.14346817241E+02 -0.17807561555E+02  0.50528870418E+02  0.30000032124E+02 0.  0.
         12    1    3    3    0    0 -0.33618810283E+02 -0.14346817241E+02  0.17807561555E+02  0.40659129582E+02  0.00000000000E+00 0. -1.
         11    1    4    4    0    0 -0.17351162185E+01 -0.20670308557E+01 -0.41231443069E+01  0.49278356392E+01  0.51100000000E-03 0.  1.
        -11    1    4    4    0    0  0.29039323979E+02  0.16017491903E+02 -0.18198342415E+02  0.37828852097E+02  0.51100000000E-03 0. -1.
         12    1    4    4    0    0  0.63146025220E+01  0.39635619393E+00  0.45139251667E+01  0.77721826828E+01  0.00000000000E+00 0. -1.
</event>
<event>
 8    1  0.9870402E-014  0.9118800E+02  0.7816164E-02  0.1184000E+00
        -11   -1    0    0    0    0  0.00000000000E+00  0.00000000000E+00  0.45593999997E+02  0.45594000000E+02  0.51100000000E-03 0. -1.
         11   -1    0    0    0    0 -0.00000000000E+00 -0.00000000000E+00 -0.45593999997E+02  0.45594000000E+02  0.51100000000E-03 0.  1.
         23    2    1    2    0    0  0.00000000000E+00  0.44408920985E-15  0.71054273576E-14  0.91188000000E+02  0.91188000000E+02 0.  0.
    9900012    2    3    3    0    0  0.17057414225E+02 -0.32845598260E+01 -0.36761694789E+02  0.50528856907E+02  0.29999991056E+02 0.  0.
         12    1    3    3    0    0 -0.17057414225E+02  0.32845598260E+01  0.36761694789E+02  0.40659143093E+02  0.00000000000E+00 0. -1.
         11    1    4    4    0    0  0.12813768107E+02 -0.12255878027E+02 -0.12195435958E+02  0.21520405614E+02  0.51100000000E-03 0. -1.
        -11    1    4    4    0    0 -0.62532303267E-01 -0.23211202527E+01 -0.90370256004E+01  0.93305595481E+01  0.51100000000E-03 0.  1.
         12    1    4    4    0    0  0.43061784215E+01  0.11292438454E+02 -0.15529233230E+02  0.19677891745E+02  0.00000000000E+00 0. -1.
</event>
<event>
 8    1  0.9870402E-014  0.9118800E+02  0.7816164E-02  0.1184000E+00
        -11   -1    0    0    0    0  0.00000000000E+00  0.00000000000E+00  0.45593999997E+02  0.45594000000E+02  0.51100000000E-03 0. -1.
         11   -1    0    0    0    0 -0.00000000000E+00 -0.00000000000E+00 -0.45593999997E+02  0.45594000000E+02  0.51100000000E-03 0.  1.
         23    2    1    2    0    0  0.11102230246E-15  0.00000000000E+00  0.00000000000E+00  0.91188000000E+02  0.91188000000E+02 0.  0.
    9900012    2    3    3    0    0 -0.60987597463E+00  0.19292089170E+02  0.35785601320E+02  0.50528856931E+02  0.29999991129E+02 0.  0.
        -12    1    3    3    0    0  0.60987597463E+00 -0.19292089170E+02 -0.35785601320E+02  0.40659143069E+02  0.00000000000E+00 0.  1.
         11    1    4    4    0    0 -0.76681564650E+00  0.53655112025E+01 -0.88562666102E-01  0.54207527436E+01  0.51100000000E-03 0. -1.
        -11    1    4    4    0    0 -0.58211935196E+00 -0.28457889630E+01 -0.21026374501E+01  0.35858698066E+01  0.51100000000E-03 0.  1.
         12    1    4    4    0    0  0.73905902383E+00  0.16772366930E+02  0.37976801436E+02  0.41522234381E+02  0.00000000000E+00 0. -1.
</event>
<event>
 8    1  0.9870402E-014  0.9118800E+02  0.7816164E-02  0.1184000E+00
        -11   -1    0    0    0    0  0.00000000000E+00  0.00000000000E+00  0.45593999997E+02  0.45594000000E+02  0.51100000000E-03 0. -1.
         11   -1    0    0    0    0 -0.00000000000E+00 -0.00000000000E+00 -0.45593999997E+02  0.45594000000E+02  0.51100000000E-03 0.  1.
         23    2    1    2    0    0  0.00000000000E+00  0.35527136788E-14  0.00000000000E+00  0.91188000000E+02  0.91188000000E+02 0.  0.
    9900012    2    3    3    0    0 -0.11116643132E+02 -0.21010411124E+02  0.32987105428E+02  0.50528852756E+02  0.29999978436E+02 0.  0.
        -12    1    3    3    0    0  0.11116643132E+02  0.21010411124E+02 -0.32987105428E+02  0.40659147244E+02  0.00000000000E+00 0.  1.
         11    1    4    4    0    0 -0.85996568303E+01 -0.50681010068E+01  0.18278016656E+02  0.20826080730E+02  0.51100000000E-03 0. -1.
        -11    1    4    4    0    0 -0.53241257094E+01 -0.19908968670E+02  0.98895393733E+01  0.22858616261E+02  0.51100000000E-03 0.  1.
         12    1    4    4    0    0  0.28071394076E+01  0.39666585533E+01  0.48195493986E+01  0.68441557652E+01  0.00000000000E+00 0. -1.
</event>
<event>
 8    1  0.9870402E-014  0.9118800E+02  0.7816164E-02  0.1184000E+00
        -11   -1    0    0    0    0  0.00000000000E+00  0.00000000000E+00  0.45593999997E+02  0.45594000000E+02  0.51100000000E-03 0. -1.
         11   -1    0    0    0    0 -0.00000000000E+00 -0.00000000000E+00 -0.45593999997E+02  0.45594000000E+02  0.51100000000E-03 0.  1.
         23    2    1    2    0    0 -0.17763568394E-14  0.17763568394E-14 -0.71054273576E-14  0.91188000000E+02  0.91188000000E+02 0.  0.
    9900012    2    3    3    0    0 -0.13725257935E+02 -0.13203208772E+02 -0.35922949200E+02  0.50528859496E+02  0.29999998925E+02 0.  0.
         12    1    3    3    0    0  0.13725257935E+02  0.13203208772E+02  0.35922949200E+02  0.40659140504E+02  0.00000000000E+00 0. -1.
         11    1    4    4    0    0 -0.27242797444E+01  0.12807568519E+01 -0.19516554375E-01  0.30103852572E+01  0.51100000000E-03 0. -1.
        -11    1    4    4    0    0 -0.14228910354E+02 -0.52276049314E+01 -0.34411681361E+02  0.37602573816E+02  0.51100000000E-03 0.  1.
        -12    1    4    4    0    0  0.32279321635E+01 -0.92563606923E+01 -0.14917512844E+01  0.99159004237E+01  0.00000000000E+00 0.  1.
</event>
<event>
 8    1  0.9870402E-014  0.9118800E+02  0.7816164E-02  0.1184000E+00
        -11   -1    0    0    0    0  0.00000000000E+00  0.00000000000E+00  0.45593999997E+02  0.45594000000E+02  0.51100000000E-03 0. -1.
         11   -1    0    0    0    0 -0.00000000000E+00 -0.00000000000E+00 -0.45593999997E+02  0.45594000000E+02  0.51100000000E-03 0.  1.
         23    2    1    2    0    0  0.00000000000E+00 -0.88817841970E-15  0.00000000000E+00  0.91188000000E+02  0.91188000000E+02 0.  0.
    9900012    2    3    3    0    0 -0.32433734326E+02  0.53474213729E+01  0.23929562278E+02  0.50528856029E+02  0.29999988385E+02 0.  0.
        -12    1    3    3    0    0  0.32433734326E+02 -0.53474213729E+01 -0.23929562278E+02  0.40659143971E+02  0.00000000000E+00 0.  1.
         11    1    4    4    0    0 -0.20772524986E+02  0.58936821009E+01  0.56662625786E+01  0.22323526041E+02  0.51100000000E-03 0. -1.
        -11    1    4    4    0    0 -0.11194459097E+02 -0.73429476487E+01  0.71696057808E+01  0.15186771940E+02  0.51100000000E-03 0.  1.
         12    1    4    4    0    0 -0.46675024214E+00  0.67966869207E+01  0.11093693919E+02  0.13018558048E+02  0.00000000000E+00 0. -1.
</event>
<event>
 8    1  0.9870402E-014  0.9118800E+02  0.7816164E-02  0.1184000E+00
        -11   -1    0    0    0    0  0.00000000000E+00  0.00000000000E+00  0.45593999997E+02  0.45594000000E+02  0.51100000000E-03 0. -1.
         11   -1    0    0    0    0 -0.00000000000E+00 -0.00000000000E+00 -0.45593999997E+02  0.45594000000E+02  0.51100000000E-03 0.  1.
         23    2    1    2    0    0  0.00000000000E+00  0.00000000000E+00 -0.35527136788E-14  0.91188000000E+02  0.91188000000E+02 0.  0.
    9900012    2    3    3    0    0 -0.24069597579E+02 -0.17129413657E+02 -0.27935698824E+02  0.50528860700E+02  0.30000002583E+02 0.  0.
         12    1    3    3    0    0  0.24069597579E+02  0.17129413657E+02  0.27935698824E+02  0.40659139300E+02  0.00000000000E+00 0. -1.
         11    1    4    4    0    0 -0.63933037828E+01  0.51592732965E+01 -0.38393599200E+01  0.90682478497E+01  0.51100000000E-03 0. -1.
        -11    1    4    4    0    0 -0.43703653594E+01 -0.13176285806E+02 -0.18814089789E+01  0.14009079235E+02  0.51100000000E-03 0.  1.
         12    1    4    4    0    0 -0.13305928437E+02 -0.91124011476E+01 -0.22214929925E+02  0.27451533615E+02  0.00000000000E+00 0. -1.
</event>
<event>
 8    1  0.9870402E-014  0.9118800E+02  0.7816164E-02  0.1184000E+00
        -11   -1    0    0    0    0  0.00000000000E+00  0.00000000000E+00  0.45593999997E+02  0.45594000000E+02  0.51100000000E-03 0. -1.
         11   -1    0    0    0    0 -0.00000000000E+00 -0.00000000000E+00 -0.45593999997E+02  0.45594000000E+02  0.51100000000E-03 0.  1.
         23    2    1    2    0    0 -0.35527136788E-14 -0.88817841970E-15 -0.71054273576E-14  0.91188000000E+02  0.91188000000E+02 0.  0.
    9900012    2    3    3    0    0 -0.16583122727E+02 -0.74007856870E+01 -0.36378480883E+02  0.50528862533E+02  0.30000008156E+02 0.  0.
         12    1    3    3    0    0  0.16583122727E+02  0.74007856870E+01  0.36378480883E+02  0.40659137467E+02  0.00000000000E+00 0. -1.
         11    1    4    4    0    0 -0.10833592410E+02 -0.96923745431E+01 -0.92164867857E+01  0.17211986455E+02  0.51100000000E-03 0. -1.
        -11    1    4    4    0    0  0.25605527914E+01 -0.62136696357E+01 -0.58409216280E+01  0.89040713532E+01  0.51100000000E-03 0.  1.
         12    1    4    4    0    0 -0.83100831089E+01  0.85052584917E+01 -0.21321072470E+02  0.24412804725E+02  0.00000000000E+00 0. -1.
</event>
<event>
 8    1  0.9870402E-014  0.9118800E+02  0.7816164E-02  0.1184000E+00
        -11   -1    0    0    0    0  0.00000000000E+00  0.00000000000E+00  0.45593999997E+02  0.45594000000E+02  0.51100000000E-03 0.  1.
         11   -1    0    0    0    0 -0.00000000000E+00 -0.00000000000E+00 -0.45593999997E+02  0.45594000000E+02  0.51100000000E-03 0. -1.
         23    2    1    2    0    0  0.35527136788E-14  0.35527136788E-14 -0.17763568394E-14  0.91188000000E+02  0.91188000000E+02 0.  0.
    9900012    2    3    3    0    0 -0.31012310221E+02 -0.21062134235E+02  0.15741299125E+02  0.50528863487E+02  0.30000011056E+02 0.  0.
        -12    1    3    3    0    0  0.31012310221E+02  0.21062134235E+02 -0.15741299125E+02  0.40659136513E+02  0.00000000000E+00 0.  1.
         11    1    4    4    0    0  0.28477725172E+00 -0.12832262995E+02  0.41846198096E+01  0.13500337583E+02  0.51100000000E-03 0. -1.
        -11    1    4    4    0    0 -0.27971299874E+01  0.22019418265E+01  0.47319929412E+01  0.59215066859E+01  0.51100000000E-03 0.  1.
         12    1    4    4    0    0 -0.28499957485E+02 -0.10431813067E+02  0.68246863745E+01  0.31107019218E+02  0.00000000000E+00 0. -1.
</event>
<event>
 8    1  0.9870402E-014  0.9118800E+02  0.7816164E-02  0.1184000E+00
        -11   -1    0    0    0    0  0.00000000000E+00  0.00000000000E+00  0.45593999997E+02  0.45594000000E+02  0.51100000000E-03 0. -1.
         11   -1    0    0    0    0 -0.00000000000E+00 -0.00000000000E+00 -0.45593999997E+02  0.45594000000E+02  0.51100000000E-03 0.  1.
         23    2    1    2    0    0  0.35527136788E-14 -0.17763568394E-14  0.00000000000E+00  0.91188000000E+02  0.91188000000E+02 0.  0.
    9900012    2    3    3    0    0  0.22635908863E+02 -0.87593552713E+01  0.32619850586E+02  0.50528864162E+02  0.30000013108E+02 0.  0.
        -12    1    3    3    0    0 -0.22635908863E+02  0.87593552713E+01 -0.32619850586E+02  0.40659135838E+02  0.00000000000E+00 0.  1.
         11    1    4    4    0    0  0.19240080153E+01  0.43531187248E+00  0.10867906317E+02  0.11045482844E+02  0.51100000000E-03 0. -1.
        -11    1    4    4    0    0 -0.23564771690E+01 -0.95074357331E+01  0.52032415380E+01  0.11091349856E+02  0.51100000000E-03 0.  1.
        -12    1    4    4    0    0  0.23068378017E+02  0.31276858928E+00  0.16548702730E+02  0.28392031462E+02  0.00000000000E+00 0.  1.
</event>
<event>
 8    1  0.9870402E-014  0.9118800E+02  0.7816164E-02  0.1184000E+00
        -11   -1    0    0    0    0  0.00000000000E+00  0.00000000000E+00  0.45593999997E+02  0.45594000000E+02  0.51100000000E-03 0. -1.
         11   -1    0    0    0    0 -0.00000000000E+00 -0.00000000000E+00 -0.45593999997E+02  0.45594000000E+02  0.51100000000E-03 0.  1.
         23    2    1    2    0    0  0.71054273576E-14  0.35527136788E-14  0.00000000000E+00  0.91188000000E+02  0.91188000000E+02 0.  0.
    9900012    2    3    3    0    0  0.32051686501E+02  0.17285155028E+02 -0.18085298229E+02  0.50528865676E+02  0.30000017709E+02 0.  0.
         12    1    3    3    0    0 -0.32051686501E+02 -0.17285155028E+02  0.18085298229E+02  0.40659134324E+02  0.00000000000E+00 0. -1.
         11    1    4    4    0    0 -0.16120424953E+01  0.36335097476E+01 -0.22676668830E+01  0.45763945902E+01  0.51100000000E-03 0. -1.
        -11    1    4    4    0    0  0.39819748466E+01 -0.48075595657E+01  0.22120859775E+01  0.66228451054E+01  0.51100000000E-03 0.  1.
        -12    1    4    4    0    0  0.29681754150E+02  0.18459204846E+02 -0.18029717324E+02  0.39329625980E+02  0.00000000000E+00 0.  1.
</event>
<event>
 8    1  0.9870402E-014  0.9118800E+02  0.7816164E-02  0.1184000E+00
        -11   -1    0    0    0    0  0.00000000000E+00  0.00000000000E+00  0.45593999997E+02  0.45594000000E+02  0.51100000000E-03 0. -1.
         11   -1    0    0    0    0 -0.00000000000E+00 -0.00000000000E+00 -0.45593999997E+02  0.45594000000E+02  0.51100000000E-03 0.  1.
         23    2    1    2    0    0  0.35527136788E-14 -0.35527136788E-14 -0.35527136788E-14  0.91188000000E+02  0.91188000000E+02 0.  0.
    9900012    2    3    3    0    0  0.26353707788E+02 -0.27102346773E+02 -0.14970302226E+02  0.50528867403E+02  0.30000022959E+02 0.  0.
         12    1    3    3    0    0 -0.26353707788E+02  0.27102346773E+02  0.14970302226E+02  0.40659132597E+02  0.00000000000E+00 0. -1.
         11    1    4    4    0    0  0.27054026243E+01  0.25661194565E+01  0.34906892396E+01  0.51077474539E+01  0.51100000000E-03 0. -1.
        -11    1    4    4    0    0  0.61758411398E+01 -0.10463102559E+02  0.20643851419E+01  0.12323928563E+02  0.51100000000E-03 0.  1.
        -12    1    4    4    0    0  0.17472464024E+02 -0.19205363671E+02 -0.20525376608E+02  0.33097191386E+02  0.00000000000E+00 0.  1.
</event>
<event>
 8    1  0.9870402E-014  0.9118800E+02  0.7816164E-02  0.1184000E+00
        -11   -1    0    0    0    0  0.00000000000E+00  0.00000000000E+00  0.45593999997E+02  0.45594000000E+02  0.51100000000E-03 0. -1.
         11   -1    0    0    0    0 -0.00000000000E+00 -0.00000000000E+00 -0.45593999997E+02  0.45594000000E+02  0.51100000000E-03 0.  1.
         23    2    1    2    0    0  0.17763568394E-14  0.00000000000E+00  0.00000000000E+00  0.91188000000E+02  0.91188000000E+02 0.  0.
    9900012    2    3    3    0    0 -0.82309472530E+01  0.33094096159E+02 -0.22140478845E+02  0.50528825184E+02  0.29999894629E+02 0.  0.
         12    1    3    3    0    0  0.82309472530E+01 -0.33094096159E+02  0.22140478845E+02  0.40659174816E+02  0.00000000000E+00 0. -1.
         11    1    4    4    0    0 -0.11374780814E+02  0.28426513089E+02 -0.16172268996E+02  0.34626500974E+02  0.51100000000E-03 0.  1.
        -11    1    4    4    0    0 -0.44684680848E+01  0.13549290760E+01  0.13230487386E+01  0.48531946233E+01  0.51100000000E-03 0. -1.
         12    1    4    4    0    0  0.76123016456E+01  0.33126539936E+01 -0.72912585876E+01  0.11049129586E+02  0.00000000000E+00 0. -1.
</event>
<event>
 8    1  0.9870402E-014  0.9118800E+02  0.7816164E-02  0.1184000E+00
        -11   -1    0    0    0    0  0.00000000000E+00  0.00000000000E+00  0.45593999997E+02  0.45594000000E+02  0.51100000000E-03 0.  1.
         11   -1    0    0    0    0 -0.00000000000E+00 -0.00000000000E+00 -0.45593999997E+02  0.45594000000E+02  0.51100000000E-03 0. -1.
         23    2    1    2    0    0  0.71054273576E-14  0.35527136788E-14  0.88817841970E-15  0.91188000000E+02  0.91188000000E+02 0.  0.
    9900012    2    3    3    0    0  0.32250687768E+02  0.23569723609E+02  0.75847196789E+01  0.50528847216E+02  0.29999961597E+02 0.  0.
        -12    1    3    3    0    0 -0.32250687768E+02 -0.23569723609E+02 -0.75847196789E+01  0.40659152784E+02  0.00000000000E+00 0.  1.
         11    1    4    4    0    0  0.23167867280E+02  0.15454130099E+02  0.15003448941E+01  0.27889626145E+02  0.51100000000E-03 0. -1.
        -11    1    4    4    0    0  0.10844703420E+02  0.11916977901E+02  0.80493446004E+01  0.18011493645E+02  0.51100000000E-03 0.  1.
         12    1    4    4    0    0 -0.17618829328E+01 -0.38013843906E+01 -0.19649698156E+01  0.46277274261E+01  0.00000000000E+00 0. -1.
</event>
<event>
 8    1  0.9870402E-014  0.9118800E+02  0.7816164E-02  0.1184000E+00
        -11   -1    0    0    0    0  0.00000000000E+00  0.00000000000E+00  0.45593999997E+02  0.45594000000E+02  0.51100000000E-03 0. -1.
         11   -1    0    0    0    0 -0.00000000000E+00 -0.00000000000E+00 -0.45593999997E+02  0.45594000000E+02  0.51100000000E-03 0.  1.
         23    2    1    2    0    0  0.00000000000E+00  0.35527136788E-14  0.00000000000E+00  0.91188000000E+02  0.91188000000E+02 0.  0.
    9900012    2    3    3    0    0  0.26474340191E+02  0.20368187709E+02 -0.23182204424E+02  0.50528826852E+02  0.29999899699E+02 0.  0.
         12    1    3    3    0    0 -0.26474340191E+02 -0.20368187709E+02  0.23182204424E+02  0.40659173148E+02  0.00000000000E+00 0. -1.
         11    1    4    4    0    0 -0.96259578794E-01  0.14709798483E+01 -0.66860664299E+01  0.68466438630E+01  0.51100000000E-03 0. -1.
        -11    1    4    4    0    0 -0.42622880962E+00 -0.37328203541E+00  0.44284838794E+01  0.44645806306E+01  0.51100000000E-03 0.  1.
        -12    1    4    4    0    0  0.26996828580E+02  0.19270489896E+02 -0.20924621873E+02  0.39217602359E+02  0.00000000000E+00 0.  1.
</event>
<event>
 8    1  0.9870402E-014  0.9118800E+02  0.7816164E-02  0.1184000E+00
        -11   -1    0    0    0    0  0.00000000000E+00  0.00000000000E+00  0.45593999997E+02  0.45594000000E+02  0.51100000000E-03 0. -1.
         11   -1    0    0    0    0 -0.00000000000E+00 -0.00000000000E+00 -0.45593999997E+02  0.45594000000E+02  0.51100000000E-03 0.  1.
         23    2    1    2    0    0  0.00000000000E+00 -0.44408920985E-15  0.00000000000E+00  0.91188000000E+02  0.91188000000E+02 0.  0.
    9900012    2    3    3    0    0  0.20424785243E+02 -0.33210143915E+01  0.34999514841E+02  0.50528843246E+02  0.29999949531E+02 0.  0.
        -12    1    3    3    0    0 -0.20424785243E+02  0.33210143915E+01 -0.34999514841E+02  0.40659156754E+02  0.00000000000E+00 0.  1.
         11    1    4    4    0    0  0.12756980839E+02  0.75434386825E+01  0.85256448682E+01  0.17097679608E+02  0.51100000000E-03 0. -1.
        -11    1    4    4    0    0 -0.42133504979E+01 -0.11620382179E+00  0.38483067842E+01  0.57074767729E+01  0.51100000000E-03 0.  1.
         12    1    4    4    0    0  0.11881154902E+02 -0.10748249252E+02  0.22625563189E+02  0.27723686865E+02  0.00000000000E+00 0. -1.
</event>
<event>
 8    1  0.9870402E-014  0.9118800E+02  0.7816164E-02  0.1184000E+00
        -11   -1    0    0    0    0  0.00000000000E+00  0.00000000000E+00  0.45593999997E+02  0.45594000000E+02  0.51100000000E-03 0.  1.
         11   -1    0    0    0    0 -0.00000000000E+00 -0.00000000000E+00 -0.45593999997E+02  0.45594000000E+02  0.51100000000E-03 0. -1.
         23    2    1    2    0    0  0.00000000000E+00  0.00000000000E+00  0.00000000000E+00  0.91188000000E+02  0.91188000000E+02 0.  0.
    9900012    2    3    3    0    0 -0.24678278627E+02 -0.26227795173E+02  0.18874604094E+02  0.50528863814E+02  0.30000012050E+02 0.  0.
        -12    1    3    3    0    0  0.24678278627E+02  0.26227795173E+02 -0.18874604094E+02  0.40659136186E+02  0.00000000000E+00 0.  1.
         11    1    4    4    0    0 -0.22358342218E+01 -0.44591272484E+01 -0.31617236018E+01  0.59058671573E+01  0.51100000000E-03 0. -1.
        -11    1    4    4    0    0  0.35002174740E+01 -0.87865308899E+01  0.80395349348E+01  0.12413249763E+02  0.51100000000E-03 0.  1.
         12    1    4    4    0    0 -0.25942661879E+02 -0.12982137035E+02  0.13996792761E+02  0.32209746894E+02  0.00000000000E+00 0. -1.
</event>
<event>
 8    1  0.9870402E-014  0.9118800E+02  0.7816164E-02  0.1184000E+00
        -11   -1    0    0    0    0  0.00000000000E+00  0.00000000000E+00  0.45593999997E+02  0.45594000000E+02  0.51100000000E-03 0.  1.
         11   -1    0    0    0    0 -0.00000000000E+00 -0.00000000000E+00 -0.45593999997E+02  0.45594000000E+02  0.51100000000E-03 0. -1.
         23    2    1    2    0    0  0.71054273576E-14  0.00000000000E+00  0.35527136788E-14  0.91188000000E+02  0.91188000000E+02 0.  0.
    9900012    2    3    3    0    0  0.28887314296E+02  0.18038688346E+02  0.22210234174E+02  0.50528859496E+02  0.29999998925E+02 0.  0.
        -12    1    3    3    0    0 -0.28887314296E+02 -0.18038688346E+02 -0.22210234174E+02  0.40659140504E+02  0.00000000000E+00 0.  1.
         11    1    4    4    0    0  0.57686652715E+01  0.66570516350E+01 -0.44328280754E+01  0.98612271292E+01  0.51100000000E-03 0. -1.
        -11    1    4    4    0    0  0.11951435886E+02  0.14304160067E+02  0.12646471420E+02  0.22525076128E+02  0.51100000000E-03 0.  1.
         12    1    4    4    0    0  0.11167213138E+02 -0.29225233561E+01  0.13996590829E+02  0.18142556239E+02  0.00000000000E+00 0. -1.
</event>
<event>
 8    1  0.9870402E-014  0.9118800E+02  0.7816164E-02  0.1184000E+00
        -11   -1    0    0    0    0  0.00000000000E+00  0.00000000000E+00  0.45593999997E+02  0.45594000000E+02  0.51100000000E-03 0. -1.
         11   -1    0    0    0    0 -0.00000000000E+00 -0.00000000000E+00 -0.45593999997E+02  0.45594000000E+02  0.51100000000E-03 0.  1.
         23    2    1    2    0    0 -0.10547118734E-14  0.00000000000E+00  0.00000000000E+00  0.91188000000E+02  0.91188000000E+02 0.  0.
    9900012    2    3    3    0    0 -0.39051553354E+00  0.31633372903E+02 -0.25540993577E+02  0.50528866506E+02  0.30000020231E+02 0.  0.
         12    1    3    3    0    0  0.39051553354E+00 -0.31633372903E+02  0.25540993577E+02  0.40659133494E+02  0.00000000000E+00 0. -1.
         11    1    4    4    0    0  0.58342649498E+01  0.22533238877E+01 -0.72807947617E+01  0.95982336224E+01  0.51100000000E-03 0. -1.
        -11    1    4    4    0    0  0.35821683050E+01  0.22040771818E+02 -0.17995468045E+02  0.28678640528E+02  0.51100000000E-03 0.  1.
        -12    1    4    4    0    0 -0.98069487883E+01  0.73392771969E+01 -0.26473077067E+00  0.12251992356E+02  0.00000000000E+00 0.  1.
</event>
<event>
 8    1  0.9870402E-014  0.9118800E+02  0.7816164E-02  0.1184000E+00
        -11   -1    0    0    0    0  0.00000000000E+00  0.00000000000E+00  0.45593999997E+02  0.45594000000E+02  0.51100000000E-03 0. -1.
         11   -1    0    0    0    0 -0.00000000000E+00 -0.00000000000E+00 -0.45593999997E+02  0.45594000000E+02  0.51100000000E-03 0.  1.
         23    2    1    2    0    0 -0.35527136788E-14  0.35527136788E-14  0.00000000000E+00  0.91188000000E+02  0.91188000000E+02 0.  0.
    9900012    2    3    3    0    0  0.21942362433E+02 -0.19914763738E+02 -0.27840633540E+02  0.50528856381E+02  0.29999989456E+02 0.  0.
         12    1    3    3    0    0 -0.21942362433E+02  0.19914763738E+02  0.27840633540E+02  0.40659143619E+02  0.00000000000E+00 0. -1.
         11    1    4    4    0    0  0.23590178147E+02 -0.11020584478E+02 -0.16697119600E+02  0.30931272047E+02  0.51100000000E-03 0.  1.
        -11    1    4    4    0    0 -0.27069914141E+01  0.20923784622E+00  0.21415272907E+01  0.34579939835E+01  0.51100000000E-03 0. -1.
        -12    1    4    4    0    0  0.10591757006E+01 -0.91034171060E+01 -0.13285041231E+02  0.16139590350E+02  0.00000000000E+00 0.  1.
</event>
<event>
 8    1  0.9870402E-014  0.9118800E+02  0.7816164E-02  0.1184000E+00
        -11   -1    0    0    0    0  0.00000000000E+00  0.00000000000E+00  0.45593999997E+02  0.45594000000E+02  0.51100000000E-03 0.  1.
         11   -1    0    0    0    0 -0.00000000000E+00 -0.00000000000E+00 -0.45593999997E+02  0.45594000000E+02  0.51100000000E-03 0. -1.
         23    2    1    2    0    0 -0.35527136788E-14  0.00000000000E+00  0.00000000000E+00  0.91188000000E+02  0.91188000000E+02 0.  0.
    9900012    2    3    3    0    0 -0.26543655437E+02  0.26795412083E+02 -0.15185685502E+02  0.50528870683E+02  0.30000032929E+02 0.  0.
         12    1    3    3    0    0  0.26543655437E+02 -0.26795412083E+02  0.15185685502E+02  0.40659129317E+02  0.00000000000E+00 0. -1.
         11    1    4    4    0    0 -0.81001783968E+01  0.14339893413E+02 -0.74658275707E+01  0.18082699321E+02  0.51100000000E-03 0.  1.
        -11    1    4    4    0    0  0.10571636718E+01  0.10197225434E+02  0.21481863964E+01  0.10474526559E+02  0.51100000000E-03 0. -1.
         12    1    4    4    0    0 -0.19500640712E+02  0.22582932356E+01 -0.98680443278E+01  0.21971644803E+02  0.00000000000E+00 0. -1.
</event>
<event>
 8    1  0.9870402E-014  0.9118800E+02  0.7816164E-02  0.1184000E+00
        -11   -1    0    0    0    0  0.00000000000E+00  0.00000000000E+00  0.45593999997E+02  0.45594000000E+02  0.51100000000E-03 0. -1.
         11   -1    0    0    0    0 -0.00000000000E+00 -0.00000000000E+00 -0.45593999997E+02  0.45594000000E+02  0.51100000000E-03 0.  1.
         23    2    1    2    0    0  0.35527136788E-14  0.00000000000E+00 -0.71054273576E-14  0.91188000000E+02  0.91188000000E+02 0.  0.
    9900012    2    3    3    0    0 -0.17757255911E+02 -0.26628178638E+01  0.36479504298E+02  0.50528868549E+02  0.30000026442E+02 0.  0.
        -12    1    3    3    0    0  0.17757255911E+02  0.26628178638E+01 -0.36479504298E+02  0.40659131451E+02  0.00000000000E+00 0.  1.
         11    1    4    4    0    0 -0.13373063877E+02 -0.63122199346E+00  0.63802033547E+01  0.14830518325E+02  0.51100000000E-03 0. -1.
        -11    1    4    4    0    0  0.36860553956E+01  0.19137562738E+01 -0.13735775904E+00  0.41555186042E+01  0.51100000000E-03 0.  1.
         12    1    4    4    0    0 -0.80702474297E+01 -0.39453521442E+01  0.30236658703E+02  0.31542831620E+02  0.00000000000E+00 0. -1.
</event>
<event>
 8    1  0.9870402E-014  0.9118800E+02  0.7816164E-02  0.1184000E+00
        -11   -1    0    0    0    0  0.00000000000E+00  0.00000000000E+00  0.45593999997E+02  0.45594000000E+02  0.51100000000E-03 0. -1.
         11   -1    0    0    0    0 -0.00000000000E+00 -0.00000000000E+00 -0.45593999997E+02  0.45594000000E+02  0.51100000000E-03 0.  1.
         23    2    1    2    0    0  0.00000000000E+00  0.00000000000E+00  0.00000000000E+00  0.91188000000E+02  0.91188000000E+02 0.  0.
    9900012    2    3    3    0    0 -0.19905842771E+02  0.14500858910E+02  0.32351935356E+02  0.50528865641E+02  0.30000017603E+02 0.  0.
        -12    1    3    3    0    0  0.19905842771E+02 -0.14500858910E+02 -0.32351935356E+02  0.40659134359E+02  0.00000000000E+00 0.  1.
         11    1    4    4    0    0 -0.16912310503E+02  0.70781897927E+01  0.19546095291E+02  0.26798821965E+02  0.51100000000E-03 0.  1.
        -11    1    4    4    0    0 -0.14826152806E+00  0.10836431684E+01  0.16032027665E+02  0.16069292931E+02  0.51100000000E-03 0. -1.
        -12    1    4    4    0    0 -0.28452707395E+01  0.63390259488E+01 -0.32261876000E+01  0.76607507459E+01  0.00000000000E+00 0.  1.
</event>
<event>
 8    1  0.9870402E-014  0.9118800E+02  0.7816164E-02  0.1184000E+00
        -11   -1    0    0    0    0  0.00000000000E+00  0.00000000000E+00  0.45593999997E+02  0.45594000000E+02  0.51100000000E-03 0.  1.
         11   -1    0    0    0    0 -0.00000000000E+00 -0.00000000000E+00 -0.45593999997E+02  0.45594000000E+02  0.51100000000E-03 0. -1.
         23    2    1    2    0    0 -0.58286708793E-15  0.00000000000E+00 -0.88817841970E-15  0.91188000000E+02  0.91188000000E+02 0.  0.
    9900012    2    3    3    0    0  0.21983755496E+00  0.40335832152E+02  0.51125698317E+01  0.50528855220E+02  0.29999985928E+02 0.  0.
        -12    1    3    3    0    0 -0.21983755496E+00 -0.40335832152E+02 -0.51125698317E+01  0.40659144780E+02  0.00000000000E+00 0.  1.
         11    1    4    4    0    0 -0.10993203546E+02  0.20594218996E+02 -0.30925998847E+01  0.23548599843E+02  0.51100000000E-03 0. -1.
        -11    1    4    4    0    0  0.27365425252E+01  0.59984806084E+01 -0.30833825293E+01  0.72785769684E+01  0.51100000000E-03 0.  1.
        -12    1    4    4    0    0  0.84764985759E+01  0.13743132547E+02  0.11288552246E+02  0.19701678409E+02  0.00000000000E+00 0.  1.
</event>
<event>
 8    1  0.9870402E-014  0.9118800E+02  0.7816164E-02  0.1184000E+00
        -11   -1    0    0    0    0  0.00000000000E+00  0.00000000000E+00  0.45593999997E+02  0.45594000000E+02  0.51100000000E-03 0. -1.
         11   -1    0    0    0    0 -0.00000000000E+00 -0.00000000000E+00 -0.45593999997E+02  0.45594000000E+02  0.51100000000E-03 0.  1.
         23    2    1    2    0    0  0.88817841970E-15  0.00000000000E+00  0.00000000000E+00  0.91188000000E+02  0.91188000000E+02 0.  0.
    9900012    2    3    3    0    0  0.59967437147E+01 -0.10550653584E+02 -0.38805777026E+02  0.50528861337E+02  0.30000004521E+02 0.  0.
         12    1    3    3    0    0 -0.59967437147E+01  0.10550653584E+02  0.38805777026E+02  0.40659138663E+02  0.00000000000E+00 0. -1.
         11    1    4    4    0    0  0.26321991394E+01 -0.33483549281E+01 -0.28428915421E+02  0.28746185579E+02  0.51100000000E-03 0. -1.
        -11    1    4    4    0    0  0.91591100228E+01 -0.28187250186E+01 -0.10881017936E+02  0.14499346838E+02  0.51100000000E-03 0.  1.
         12    1    4    4    0    0 -0.57945654475E+01 -0.43835736377E+01  0.50415633153E+00  0.72833289208E+01  0.00000000000E+00 0. -1.
</event>
<event>
 8    1  0.9870402E-014  0.9118800E+02  0.7816164E-02  0.1184000E+00
        -11   -1    0    0    0    0  0.00000000000E+00  0.00000000000E+00  0.45593999997E+02  0.45594000000E+02  0.51100000000E-03 0. -1.
         11   -1    0    0    0    0 -0.00000000000E+00 -0.00000000000E+00 -0.45593999997E+02  0.45594000000E+02  0.51100000000E-03 0.  1.
         23    2    1    2    0    0 -0.83266726847E-16 -0.88817841970E-15  0.00000000000E+00  0.91188000000E+02  0.91188000000E+02 0.  0.
    9900012    2    3    3    0    0  0.16770134369E+00  0.61485549232E+01  0.40191215242E+02  0.50528848091E+02  0.29999964256E+02 0.  0.
        -12    1    3    3    0    0 -0.16770134369E+00 -0.61485549232E+01 -0.40191215242E+02  0.40659151909E+02  0.00000000000E+00 0.  1.
         11    1    4    4    0    0  0.87822553237E+01  0.28345821133E+01  0.22066858192E+02  0.23918802124E+02  0.51100000000E-03 0. -1.
        -11    1    4    4    0    0 -0.30240678694E+01  0.24533913431E+01  0.20209773516E+02  0.20581522329E+02  0.51100000000E-03 0.  1.
        -12    1    4    4    0    0 -0.55904861106E+01  0.86058146683E+00 -0.20854164659E+01  0.60285236377E+01  0.00000000000E+00 0.  1.
</event>
<event>
 8    1  0.9870402E-014  0.9118800E+02  0.7816164E-02  0.1184000E+00
        -11   -1    0    0    0    0  0.00000000000E+00  0.00000000000E+00  0.45593999997E+02  0.45594000000E+02  0.51100000000E-03 0. -1.
         11   -1    0    0    0    0 -0.00000000000E+00 -0.00000000000E+00 -0.45593999997E+02  0.45594000000E+02  0.51100000000E-03 0.  1.
         23    2    1    2    0    0  0.00000000000E+00  0.35527136788E-14  0.00000000000E+00  0.91188000000E+02  0.91188000000E+02 0.  0.
    9900012    2    3    3    0    0  0.92932959094E+01  0.21670595272E+02 -0.33123788995E+02  0.50528862704E+02  0.30000008674E+02 0.  0.
         12    1    3    3    0    0 -0.92932959094E+01 -0.21670595272E+02  0.33123788995E+02  0.40659137296E+02  0.00000000000E+00 0. -1.
         11    1    4    4    0    0  0.18454530037E+01 -0.17402381078E+01 -0.94174832509E+01  0.97531080432E+01  0.51100000000E-03 0. -1.
        -11    1    4    4    0    0  0.12501515498E+02  0.15457367607E+02 -0.24225345597E+02  0.31338242973E+02  0.51100000000E-03 0.  1.
         12    1    4    4    0    0 -0.50536725925E+01  0.79534657729E+01  0.51903985335E+00  0.94375116871E+01  0.00000000000E+00 0. -1.
</event>
<event>
 8    1  0.9870402E-014  0.9118800E+02  0.7816164E-02  0.1184000E+00
        -11   -1    0    0    0    0  0.00000000000E+00  0.00000000000E+00  0.45593999997E+02  0.45594000000E+02  0.51100000000E-03 0. -1.
         11   -1    0    0    0    0 -0.00000000000E+00 -0.00000000000E+00 -0.45593999997E+02  0.45594000000E+02  0.51100000000E-03 0.  1.
         23    2    1    2    0    0 -0.35527136788E-14  0.00000000000E+00  0.35527136788E-14  0.91188000000E+02  0.91188000000E+02 0.  0.
    9900012    2    3    3    0    0  0.20860985210E+02 -0.29485216691E+02 -0.18671008778E+02  0.50528864790E+02  0.30000015015E+02 0.  0.
         12    1    3    3    0    0 -0.20860985210E+02  0.29485216691E+02  0.18671008778E+02  0.40659135210E+02  0.00000000000E+00 0. -1.
         11    1    4    4    0    0  0.14063455449E+02 -0.10423418140E+02 -0.16006403182E+02  0.23719893928E+02  0.51100000000E-03 0. -1.
        -11    1    4    4    0    0  0.10510156933E+02 -0.11117450084E+02 -0.72314123224E+01  0.16922009915E+02  0.51100000000E-03 0.  1.
        -12    1    4    4    0    0 -0.37126271722E+01 -0.79443484670E+01  0.45668067264E+01  0.98869609467E+01  0.00000000000E+00 0.  1.
</event>
<event>
 8    1  0.9870402E-014  0.9118800E+02  0.7816164E-02  0.1184000E+00
        -11   -1    0    0    0    0  0.00000000000E+00  0.00000000000E+00  0.45593999997E+02  0.45594000000E+02  0.51100000000E-03 0. -1.
         11   -1    0    0    0    0 -0.00000000000E+00 -0.00000000000E+00 -0.45593999997E+02  0.45594000000E+02  0.51100000000E-03 0.  1.
         23    2    1    2    0    0  0.44408920985E-15 -0.17763568394E-14  0.00000000000E+00  0.91188000000E+02  0.91188000000E+02 0.  0.
    9900012    2    3    3    0    0 -0.25366689442E+01 -0.13971375686E+02  0.38098985600E+02  0.50528846890E+02  0.29999960606E+02 0.  0.
        -12    1    3    3    0    0  0.25366689442E+01  0.13971375686E+02 -0.38098985600E+02  0.40659153110E+02  0.00000000000E+00 0.  1.
         11    1    4    4    0    0  0.31359943575E+00  0.53281508278E+01  0.18545387725E+02  0.19298159031E+02  0.51100000000E-03 0. -1.
        -11    1    4    4    0    0 -0.77107203286E+00 -0.13501642328E+01 -0.23612010171E+01  0.28271480399E+01  0.51100000000E-03 0.  1.
         12    1    4    4    0    0 -0.20791963471E+01 -0.17949362281E+02  0.21914798892E+02  0.28403539819E+02  0.00000000000E+00 0. -1.
</event>
<event>
 8    1  0.9870402E-014  0.9118800E+02  0.7816164E-02  0.1184000E+00
        -11   -1    0    0    0    0  0.00000000000E+00  0.00000000000E+00  0.45593999997E+02  0.45594000000E+02  0.51100000000E-03 0. -1.
         11   -1    0    0    0    0 -0.00000000000E+00 -0.00000000000E+00 -0.45593999997E+02  0.45594000000E+02  0.51100000000E-03 0.  1.
         23    2    1    2    0    0  0.35527136788E-14 -0.88817841970E-15  0.00000000000E+00  0.91188000000E+02  0.91188000000E+02 0.  0.
    9900012    2    3    3    0    0  0.20492535407E+02  0.43555128079E+01 -0.34846098191E+02  0.50528867466E+02  0.30000023151E+02 0.  0.
         12    1    3    3    0    0 -0.20492535407E+02 -0.43555128079E+01  0.34846098191E+02  0.40659132534E+02  0.00000000000E+00 0. -1.
         11    1    4    4    0    0  0.18969390766E+01  0.33838878262E+01 -0.48282970741E+01  0.61936683458E+01  0.51100000000E-03 0. -1.
        -11    1    4    4    0    0  0.21949694835E+02 -0.75120326645E+01 -0.18695331624E+02  0.29794884845E+02  0.51100000000E-03 0.  1.
         12    1    4    4    0    0 -0.33540985041E+01  0.84836576461E+01 -0.11322469493E+02  0.14540314276E+02  0.00000000000E+00 0. -1.
</event>
<event>
 8    1  0.9870402E-014  0.9118800E+02  0.7816164E-02  0.1184000E+00
        -11   -1    0    0    0    0  0.00000000000E+00  0.00000000000E+00  0.45593999997E+02  0.45594000000E+02  0.51100000000E-03 0. -1.
         11   -1    0    0    0    0 -0.00000000000E+00 -0.00000000000E+00 -0.45593999997E+02  0.45594000000E+02  0.51100000000E-03 0.  1.
         23    2    1    2    0    0  0.00000000000E+00  0.00000000000E+00 -0.35527136788E-14  0.91188000000E+02  0.91188000000E+02 0.  0.
    9900012    2    3    3    0    0  0.25125978410E+02  0.11814971181E+02  0.29702816844E+02  0.50528860025E+02  0.30000000531E+02 0.  0.
        -12    1    3    3    0    0 -0.25125978410E+02 -0.11814971181E+02 -0.29702816844E+02  0.40659139975E+02  0.00000000000E+00 0.  1.
         11    1    4    4    0    0  0.18740403503E+02  0.30441630133E+01  0.98080450642E+01  0.21369777728E+02  0.51100000000E-03 0. -1.
        -11    1    4    4    0    0  0.47680513293E+01 -0.52916284786E+01  0.58316491101E+01  0.92056383287E+01  0.51100000000E-03 0.  1.
         12    1    4    4    0    0  0.16175235775E+01  0.14062436646E+02  0.14063122670E+02  0.19953443968E+02  0.00000000000E+00 0. -1.
</event>
<event>
 8    1  0.1075330E-013  0.9118800E+02  0.7816164E-02  0.1184000E+00
        -11   -1    0    0    0    0  0.00000000000E+00  0.00000000000E+00  0.45593999997E+02  0.45594000000E+02  0.51100000000E-03 0.  1.
         11   -1    0    0    0    0 -0.00000000000E+00 -0.00000000000E+00 -0.45593999997E+02  0.45594000000E+02  0.51100000000E-03 0. -1.
         23    2    1    2    0    0  0.44408920985E-15  0.00000000000E+00  0.00000000000E+00  0.91188000000E+02  0.91188000000E+02 0.  0.
    9900012    2    3    3    0    0 -0.32669919473E+01 -0.35839417397E+02 -0.18921629090E+02  0.50528866670E+02  0.30000020730E+02 0.  0.
         12    1    3    3    0    0  0.32669919473E+01  0.35839417397E+02  0.18921629090E+02  0.40659133330E+02  0.00000000000E+00 0. -1.
         11    1    4    4    0    0  0.18158395900E+01 -0.18140614781E+02 -0.14722294928E+02  0.23433419432E+02  0.51100000000E-03 0. -1.
        -11    1    4    4    0    0  0.13952741782E+01 -0.17470916199E+02  0.25804760049E+01  0.17715489254E+02  0.51100000000E-03 0.  1.
         12    1    4    4    0    0 -0.64781057156E+01 -0.22788641734E+00 -0.67798101667E+01  0.93799579838E+01  0.00000000000E+00 0. -1.
</event>
<event>
 8    1  0.9870402E-014  0.9118800E+02  0.7816164E-02  0.1184000E+00
        -11   -1    0    0    0    0  0.00000000000E+00  0.00000000000E+00  0.45593999997E+02  0.45594000000E+02  0.51100000000E-03 0. -1.
         11   -1    0    0    0    0 -0.00000000000E+00 -0.00000000000E+00 -0.45593999997E+02  0.45594000000E+02  0.51100000000E-03 0.  1.
         23    2    1    2    0    0  0.71054273576E-14 -0.17763568394E-14 -0.88817841970E-15  0.91188000000E+02  0.91188000000E+02 0.  0.
    9900012    2    3    3    0    0 -0.38928113918E+02  0.10311220188E+02 -0.56076183816E+01  0.50528871887E+02  0.30000036589E+02 0.  0.
         12    1    3    3    0    0  0.38928113918E+02 -0.10311220188E+02  0.56076183816E+01  0.40659128113E+02  0.00000000000E+00 0. -1.
         11    1    4    4    0    0 -0.44765533355E+01 -0.38240573525E+01  0.17751053712E+01  0.61493043298E+01  0.51100000000E-03 0. -1.
        -11    1    4    4    0    0 -0.10625370135E+02 -0.17243409743E+01 -0.11164780834E+02  0.15508841789E+02  0.51100000000E-03 0.  1.
        -12    1    4    4    0    0 -0.23826190447E+02  0.15859618515E+02  0.37820570808E+01  0.28870725769E+02  0.00000000000E+00 0.  1.
</event>
<event>
 8    1  0.9870402E-014  0.9118800E+02  0.7816164E-02  0.1184000E+00
        -11   -1    0    0    0    0  0.00000000000E+00  0.00000000000E+00  0.45593999997E+02  0.45594000000E+02  0.51100000000E-03 0. -1.
         11   -1    0    0    0    0 -0.00000000000E+00 -0.00000000000E+00 -0.45593999997E+02  0.45594000000E+02  0.51100000000E-03 0.  1.
         23    2    1    2    0    0 -0.44408920985E-15  0.00000000000E+00 -0.17763568394E-14  0.91188000000E+02  0.91188000000E+02 0.  0.
    9900012    2    3    3    0    0  0.28615492698E+01 -0.38315804112E+02 -0.13299485361E+02  0.50528860562E+02  0.30000002166E+02 0.  0.
         12    1    3    3    0    0 -0.28615492698E+01  0.38315804112E+02  0.13299485361E+02  0.40659139438E+02  0.00000000000E+00 0. -1.
         11    1    4    4    0    0  0.74986028358E+01 -0.88629566408E+01  0.46959541562E+01  0.12523299509E+02  0.51100000000E-03 0. -1.
        -11    1    4    4    0    0  0.31200010467E-01 -0.99792671987E+01  0.14599976770E+01  0.10085551088E+02  0.51100000000E-03 0.  1.
        -12    1    4    4    0    0 -0.46682535764E+01 -0.19473580272E+02 -0.19455437194E+02  0.27920009965E+02  0.00000000000E+00 0.  1.
</event>
<event>
 8    1  0.9870402E-014  0.9118800E+02  0.7816164E-02  0.1184000E+00
        -11   -1    0    0    0    0  0.00000000000E+00  0.00000000000E+00  0.45593999997E+02  0.45594000000E+02  0.51100000000E-03 0. -1.
         11   -1    0    0    0    0 -0.00000000000E+00 -0.00000000000E+00 -0.45593999997E+02  0.45594000000E+02  0.51100000000E-03 0.  1.
         23    2    1    2    0    0  0.00000000000E+00  0.00000000000E+00  0.00000000000E+00  0.91188000000E+02  0.91188000000E+02 0.  0.
    9900012    2    3    3    0    0 -0.34069468537E+02 -0.10495800105E+02  0.19552135832E+02  0.50528726496E+02  0.29999594655E+02 0.  0.
        -12    1    3    3    0    0  0.34069468537E+02  0.10495800105E+02 -0.19552135832E+02  0.40659273504E+02  0.00000000000E+00 0.  1.
         11    1    4    4    0    0 -0.15032079841E+02  0.98890148079E+00  0.11416474550E+02  0.18901778803E+02  0.51100000000E-03 0. -1.
        -11    1    4    4    0    0 -0.51494982831E-01  0.16971012567E+01 -0.48339470546E+01  0.51234606270E+01  0.51100000000E-03 0.  1.
         12    1    4    4    0    0 -0.18985893714E+02 -0.13181802842E+02  0.12969608337E+02  0.26503487067E+02  0.00000000000E+00 0. -1.
</event>
<event>
 8    1  0.9870402E-014  0.9118800E+02  0.7816164E-02  0.1184000E+00
        -11   -1    0    0    0    0  0.00000000000E+00  0.00000000000E+00  0.45593999997E+02  0.45594000000E+02  0.51100000000E-03 0. -1.
         11   -1    0    0    0    0 -0.00000000000E+00 -0.00000000000E+00 -0.45593999997E+02  0.45594000000E+02  0.51100000000E-03 0.  1.
         23    2    1    2    0    0  0.00000000000E+00  0.00000000000E+00  0.00000000000E+00  0.91188000000E+02  0.91188000000E+02 0.  0.
    9900012    2    3    3    0    0  0.16902043359E+02  0.35162051444E+02 -0.11450497679E+02  0.50528894888E+02  0.30000106500E+02 0.  0.
         12    1    3    3    0    0 -0.16902043359E+02 -0.35162051444E+02  0.11450497679E+02  0.40659105112E+02  0.00000000000E+00 0. -1.
         11    1    4    4    0    0 -0.57045494566E+01  0.15292141499E+02 -0.21575002420E+01  0.16463483339E+02  0.51100000000E-03 0. -1.
        -11    1    4    4    0    0  0.69425729942E+01  0.14726079537E+02 -0.49378475676E+01  0.17012909133E+02  0.51100000000E-03 0.  1.
         12    1    4    4    0    0  0.15664019821E+02  0.51438304087E+01 -0.43551498698E+01  0.17052502415E+02  0.00000000000E+00 0. -1.
</event>
<event>
 8    1  0.9870402E-014  0.9118800E+02  0.7816164E-02  0.1184000E+00
        -11   -1    0    0    0    0  0.00000000000E+00  0.00000000000E+00  0.45593999997E+02  0.45594000000E+02  0.51100000000E-03 0. -1.
         11   -1    0    0    0    0 -0.00000000000E+00 -0.00000000000E+00 -0.45593999997E+02  0.45594000000E+02  0.51100000000E-03 0.  1.
         23    2    1    2    0    0 -0.88817841970E-15  0.35527136788E-14 -0.35527136788E-14  0.91188000000E+02  0.91188000000E+02 0.  0.
    9900012    2    3    3    0    0  0.67715027414E+01  0.29122887757E+02 -0.27553044371E+02  0.50528854721E+02  0.29999984411E+02 0.  0.
         12    1    3    3    0    0 -0.67715027414E+01 -0.29122887757E+02  0.27553044371E+02  0.40659145279E+02  0.00000000000E+00 0. -1.
         11    1    4    4    0    0  0.44518552980E+00 -0.17793648683E+01 -0.14960031973E+00  0.18403016077E+01  0.51100000000E-03 0. -1.
        -11    1    4    4    0    0 -0.94684069897E+01  0.13352227924E+02 -0.13995748910E+02  0.21536334630E+02  0.51100000000E-03 0.  1.
        -12    1    4    4    0    0  0.15794724201E+02  0.17550024701E+02 -0.13407695141E+02  0.27152218484E+02  0.00000000000E+00 0.  1.
</event>
<event>
 8    1  0.9870402E-014  0.9118800E+02  0.7816164E-02  0.1184000E+00
        -11   -1    0    0    0    0  0.00000000000E+00  0.00000000000E+00  0.45593999997E+02  0.45594000000E+02  0.51100000000E-03 0. -1.
         11   -1    0    0    0    0 -0.00000000000E+00 -0.00000000000E+00 -0.45593999997E+02  0.45594000000E+02  0.51100000000E-03 0.  1.
         23    2    1    2    0    0 -0.35527136788E-14  0.35527136788E-14  0.00000000000E+00  0.91188000000E+02  0.91188000000E+02 0.  0.
    9900012    2    3    3    0    0 -0.18658588966E+02  0.22168158198E+02 -0.28523607815E+02  0.50528851178E+02  0.29999973642E+02 0.  0.
         12    1    3    3    0    0  0.18658588966E+02 -0.22168158198E+02  0.28523607815E+02  0.40659148822E+02  0.00000000000E+00 0. -1.
         11    1    4    4    0    0 -0.50004662041E+01 -0.19384460523E+01 -0.16151398608E+02  0.17018516757E+02  0.51100000000E-03 0. -1.
        -11    1    4    4    0    0 -0.62997161640E+00  0.30417980214E+01 -0.77032778803E+01  0.83060152782E+01  0.51100000000E-03 0.  1.
        -12    1    4    4    0    0 -0.13028151145E+02  0.21064806229E+02 -0.46689313274E+01  0.25204319143E+02  0.00000000000E+00 0.  1.
</event>
<event>
 8    1  0.9870402E-014  0.9118800E+02  0.7816164E-02  0.1184000E+00
        -11   -1    0    0    0    0  0.00000000000E+00  0.00000000000E+00  0.45593999997E+02  0.45594000000E+02  0.51100000000E-03 0. -1.
         11   -1    0    0    0    0 -0.00000000000E+00 -0.00000000000E+00 -0.45593999997E+02  0.45594000000E+02  0.51100000000E-03 0.  1.
         23    2    1    2    0    0 -0.71054273576E-14 -0.35527136788E-14  0.35527136788E-14  0.91188000000E+02  0.91188000000E+02 0.  0.
    9900012    2    3    3    0    0 -0.33698375387E+02 -0.10003085821E+02 -0.20433358260E+02  0.50528876061E+02  0.30000049276E+02 0.  0.
         12    1    3    3    0    0  0.33698375387E+02  0.10003085821E+02  0.20433358260E+02  0.40659123939E+02  0.00000000000E+00 0. -1.
         11    1    4    4    0    0 -0.11359948799E+02 -0.45001357802E+01  0.46652495644E+01  0.13079151827E+02  0.51100000000E-03 0. -1.
        -11    1    4    4    0    0 -0.14661586523E+02 -0.93937893381E+01 -0.10025837006E+02  0.20092854586E+02  0.51100000000E-03 0.  1.
         12    1    4    4    0    0 -0.76768400648E+01  0.38908392972E+01 -0.15072770819E+02  0.17356869648E+02  0.00000000000E+00 0. -1.
</event>
<event>
 8    1  0.1169510E-013  0.9118800E+02  0.7816164E-02  0.1184000E+00
        -11   -1    0    0    0    0  0.00000000000E+00  0.00000000000E+00  0.45593999997E+02  0.45594000000E+02  0.51100000000E-03 0. -1.
         11   -1    0    0    0    0 -0.00000000000E+00 -0.00000000000E+00 -0.45593999997E+02  0.45594000000E+02  0.51100000000E-03 0.  1.
         23    2    1    2    0    0  0.00000000000E+00 -0.35527136788E-14  0.35527136788E-14  0.91188000000E+02  0.91188000000E+02 0.  0.
    9900012    2    3    3    0    0 -0.33531244646E+02  0.13155287081E+02 -0.18861651901E+02  0.50528833037E+02  0.29999918500E+02 0.  0.
         12    1    3    3    0    0  0.33531244646E+02 -0.13155287081E+02  0.18861651901E+02  0.40659166963E+02  0.00000000000E+00 0. -1.
         11    1    4    4    0    0 -0.14414367016E+02  0.44902325665E+00 -0.10573924211E+02  0.17882490649E+02  0.51100000000E-03 0. -1.
        -11    1    4    4    0    0 -0.18858171852E+02  0.17468591854E+02 -0.99952227858E+01  0.27580551586E+02  0.51100000000E-03 0.  1.
         12    1    4    4    0    0 -0.25870577770E+00 -0.47623280301E+01  0.17074950959E+01  0.50657908019E+01  0.00000000000E+00 0. -1.
</event>
<event>
 8    1  0.9870402E-014  0.9118800E+02  0.7816164E-02  0.1184000E+00
        -11   -1    0    0    0    0  0.00000000000E+00  0.00000000000E+00  0.45593999997E+02  0.45594000000E+02  0.51100000000E-03 0. -1.
         11   -1    0    0    0    0 -0.00000000000E+00 -0.00000000000E+00 -0.45593999997E+02  0.45594000000E+02  0.51100000000E-03 0.  1.
         23    2    1    2    0    0  0.00000000000E+00  0.00000000000E+00  0.00000000000E+00  0.91188000000E+02  0.91188000000E+02 0.  0.
    9900012    2    3    3    0    0  0.85942971323E+01  0.26713727370E+02 -0.29422452097E+02  0.50528857601E+02  0.29999993165E+02 0.  0.
         12    1    3    3    0    0 -0.85942971323E+01 -0.26713727370E+02  0.29422452097E+02  0.40659142399E+02  0.00000000000E+00 0. -1.
         11    1    4    4    0    0 -0.57427510710E+01  0.10648024006E+01 -0.56766576760E+01  0.81447797175E+01  0.51100000000E-03 0.  1.
        -11    1    4    4    0    0 -0.15544045649E+01  0.11586390422E+02 -0.17492266318E+01  0.11820338854E+02  0.51100000000E-03 0. -1.
        -12    1    4    4    0    0  0.15891452768E+02  0.14062534548E+02 -0.21996567789E+02  0.30563739030E+02  0.00000000000E+00 0.  1.
</event>
<event>
 8    1  0.9870402E-014  0.9118800E+02  0.7816164E-02  0.1184000E+00
        -11   -1    0    0    0    0  0.00000000000E+00  0.00000000000E+00  0.45593999997E+02  0.45594000000E+02  0.51100000000E-03 0.  1.
         11   -1    0    0    0    0 -0.00000000000E+00 -0.00000000000E+00 -0.45593999997E+02  0.45594000000E+02  0.51100000000E-03 0. -1.
         23    2    1    2    0    0 -0.71054273576E-14 -0.35527136788E-14 -0.44408920985E-15  0.91188000000E+02  0.91188000000E+02 0.  0.
    9900012    2    3    3    0    0 -0.36353140345E+02 -0.18174885518E+02  0.11350182931E+01  0.50528861506E+02  0.30000005033E+02 0.  0.
         12    1    3    3    0    0  0.36353140345E+02  0.18174885518E+02 -0.11350182931E+01  0.40659138494E+02  0.00000000000E+00 0. -1.
         11    1    4    4    0    0 -0.36251704342E+01 -0.70784767086E+01 -0.11088570945E+02  0.13645625638E+02  0.51100000000E-03 0. -1.
        -11    1    4    4    0    0 -0.15773476850E+02 -0.65886792339E+01  0.78053390108E+01  0.18791928675E+02  0.51100000000E-03 0.  1.
        -12    1    4    4    0    0 -0.16954493061E+02 -0.45077295757E+01  0.44182502274E+01  0.18091307193E+02  0.00000000000E+00 0.  1.
</event>
<event>
 8    1  0.9870402E-014  0.9118800E+02  0.7816164E-02  0.1184000E+00
        -11   -1    0    0    0    0  0.00000000000E+00  0.00000000000E+00  0.45593999997E+02  0.45594000000E+02  0.51100000000E-03 0. -1.
         11   -1    0    0    0    0 -0.00000000000E+00 -0.00000000000E+00 -0.45593999997E+02  0.45594000000E+02  0.51100000000E-03 0.  1.
         23    2    1    2    0    0  0.00000000000E+00 -0.26645352591E-14  0.00000000000E+00  0.91188000000E+02  0.91188000000E+02 0.  0.
    9900012    2    3    3    0    0 -0.36555263563E+02 -0.66133965250E+01  0.16527037906E+02  0.50528840027E+02  0.29999939747E+02 0.  0.
        -12    1    3    3    0    0  0.36555263563E+02  0.66133965250E+01 -0.16527037906E+02  0.40659159973E+02  0.00000000000E+00 0.  1.
         11    1    4    4    0    0 -0.15816672279E+02 -0.66938115850E+01  0.84738103501E+01  0.19151493353E+02  0.51100000000E-03 0. -1.
        -11    1    4    4    0    0 -0.99651188807E+01 -0.97108351208E+01 -0.14539440712E+01  0.13989920181E+02  0.51100000000E-03 0.  1.
        -12    1    4    4    0    0 -0.10773472403E+02  0.97912501809E+01  0.95071716274E+01  0.17387426494E+02  0.00000000000E+00 0.  1.
</event>
<event>
 8    1  0.9870402E-014  0.9118800E+02  0.7816164E-02  0.1184000E+00
        -11   -1    0    0    0    0  0.00000000000E+00  0.00000000000E+00  0.45593999997E+02  0.45594000000E+02  0.51100000000E-03 0. -1.
         11   -1    0    0    0    0 -0.00000000000E+00 -0.00000000000E+00 -0.45593999997E+02  0.45594000000E+02  0.51100000000E-03 0.  1.
         23    2    1    2    0    0 -0.66613381478E-15  0.17763568394E-14  0.71054273576E-14  0.91188000000E+02  0.91188000000E+02 0.  0.
    9900012    2    3    3    0    0  0.14494727742E+01  0.15376398743E+02 -0.37611575884E+02  0.50528865109E+02  0.30000015986E+02 0.  0.
         12    1    3    3    0    0 -0.14494727742E+01 -0.15376398743E+02  0.37611575884E+02  0.40659134891E+02  0.00000000000E+00 0. -1.
         11    1    4    4    0    0 -0.76741663948E+01  0.56811866422E+01 -0.61895143121E+01  0.11378875129E+02  0.51100000000E-03 0. -1.
        -11    1    4    4    0    0  0.39511308465E+01  0.15172196260E+02 -0.23174790757E+02  0.27979955347E+02  0.51100000000E-03 0.  1.
         12    1    4    4    0    0  0.51725083225E+01 -0.54769841589E+01 -0.82472708141E+01  0.11170034633E+02  0.00000000000E+00 0. -1.
</event>
<event>
 8    1  0.9870402E-014  0.9118800E+02  0.7816164E-02  0.1184000E+00
        -11   -1    0    0    0    0  0.00000000000E+00  0.00000000000E+00  0.45593999997E+02  0.45594000000E+02  0.51100000000E-03 0. -1.
         11   -1    0    0    0    0 -0.00000000000E+00 -0.00000000000E+00 -0.45593999997E+02  0.45594000000E+02  0.51100000000E-03 0.  1.
         23    2    1    2    0    0  0.88817841970E-15  0.35527136788E-14 -0.71054273576E-14  0.91188000000E+02  0.91188000000E+02 0.  0.
    9900012    2    3    3    0    0 -0.40115480749E+01 -0.31438519495E+02  0.25469432482E+02  0.50528867976E+02  0.30000024700E+02 0.  0.
        -12    1    3    3    0    0  0.40115480749E+01  0.31438519495E+02 -0.25469432482E+02  0.40659132024E+02  0.00000000000E+00 0.  1.
         11    1    4    4    0    0 -0.34917667164E+01 -0.13074320884E+02  0.84067523764E+01  0.15931220517E+02  0.51100000000E-03 0. -1.
        -11    1    4    4    0    0 -0.15466441832E+00 -0.24096148034E+02  0.15478192706E+02  0.28639530737E+02  0.51100000000E-03 0.  1.
        -12    1    4    4    0    0 -0.36511694020E+00  0.57319494219E+01  0.15844873989E+01  0.59581167220E+01  0.00000000000E+00 0.  1.
</event>
<event>
 8    1  0.1131243E-013  0.9118800E+02  0.7816164E-02  0.1184000E+00
        -11   -1    0    0    0    0  0.00000000000E+00  0.00000000000E+00  0.45593999997E+02  0.45594000000E+02  0.51100000000E-03 0.  1.
         11   -1    0    0    0    0 -0.00000000000E+00 -0.00000000000E+00 -0.45593999997E+02  0.45594000000E+02  0.51100000000E-03 0. -1.
         23    2    1    2    0    0  0.00000000000E+00  0.00000000000E+00  0.00000000000E+00  0.91188000000E+02  0.91188000000E+02 0.  0.
    9900012    2    3    3    0    0  0.25127314147E+02  0.12906110682E+02 -0.29244087652E+02  0.50528852545E+02  0.29999977796E+02 0.  0.
         12    1    3    3    0    0 -0.25127314147E+02 -0.12906110682E+02  0.29244087652E+02  0.40659147455E+02  0.00000000000E+00 0. -1.
         11    1    4    4    0    0  0.88545944222E+01 -0.30355476806E+01 -0.89423237860E+01  0.12945406408E+02  0.51100000000E-03 0. -1.
        -11    1    4    4    0    0  0.71865060615E+01  0.21916294365E+00  0.32113905337E+01  0.78744479926E+01  0.51100000000E-03 0.  1.
        -12    1    4    4    0    0  0.90862136629E+01  0.15722495419E+02 -0.23513154400E+02  0.29708998145E+02  0.00000000000E+00 0.  1.
</event>
<event>
 8    1  0.9870402E-014  0.9118800E+02  0.7816164E-02  0.1184000E+00
        -11   -1    0    0    0    0  0.00000000000E+00  0.00000000000E+00  0.45593999997E+02  0.45594000000E+02  0.51100000000E-03 0. -1.
         11   -1    0    0    0    0 -0.00000000000E+00 -0.00000000000E+00 -0.45593999997E+02  0.45594000000E+02  0.51100000000E-03 0.  1.
         23    2    1    2    0    0 -0.17763568394E-14  0.00000000000E+00 -0.71054273576E-14  0.91188000000E+02  0.91188000000E+02 0.  0.
    9900012    2    3    3    0    0  0.15467801700E+02  0.60688543750E+01  0.37109077107E+02  0.50528837606E+02  0.29999932387E+02 0.  0.
        -12    1    3    3    0    0 -0.15467801700E+02 -0.60688543750E+01 -0.37109077107E+02  0.40659162394E+02  0.00000000000E+00 0.  1.
         11    1    4    4    0    0 -0.40138832627E+01  0.68347995663E+01  0.14800118790E+02  0.16788962458E+02  0.51100000000E-03 0. -1.
        -11    1    4    4    0    0  0.10437965266E+02 -0.22751694905E+01  0.22125107246E+02  0.24569246753E+02  0.51100000000E-03 0.  1.
        -12    1    4    4    0    0  0.90437196973E+01  0.15092242992E+01  0.18385107099E+00  0.91706283953E+01  0.00000000000E+00 0.  1.
</event>
<event>
 8    1  0.9870402E-014  0.9118800E+02  0.7816164E-02  0.1184000E+00
        -11   -1    0    0    0    0  0.00000000000E+00  0.00000000000E+00  0.45593999997E+02  0.45594000000E+02  0.51100000000E-03 0. -1.
         11   -1    0    0    0    0 -0.00000000000E+00 -0.00000000000E+00 -0.45593999997E+02  0.45594000000E+02  0.51100000000E-03 0.  1.
         23    2    1    2    0    0  0.00000000000E+00  0.77715611724E-15 -0.71054273576E-14  0.91188000000E+02  0.91188000000E+02 0.  0.
    9900012    2    3    3    0    0  0.12121223132E+02  0.44879232307E+00 -0.38807734275E+02  0.50528859523E+02  0.29999999006E+02 0.  0.
         12    1    3    3    0    0 -0.12121223132E+02 -0.44879232307E+00  0.38807734275E+02  0.40659140477E+02  0.00000000000E+00 0. -1.
         11    1    4    4    0    0 -0.31289840930E+01 -0.72010363137E+00 -0.82995700422E+01  0.88989861131E+01  0.51100000000E-03 0. -1.
        -11    1    4    4    0    0  0.14162140763E+02  0.64903246286E+01 -0.32340948204E+02  0.35897457790E+02  0.51100000000E-03 0.  1.
         12    1    4    4    0    0  0.10880664622E+01 -0.53214286742E+01  0.18327839709E+01  0.57324156204E+01  0.00000000000E+00 0. -1.
</event>
<event>
 8    1  0.9870402E-014  0.9118800E+02  0.7816164E-02  0.1184000E+00
        -11   -1    0    0    0    0  0.00000000000E+00  0.00000000000E+00  0.45593999997E+02  0.45594000000E+02  0.51100000000E-03 0. -1.
         11   -1    0    0    0    0 -0.00000000000E+00 -0.00000000000E+00 -0.45593999997E+02  0.45594000000E+02  0.51100000000E-03 0.  1.
         23    2    1    2    0    0  0.00000000000E+00  0.00000000000E+00  0.00000000000E+00  0.91188000000E+02  0.91188000000E+02 0.  0.
    9900012    2    3    3    0    0  0.35635413498E+02  0.80744439856E+01  0.17834979242E+02  0.50528858034E+02  0.29999994480E+02 0.  0.
        -12    1    3    3    0    0 -0.35635413498E+02 -0.80744439856E+01 -0.17834979242E+02  0.40659141966E+02  0.00000000000E+00 0.  1.
         11    1    4    4    0    0  0.28441349334E+02  0.55807018034E+01  0.27375759280E+01  0.29112693225E+02  0.51100000000E-03 0. -1.
        -11    1    4    4    0    0  0.14001609349E+01  0.60614389463E+01  0.17954607693E+01  0.64749650484E+01  0.51100000000E-03 0.  1.
        -12    1    4    4    0    0  0.57939032284E+01 -0.35676967641E+01  0.13301942545E+02  0.14941199761E+02  0.00000000000E+00 0.  1.
</event>
<event>
 8    1  0.9870402E-014  0.9118800E+02  0.7816164E-02  0.1184000E+00
        -11   -1    0    0    0    0  0.00000000000E+00  0.00000000000E+00  0.45593999997E+02  0.45594000000E+02  0.51100000000E-03 0. -1.
         11   -1    0    0    0    0 -0.00000000000E+00 -0.00000000000E+00 -0.45593999997E+02  0.45594000000E+02  0.51100000000E-03 0.  1.
         23    2    1    2    0    0  0.17763568394E-14  0.35527136788E-14  0.00000000000E+00  0.91188000000E+02  0.91188000000E+02 0.  0.
    9900012    2    3    3    0    0  0.11259227627E+02  0.24758348325E+02  0.30222836824E+02  0.50528857311E+02  0.29999992281E+02 0.  0.
        -12    1    3    3    0    0 -0.11259227627E+02 -0.24758348325E+02 -0.30222836824E+02  0.40659142689E+02  0.00000000000E+00 0.  1.
         11    1    4    4    0    0 -0.55359866155E+01  0.11944501889E+02  0.16414112403E+02  0.21041420091E+02  0.51100000000E-03 0. -1.
        -11    1    4    4    0    0  0.32686429074E+01 -0.35249939256E+01  0.19643847426E+01  0.51931123914E+01  0.51100000000E-03 0.  1.
         12    1    4    4    0    0  0.13526571335E+02  0.16338840362E+02  0.11844339678E+02  0.24294324828E+02  0.00000000000E+00 0. -1.
</event>
<event>
 8    1  0.9870402E-014  0.9118800E+02  0.7816164E-02  0.1184000E+00
        -11   -1    0    0    0    0  0.00000000000E+00  0.00000000000E+00  0.45593999997E+02  0.45594000000E+02  0.51100000000E-03 0.  1.
         11   -1    0    0    0    0 -0.00000000000E+00 -0.00000000000E+00 -0.45593999997E+02  0.45594000000E+02  0.51100000000E-03 0. -1.
         23    2    1    2    0    0  0.88817841970E-15  0.00000000000E+00  0.00000000000E+00  0.91188000000E+02  0.91188000000E+02 0.  0.
    9900012    2    3    3    0    0  0.24385060939E+01  0.36600886077E+02  0.17538334199E+02  0.50528876299E+02  0.30000050000E+02 0.  0.
         12    1    3    3    0    0 -0.24385060939E+01 -0.36600886077E+02 -0.17538334199E+02  0.40659123701E+02  0.00000000000E+00 0. -1.
         11    1    4    4    0    0  0.36727970844E+01  0.25695528811E+01 -0.24599578396E+01  0.51130649581E+01  0.51100000000E-03 0. -1.
        -11    1    4    4    0    0 -0.84765885652E+01  0.32316342540E+01  0.34116737062E+01  0.96920344301E+01  0.51100000000E-03 0.  1.
        -12    1    4    4    0    0  0.72422975747E+01  0.30799698942E+02  0.16586618333E+02  0.35723776911E+02  0.00000000000E+00 0.  1.
</event>
<event>
 8    1  0.9870402E-014  0.9118800E+02  0.7816164E-02  0.1184000E+00
        -11   -1    0    0    0    0  0.00000000000E+00  0.00000000000E+00  0.45593999997E+02  0.45594000000E+02  0.51100000000E-03 0. -1.
         11   -1    0    0    0    0 -0.00000000000E+00 -0.00000000000E+00 -0.45593999997E+02  0.45594000000E+02  0.51100000000E-03 0.  1.
         23    2    1    2    0    0  0.00000000000E+00  0.00000000000E+00  0.00000000000E+00  0.91188000000E+02  0.91188000000E+02 0.  0.
    9900012    2    3    3    0    0 -0.31250190181E+02  0.15181245422E+02  0.21121577375E+02  0.50528860440E+02  0.30000001794E+02 0.  0.
        -12    1    3    3    0    0  0.31250190181E+02 -0.15181245422E+02 -0.21121577375E+02  0.40659139560E+02  0.00000000000E+00 0.  1.
         11    1    4    4    0    0 -0.25457293145E+02  0.65303793497E+01  0.18980359643E+02  0.32418724238E+02  0.51100000000E-03 0. -1.
        -11    1    4    4    0    0 -0.36602162314E+01 -0.23745387147E+01 -0.34530275367E+01  0.55640827096E+01  0.51100000000E-03 0.  1.
         12    1    4    4    0    0 -0.21326808047E+01  0.11025404787E+02  0.55942452681E+01  0.12546053493E+02  0.00000000000E+00 0. -1.
</event>
<event>
 8    1  0.9870402E-014  0.9118800E+02  0.7816164E-02  0.1184000E+00
        -11   -1    0    0    0    0  0.00000000000E+00  0.00000000000E+00  0.45593999997E+02  0.45594000000E+02  0.51100000000E-03 0. -1.
         11   -1    0    0    0    0 -0.00000000000E+00 -0.00000000000E+00 -0.45593999997E+02  0.45594000000E+02  0.51100000000E-03 0.  1.
         23    2    1    2    0    0  0.35527136788E-14  0.17763568394E-14  0.35527136788E-14  0.91188000000E+02  0.91188000000E+02 0.  0.
    9900012    2    3    3    0    0  0.29980210336E+02  0.89051885408E+01  0.25981728862E+02  0.50528860444E+02  0.30000001807E+02 0.  0.
        -12    1    3    3    0    0 -0.29980210336E+02 -0.89051885408E+01 -0.25981728862E+02  0.40659139556E+02  0.00000000000E+00 0.  1.
         11    1    4    4    0    0  0.19311856744E+02 -0.12476653408E+01  0.20674064352E+02  0.28318217048E+02  0.51100000000E-03 0. -1.
        -11    1    4    4    0    0  0.93051192736E+01  0.22550912374E+01 -0.35993252742E+01  0.10228676546E+02  0.51100000000E-03 0.  1.
        -12    1    4    4    0    0  0.13632343188E+01  0.78977626442E+01  0.89069897842E+01  0.11981966851E+02  0.00000000000E+00 0.  1.
</event>
<event>
 8    1  0.9870402E-014  0.9118800E+02  0.7816164E-02  0.1184000E+00
        -11   -1    0    0    0    0  0.00000000000E+00  0.00000000000E+00  0.45593999997E+02  0.45594000000E+02  0.51100000000E-03 0. -1.
         11   -1    0    0    0    0 -0.00000000000E+00 -0.00000000000E+00 -0.45593999997E+02  0.45594000000E+02  0.51100000000E-03 0.  1.
         23    2    1    2    0    0  0.17763568394E-14 -0.17763568394E-14 -0.71054273576E-14  0.91188000000E+02  0.91188000000E+02 0.  0.
    9900012    2    3    3    0    0 -0.12014065544E+02  0.55908941656E+01  0.38439169877E+02  0.50528860200E+02  0.30000001064E+02 0.  0.
        -12    1    3    3    0    0  0.12014065544E+02 -0.55908941656E+01 -0.38439169877E+02  0.40659139800E+02  0.00000000000E+00 0.  1.
         11    1    4    4    0    0  0.16733909735E+01 -0.33284311906E+01 -0.12508720548E+01  0.39298056822E+01  0.51100000000E-03 0.  1.
        -11    1    4    4    0    0 -0.14822715168E+01 -0.34018875662E+01  0.20080844831E+02  0.20420829985E+02  0.51100000000E-03 0. -1.
        -12    1    4    4    0    0 -0.12205185001E+02  0.12321212922E+02  0.19609197100E+02  0.26178224533E+02  0.00000000000E+00 0.  1.
</event>
<event>
 8    1  0.9870402E-014  0.9118800E+02  0.7816164E-02  0.1184000E+00
        -11   -1    0    0    0    0  0.00000000000E+00  0.00000000000E+00  0.45593999997E+02  0.45594000000E+02  0.51100000000E-03 0. -1.
         11   -1    0    0    0    0 -0.00000000000E+00 -0.00000000000E+00 -0.45593999997E+02  0.45594000000E+02  0.51100000000E-03 0.  1.
         23    2    1    2    0    0  0.88817841970E-15 -0.71054273576E-14  0.00000000000E+00  0.91188000000E+02  0.91188000000E+02 0.  0.
    9900012    2    3    3    0    0  0.70357866279E+01 -0.33532428932E+02 -0.21891527970E+02  0.50528867196E+02  0.30000022328E+02 0.  0.
         12    1    3    3    0    0 -0.70357866279E+01  0.33532428932E+02  0.21891527970E+02  0.40659132804E+02  0.00000000000E+00 0. -1.
         11    1    4    4    0    0 -0.38994072283E+01  0.65518600733E+00 -0.13674588102E+01  0.41838486224E+01  0.51100000000E-03 0. -1.
        -11    1    4    4    0    0  0.51647921747E+01 -0.57544645105E+01 -0.14907580489E+02  0.16793596884E+02  0.51100000000E-03 0.  1.
        -12    1    4    4    0    0  0.57704016815E+01 -0.28433150429E+02 -0.56164886705E+01  0.29551421689E+02  0.00000000000E+00 0.  1.
</event>
<event>
 8    1  0.9870402E-014  0.9118800E+02  0.7816164E-02  0.1184000E+00
        -11   -1    0    0    0    0  0.00000000000E+00  0.00000000000E+00  0.45593999997E+02  0.45594000000E+02  0.51100000000E-03 0. -1.
         11   -1    0    0    0    0 -0.00000000000E+00 -0.00000000000E+00 -0.45593999997E+02  0.45594000000E+02  0.51100000000E-03 0.  1.
         23    2    1    2    0    0 -0.44408920985E-15  0.00000000000E+00  0.00000000000E+00  0.91188000000E+02  0.91188000000E+02 0.  0.
    9900012    2    3    3    0    0  0.21878246736E+01  0.23881556542E+02  0.32833674343E+02  0.50528862153E+02  0.30000006999E+02 0.  0.
        -12    1    3    3    0    0 -0.21878246736E+01 -0.23881556542E+02 -0.32833674343E+02  0.40659137847E+02  0.00000000000E+00 0.  1.
         11    1    4    4    0    0 -0.28751833753E+00  0.60395874210E+01  0.16412555455E+02  0.17490890767E+02  0.51100000000E-03 0. -1.
        -11    1    4    4    0    0 -0.17151126806E+01  0.12596040823E+02  0.21253828058E+02  0.24765440906E+02  0.51100000000E-03 0.  1.
        -12    1    4    4    0    0  0.41904556917E+01  0.52459282975E+01 -0.48327091697E+01  0.82725304790E+01  0.00000000000E+00 0.  1.
</event>
<event>
 8    1  0.9870402E-014  0.9118800E+02  0.7816164E-02  0.1184000E+00
        -11   -1    0    0    0    0  0.00000000000E+00  0.00000000000E+00  0.45593999997E+02  0.45594000000E+02  0.51100000000E-03 0. -1.
         11   -1    0    0    0    0 -0.00000000000E+00 -0.00000000000E+00 -0.45593999997E+02  0.45594000000E+02  0.51100000000E-03 0.  1.
         23    2    1    2    0    0  0.00000000000E+00  0.00000000000E+00  0.00000000000E+00  0.91188000000E+02  0.91188000000E+02 0.  0.
    9900012    2    3    3    0    0  0.30625392189E+02 -0.21135090028E+02 -0.16387776921E+02  0.50528856998E+02  0.29999991331E+02 0.  0.
         12    1    3    3    0    0 -0.30625392189E+02  0.21135090028E+02  0.16387776921E+02  0.40659143002E+02  0.00000000000E+00 0. -1.
         11    1    4    4    0    0 -0.29835982124E+01 -0.50953371298E+01  0.44195829476E+01  0.73754343907E+01  0.51100000000E-03 0. -1.
        -11    1    4    4    0    0  0.30723226074E+01  0.75465356379E-01 -0.30374343357E+01  0.43209800774E+01  0.51100000000E-03 0.  1.
        -12    1    4    4    0    0  0.30536667794E+02 -0.16115218254E+02 -0.17769925533E+02  0.38832442530E+02  0.00000000000E+00 0.  1.
</event>
<event>
 8    1  0.9870402E-014  0.9118800E+02  0.7816164E-02  0.1184000E+00
        -11   -1    0    0    0    0  0.00000000000E+00  0.00000000000E+00  0.45593999997E+02  0.45594000000E+02  0.51100000000E-03 0. -1.
         11   -1    0    0    0    0 -0.00000000000E+00 -0.00000000000E+00 -0.45593999997E+02  0.45594000000E+02  0.51100000000E-03 0.  1.
         23    2    1    2    0    0 -0.35527136788E-14  0.00000000000E+00  0.35527136788E-14  0.91188000000E+02  0.91188000000E+02 0.  0.
    9900012    2    3    3    0    0 -0.25446120552E+02 -0.19139583123E+02  0.25285065967E+02  0.50528889653E+02  0.30000090589E+02 0.  0.
        -12    1    3    3    0    0  0.25446120552E+02  0.19139583123E+02 -0.25285065967E+02  0.40659110347E+02  0.00000000000E+00 0.  1.
         11    1    4    4    0    0 -0.48051610911E-01 -0.59108335221E+01 -0.16602347496E+01  0.61397590806E+01  0.51100000000E-03 0. -1.
        -11    1    4    4    0    0 -0.19853287630E+02 -0.20449374325E+01  0.75800809243E+01  0.21349295677E+02  0.51100000000E-03 0.  1.
         12    1    4    4    0    0 -0.55447813105E+01 -0.11183812168E+02  0.19365219792E+02  0.23039834895E+02  0.00000000000E+00 0. -1.
</event>
<event>
 8    1  0.9870402E-014  0.9118800E+02  0.7816164E-02  0.1184000E+00
        -11   -1    0    0    0    0  0.00000000000E+00  0.00000000000E+00  0.45593999997E+02  0.45594000000E+02  0.51100000000E-03 0. -1.
         11   -1    0    0    0    0 -0.00000000000E+00 -0.00000000000E+00 -0.45593999997E+02  0.45594000000E+02  0.51100000000E-03 0.  1.
         23    2    1    2    0    0  0.00000000000E+00  0.00000000000E+00  0.00000000000E+00  0.91188000000E+02  0.91188000000E+02 0.  0.
    9900012    2    3    3    0    0  0.17005538489E+02 -0.95727136885E+01  0.35669889439E+02  0.50528853437E+02  0.29999980507E+02 0.  0.
        -12    1    3    3    0    0 -0.17005538489E+02  0.95727136885E+01 -0.35669889439E+02  0.40659146563E+02  0.00000000000E+00 0.  1.
         11    1    4    4    0    0 -0.21008843590E+01  0.21350471397E+01  0.75639426389E+01  0.81354391329E+01  0.51100000000E-03 0. -1.
        -11    1    4    4    0    0  0.86420626083E+01  0.23771204453E+01 -0.34169712665E+00  0.89695431838E+01  0.51100000000E-03 0.  1.
        -12    1    4    4    0    0  0.10464360240E+02 -0.14084881273E+02  0.28447643926E+02  0.33423871120E+02  0.00000000000E+00 0.  1.
</event>
<event>
 8    1  0.9870402E-014  0.9118800E+02  0.7816164E-02  0.1184000E+00
        -11   -1    0    0    0    0  0.00000000000E+00  0.00000000000E+00  0.45593999997E+02  0.45594000000E+02  0.51100000000E-03 0.  1.
         11   -1    0    0    0    0 -0.00000000000E+00 -0.00000000000E+00 -0.45593999997E+02  0.45594000000E+02  0.51100000000E-03 0. -1.
         23    2    1    2    0    0  0.00000000000E+00 -0.71054273576E-14  0.00000000000E+00  0.91188000000E+02  0.91188000000E+02 0.  0.
    9900012    2    3    3    0    0 -0.27249173337E+01  0.39178606287E+02  0.10525044737E+02  0.50528869024E+02  0.30000027884E+02 0.  0.
         12    1    3    3    0    0  0.27249173337E+01 -0.39178606287E+02 -0.10525044737E+02  0.40659130976E+02  0.00000000000E+00 0. -1.
         11    1    4    4    0    0  0.13128085957E+01  0.93536279767E+01  0.46216864356E+01  0.10515408147E+02  0.51100000000E-03 0. -1.
        -11    1    4    4    0    0  0.51754859982E+01  0.29688628828E+02  0.26949110384E+01  0.30256617173E+02  0.51100000000E-03 0.  1.
         12    1    4    4    0    0 -0.92132119276E+01  0.13634948195E+00  0.32084472631E+01  0.97568437030E+01  0.00000000000E+00 0. -1.
</event>
<event>
 8    1  0.9870402E-014  0.9118800E+02  0.7816164E-02  0.1184000E+00
        -11   -1    0    0    0    0  0.00000000000E+00  0.00000000000E+00  0.45593999997E+02  0.45594000000E+02  0.51100000000E-03 0. -1.
         11   -1    0    0    0    0 -0.00000000000E+00 -0.00000000000E+00 -0.45593999997E+02  0.45594000000E+02  0.51100000000E-03 0.  1.
         23    2    1    2    0    0  0.00000000000E+00 -0.35527136788E-14 -0.71054273576E-14  0.91188000000E+02  0.91188000000E+02 0.  0.
    9900012    2    3    3    0    0 -0.30347426808E+00  0.10686989067E+02  0.39228345317E+02  0.50528844718E+02  0.29999954004E+02 0.  0.
        -12    1    3    3    0    0  0.30347426808E+00 -0.10686989067E+02 -0.39228345317E+02  0.40659155282E+02  0.00000000000E+00 0.  1.
         11    1    4    4    0    0  0.42019545941E+00  0.12086991678E+02  0.24116599970E+02  0.26979294402E+02  0.51100000000E-03 0. -1.
        -11    1    4    4    0    0  0.67618930539E+01 -0.28261234586E+01  0.84761990825E+00  0.73775762446E+01  0.51100000000E-03 0.  1.
         12    1    4    4    0    0 -0.74855627814E+01  0.14261208475E+01  0.14264125439E+02  0.16171974072E+02  0.00000000000E+00 0. -1.
</event>
<event>
 8    1  0.9870402E-014  0.9118800E+02  0.7816164E-02  0.1184000E+00
        -11   -1    0    0    0    0  0.00000000000E+00  0.00000000000E+00  0.45593999997E+02  0.45594000000E+02  0.51100000000E-03 0. -1.
         11   -1    0    0    0    0 -0.00000000000E+00 -0.00000000000E+00 -0.45593999997E+02  0.45594000000E+02  0.51100000000E-03 0.  1.
         23    2    1    2    0    0  0.35527136788E-14  0.00000000000E+00 -0.35527136788E-14  0.91188000000E+02  0.91188000000E+02 0.  0.
    9900012    2    3    3    0    0 -0.19855966246E+02 -0.18297142724E+02  0.30399355600E+02  0.50528860212E+02  0.30000001100E+02 0.  0.
        -12    1    3    3    0    0  0.19855966246E+02  0.18297142724E+02 -0.30399355600E+02  0.40659139788E+02  0.00000000000E+00 0.  1.
         11    1    4    4    0    0 -0.89375708686E+00 -0.12310070539E+01 -0.25523755110E+01  0.29713298550E+01  0.51100000000E-03 0.  1.
        -11    1    4    4    0    0 -0.45198187304E+01  0.26255780522E+01  0.18405316392E+02  0.19133167360E+02  0.51100000000E-03 0. -1.
         12    1    4    4    0    0 -0.14442390429E+02 -0.19691713722E+02  0.14546414719E+02  0.28424362997E+02  0.00000000000E+00 0. -1.
</event>
<event>
 8    1  0.9870402E-014  0.9118800E+02  0.7816164E-02  0.1184000E+00
        -11   -1    0    0    0    0  0.00000000000E+00  0.00000000000E+00  0.45593999997E+02  0.45594000000E+02  0.51100000000E-03 0. -1.
         11   -1    0    0    0    0 -0.00000000000E+00 -0.00000000000E+00 -0.45593999997E+02  0.45594000000E+02  0.51100000000E-03 0.  1.
         23    2    1    2    0    0 -0.35527136788E-14  0.00000000000E+00  0.35527136788E-14  0.91188000000E+02  0.91188000000E+02 0.  0.
    9900012    2    3    3    0    0  0.26468069366E+02 -0.21286143596E+02 -0.22349662542E+02  0.50528855630E+02  0.29999987173E+02 0.  0.
         12    1    3    3    0    0 -0.26468069366E+02  0.21286143596E+02  0.22349662542E+02  0.40659144370E+02  0.00000000000E+00 0. -1.
         11    1    4    4    0    0  0.15574062527E+02  0.26412338263E+01 -0.25544376750E+01  0.16001646534E+02  0.51100000000E-03 0. -1.
        -11    1    4    4    0    0  0.11390494041E+02 -0.13074166271E+02 -0.13454870616E+02  0.21947909279E+02  0.51100000000E-03 0.  1.
        -12    1    4    4    0    0 -0.49648720157E+00 -0.10853211152E+02 -0.63403542508E+01  0.12579299817E+02  0.00000000000E+00 0.  1.
</event>
<event>
 8    1  0.9870402E-014  0.9118800E+02  0.7816164E-02  0.1184000E+00
        -11   -1    0    0    0    0  0.00000000000E+00  0.00000000000E+00  0.45593999997E+02  0.45594000000E+02  0.51100000000E-03 0. -1.
         11   -1    0    0    0    0 -0.00000000000E+00 -0.00000000000E+00 -0.45593999997E+02  0.45594000000E+02  0.51100000000E-03 0.  1.
         23    2    1    2    0    0  0.00000000000E+00  0.71054273576E-14 -0.35527136788E-14  0.91188000000E+02  0.91188000000E+02 0.  0.
    9900012    2    3    3    0    0  0.13092253535E+02 -0.28141676478E+02  0.26264130425E+02  0.50528860749E+02  0.30000002733E+02 0.  0.
        -12    1    3    3    0    0 -0.13092253535E+02  0.28141676478E+02 -0.26264130425E+02  0.40659139251E+02  0.00000000000E+00 0.  1.
         11    1    4    4    0    0  0.12021520894E+02 -0.13648988053E+02  0.19825366531E+02  0.26904590646E+02  0.51100000000E-03 0. -1.
        -11    1    4    4    0    0  0.59954109235E+01  0.87413309778E+00 -0.45688903791E+00  0.60760026883E+01  0.51100000000E-03 0.  1.
        -12    1    4    4    0    0 -0.49246782826E+01 -0.15366821523E+02  0.68956529321E+01  0.17548267415E+02  0.00000000000E+00 0.  1.
</event>
<event>
 8    1  0.9870402E-014  0.9118800E+02  0.7816164E-02  0.1184000E+00
        -11   -1    0    0    0    0  0.00000000000E+00  0.00000000000E+00  0.45593999997E+02  0.45594000000E+02  0.51100000000E-03 0. -1.
         11   -1    0    0    0    0 -0.00000000000E+00 -0.00000000000E+00 -0.45593999997E+02  0.45594000000E+02  0.51100000000E-03 0.  1.
         23    2    1    2    0    0  0.00000000000E+00  0.35527136788E-14 -0.35527136788E-14  0.91188000000E+02  0.91188000000E+02 0.  0.
    9900012    2    3    3    0    0 -0.24448293934E+02 -0.23567471137E+02  0.22361151873E+02  0.50528857300E+02  0.29999992248E+02 0.  0.
        -12    1    3    3    0    0  0.24448293934E+02  0.23567471137E+02 -0.22361151873E+02  0.40659142700E+02  0.00000000000E+00 0.  1.
         11    1    4    4    0    0 -0.75244525759E+01 -0.67511489522E+01  0.17707245054E+02  0.20389750523E+02  0.51100000000E-03 0. -1.
        -11    1    4    4    0    0 -0.85361310905E+01 -0.16482208173E+02  0.90644916800E+01  0.20656566267E+02  0.51100000000E-03 0.  1.
        -12    1    4    4    0    0 -0.83877102672E+01 -0.33411401219E+00 -0.44105848612E+01  0.94825405097E+01  0.00000000000E+00 0.  1.
</event>
<event>
 8    1  0.9870402E-014  0.9118800E+02  0.7816164E-02  0.1184000E+00
        -11   -1    0    0    0    0  0.00000000000E+00  0.00000000000E+00  0.45593999997E+02  0.45594000000E+02  0.51100000000E-03 0. -1.
         11   -1    0    0    0    0 -0.00000000000E+00 -0.00000000000E+00 -0.45593999997E+02  0.45594000000E+02  0.51100000000E-03 0.  1.
         23    2    1    2    0    0  0.00000000000E+00  0.00000000000E+00  0.00000000000E+00  0.91188000000E+02  0.91188000000E+02 0.  0.
    9900012    2    3    3    0    0 -0.23001909865E+02  0.15745571230E+02 -0.29599902082E+02  0.50528867274E+02  0.30000022565E+02 0.  0.
         12    1    3    3    0    0  0.23001909865E+02 -0.15745571230E+02  0.29599902082E+02  0.40659132726E+02  0.00000000000E+00 0. -1.
         11    1    4    4    0    0  0.43276718726E+01 -0.74127304079E+00 -0.98545411954E+01  0.10788429542E+02  0.51100000000E-03 0. -1.
        -11    1    4    4    0    0 -0.19305642774E+01  0.17610585230E+00  0.18073657435E+01  0.26504080615E+01  0.51100000000E-03 0.  1.
        -12    1    4    4    0    0 -0.25399017460E+02  0.16310738418E+02 -0.21552726630E+02  0.37090029670E+02  0.00000000000E+00 0.  1.
</event>
<event>
 8    1  0.9870402E-014  0.9118800E+02  0.7816164E-02  0.1184000E+00
        -11   -1    0    0    0    0  0.00000000000E+00  0.00000000000E+00  0.45593999997E+02  0.45594000000E+02  0.51100000000E-03 0. -1.
         11   -1    0    0    0    0 -0.00000000000E+00 -0.00000000000E+00 -0.45593999997E+02  0.45594000000E+02  0.51100000000E-03 0.  1.
         23    2    1    2    0    0  0.00000000000E+00  0.00000000000E+00 -0.35527136788E-14  0.91188000000E+02  0.91188000000E+02 0.  0.
    9900012    2    3    3    0    0 -0.31026762431E+02  0.20032860911E+02  0.17005596708E+02  0.50528858068E+02  0.29999994583E+02 0.  0.
        -12    1    3    3    0    0  0.31026762431E+02 -0.20032860911E+02 -0.17005596708E+02  0.40659141932E+02  0.00000000000E+00 0.  1.
         11    1    4    4    0    0 -0.32980910293E+01 -0.98528403771E+00  0.41784566816E+01  0.54136576890E+01  0.51100000000E-03 0. -1.
        -11    1    4    4    0    0 -0.68063898568E+01  0.16162950053E+01  0.14946734108E+02  0.16502854698E+02  0.51100000000E-03 0.  1.
        -12    1    4    4    0    0 -0.20922281545E+02  0.19401849943E+02 -0.21195940814E+01  0.28612345681E+02  0.00000000000E+00 0.  1.
</event>
<event>
 8    1  0.9870402E-014  0.9118800E+02  0.7816164E-02  0.1184000E+00
        -11   -1    0    0    0    0  0.00000000000E+00  0.00000000000E+00  0.45593999997E+02  0.45594000000E+02  0.51100000000E-03 0. -1.
         11   -1    0    0    0    0 -0.00000000000E+00 -0.00000000000E+00 -0.45593999997E+02  0.45594000000E+02  0.51100000000E-03 0.  1.
         23    2    1    2    0    0  0.88817841970E-15  0.71054273576E-14 -0.35527136788E-14  0.91188000000E+02  0.91188000000E+02 0.  0.
    9900012    2    3    3    0    0  0.13599551302E+01  0.33483609161E+02 -0.23025287872E+02  0.50528862749E+02  0.30000008812E+02 0.  0.
         12    1    3    3    0    0 -0.13599551302E+01 -0.33483609161E+02  0.23025287872E+02  0.40659137251E+02  0.00000000000E+00 0. -1.
         11    1    4    4    0    0  0.97416929513E+01  0.12389129853E+02 -0.66610454640E+01  0.17110249764E+02  0.51100000000E-03 0. -1.
        -11    1    4    4    0    0  0.29062245459E+00  0.15885163620E+02 -0.17016996958E+02  0.23280916442E+02  0.51100000000E-03 0.  1.
        -12    1    4    4    0    0 -0.86723602757E+01  0.52093156878E+01  0.65275454998E+00  0.10137696543E+02  0.00000000000E+00 0.  1.
</event>
<event>
 8    1  0.9870402E-014  0.9118800E+02  0.7816164E-02  0.1184000E+00
        -11   -1    0    0    0    0  0.00000000000E+00  0.00000000000E+00  0.45593999997E+02  0.45594000000E+02  0.51100000000E-03 0. -1.
         11   -1    0    0    0    0 -0.00000000000E+00 -0.00000000000E+00 -0.45593999997E+02  0.45594000000E+02  0.51100000000E-03 0.  1.
         23    2    1    2    0    0 -0.35527136788E-14 -0.35527136788E-14  0.00000000000E+00  0.91188000000E+02  0.91188000000E+02 0.  0.
    9900012    2    3    3    0    0  0.27346492872E+02 -0.22602234183E+02 -0.19861370852E+02  0.50528859397E+02  0.29999998623E+02 0.  0.
         12    1    3    3    0    0 -0.27346492872E+02  0.22602234183E+02  0.19861370852E+02  0.40659140603E+02  0.00000000000E+00 0. -1.
         11    1    4    4    0    0 -0.23778900213E+01 -0.76344364273E+01  0.14936305494E+00  0.79975802653E+01  0.51100000000E-03 0. -1.
        -11    1    4    4    0    0  0.77738354468E+01 -0.13055516093E+02 -0.10841119719E+02  0.18665714426E+02  0.51100000000E-03 0.  1.
         12    1    4    4    0    0  0.21950547446E+02 -0.19122816626E+01 -0.91696141881E+01  0.23865564705E+02  0.00000000000E+00 0. -1.
</event>
<event>
 8    1  0.9870402E-014  0.9118800E+02  0.7816164E-02  0.1184000E+00
        -11   -1    0    0    0    0  0.00000000000E+00  0.00000000000E+00  0.45593999997E+02  0.45594000000E+02  0.51100000000E-03 0.  1.
         11   -1    0    0    0    0 -0.00000000000E+00 -0.00000000000E+00 -0.45593999997E+02  0.45594000000E+02  0.51100000000E-03 0. -1.
         23    2    1    2    0    0  0.00000000000E+00  0.00000000000E+00  0.00000000000E+00  0.91188000000E+02  0.91188000000E+02 0.  0.
    9900012    2    3    3    0    0  0.31934843745E+02 -0.24069928017E+02  0.73464258060E+01  0.50528860168E+02  0.30000000966E+02 0.  0.
         12    1    3    3    0    0 -0.31934843745E+02  0.24069928017E+02 -0.73464258060E+01  0.40659139832E+02  0.00000000000E+00 0. -1.
         11    1    4    4    0    0  0.31435091688E+01 -0.14372836490E+02 -0.73475188456E+00  0.14730917801E+02  0.51100000000E-03 0. -1.
        -11    1    4    4    0    0  0.11747245839E+02 -0.53347056683E+01 -0.50390169136E+01  0.13850940802E+02  0.51100000000E-03 0.  1.
        -12    1    4    4    0    0  0.17044088737E+02 -0.43623858591E+01  0.13120194604E+02  0.21947001565E+02  0.00000000000E+00 0.  1.
</event>
<event>
 8    1  0.9870402E-014  0.9118800E+02  0.7816164E-02  0.1184000E+00
        -11   -1    0    0    0    0  0.00000000000E+00  0.00000000000E+00  0.45593999997E+02  0.45594000000E+02  0.51100000000E-03 0. -1.
         11   -1    0    0    0    0 -0.00000000000E+00 -0.00000000000E+00 -0.45593999997E+02  0.45594000000E+02  0.51100000000E-03 0.  1.
         23    2    1    2    0    0 -0.17763568394E-14  0.00000000000E+00  0.00000000000E+00  0.91188000000E+02  0.91188000000E+02 0.  0.
    9900012    2    3    3    0    0  0.15991052793E+02 -0.34738289966E+02 -0.13809461641E+02  0.50528883064E+02  0.30000070561E+02 0.  0.
         12    1    3    3    0    0 -0.15991052793E+02  0.34738289966E+02  0.13809461641E+02  0.40659116936E+02  0.00000000000E+00 0. -1.
         11    1    4    4    0    0  0.19442150768E+01 -0.87872981219E+00 -0.11361169788E+02  0.11559771519E+02  0.51100000000E-03 0. -1.
        -11    1    4    4    0    0  0.70444733155E+01 -0.13085484607E+02 -0.72371117686E+01  0.16529679329E+02  0.51100000000E-03 0.  1.
        -12    1    4    4    0    0  0.70023644011E+01 -0.20774075546E+02  0.47888199161E+01  0.22439432217E+02  0.00000000000E+00 0.  1.
</event>
<event>
 8    1  0.9870402E-014  0.9118800E+02  0.7816164E-02  0.1184000E+00
        -11   -1    0    0    0    0  0.00000000000E+00  0.00000000000E+00  0.45593999997E+02  0.45594000000E+02  0.51100000000E-03 0. -1.
         11   -1    0    0    0    0 -0.00000000000E+00 -0.00000000000E+00 -0.45593999997E+02  0.45594000000E+02  0.51100000000E-03 0.  1.
         23    2    1    2    0    0  0.00000000000E+00  0.00000000000E+00  0.35527136788E-14  0.91188000000E+02  0.91188000000E+02 0.  0.
    9900012    2    3    3    0    0  0.19729045551E+02  0.18649799359E+02 -0.30267401915E+02  0.50528857447E+02  0.29999992695E+02 0.  0.
         12    1    3    3    0    0 -0.19729045551E+02 -0.18649799359E+02  0.30267401915E+02  0.40659142553E+02  0.00000000000E+00 0. -1.
         11    1    4    4    0    0 -0.16570564575E+01  0.46341392611E+01  0.19808252847E+01  0.53051627557E+01  0.51100000000E-03 0. -1.
        -11    1    4    4    0    0 -0.10258318826E+01  0.19293288029E+01 -0.13314559077E+02  0.13492669282E+02  0.51100000000E-03 0.  1.
        -12    1    4    4    0    0  0.22411933891E+02  0.12086331295E+02 -0.18933668123E+02  0.31731025409E+02  0.00000000000E+00 0.  1.
</event>
<event>
 8    1  0.9870402E-014  0.9118800E+02  0.7816164E-02  0.1184000E+00
        -11   -1    0    0    0    0  0.00000000000E+00  0.00000000000E+00  0.45593999997E+02  0.45594000000E+02  0.51100000000E-03 0. -1.
         11   -1    0    0    0    0 -0.00000000000E+00 -0.00000000000E+00 -0.45593999997E+02  0.45594000000E+02  0.51100000000E-03 0.  1.
         23    2    1    2    0    0  0.53290705182E-14 -0.35527136788E-14  0.71054273576E-14  0.91188000000E+02  0.91188000000E+02 0.  0.
    9900012    2    3    3    0    0 -0.13416843358E+02  0.23547256241E+02 -0.30309745654E+02  0.50528860268E+02  0.30000001270E+02 0.  0.
         12    1    3    3    0    0  0.13416843358E+02 -0.23547256241E+02  0.30309745654E+02  0.40659139732E+02  0.00000000000E+00 0. -1.
         11    1    4    4    0    0 -0.33631817155E+01 -0.13947997944E+01 -0.26629340897E+01  0.45108398270E+01  0.51100000000E-03 0. -1.
        -11    1    4    4    0    0 -0.15757978007E+02  0.17154063118E+02 -0.27919786019E+02  0.36360558356E+02  0.51100000000E-03 0.  1.
         12    1    4    4    0    0  0.57043163653E+01  0.77879929171E+01  0.27297445436E+00  0.96574620851E+01  0.00000000000E+00 0. -1.
</event>
<event>
 8    1  0.9870402E-014  0.9118800E+02  0.7816164E-02  0.1184000E+00
        -11   -1    0    0    0    0  0.00000000000E+00  0.00000000000E+00  0.45593999997E+02  0.45594000000E+02  0.51100000000E-03 0. -1.
         11   -1    0    0    0    0 -0.00000000000E+00 -0.00000000000E+00 -0.45593999997E+02  0.45594000000E+02  0.51100000000E-03 0.  1.
         23    2    1    2    0    0  0.00000000000E+00  0.00000000000E+00 -0.35527136788E-14  0.91188000000E+02  0.91188000000E+02 0.  0.
    9900012    2    3    3    0    0  0.26909113453E+02 -0.43097421307E+01  0.30174349874E+02  0.50528860137E+02  0.30000000873E+02 0.  0.
        -12    1    3    3    0    0 -0.26909113453E+02  0.43097421307E+01 -0.30174349874E+02  0.40659139863E+02  0.00000000000E+00 0.  1.
         11    1    4    4    0    0 -0.17516748040E+01 -0.51735497926E+00 -0.11762548326E+01  0.21724632300E+01  0.51100000000E-03 0.  1.
        -11    1    4    4    0    0  0.31724268946E+02 -0.68342761704E+01  0.28431497517E+02  0.43144948977E+02  0.51100000000E-03 0. -1.
         12    1    4    4    0    0 -0.30634806895E+01  0.30418890190E+01  0.29191071899E+01  0.52114479298E+01  0.00000000000E+00 0. -1.
</event>
<event>
 8    1  0.9870402E-014  0.9118800E+02  0.7816164E-02  0.1184000E+00
        -11   -1    0    0    0    0  0.00000000000E+00  0.00000000000E+00  0.45593999997E+02  0.45594000000E+02  0.51100000000E-03 0. -1.
         11   -1    0    0    0    0 -0.00000000000E+00 -0.00000000000E+00 -0.45593999997E+02  0.45594000000E+02  0.51100000000E-03 0.  1.
         23    2    1    2    0    0  0.00000000000E+00  0.00000000000E+00  0.00000000000E+00  0.91188000000E+02  0.91188000000E+02 0.  0.
    9900012    2    3    3    0    0 -0.19431105112E+02  0.57132324478E+01 -0.35255589027E+02  0.50528862915E+02  0.30000009316E+02 0.  0.
         12    1    3    3    0    0  0.19431105112E+02 -0.57132324478E+01  0.35255589027E+02  0.40659137085E+02  0.00000000000E+00 0. -1.
         11    1    4    4    0    0  0.12298914320E+01  0.31144605118E+01 -0.13077229281E+02  0.13499126754E+02  0.51100000000E-03 0. -1.
        -11    1    4    4    0    0 -0.14810000379E+02 -0.26485332735E+01 -0.24573730506E+02  0.28813522363E+02  0.51100000000E-03 0.  1.
        -12    1    4    4    0    0 -0.58509961649E+01  0.52473052095E+01  0.23953707596E+01  0.82162137971E+01  0.00000000000E+00 0.  1.
</event>
<event>
 8    1  0.9870402E-014  0.9118800E+02  0.7816164E-02  0.1184000E+00
        -11   -1    0    0    0    0  0.00000000000E+00  0.00000000000E+00  0.45593999997E+02  0.45594000000E+02  0.51100000000E-03 0. -1.
         11   -1    0    0    0    0 -0.00000000000E+00 -0.00000000000E+00 -0.45593999997E+02  0.45594000000E+02  0.51100000000E-03 0.  1.
         23    2    1    2    0    0 -0.17763568394E-14  0.00000000000E+00  0.00000000000E+00  0.91188000000E+02  0.91188000000E+02 0.  0.
    9900012    2    3    3    0    0  0.65317657538E+01  0.95929814153E+01 -0.38967552490E+02  0.50528937009E+02  0.30000234531E+02 0.  0.
         12    1    3    3    0    0 -0.65317657538E+01 -0.95929814153E+01  0.38967552490E+02  0.40659062991E+02  0.00000000000E+00 0. -1.
         11    1    4    4    0    0 -0.22356082027E+01  0.55987296593E+01  0.16763151497E+01  0.62572957878E+01  0.51100000000E-03 0. -1.
        -11    1    4    4    0    0  0.89551156810E+01  0.44785250990E+01 -0.12023632843E+02  0.15646693930E+02  0.51100000000E-03 0.  1.
         12    1    4    4    0    0 -0.18774172458E+00 -0.48427334301E+00 -0.28620234796E+02  0.28624947291E+02  0.00000000000E+00 0. -1.
</event>
<event>
 8    1  0.9870402E-014  0.9118800E+02  0.7816164E-02  0.1184000E+00
        -11   -1    0    0    0    0  0.00000000000E+00  0.00000000000E+00  0.45593999997E+02  0.45594000000E+02  0.51100000000E-03 0. -1.
         11   -1    0    0    0    0 -0.00000000000E+00 -0.00000000000E+00 -0.45593999997E+02  0.45594000000E+02  0.51100000000E-03 0.  1.
         23    2    1    2    0    0  0.00000000000E+00  0.35527136788E-14  0.35527136788E-14  0.91188000000E+02  0.91188000000E+02 0.  0.
    9900012    2    3    3    0    0  0.18829632574E+02 -0.29035738727E+02  0.21343322932E+02  0.50528848262E+02  0.29999964777E+02 0.  0.
        -12    1    3    3    0    0 -0.18829632574E+02  0.29035738727E+02 -0.21343322932E+02  0.40659151738E+02  0.00000000000E+00 0.  1.
         11    1    4    4    0    0  0.91793600828E+01 -0.23921814706E+02  0.24226143326E+01  0.25736801099E+02  0.51100000000E-03 0. -1.
        -11    1    4    4    0    0 -0.58498692541E+00  0.81790383488E+00  0.98075614669E+01  0.98589775623E+01  0.51100000000E-03 0.  1.
        -12    1    4    4    0    0  0.10235259417E+02 -0.59318278558E+01  0.91131471322E+01  0.14933069601E+02  0.00000000000E+00 0.  1.
</event>
<event>
 8    1  0.9870402E-014  0.9118800E+02  0.7816164E-02  0.1184000E+00
        -11   -1    0    0    0    0  0.00000000000E+00  0.00000000000E+00  0.45593999997E+02  0.45594000000E+02  0.51100000000E-03 0. -1.
         11   -1    0    0    0    0 -0.00000000000E+00 -0.00000000000E+00 -0.45593999997E+02  0.45594000000E+02  0.51100000000E-03 0.  1.
         23    2    1    2    0    0 -0.17763568394E-14 -0.17763568394E-14  0.00000000000E+00  0.91188000000E+02  0.91188000000E+02 0.  0.
    9900012    2    3    3    0    0 -0.14495831169E+02 -0.13384776943E+02 -0.35551142652E+02  0.50528866721E+02  0.30000020886E+02 0.  0.
         12    1    3    3    0    0  0.14495831169E+02  0.13384776943E+02  0.35551142652E+02  0.40659133279E+02  0.00000000000E+00 0. -1.
         11    1    4    4    0    0 -0.31402725587E+01 -0.10033575777E+02 -0.65842513313E+01  0.12405092522E+02  0.51100000000E-03 0. -1.
        -11    1    4    4    0    0  0.21456953103E+01 -0.55245229831E+01 -0.21984362190E+02  0.22769201648E+02  0.51100000000E-03 0.  1.
         12    1    4    4    0    0 -0.13501253921E+02  0.21733218174E+01 -0.69825291311E+01  0.15354572551E+02  0.00000000000E+00 0. -1.
</event>
<event>
 8    1  0.9870402E-014  0.9118800E+02  0.7816164E-02  0.1184000E+00
        -11   -1    0    0    0    0  0.00000000000E+00  0.00000000000E+00  0.45593999997E+02  0.45594000000E+02  0.51100000000E-03 0. -1.
         11   -1    0    0    0    0 -0.00000000000E+00 -0.00000000000E+00 -0.45593999997E+02  0.45594000000E+02  0.51100000000E-03 0.  1.
         23    2    1    2    0    0  0.00000000000E+00  0.11102230246E-14 -0.35527136788E-14  0.91188000000E+02  0.91188000000E+02 0.  0.
    9900012    2    3    3    0    0 -0.30333805771E+02 -0.65023301481E+00 -0.27066638686E+02  0.50528861971E+02  0.30000006446E+02 0.  0.
         12    1    3    3    0    0  0.30333805771E+02  0.65023301481E+00  0.27066638686E+02  0.40659138029E+02  0.00000000000E+00 0. -1.
         11    1    4    4    0    0 -0.14005401998E+02 -0.84510410000E+01 -0.43820688040E+01  0.16934400089E+02  0.51100000000E-03 0. -1.
        -11    1    4    4    0    0  0.44977745583E+00 -0.31752588266E+01 -0.83587044381E+01  0.89527933362E+01  0.51100000000E-03 0.  1.
        -12    1    4    4    0    0 -0.16778181229E+02  0.10976066812E+02 -0.14325865444E+02  0.24641668546E+02  0.00000000000E+00 0.  1.
</event>
<event>
 8    1  0.9870402E-014  0.9118800E+02  0.7816164E-02  0.1184000E+00
        -11   -1    0    0    0    0  0.00000000000E+00  0.00000000000E+00  0.45593999997E+02  0.45594000000E+02  0.51100000000E-03 0. -1.
         11   -1    0    0    0    0 -0.00000000000E+00 -0.00000000000E+00 -0.45593999997E+02  0.45594000000E+02  0.51100000000E-03 0.  1.
         23    2    1    2    0    0  0.11102230246E-14 -0.17763568394E-14  0.00000000000E+00  0.91188000000E+02  0.91188000000E+02 0.  0.
    9900012    2    3    3    0    0 -0.10037232145E+01  0.10734927038E+02  0.39203551931E+02  0.50528873069E+02  0.30000040181E+02 0.  0.
        -12    1    3    3    0    0  0.10037232145E+01 -0.10734927038E+02 -0.39203551931E+02  0.40659126931E+02  0.00000000000E+00 0.  1.
         11    1    4    4    0    0  0.72550434162E+01  0.39226865146E+01  0.11851234562E+02  0.14438659404E+02  0.51100000000E-03 0. -1.
        -11    1    4    4    0    0 -0.14180425344E+01  0.12716926773E+02  0.90316781491E+01  0.15662128898E+02  0.51100000000E-03 0.  1.
         12    1    4    4    0    0 -0.68407240963E+01 -0.59046862497E+01  0.18320639219E+02  0.20428084767E+02  0.00000000000E+00 0. -1.
</event>
<event>
 8    1  0.9870402E-014  0.9118800E+02  0.7816164E-02  0.1184000E+00
        -11   -1    0    0    0    0  0.00000000000E+00  0.00000000000E+00  0.45593999997E+02  0.45594000000E+02  0.51100000000E-03 0. -1.
         11   -1    0    0    0    0 -0.00000000000E+00 -0.00000000000E+00 -0.45593999997E+02  0.45594000000E+02  0.51100000000E-03 0.  1.
         23    2    1    2    0    0  0.00000000000E+00  0.71054273576E-14  0.00000000000E+00  0.91188000000E+02  0.91188000000E+02 0.  0.
    9900012    2    3    3    0    0  0.15780620258E+02  0.35830495421E+02  0.10968937064E+02  0.50528807212E+02  0.29999840002E+02 0.  0.
        -12    1    3    3    0    0 -0.15780620258E+02 -0.35830495421E+02 -0.10968937064E+02  0.40659192788E+02  0.00000000000E+00 0.  1.
         11    1    4    4    0    0  0.38660847722E+01  0.33756006135E+02  0.46587624862E+01  0.34294586013E+02  0.51100000000E-03 0. -1.
        -11    1    4    4    0    0 -0.58276999383E+00  0.15013665612E+01 -0.84856993192E+00  0.18203828189E+01  0.51100000000E-03 0.  1.
        -12    1    4    4    0    0  0.12497305480E+02  0.57312272487E+00  0.71587445092E+01  0.14413838381E+02  0.00000000000E+00 0.  1.
</event>
<event>
 8    1  0.9870402E-014  0.9118800E+02  0.7816164E-02  0.1184000E+00
        -11   -1    0    0    0    0  0.00000000000E+00  0.00000000000E+00  0.45593999997E+02  0.45594000000E+02  0.51100000000E-03 0. -1.
         11   -1    0    0    0    0 -0.00000000000E+00 -0.00000000000E+00 -0.45593999997E+02  0.45594000000E+02  0.51100000000E-03 0.  1.
         23    2    1    2    0    0  0.00000000000E+00 -0.35527136788E-14 -0.35527136788E-14  0.91188000000E+02  0.91188000000E+02 0.  0.
    9900012    2    3    3    0    0  0.22935372448E+02  0.23492907813E+02  0.23983700374E+02  0.50528856988E+02  0.29999991302E+02 0.  0.
        -12    1    3    3    0    0 -0.22935372448E+02 -0.23492907813E+02 -0.23983700374E+02  0.40659143012E+02  0.00000000000E+00 0.  1.
         11    1    4    4    0    0  0.47299540960E+00  0.74480927857E+01 -0.18226969396E+01  0.76824498174E+01  0.51100000000E-03 0. -1.
        -11    1    4    4    0    0  0.14702484248E+02 -0.10581225734E+01  0.71839158625E+01  0.16397905775E+02  0.51100000000E-03 0.  1.
         12    1    4    4    0    0  0.77598927903E+01  0.17102937601E+02  0.18622481451E+02  0.26448501396E+02  0.00000000000E+00 0. -1.
</event>
<event>
 8    1  0.9870402E-014  0.9118800E+02  0.7816164E-02  0.1184000E+00
        -11   -1    0    0    0    0  0.00000000000E+00  0.00000000000E+00  0.45593999997E+02  0.45594000000E+02  0.51100000000E-03 0. -1.
         11   -1    0    0    0    0 -0.00000000000E+00 -0.00000000000E+00 -0.45593999997E+02  0.45594000000E+02  0.51100000000E-03 0.  1.
         23    2    1    2    0    0  0.00000000000E+00  0.00000000000E+00  0.00000000000E+00  0.91188000000E+02  0.91188000000E+02 0.  0.
    9900012    2    3    3    0    0 -0.23806371030E+02 -0.24385794572E+01  0.32870562584E+02  0.50528882253E+02  0.30000068095E+02 0.  0.
        -12    1    3    3    0    0  0.23806371030E+02  0.24385794572E+01 -0.32870562584E+02  0.40659117747E+02  0.00000000000E+00 0.  1.
         11    1    4    4    0    0 -0.18215319279E+02 -0.14551601484E+02  0.17450539423E+02  0.29121612054E+02  0.51100000000E-03 0. -1.
        -11    1    4    4    0    0  0.12078205965E+01  0.75416492441E+00  0.62726920392E+00  0.15559762986E+01  0.51100000000E-03 0.  1.
         12    1    4    4    0    0 -0.67988723478E+01  0.11358857103E+02  0.14792753957E+02  0.19851293900E+02  0.00000000000E+00 0. -1.
</event>
<event>
 8    1  0.9870402E-014  0.9118800E+02  0.7816164E-02  0.1184000E+00
        -11   -1    0    0    0    0  0.00000000000E+00  0.00000000000E+00  0.45593999997E+02  0.45594000000E+02  0.51100000000E-03 0. -1.
         11   -1    0    0    0    0 -0.00000000000E+00 -0.00000000000E+00 -0.45593999997E+02  0.45594000000E+02  0.51100000000E-03 0.  1.
         23    2    1    2    0    0  0.17763568394E-14 -0.35527136788E-14  0.00000000000E+00  0.91188000000E+02  0.91188000000E+02 0.  0.
    9900012    2    3    3    0    0  0.94960131399E+01 -0.22268439434E+02 -0.32666616703E+02  0.50528861947E+02  0.30000006374E+02 0.  0.
         12    1    3    3    0    0 -0.94960131399E+01  0.22268439434E+02  0.32666616703E+02  0.40659138053E+02  0.00000000000E+00 0. -1.
         11    1    4    4    0    0  0.18036349598E+01  0.40058782914E+01  0.14494979966E+01  0.46261436054E+01  0.51100000000E-03 0. -1.
        -11    1    4    4    0    0 -0.26760395419E+01 -0.14847863601E+02 -0.19446025796E+02  0.24612357885E+02  0.51100000000E-03 0.  1.
        -12    1    4    4    0    0  0.10368417722E+02 -0.11426454125E+02 -0.14670088904E+02  0.21290360456E+02  0.00000000000E+00 0.  1.
</event>
<event>
 8    1  0.9870402E-014  0.9118800E+02  0.7816164E-02  0.1184000E+00
        -11   -1    0    0    0    0  0.00000000000E+00  0.00000000000E+00  0.45593999997E+02  0.45594000000E+02  0.51100000000E-03 0. -1.
         11   -1    0    0    0    0 -0.00000000000E+00 -0.00000000000E+00 -0.45593999997E+02  0.45594000000E+02  0.51100000000E-03 0.  1.
         23    2    1    2    0    0  0.00000000000E+00  0.71054273576E-14  0.00000000000E+00  0.91188000000E+02  0.91188000000E+02 0.  0.
    9900012    2    3    3    0    0 -0.94741195661E+00  0.33740264550E+02 -0.22668440674E+02  0.50528914374E+02  0.30000165731E+02 0.  0.
         12    1    3    3    0    0  0.94741195661E+00 -0.33740264550E+02  0.22668440674E+02  0.40659085626E+02  0.00000000000E+00 0. -1.
         11    1    4    4    0    0 -0.26266275824E+01 -0.45211140855E+01 -0.43078564434E+01  0.67747525732E+01  0.51100000000E-03 0. -1.
        -11    1    4    4    0    0  0.94142910967E+00  0.53909186623E+01 -0.71771135120E+01  0.90254779052E+01  0.51100000000E-03 0.  1.
        -12    1    4    4    0    0  0.73778651613E+00  0.32870459974E+02 -0.11183470718E+02  0.34728683896E+02  0.00000000000E+00 0.  1.
</event>
<event>
 8    1  0.9870402E-014  0.9118800E+02  0.7816164E-02  0.1184000E+00
        -11   -1    0    0    0    0  0.00000000000E+00  0.00000000000E+00  0.45593999997E+02  0.45594000000E+02  0.51100000000E-03 0. -1.
         11   -1    0    0    0    0 -0.00000000000E+00 -0.00000000000E+00 -0.45593999997E+02  0.45594000000E+02  0.51100000000E-03 0.  1.
         23    2    1    2    0    0  0.00000000000E+00  0.00000000000E+00 -0.35527136788E-14  0.91188000000E+02  0.91188000000E+02 0.  0.
    9900012    2    3    3    0    0 -0.80294145510E+01 -0.27791757268E+02 -0.28571170168E+02  0.50528867756E+02  0.30000024032E+02 0.  0.
         12    1    3    3    0    0  0.80294145510E+01  0.27791757268E+02  0.28571170168E+02  0.40659132244E+02  0.00000000000E+00 0. -1.
         11    1    4    4    0    0  0.18106478454E+01 -0.51382824452E+01  0.35033590074E+01  0.64771843190E+01  0.51100000000E-03 0. -1.
        -11    1    4    4    0    0  0.49604009390E+01 -0.44848813093E+01 -0.84502091203E+01  0.10776166864E+02  0.51100000000E-03 0.  1.
         12    1    4    4    0    0 -0.14800463335E+02 -0.18168593513E+02 -0.23624320055E+02  0.33275516574E+02  0.00000000000E+00 0. -1.
</event>
<event>
 8    1  0.9870402E-014  0.9118800E+02  0.7816164E-02  0.1184000E+00
        -11   -1    0    0    0    0  0.00000000000E+00  0.00000000000E+00  0.45593999997E+02  0.45594000000E+02  0.51100000000E-03 0. -1.
         11   -1    0    0    0    0 -0.00000000000E+00 -0.00000000000E+00 -0.45593999997E+02  0.45594000000E+02  0.51100000000E-03 0.  1.
         23    2    1    2    0    0 -0.22204460493E-15  0.17763568394E-14  0.71054273576E-14  0.91188000000E+02  0.91188000000E+02 0.  0.
    9900012    2    3    3    0    0 -0.30426039912E+00  0.10643970373E+02  0.39240029407E+02  0.50528848662E+02  0.29999965993E+02 0.  0.
        -12    1    3    3    0    0  0.30426039912E+00 -0.10643970373E+02 -0.39240029407E+02  0.40659151338E+02  0.00000000000E+00 0.  1.
         11    1    4    4    0    0  0.40313782113E+01  0.14402895259E+02  0.26129976111E+02  0.30107657729E+02  0.51100000000E-03 0. -1.
        -11    1    4    4    0    0 -0.38448418934E+01  0.75825132135E+00  0.14997462610E+02  0.15501020588E+02  0.51100000000E-03 0.  1.
        -12    1    4    4    0    0 -0.49079671704E+00 -0.45171762075E+01 -0.18874093140E+01  0.49201703452E+01  0.00000000000E+00 0.  1.
</event>
<event>
 8    1  0.9870402E-014  0.9118800E+02  0.7816164E-02  0.1184000E+00
        -11   -1    0    0    0    0  0.00000000000E+00  0.00000000000E+00  0.45593999997E+02  0.45594000000E+02  0.51100000000E-03 0. -1.
         11   -1    0    0    0    0 -0.00000000000E+00 -0.00000000000E+00 -0.45593999997E+02  0.45594000000E+02  0.51100000000E-03 0.  1.
         23    2    1    2    0    0  0.17763568394E-14  0.00000000000E+00  0.00000000000E+00  0.91188000000E+02  0.91188000000E+02 0.  0.
    9900012    2    3    3    0    0 -0.12042939620E+02 -0.26460070878E+01  0.38744443320E+02  0.50528860359E+02  0.30000001546E+02 0.  0.
        -12    1    3    3    0    0  0.12042939620E+02  0.26460070878E+01 -0.38744443320E+02  0.40659139641E+02  0.00000000000E+00 0.  1.
         11    1    4    4    0    0  0.50911543717E+00  0.39553377277E+01  0.80743635231E+00  0.40688879061E+01  0.51100000000E-03 0. -1.
        -11    1    4    4    0    0 -0.92808045007E+00 -0.74803901629E+01  0.85171604874E+00  0.75857096437E+01  0.51100000000E-03 0.  1.
         12    1    4    4    0    0 -0.11623974607E+02  0.87904534743E+00  0.37085290919E+02  0.38874262809E+02  0.00000000000E+00 0. -1.
</event>
<event>
 8    1  0.9870402E-014  0.9118800E+02  0.7816164E-02  0.1184000E+00
        -11   -1    0    0    0    0  0.00000000000E+00  0.00000000000E+00  0.45593999997E+02  0.45594000000E+02  0.51100000000E-03 0. -1.
         11   -1    0    0    0    0 -0.00000000000E+00 -0.00000000000E+00 -0.45593999997E+02  0.45594000000E+02  0.51100000000E-03 0.  1.
         23    2    1    2    0    0  0.00000000000E+00  0.00000000000E+00  0.71054273576E-14  0.91188000000E+02  0.91188000000E+02 0.  0.
    9900012    2    3    3    0    0  0.81424956484E+01 -0.62455228297E+01 -0.39342824860E+02  0.50528872381E+02  0.30000038088E+02 0.  0.
         12    1    3    3    0    0 -0.81424956484E+01  0.62455228297E+01  0.39342824860E+02  0.40659127619E+02  0.00000000000E+00 0. -1.
         11    1    4    4    0    0  0.17241506835E+01  0.50151847537E+01 -0.22360347884E+01  0.57553996845E+01  0.51100000000E-03 0. -1.
        -11    1    4    4    0    0 -0.57975234512E+01  0.21297640836E+01 -0.51827472385E+01  0.80627565025E+01  0.51100000000E-03 0.  1.
        -12    1    4    4    0    0  0.12215868416E+02 -0.13390471667E+02 -0.31924042833E+02  0.36710716194E+02  0.00000000000E+00 0.  1.
</event>
<event>
 8    1  0.9870402E-014  0.9118800E+02  0.7816164E-02  0.1184000E+00
        -11   -1    0    0    0    0  0.00000000000E+00  0.00000000000E+00  0.45593999997E+02  0.45594000000E+02  0.51100000000E-03 0. -1.
         11   -1    0    0    0    0 -0.00000000000E+00 -0.00000000000E+00 -0.45593999997E+02  0.45594000000E+02  0.51100000000E-03 0.  1.
         23    2    1    2    0    0  0.00000000000E+00 -0.35527136788E-14  0.00000000000E+00  0.91188000000E+02  0.91188000000E+02 0.  0.
    9900012    2    3    3    0    0  0.25001651051E+02  0.26268694267E+02 -0.18385881729E+02  0.50528837432E+02  0.29999931859E+02 0.  0.
         12    1    3    3    0    0 -0.25001651051E+02 -0.26268694267E+02  0.18385881729E+02  0.40659162568E+02  0.00000000000E+00 0. -1.
         11    1    4    4    0    0  0.12628970396E+02  0.49700143421E+01  0.24731543893E+00  0.13573986188E+02  0.51100000000E-03 0. -1.
        -11    1    4    4    0    0  0.71636056961E+01 -0.43234224335E+00 -0.11392354077E+02  0.13464393713E+02  0.51100000000E-03 0.  1.
        -12    1    4    4    0    0  0.52090749588E+01  0.21731022168E+02 -0.72408430910E+01  0.23490457532E+02  0.00000000000E+00 0.  1.
</event>
<event>
 8    1  0.9870402E-014  0.9118800E+02  0.7816164E-02  0.1184000E+00
        -11   -1    0    0    0    0  0.00000000000E+00  0.00000000000E+00  0.45593999997E+02  0.45594000000E+02  0.51100000000E-03 0.  1.
         11   -1    0    0    0    0 -0.00000000000E+00 -0.00000000000E+00 -0.45593999997E+02  0.45594000000E+02  0.51100000000E-03 0. -1.
         23    2    1    2    0    0 -0.17763568394E-14 -0.17763568394E-14  0.00000000000E+00  0.91188000000E+02  0.91188000000E+02 0.  0.
    9900012    2    3    3    0    0  0.12659405333E+02  0.15405532685E+02  0.35434081575E+02  0.50528866736E+02  0.30000020931E+02 0.  0.
        -12    1    3    3    0    0 -0.12659405333E+02 -0.15405532685E+02 -0.35434081575E+02  0.40659133264E+02  0.00000000000E+00 0.  1.
         11    1    4    4    0    0  0.61636250513E+01  0.13938377807E+01 -0.23232585623E+01  0.67327994282E+01  0.51100000000E-03 0. -1.
        -11    1    4    4    0    0  0.91787301220E+01  0.34776870572E+01  0.10121561818E+02  0.14099269762E+02  0.51100000000E-03 0.  1.
        -12    1    4    4    0    0 -0.26829498408E+01  0.10534007847E+02  0.27635778319E+02  0.29696797546E+02  0.00000000000E+00 0.  1.
</event>
<event>
 8    1  0.9870402E-014  0.9118800E+02  0.7816164E-02  0.1184000E+00
        -11   -1    0    0    0    0  0.00000000000E+00  0.00000000000E+00  0.45593999997E+02  0.45594000000E+02  0.51100000000E-03 0. -1.
         11   -1    0    0    0    0 -0.00000000000E+00 -0.00000000000E+00 -0.45593999997E+02  0.45594000000E+02  0.51100000000E-03 0.  1.
         23    2    1    2    0    0  0.00000000000E+00  0.00000000000E+00  0.35527136788E-14  0.91188000000E+02  0.91188000000E+02 0.  0.
    9900012    2    3    3    0    0 -0.24335409343E+02 -0.98480193197E+01  0.31047894434E+02  0.50528838902E+02  0.29999936326E+02 0.  0.
        -12    1    3    3    0    0  0.24335409343E+02  0.98480193197E+01 -0.31047894434E+02  0.40659161098E+02  0.00000000000E+00 0.  1.
         11    1    4    4    0    0 -0.18385061695E+02 -0.11958086628E+02  0.10968472925E+02  0.24521699123E+02  0.51100000000E-03 0. -1.
        -11    1    4    4    0    0 -0.59353725402E+01  0.23661696695E+01  0.48172691138E+00  0.64077661610E+01  0.51100000000E-03 0.  1.
         12    1    4    4    0    0 -0.14975107980E-01 -0.25610236113E+00  0.19597694597E+02  0.19599373618E+02  0.00000000000E+00 0. -1.
</event>
<event>
 8    1  0.9870402E-014  0.9118800E+02  0.7816164E-02  0.1184000E+00
        -11   -1    0    0    0    0  0.00000000000E+00  0.00000000000E+00  0.45593999997E+02  0.45594000000E+02  0.51100000000E-03 0.  1.
         11   -1    0    0    0    0 -0.00000000000E+00 -0.00000000000E+00 -0.45593999997E+02  0.45594000000E+02  0.51100000000E-03 0. -1.
         23    2    1    2    0    0  0.35527136788E-14  0.00000000000E+00  0.00000000000E+00  0.91188000000E+02  0.91188000000E+02 0.  0.
    9900012    2    3    3    0    0 -0.31230972666E+02 -0.18230663629E+02 -0.18585921403E+02  0.50528840830E+02  0.29999942188E+02 0.  0.
         12    1    3    3    0    0  0.31230972666E+02  0.18230663629E+02  0.18585921403E+02  0.40659159170E+02  0.00000000000E+00 0. -1.
         11    1    4    4    0    0 -0.38143011199E+01 -0.10565064973E+02 -0.94797694891E+01  0.14698146847E+02  0.51100000000E-03 0. -1.
        -11    1    4    4    0    0 -0.33411669390E+01  0.55141475899E+01 -0.48225609012E+01  0.80514789986E+01  0.51100000000E-03 0.  1.
        -12    1    4    4    0    0 -0.24075504607E+02 -0.13179746245E+02 -0.42835910125E+01  0.27779214984E+02  0.00000000000E+00 0.  1.
</event>
<event>
 8    1  0.9870402E-014  0.9118800E+02  0.7816164E-02  0.1184000E+00
        -11   -1    0    0    0    0  0.00000000000E+00  0.00000000000E+00  0.45593999997E+02  0.45594000000E+02  0.51100000000E-03 0. -1.
         11   -1    0    0    0    0 -0.00000000000E+00 -0.00000000000E+00 -0.45593999997E+02  0.45594000000E+02  0.51100000000E-03 0.  1.
         23    2    1    2    0    0  0.00000000000E+00  0.17763568394E-14  0.71054273576E-14  0.91188000000E+02  0.91188000000E+02 0.  0.
    9900012    2    3    3    0    0 -0.72496979534E+01 -0.58955466305E+01 -0.39570819933E+02  0.50528863503E+02  0.30000011105E+02 0.  0.
         12    1    3    3    0    0  0.72496979534E+01  0.58955466305E+01  0.39570819933E+02  0.40659136497E+02  0.00000000000E+00 0. -1.
         11    1    4    4    0    0 -0.16080056844E+01 -0.22889744194E+01 -0.50974650245E+01  0.58145710169E+01  0.51100000000E-03 0. -1.
        -11    1    4    4    0    0 -0.73583805159E+01 -0.51608239864E+01 -0.38788961333E+02  0.39816622027E+02  0.51100000000E-03 0.  1.
         12    1    4    4    0    0  0.17166882468E+01  0.15542517753E+01  0.43156064249E+01  0.48976704598E+01  0.00000000000E+00 0. -1.
</event>
<event>
 8    1  0.9870402E-014  0.9118800E+02  0.7816164E-02  0.1184000E+00
        -11   -1    0    0    0    0  0.00000000000E+00  0.00000000000E+00  0.45593999997E+02  0.45594000000E+02  0.51100000000E-03 0. -1.
         11   -1    0    0    0    0 -0.00000000000E+00 -0.00000000000E+00 -0.45593999997E+02  0.45594000000E+02  0.51100000000E-03 0.  1.
         23    2    1    2    0    0 -0.17763568394E-14  0.22204460493E-15  0.00000000000E+00  0.91188000000E+02  0.91188000000E+02 0.  0.
    9900012    2    3    3    0    0 -0.15817705829E+02  0.14840150339E+01 -0.37426784061E+02  0.50528852401E+02  0.29999977358E+02 0.  0.
         12    1    3    3    0    0  0.15817705829E+02 -0.14840150339E+01  0.37426784061E+02  0.40659147599E+02  0.00000000000E+00 0. -1.
         11    1    4    4    0    0 -0.39419735951E+01  0.15674989208E+01  0.44110013317E+01  0.61198971969E+01  0.51100000000E-03 0. -1.
        -11    1    4    4    0    0 -0.66344616088E+01  0.38955072049E+01 -0.16108264589E+02  0.17851253333E+02  0.51100000000E-03 0.  1.
        -12    1    4    4    0    0 -0.52412706252E+01 -0.39789910917E+01 -0.25729520804E+02  0.26557701871E+02  0.00000000000E+00 0.  1.
</event>
<event>
 8    1  0.9870402E-014  0.9118800E+02  0.7816164E-02  0.1184000E+00
        -11   -1    0    0    0    0  0.00000000000E+00  0.00000000000E+00  0.45593999997E+02  0.45594000000E+02  0.51100000000E-03 0. -1.
         11   -1    0    0    0    0 -0.00000000000E+00 -0.00000000000E+00 -0.45593999997E+02  0.45594000000E+02  0.51100000000E-03 0.  1.
         23    2    1    2    0    0  0.00000000000E+00  0.17763568394E-14  0.00000000000E+00  0.91188000000E+02  0.91188000000E+02 0.  0.
    9900012    2    3    3    0    0  0.34095601287E+02  0.14552827515E+02  0.16699391673E+02  0.50528874357E+02  0.30000044096E+02 0.  0.
        -12    1    3    3    0    0 -0.34095601287E+02 -0.14552827515E+02 -0.16699391673E+02  0.40659125643E+02  0.00000000000E+00 0.  1.
         11    1    4    4    0    0  0.37368671643E+00 -0.41643272581E+01  0.50462361647E+01  0.65533016843E+01  0.51100000000E-03 0. -1.
        -11    1    4    4    0    0 -0.90325246732E+00  0.45047695299E+00  0.39498383436E+01  0.40767655938E+01  0.51100000000E-03 0.  1.
         12    1    4    4    0    0  0.34625167038E+02  0.18266677820E+02  0.77033171643E+01  0.39898807079E+02  0.00000000000E+00 0. -1.
</event>
<event>
 8    1  0.9870402E-014  0.9118800E+02  0.7816164E-02  0.1184000E+00
        -11   -1    0    0    0    0  0.00000000000E+00  0.00000000000E+00  0.45593999997E+02  0.45594000000E+02  0.51100000000E-03 0. -1.
         11   -1    0    0    0    0 -0.00000000000E+00 -0.00000000000E+00 -0.45593999997E+02  0.45594000000E+02  0.51100000000E-03 0.  1.
         23    2    1    2    0    0  0.17763568394E-14 -0.77715611724E-15  0.00000000000E+00  0.91188000000E+02  0.91188000000E+02 0.  0.
    9900012    2    3    3    0    0 -0.13699381803E+02  0.51872606213E+00  0.38278237771E+02  0.50528860494E+02  0.30000001957E+02 0.  0.
        -12    1    3    3    0    0  0.13699381803E+02 -0.51872606213E+00 -0.38278237771E+02  0.40659139506E+02  0.00000000000E+00 0.  1.
         11    1    4    4    0    0  0.29009948101E+01 -0.36153211616E+01  0.10713521862E+02  0.11673297261E+02  0.51100000000E-03 0. -1.
        -11    1    4    4    0    0 -0.17867554481E+01 -0.49385074973E+01  0.18561098884E+02  0.19289783394E+02  0.51100000000E-03 0.  1.
        -12    1    4    4    0    0 -0.14813621165E+02  0.90725547210E+01  0.90036170248E+01  0.19565779839E+02  0.00000000000E+00 0.  1.
</event>
<event>
 8    1  0.1449315E-013  0.9118800E+02  0.7816164E-02  0.1184000E+00
        -11   -1    0    0    0    0  0.00000000000E+00  0.00000000000E+00  0.45593999997E+02  0.45594000000E+02  0.51100000000E-03 0.  1.
         11   -1    0    0    0    0 -0.00000000000E+00 -0.00000000000E+00 -0.45593999997E+02  0.45594000000E+02  0.51100000000E-03 0. -1.
         23    2    1    2    0    0  0.35527136788E-14  0.00000000000E+00  0.00000000000E+00  0.91188000000E+02  0.91188000000E+02 0.  0.
    9900012    2    3    3    0    0  0.26491844202E+02  0.18137241645E+02 -0.24947710865E+02  0.50528860546E+02  0.30000002116E+02 0.  0.
         12    1    3    3    0    0 -0.26491844202E+02 -0.18137241645E+02  0.24947710865E+02  0.40659139454E+02  0.00000000000E+00 0. -1.
         11    1    4    4    0    0  0.18281296453E+00  0.84406970744E+01 -0.64674619189E-01  0.84429243008E+01  0.51100000000E-03 0. -1.
        -11    1    4    4    0    0  0.24628394017E+02  0.14253509056E+02 -0.18031964999E+02  0.33687862418E+02  0.51100000000E-03 0.  1.
         12    1    4    4    0    0  0.16806372200E+01 -0.45569644854E+01 -0.68510712464E+01  0.83980738274E+01  0.00000000000E+00 0. -1.
</event>
<event>
 8    1  0.9870402E-014  0.9118800E+02  0.7816164E-02  0.1184000E+00
        -11   -1    0    0    0    0  0.00000000000E+00  0.00000000000E+00  0.45593999997E+02  0.45594000000E+02  0.51100000000E-03 0. -1.
         11   -1    0    0    0    0 -0.00000000000E+00 -0.00000000000E+00 -0.45593999997E+02  0.45594000000E+02  0.51100000000E-03 0.  1.
         23    2    1    2    0    0  0.00000000000E+00  0.00000000000E+00 -0.71054273576E-14  0.91188000000E+02  0.91188000000E+02 0.  0.
    9900012    2    3    3    0    0 -0.10325559778E+02  0.65247763185E+01  0.38781122543E+02  0.50528863801E+02  0.30000012011E+02 0.  0.
        -12    1    3    3    0    0  0.10325559778E+02 -0.65247763185E+01 -0.38781122543E+02  0.40659136199E+02  0.00000000000E+00 0.  1.
         11    1    4    4    0    0 -0.34692796983E+01  0.75288965559E+01  0.20191422189E+02  0.21826903474E+02  0.51100000000E-03 0. -1.
        -11    1    4    4    0    0  0.59964118674E+01 -0.10083923620E+01  0.13631235580E+02  0.14925963759E+02  0.51100000000E-03 0.  1.
        -12    1    4    4    0    0 -0.12852691947E+02  0.42721246445E-02  0.49584647736E+01  0.13775996569E+02  0.00000000000E+00 0.  1.
</event>
<event>
 8    1  0.9870402E-014  0.9118800E+02  0.7816164E-02  0.1184000E+00
        -11   -1    0    0    0    0  0.00000000000E+00  0.00000000000E+00  0.45593999997E+02  0.45594000000E+02  0.51100000000E-03 0. -1.
         11   -1    0    0    0    0 -0.00000000000E+00 -0.00000000000E+00 -0.45593999997E+02  0.45594000000E+02  0.51100000000E-03 0.  1.
         23    2    1    2    0    0  0.00000000000E+00  0.00000000000E+00  0.00000000000E+00  0.91188000000E+02  0.91188000000E+02 0.  0.
    9900012    2    3    3    0    0  0.29469987486E+02  0.26024319762E+02 -0.10364385160E+02  0.50528857594E+02  0.29999993142E+02 0.  0.
         12    1    3    3    0    0 -0.29469987486E+02 -0.26024319762E+02  0.10364385160E+02  0.40659142406E+02  0.00000000000E+00 0. -1.
         11    1    4    4    0    0  0.15030926802E+02  0.71661306419E+01  0.51994623966E+01  0.17444672492E+02  0.51100000000E-03 0. -1.
        -11    1    4    4    0    0  0.27449576703E+01 -0.32022824255E+01 -0.19694876310E+01  0.46549207442E+01  0.51100000000E-03 0.  1.
        -12    1    4    4    0    0  0.11694103014E+02  0.22060471545E+02 -0.13594359926E+02  0.28429264357E+02  0.00000000000E+00 0.  1.
</event>
<event>
 8    1  0.9870402E-014  0.9118800E+02  0.7816164E-02  0.1184000E+00
        -11   -1    0    0    0    0  0.00000000000E+00  0.00000000000E+00  0.45593999997E+02  0.45594000000E+02  0.51100000000E-03 0. -1.
         11   -1    0    0    0    0 -0.00000000000E+00 -0.00000000000E+00 -0.45593999997E+02  0.45594000000E+02  0.51100000000E-03 0.  1.
         23    2    1    2    0    0 -0.26645352591E-14  0.00000000000E+00  0.71054273576E-14  0.91188000000E+02  0.91188000000E+02 0.  0.
    9900012    2    3    3    0    0  0.46705298450E+01 -0.33473107027E+02 -0.22603167167E+02  0.50528857005E+02  0.29999991353E+02 0.  0.
         12    1    3    3    0    0 -0.46705298450E+01  0.33473107027E+02  0.22603167167E+02  0.40659142995E+02  0.00000000000E+00 0. -1.
         11    1    4    4    0    0  0.11759245234E+02 -0.15028613952E+02 -0.18360893807E+02  0.26481342629E+02  0.51100000000E-03 0. -1.
        -11    1    4    4    0    0 -0.10845231019E+01 -0.12920778590E+02 -0.78168982107E+01  0.15140231426E+02  0.51100000000E-03 0.  1.
         12    1    4    4    0    0 -0.60041922868E+01 -0.55237144854E+01  0.35746248506E+01  0.89072829502E+01  0.00000000000E+00 0. -1.
</event>
<event>
 8    1  0.9870402E-014  0.9118800E+02  0.7816164E-02  0.1184000E+00
        -11   -1    0    0    0    0  0.00000000000E+00  0.00000000000E+00  0.45593999997E+02  0.45594000000E+02  0.51100000000E-03 0. -1.
         11   -1    0    0    0    0 -0.00000000000E+00 -0.00000000000E+00 -0.45593999997E+02  0.45594000000E+02  0.51100000000E-03 0.  1.
         23    2    1    2    0    0  0.00000000000E+00  0.17763568394E-14  0.44408920985E-15  0.91188000000E+02  0.91188000000E+02 0.  0.
    9900012    2    3    3    0    0 -0.40514041329E+02 -0.32355070118E+01 -0.11443517816E+01  0.50528860911E+02  0.30000003226E+02 0.  0.
         12    1    3    3    0    0  0.40514041329E+02  0.32355070118E+01  0.11443517816E+01  0.40659139089E+02  0.00000000000E+00 0. -1.
         11    1    4    4    0    0 -0.11636193207E+02 -0.10455454428E+02 -0.24284241992E+00  0.15645334524E+02  0.51100000000E-03 0. -1.
        -11    1    4    4    0    0 -0.18977729625E+02  0.96937925192E-01 -0.81961486302E+01  0.20672214959E+02  0.51100000000E-03 0.  1.
        -12    1    4    4    0    0 -0.99001184965E+01  0.71230094912E+01  0.72946392685E+01  0.14211311428E+02  0.00000000000E+00 0.  1.
</event>
<event>
 8    1  0.9870402E-014  0.9118800E+02  0.7816164E-02  0.1184000E+00
        -11   -1    0    0    0    0  0.00000000000E+00  0.00000000000E+00  0.45593999997E+02  0.45594000000E+02  0.51100000000E-03 0. -1.
         11   -1    0    0    0    0 -0.00000000000E+00 -0.00000000000E+00 -0.45593999997E+02  0.45594000000E+02  0.51100000000E-03 0.  1.
         23    2    1    2    0    0 -0.35527136788E-14  0.35527136788E-14  0.71054273576E-14  0.91188000000E+02  0.91188000000E+02 0.  0.
    9900012    2    3    3    0    0 -0.24278203681E+02  0.17489342316E+02  0.27529220334E+02  0.50528852926E+02  0.29999978954E+02 0.  0.
        -12    1    3    3    0    0  0.24278203681E+02 -0.17489342316E+02 -0.27529220334E+02  0.40659147074E+02  0.00000000000E+00 0.  1.
         11    1    4    4    0    0 -0.65027604646E+01 -0.31019981028E+01  0.13965783136E+02  0.15714686912E+02  0.51100000000E-03 0. -1.
        -11    1    4    4    0    0 -0.12479496663E+02  0.28060275132E+01  0.19928168041E+01  0.12945383210E+02  0.51100000000E-03 0.  1.
        -12    1    4    4    0    0 -0.52959465529E+01  0.17785312906E+02  0.11570620394E+02  0.21868782804E+02  0.00000000000E+00 0.  1.
</event>
<event>
 8    1  0.9870402E-014  0.9118800E+02  0.7816164E-02  0.1184000E+00
        -11   -1    0    0    0    0  0.00000000000E+00  0.00000000000E+00  0.45593999997E+02  0.45594000000E+02  0.51100000000E-03 0. -1.
         11   -1    0    0    0    0 -0.00000000000E+00 -0.00000000000E+00 -0.45593999997E+02  0.45594000000E+02  0.51100000000E-03 0.  1.
         23    2    1    2    0    0  0.00000000000E+00  0.00000000000E+00 -0.35527136788E-14  0.91188000000E+02  0.91188000000E+02 0.  0.
    9900012    2    3    3    0    0  0.22701272305E+02  0.17411943318E+02  0.28890187365E+02  0.50528850226E+02  0.29999970747E+02 0.  0.
        -12    1    3    3    0    0 -0.22701272305E+02 -0.17411943318E+02 -0.28890187365E+02  0.40659149774E+02  0.00000000000E+00 0.  1.
         11    1    4    4    0    0  0.27542505285E+01  0.12301978673E+02  0.16862824820E+02  0.21054202346E+02  0.51100000000E-03 0. -1.
        -11    1    4    4    0    0  0.91129827513E+01 -0.50887594637E+01  0.10005650198E+02  0.14458733127E+02  0.51100000000E-03 0.  1.
        -12    1    4    4    0    0  0.10834039026E+02  0.10198724109E+02  0.20217123465E+01  0.15015914753E+02  0.00000000000E+00 0.  1.
</event>
<event>
 8    1  0.9870402E-014  0.9118800E+02  0.7816164E-02  0.1184000E+00
        -11   -1    0    0    0    0  0.00000000000E+00  0.00000000000E+00  0.45593999997E+02  0.45594000000E+02  0.51100000000E-03 0. -1.
         11   -1    0    0    0    0 -0.00000000000E+00 -0.00000000000E+00 -0.45593999997E+02  0.45594000000E+02  0.51100000000E-03 0.  1.
         23    2    1    2    0    0  0.00000000000E+00 -0.17763568394E-14  0.00000000000E+00  0.91188000000E+02  0.91188000000E+02 0.  0.
    9900012    2    3    3    0    0  0.64197533299E+00 -0.84758687716E+01 -0.39760698597E+02  0.50528860355E+02  0.30000001534E+02 0.  0.
         12    1    3    3    0    0 -0.64197533299E+00  0.84758687716E+01  0.39760698597E+02  0.40659139645E+02  0.00000000000E+00 0. -1.
         11    1    4    4    0    0  0.37089016617E+01 -0.64080870458E+01  0.45411212428E+00  0.74179342950E+01  0.51100000000E-03 0. -1.
        -11    1    4    4    0    0 -0.52329135569E+01 -0.34998457891E+01 -0.56813376255E+01  0.84799706555E+01  0.51100000000E-03 0.  1.
         12    1    4    4    0    0  0.21659872282E+01  0.14320640633E+01 -0.34533473096E+02  0.34630955404E+02  0.00000000000E+00 0. -1.
</event>
<event>
 8    1  0.9870402E-014  0.9118800E+02  0.7816164E-02  0.1184000E+00
        -11   -1    0    0    0    0  0.00000000000E+00  0.00000000000E+00  0.45593999997E+02  0.45594000000E+02  0.51100000000E-03 0. -1.
         11   -1    0    0    0    0 -0.00000000000E+00 -0.00000000000E+00 -0.45593999997E+02  0.45594000000E+02  0.51100000000E-03 0.  1.
         23    2    1    2    0    0  0.00000000000E+00 -0.41633363423E-15  0.00000000000E+00  0.91188000000E+02  0.91188000000E+02 0.  0.
    9900012    2    3    3    0    0 -0.32306811537E+02  0.16695055324E+00  0.24686193922E+02  0.50528854479E+02  0.29999983674E+02 0.  0.
        -12    1    3    3    0    0  0.32306811537E+02 -0.16695055324E+00 -0.24686193922E+02  0.40659145521E+02  0.00000000000E+00 0.  1.
         11    1    4    4    0    0  0.78326938966E+00  0.15569864682E+01 -0.41089245461E+00  0.17906844136E+01  0.51100000000E-03 0.  1.
        -11    1    4    4    0    0 -0.20658639485E+02 -0.69574755341E+01  0.27304965598E+02  0.34939189999E+02  0.51100000000E-03 0. -1.
         12    1    4    4    0    0 -0.12431441441E+02  0.55674396191E+01 -0.22078792219E+01  0.13798980066E+02  0.00000000000E+00 0. -1.
</event>
<event>
 8    1  0.9870402E-014  0.9118800E+02  0.7816164E-02  0.1184000E+00
        -11   -1    0    0    0    0  0.00000000000E+00  0.00000000000E+00  0.45593999997E+02  0.45594000000E+02  0.51100000000E-03 0. -1.
         11   -1    0    0    0    0 -0.00000000000E+00 -0.00000000000E+00 -0.45593999997E+02  0.45594000000E+02  0.51100000000E-03 0.  1.
         23    2    1    2    0    0  0.00000000000E+00  0.35527136788E-14  0.00000000000E+00  0.91188000000E+02  0.91188000000E+02 0.  0.
    9900012    2    3    3    0    0  0.13696848549E+02  0.31391388915E+02 -0.21912155856E+02  0.50528861637E+02  0.30000005432E+02 0.  0.
         12    1    3    3    0    0 -0.13696848549E+02 -0.31391388915E+02  0.21912155856E+02  0.40659138363E+02  0.00000000000E+00 0. -1.
         11    1    4    4    0    0 -0.22322347643E+01  0.46301013422E+01 -0.12600745087E+02  0.13608801839E+02  0.51100000000E-03 0. -1.
        -11    1    4    4    0    0 -0.25971338414E+01  0.64792067019E+01  0.19252924354E+01  0.72409926736E+01  0.51100000000E-03 0.  1.
         12    1    4    4    0    0  0.18526217154E+02  0.20282080870E+02 -0.11236703205E+02  0.29679067125E+02  0.00000000000E+00 0. -1.
</event>
<event>
 8    1  0.1034985E-013  0.9118800E+02  0.7816164E-02  0.1184000E+00
        -11   -1    0    0    0    0  0.00000000000E+00  0.00000000000E+00  0.45593999997E+02  0.45594000000E+02  0.51100000000E-03 0. -1.
         11   -1    0    0    0    0 -0.00000000000E+00 -0.00000000000E+00 -0.45593999997E+02  0.45594000000E+02  0.51100000000E-03 0.  1.
         23    2    1    2    0    0  0.00000000000E+00 -0.17763568394E-14  0.71054273576E-14  0.91188000000E+02  0.91188000000E+02 0.  0.
    9900012    2    3    3    0    0  0.19201854767E+02  0.98773932308E+01 -0.34451292540E+02  0.50528859808E+02  0.29999999872E+02 0.  0.
         12    1    3    3    0    0 -0.19201854767E+02 -0.98773932308E+01  0.34451292540E+02  0.40659140192E+02  0.00000000000E+00 0. -1.
         11    1    4    4    0    0  0.54928557137E-01  0.27370629496E+01  0.21271719703E+01  0.34668994200E+01  0.51100000000E-03 0. -1.
        -11    1    4    4    0    0  0.16176976030E-01 -0.51579566523E+01 -0.14397697292E+02  0.15293739441E+02  0.51100000000E-03 0.  1.
        -12    1    4    4    0    0  0.19130749234E+02  0.12298286934E+02 -0.22180767218E+02  0.31768220947E+02  0.00000000000E+00 0.  1.
</event>
<event>
 8    1  0.9870402E-014  0.9118800E+02  0.7816164E-02  0.1184000E+00
        -11   -1    0    0    0    0  0.00000000000E+00  0.00000000000E+00  0.45593999997E+02  0.45594000000E+02  0.51100000000E-03 0.  1.
         11   -1    0    0    0    0 -0.00000000000E+00 -0.00000000000E+00 -0.45593999997E+02  0.45594000000E+02  0.51100000000E-03 0. -1.
         23    2    1    2    0    0  0.00000000000E+00 -0.13322676296E-14  0.35527136788E-14  0.91188000000E+02  0.91188000000E+02 0.  0.
    9900012    2    3    3    0    0 -0.33081694346E+02 -0.32751874971E+01  0.23410287838E+02  0.50528844443E+02  0.29999953169E+02 0.  0.
        -12    1    3    3    0    0  0.33081694346E+02  0.32751874971E+01 -0.23410287838E+02  0.40659155557E+02  0.00000000000E+00 0.  1.
         11    1    4    4    0    0 -0.19987294318E+02 -0.24197097360E+01  0.91513656375E+01  0.22115479255E+02  0.51100000000E-03 0. -1.
        -11    1    4    4    0    0 -0.75682833917E+01 -0.84952240803E+01  0.70574969986E-01  0.11377729420E+02  0.51100000000E-03 0.  1.
        -12    1    4    4    0    0 -0.55261166365E+01  0.76397463192E+01  0.14188347230E+02  0.17035635768E+02  0.00000000000E+00 0.  1.
</event>
<event>
 8    1  0.9870402E-014  0.9118800E+02  0.7816164E-02  0.1184000E+00
        -11   -1    0    0    0    0  0.00000000000E+00  0.00000000000E+00  0.45593999997E+02  0.45594000000E+02  0.51100000000E-03 0. -1.
         11   -1    0    0    0    0 -0.00000000000E+00 -0.00000000000E+00 -0.45593999997E+02  0.45594000000E+02  0.51100000000E-03 0.  1.
         23    2    1    2    0    0 -0.88817841970E-15  0.00000000000E+00  0.00000000000E+00  0.91188000000E+02  0.91188000000E+02 0.  0.
    9900012    2    3    3    0    0  0.42755452182E+01 -0.13405326545E+01  0.40411478451E+02  0.50528869349E+02  0.30000028872E+02 0.  0.
        -12    1    3    3    0    0 -0.42755452182E+01  0.13405326545E+01 -0.40411478451E+02  0.40659130651E+02  0.00000000000E+00 0.  1.
         11    1    4    4    0    0  0.64219115581E+01  0.29879069061E+01  0.17600275977E+02  0.18972038648E+02  0.51100000000E-03 0. -1.
        -11    1    4    4    0    0  0.21451781614E+01 -0.11895828765E+01 -0.37432247221E+01  0.44753355567E+01  0.51100000000E-03 0.  1.
         12    1    4    4    0    0 -0.42915445013E+01 -0.31388566841E+01  0.26554427197E+02  0.27081495144E+02  0.00000000000E+00 0. -1.
</event>
<event>
 8    1  0.9870402E-014  0.9118800E+02  0.7816164E-02  0.1184000E+00
        -11   -1    0    0    0    0  0.00000000000E+00  0.00000000000E+00  0.45593999997E+02  0.45594000000E+02  0.51100000000E-03 0.  1.
         11   -1    0    0    0    0 -0.00000000000E+00 -0.00000000000E+00 -0.45593999997E+02  0.45594000000E+02  0.51100000000E-03 0. -1.
         23    2    1    2    0    0  0.00000000000E+00  0.00000000000E+00  0.35527136788E-14  0.91188000000E+02  0.91188000000E+02 0.  0.
    9900012    2    3    3    0    0 -0.91536740721E+01 -0.29367580632E+02  0.26587990325E+02  0.50528858707E+02  0.29999996526E+02 0.  0.
        -12    1    3    3    0    0  0.91536740721E+01  0.29367580632E+02 -0.26587990325E+02  0.40659141293E+02  0.00000000000E+00 0.  1.
         11    1    4    4    0    0 -0.91048129305E+01  0.56561298210E+00  0.96946060237E+01  0.13311758815E+02  0.51100000000E-03 0. -1.
        -11    1    4    4    0    0 -0.16921152146E+01 -0.52581135697E+01 -0.22290319249E+01  0.59564751149E+01  0.51100000000E-03 0.  1.
        -12    1    4    4    0    0  0.16432540729E+01 -0.24675080044E+02  0.19122416226E+02  0.31260624777E+02  0.00000000000E+00 0.  1.
</event>
<event>
 8    1  0.9870402E-014  0.9118800E+02  0.7816164E-02  0.1184000E+00
        -11   -1    0    0    0    0  0.00000000000E+00  0.00000000000E+00  0.45593999997E+02  0.45594000000E+02  0.51100000000E-03 0. -1.
         11   -1    0    0    0    0 -0.00000000000E+00 -0.00000000000E+00 -0.45593999997E+02  0.45594000000E+02  0.51100000000E-03 0.  1.
         23    2    1    2    0    0  0.00000000000E+00 -0.35527136788E-14  0.00000000000E+00  0.91188000000E+02  0.91188000000E+02 0.  0.
    9900012    2    3    3    0    0 -0.29581786371E+02  0.20130777631E+02  0.19309013810E+02  0.50528827514E+02  0.29999901711E+02 0.  0.
        -12    1    3    3    0    0  0.29581786371E+02 -0.20130777631E+02 -0.19309013810E+02  0.40659172486E+02  0.00000000000E+00 0.  1.
         11    1    4    4    0    0 -0.79569209891E+00  0.13896900179E+02  0.35851154336E+01  0.14373935210E+02  0.51100000000E-03 0. -1.
        -11    1    4    4    0    0 -0.12429644681E+02  0.75600625293E+01  0.18490034821E+01  0.14665245531E+02  0.51100000000E-03 0.  1.
        -12    1    4    4    0    0 -0.16356449591E+02 -0.13261850768E+01  0.13874894894E+02  0.21489646773E+02  0.00000000000E+00 0.  1.
</event>
<event>
 8    1  0.9870402E-014  0.9118800E+02  0.7816164E-02  0.1184000E+00
        -11   -1    0    0    0    0  0.00000000000E+00  0.00000000000E+00  0.45593999997E+02  0.45594000000E+02  0.51100000000E-03 0. -1.
         11   -1    0    0    0    0 -0.00000000000E+00 -0.00000000000E+00 -0.45593999997E+02  0.45594000000E+02  0.51100000000E-03 0.  1.
         23    2    1    2    0    0 -0.35527136788E-14  0.00000000000E+00 -0.35527136788E-14  0.91188000000E+02  0.91188000000E+02 0.  0.
    9900012    2    3    3    0    0 -0.22139390266E+02  0.20231328268E+02 -0.27453715754E+02  0.50528858918E+02  0.29999997167E+02 0.  0.
         12    1    3    3    0    0  0.22139390266E+02 -0.20231328268E+02  0.27453715754E+02  0.40659141082E+02  0.00000000000E+00 0. -1.
         11    1    4    4    0    0  0.15882301189E+01  0.13108059035E+01  0.21883552538E+00  0.20708877989E+01  0.51100000000E-03 0. -1.
        -11    1    4    4    0    0 -0.12456073449E+02 -0.41250377164E+01 -0.44539164811E+01  0.13856661726E+02  0.51100000000E-03 0.  1.
        -12    1    4    4    0    0 -0.11271546936E+02  0.23045560081E+02 -0.23218634798E+02  0.34601309393E+02  0.00000000000E+00 0.  1.
</event>
<event>
 8    1  0.9870402E-014  0.9118800E+02  0.7816164E-02  0.1184000E+00
        -11   -1    0    0    0    0  0.00000000000E+00  0.00000000000E+00  0.45593999997E+02  0.45594000000E+02  0.51100000000E-03 0.  1.
         11   -1    0    0    0    0 -0.00000000000E+00 -0.00000000000E+00 -0.45593999997E+02  0.45594000000E+02  0.51100000000E-03 0. -1.
         23    2    1    2    0    0  0.35527136788E-14  0.00000000000E+00  0.00000000000E+00  0.91188000000E+02  0.91188000000E+02 0.  0.
    9900012    2    3    3    0    0 -0.23597596441E+02 -0.28312560480E+02 -0.17167361109E+02  0.50528856795E+02  0.29999990715E+02 0.  0.
         12    1    3    3    0    0  0.23597596441E+02  0.28312560480E+02  0.17167361109E+02  0.40659143205E+02  0.00000000000E+00 0. -1.
         11    1    4    4    0    0 -0.17320022545E+02 -0.13083586113E+02 -0.18080937779E+02  0.28250375533E+02  0.51100000000E-03 0. -1.
        -11    1    4    4    0    0  0.12298847116E+01 -0.29572965101E+01 -0.56276239794E+01  0.64752120403E+01  0.51100000000E-03 0.  1.
        -12    1    4    4    0    0 -0.75074586076E+01 -0.12271677857E+02  0.65412006495E+01  0.15803269222E+02  0.00000000000E+00 0.  1.
</event>
<event>
 8    1  0.9870402E-014  0.9118800E+02  0.7816164E-02  0.1184000E+00
        -11   -1    0    0    0    0  0.00000000000E+00  0.00000000000E+00  0.45593999997E+02  0.45594000000E+02  0.51100000000E-03 0. -1.
         11   -1    0    0    0    0 -0.00000000000E+00 -0.00000000000E+00 -0.45593999997E+02  0.45594000000E+02  0.51100000000E-03 0.  1.
         23    2    1    2    0    0  0.00000000000E+00  0.17763568394E-14  0.00000000000E+00  0.91188000000E+02  0.91188000000E+02 0.  0.
    9900012    2    3    3    0    0 -0.22532796156E+02 -0.15615325058E+02  0.30026657684E+02  0.50528862639E+02  0.30000008478E+02 0.  0.
        -12    1    3    3    0    0  0.22532796156E+02  0.15615325058E+02 -0.30026657684E+02  0.40659137361E+02  0.00000000000E+00 0.  1.
         11    1    4    4    0    0 -0.67702713981E+01  0.13990679377E+01  0.78286338617E+01  0.10444207691E+02  0.51100000000E-03 0.  1.
        -11    1    4    4    0    0 -0.11893038007E+02 -0.12801534305E+02  0.27304341199E+02  0.32416827145E+02  0.51100000000E-03 0. -1.
        -12    1    4    4    0    0 -0.38694867503E+01 -0.42128586904E+01 -0.51063173766E+01  0.76678278023E+01  0.00000000000E+00 0.  1.
</event>
<event>
 8    1  0.1046187E-013  0.9118800E+02  0.7816164E-02  0.1184000E+00
        -11   -1    0    0    0    0  0.00000000000E+00  0.00000000000E+00  0.45593999997E+02  0.45594000000E+02  0.51100000000E-03 0. -1.
         11   -1    0    0    0    0 -0.00000000000E+00 -0.00000000000E+00 -0.45593999997E+02  0.45594000000E+02  0.51100000000E-03 0.  1.
         23    2    1    2    0    0  0.00000000000E+00  0.00000000000E+00 -0.71054273576E-14  0.91188000000E+02  0.91188000000E+02 0.  0.
    9900012    2    3    3    0    0  0.60623393506E+01  0.22337103926E+02 -0.33428540557E+02  0.50528862110E+02  0.30000006868E+02 0.  0.
         12    1    3    3    0    0 -0.60623393506E+01 -0.22337103926E+02  0.33428540557E+02  0.40659137890E+02  0.00000000000E+00 0. -1.
         11    1    4    4    0    0  0.65285888155E+01 -0.18762834122E+01 -0.19484348530E+01  0.70667750779E+01  0.51100000000E-03 0. -1.
        -11    1    4    4    0    0  0.62092289310E+01  0.46827652154E+01 -0.15561384368E+02  0.17396536945E+02  0.51100000000E-03 0.  1.
         12    1    4    4    0    0 -0.66754783960E+01  0.19530622123E+02 -0.15918721336E+02  0.26065550087E+02  0.00000000000E+00 0. -1.
</event>
<event>
 8    1  0.9870402E-014  0.9118800E+02  0.7816164E-02  0.1184000E+00
        -11   -1    0    0    0    0  0.00000000000E+00  0.00000000000E+00  0.45593999997E+02  0.45594000000E+02  0.51100000000E-03 0. -1.
         11   -1    0    0    0    0 -0.00000000000E+00 -0.00000000000E+00 -0.45593999997E+02  0.45594000000E+02  0.51100000000E-03 0.  1.
         23    2    1    2    0    0  0.00000000000E+00 -0.44408920985E-15  0.00000000000E+00  0.91188000000E+02  0.91188000000E+02 0.  0.
    9900012    2    3    3    0    0 -0.10482829070E+02  0.20500176201E+01 -0.39231039875E+02  0.50528846452E+02  0.29999959275E+02 0.  0.
         12    1    3    3    0    0  0.10482829070E+02 -0.20500176201E+01  0.39231039875E+02  0.40659153548E+02  0.00000000000E+00 0. -1.
         11    1    4    4    0    0 -0.44291208517E+01  0.79491897653E+01 -0.21998963424E+01  0.93619588561E+01  0.51100000000E-03 0. -1.
        -11    1    4    4    0    0  0.22110335713E+01  0.42712243883E+01 -0.11604155959E+02  0.12561387782E+02  0.51100000000E-03 0.  1.
         12    1    4    4    0    0 -0.82647417897E+01 -0.10170396534E+02 -0.25426987574E+02  0.28605499813E+02  0.00000000000E+00 0. -1.
</event>
<event>
 8    1  0.1042675E-013  0.9118800E+02  0.7816164E-02  0.1184000E+00
        -11   -1    0    0    0    0  0.00000000000E+00  0.00000000000E+00  0.45593999997E+02  0.45594000000E+02  0.51100000000E-03 0. -1.
         11   -1    0    0    0    0 -0.00000000000E+00 -0.00000000000E+00 -0.45593999997E+02  0.45594000000E+02  0.51100000000E-03 0.  1.
         23    2    1    2    0    0  0.00000000000E+00  0.00000000000E+00  0.35527136788E-14  0.91188000000E+02  0.91188000000E+02 0.  0.
    9900012    2    3    3    0    0 -0.16443035671E+02  0.34244367313E+02 -0.14495360591E+02  0.50528860887E+02  0.30000003152E+02 0.  0.
         12    1    3    3    0    0  0.16443035671E+02 -0.34244367313E+02  0.14495360591E+02  0.40659139113E+02  0.00000000000E+00 0. -1.
         11    1    4    4    0    0 -0.14529323434E+02  0.75815315673E+01 -0.61203751610E+01  0.17493994762E+02  0.51100000000E-03 0. -1.
        -11    1    4    4    0    0 -0.66471162783E+01  0.25724634804E+02 -0.92441048365E+01  0.28131734129E+02  0.51100000000E-03 0.  1.
         12    1    4    4    0    0  0.47334040413E+01  0.93820094114E+00  0.86911940635E+00  0.49031319956E+01  0.00000000000E+00 0. -1.
</event>
<event>
 8    1  0.9870402E-014  0.9118800E+02  0.7816164E-02  0.1184000E+00
        -11   -1    0    0    0    0  0.00000000000E+00  0.00000000000E+00  0.45593999997E+02  0.45594000000E+02  0.51100000000E-03 0. -1.
         11   -1    0    0    0    0 -0.00000000000E+00 -0.00000000000E+00 -0.45593999997E+02  0.45594000000E+02  0.51100000000E-03 0.  1.
         23    2    1    2    0    0  0.00000000000E+00 -0.88817841970E-15  0.00000000000E+00  0.91188000000E+02  0.91188000000E+02 0.  0.
    9900012    2    3    3    0    0  0.16440558804E+02 -0.41962463552E+01 -0.36949499804E+02  0.50528855973E+02  0.29999988214E+02 0.  0.
         12    1    3    3    0    0 -0.16440558804E+02  0.41962463552E+01  0.36949499804E+02  0.40659144027E+02  0.00000000000E+00 0. -1.
         11    1    4    4    0    0  0.13285310173E+02 -0.74973801772E+00 -0.83614605217E+01  0.15715457225E+02  0.51100000000E-03 0. -1.
        -11    1    4    4    0    0 -0.19967127603E+01  0.34665654682E+01  0.89178921909E+00  0.40986859193E+01  0.51100000000E-03 0.  1.
        -12    1    4    4    0    0  0.51519613913E+01 -0.69130738057E+01 -0.29479828502E+02  0.30714712828E+02  0.00000000000E+00 0.  1.
</event>
<event>
 8    1  0.9870402E-014  0.9118800E+02  0.7816164E-02  0.1184000E+00
        -11   -1    0    0    0    0  0.00000000000E+00  0.00000000000E+00  0.45593999997E+02  0.45594000000E+02  0.51100000000E-03 0. -1.
         11   -1    0    0    0    0 -0.00000000000E+00 -0.00000000000E+00 -0.45593999997E+02  0.45594000000E+02  0.51100000000E-03 0.  1.
         23    2    1    2    0    0  0.00000000000E+00  0.00000000000E+00  0.00000000000E+00  0.91188000000E+02  0.91188000000E+02 0.  0.
    9900012    2    3    3    0    0  0.12783136660E+02 -0.32715658830E+02 -0.20480309101E+02  0.50528856177E+02  0.29999988836E+02 0.  0.
         12    1    3    3    0    0 -0.12783136660E+02  0.32715658830E+02  0.20480309101E+02  0.40659143823E+02  0.00000000000E+00 0. -1.
         11    1    4    4    0    0  0.50602554666E+01 -0.74772027030E+01 -0.16652905015E+02  0.18942914014E+02  0.51100000000E-03 0.  1.
        -11    1    4    4    0    0  0.58898811180E+01 -0.26576332281E+02 -0.65932563864E+01  0.28008269620E+02  0.51100000000E-03 0. -1.
         12    1    4    4    0    0  0.18330000756E+01  0.13378761537E+01  0.27658523000E+01  0.35776725431E+01  0.00000000000E+00 0. -1.
</event>
<event>
 8    1  0.9870402E-014  0.9118800E+02  0.7816164E-02  0.1184000E+00
        -11   -1    0    0    0    0  0.00000000000E+00  0.00000000000E+00  0.45593999997E+02  0.45594000000E+02  0.51100000000E-03 0. -1.
         11   -1    0    0    0    0 -0.00000000000E+00 -0.00000000000E+00 -0.45593999997E+02  0.45594000000E+02  0.51100000000E-03 0.  1.
         23    2    1    2    0    0 -0.71054273576E-14  0.00000000000E+00  0.00000000000E+00  0.91188000000E+02  0.91188000000E+02 0.  0.
    9900012    2    3    3    0    0 -0.25982839044E+02 -0.66736988582E+01 -0.30553572099E+02  0.50528844214E+02  0.29999952472E+02 0.  0.
         12    1    3    3    0    0  0.25982839044E+02  0.66736988582E+01  0.30553572099E+02  0.40659155786E+02  0.00000000000E+00 0. -1.
         11    1    4    4    0    0 -0.11833984985E+02 -0.88692235833E+01 -0.28726255873E+02  0.32309504861E+02  0.51100000000E-03 0.  1.
        -11    1    4    4    0    0  0.92731086070E+00  0.28481704375E+01 -0.76632754155E+00  0.30918018105E+01  0.51100000000E-03 0. -1.
        -12    1    4    4    0    0 -0.15076164920E+02 -0.65264571244E+00 -0.10609886847E+01  0.15127537543E+02  0.00000000000E+00 0.  1.
</event>
<event>
 8    1  0.9870402E-014  0.9118800E+02  0.7816164E-02  0.1184000E+00
        -11   -1    0    0    0    0  0.00000000000E+00  0.00000000000E+00  0.45593999997E+02  0.45594000000E+02  0.51100000000E-03 0. -1.
         11   -1    0    0    0    0 -0.00000000000E+00 -0.00000000000E+00 -0.45593999997E+02  0.45594000000E+02  0.51100000000E-03 0.  1.
         23    2    1    2    0    0  0.88817841970E-15 -0.71054273576E-14 -0.35527136788E-14  0.91188000000E+02  0.91188000000E+02 0.  0.
    9900012    2    3    3    0    0  0.43960392160E+01  0.33374750512E+02  0.22802745839E+02  0.50528876174E+02  0.30000049618E+02 0.  0.
        -12    1    3    3    0    0 -0.43960392160E+01 -0.33374750512E+02 -0.22802745839E+02  0.40659123826E+02  0.00000000000E+00 0.  1.
         11    1    4    4    0    0  0.44609234990E+01  0.16268504645E+02  0.11398366878E+02  0.20358950110E+02  0.51100000000E-03 0. -1.
        -11    1    4    4    0    0  0.10582728825E+02  0.49238753053E+01  0.59078697490E+01  0.13082110787E+02  0.51100000000E-03 0.  1.
        -12    1    4    4    0    0 -0.10647613108E+02  0.12182370562E+02  0.54965092122E+01  0.17087815277E+02  0.00000000000E+00 0.  1.
</event>
