<event>
 7    1  0.2732193E-010  0.4778727E+02  0.7816164E-02  0.1312668E+00
        -11   -1    0    0    0    0  0.00000000000E+00  0.00000000000E+00  0.45593999997E+02  0.45594000000E+02  0.51100000000E-03 0.  1.
         11   -1    0    0    0    0 -0.00000000000E+00 -0.00000000000E+00 -0.45593999997E+02  0.45594000000E+02  0.51100000000E-03 0. -1.
    9900012    2    1    2    0    0  0.42970932023E+01 -0.10345349541E+02 -0.41930087204E+02  0.47787268670E+02  0.19999989172E+02 0.  0.
        -12    1    1    2    0    0 -0.42970932023E+01  0.10345349541E+02  0.41930087204E+02  0.43400731330E+02  0.00000000000E+00 0.  1.
         11    1    3    3    0    0  0.38649112433E+01 -0.87740586012E+01 -0.17222697601E+02  0.19711492997E+02  0.51100000000E-03 0. -1.
        -11    1    3    3    0    0 -0.62532767305E+01 -0.17136373245E+01 -0.14356749632E+02  0.15752976957E+02  0.51100000000E-03 0.  1.
        -12    1    3    3    0    0  0.66854586895E+01  0.14234638512E+00 -0.10350639971E+02  0.12322798716E+02  0.00000000000E+00 0.  1.
</event>
<event>
 7    1  0.2732193E-010  0.4778727E+02  0.7816164E-02  0.1312668E+00
        -11   -1    0    0    0    0  0.00000000000E+00  0.00000000000E+00  0.45593999997E+02  0.45594000000E+02  0.51100000000E-03 0.  1.
         11   -1    0    0    0    0 -0.00000000000E+00 -0.00000000000E+00 -0.45593999997E+02  0.45594000000E+02  0.51100000000E-03 0. -1.
    9900012    2    1    2    0    0  0.43085052692E+02 -0.49109046582E+01  0.17846044686E+01  0.47787267711E+02  0.19999984803E+02 0.  0.
        -12    1    1    2    0    0 -0.43085052692E+02  0.49109046582E+01 -0.17846044686E+01  0.43400732289E+02  0.00000000000E+00 0.  1.
         11    1    3    3    0    0  0.18761553432E+02 -0.11369462530E+02 -0.69303299037E+00  0.21948595864E+02  0.51100000000E-03 0. -1.
        -11    1    3    3    0    0  0.94588278990E+01  0.47040929162E+01  0.25634839721E+01  0.10870573385E+02  0.51100000000E-03 0.  1.
         12    1    3    3    0    0  0.14864671361E+02  0.17544649553E+01 -0.85846513063E-01  0.14968098462E+02  0.00000000000E+00 0. -1.
</event>
<event>
 7    1  0.2732193E-010  0.4778726E+02  0.7816164E-02  0.1312668E+00
        -11   -1    0    0    0    0  0.00000000000E+00  0.00000000000E+00  0.45593999997E+02  0.45594000000E+02  0.51100000000E-03 0. -1.
         11   -1    0    0    0    0 -0.00000000000E+00 -0.00000000000E+00 -0.45593999997E+02  0.45594000000E+02  0.51100000000E-03 0.  1.
    9900012    2    1    2    0    0 -0.19752720864E+02  0.38021785520E+02  0.69135879658E+01  0.47787264359E+02  0.19999969517E+02 0.  0.
        -12    1    1    2    0    0  0.19752720864E+02 -0.38021785520E+02 -0.69135879658E+01  0.43400735641E+02  0.00000000000E+00 0.  1.
         11    1    3    3    0    0 -0.72591157279E+01  0.18200570531E+01 -0.22512511672E+01  0.78150816315E+01  0.51100000000E-03 0.  1.
        -11    1    3    3    0    0 -0.11221424652E+02  0.22500102768E+02  0.61861278597E+01  0.25892917448E+02  0.51100000000E-03 0. -1.
         12    1    3    3    0    0 -0.12721804848E+01  0.13701625698E+02  0.29787112733E+01  0.14079265279E+02  0.00000000000E+00 0. -1.
</event>
<event>
 7    1  0.2732193E-010  0.4778727E+02  0.7816164E-02  0.1312668E+00
        -11   -1    0    0    0    0  0.00000000000E+00  0.00000000000E+00  0.45593999997E+02  0.45594000000E+02  0.51100000000E-03 0.  1.
         11   -1    0    0    0    0 -0.00000000000E+00 -0.00000000000E+00 -0.45593999997E+02  0.45594000000E+02  0.51100000000E-03 0. -1.
    9900012    2    1    2    0    0  0.37482161365E+02 -0.63298880870E+01 -0.20943826502E+02  0.47787265302E+02  0.19999973819E+02 0.  0.
        -12    1    1    2    0    0 -0.37482161365E+02  0.63298880870E+01  0.20943826502E+02  0.43400734698E+02  0.00000000000E+00 0.  1.
         11    1    3    3    0    0  0.18887118469E+02 -0.74805989432E+01 -0.13854808290E+02  0.24589394413E+02  0.51100000000E-03 0. -1.
        -11    1    3    3    0    0  0.19474249223E+02  0.33114895535E+01 -0.62548786118E+01  0.20720421148E+02  0.51100000000E-03 0.  1.
         12    1    3    3    0    0 -0.87920632693E+00 -0.21607786972E+01 -0.83413960086E+00  0.24774497406E+01  0.00000000000E+00 0. -1.
</event>
<event>
 7    1  0.2732193E-010  0.4778727E+02  0.7816164E-02  0.1312668E+00
        -11   -1    0    0    0    0  0.00000000000E+00  0.00000000000E+00  0.45593999997E+02  0.45594000000E+02  0.51100000000E-03 0.  1.
         11   -1    0    0    0    0 -0.00000000000E+00 -0.00000000000E+00 -0.45593999997E+02  0.45594000000E+02  0.51100000000E-03 0. -1.
    9900012    2    1    2    0    0 -0.66291417948E+00  0.43243525306E+02 -0.36306237326E+01  0.47787269997E+02  0.19999995223E+02 0.  0.
        -12    1    1    2    0    0  0.66291417948E+00 -0.43243525306E+02  0.36306237326E+01  0.43400730003E+02  0.00000000000E+00 0.  1.
         11    1    3    3    0    0 -0.18533029900E+01  0.26762948555E+02 -0.58167289515E+01  0.27450400422E+02  0.51100000000E-03 0. -1.
        -11    1    3    3    0    0  0.35987312148E+01  0.83383017884E+01  0.61480147665E+01  0.10967051970E+02  0.51100000000E-03 0.  1.
         12    1    3    3    0    0 -0.24083424042E+01  0.81422749623E+01 -0.39619095477E+01  0.93698176056E+01  0.00000000000E+00 0. -1.
</event>
<event>
 7    1  0.2732193E-010  0.4778727E+02  0.7816164E-02  0.1312668E+00
        -11   -1    0    0    0    0  0.00000000000E+00  0.00000000000E+00  0.45593999997E+02  0.45594000000E+02  0.51100000000E-03 0.  1.
         11   -1    0    0    0    0 -0.00000000000E+00 -0.00000000000E+00 -0.45593999997E+02  0.45594000000E+02  0.51100000000E-03 0. -1.
    9900012    2    1    2    0    0  0.31009041666E+02  0.25431572047E+02  0.16592097724E+02  0.47787271565E+02  0.20000002374E+02 0.  0.
        -12    1    1    2    0    0 -0.31009041666E+02 -0.25431572047E+02 -0.16592097724E+02  0.43400728435E+02  0.00000000000E+00 0.  1.
         11    1    3    3    0    0  0.59183629706E+01  0.40717206071E+01  0.61341560153E+00  0.72098687862E+01  0.51100000000E-03 0. -1.
        -11    1    3    3    0    0  0.26360750744E+02  0.14098117635E+02  0.13489509950E+02  0.32796539141E+02  0.51100000000E-03 0.  1.
        -12    1    3    3    0    0 -0.12700720490E+01  0.72617338043E+01  0.24891721725E+01  0.77808636383E+01  0.00000000000E+00 0.  1.
</event>
<event>
 7    1  0.2732193E-010  0.4778729E+02  0.7816164E-02  0.1312668E+00
        -11   -1    0    0    0    0  0.00000000000E+00  0.00000000000E+00  0.45593999997E+02  0.45594000000E+02  0.51100000000E-03 0.  1.
         11   -1    0    0    0    0 -0.00000000000E+00 -0.00000000000E+00 -0.45593999997E+02  0.45594000000E+02  0.51100000000E-03 0. -1.
    9900012    2    1    2    0    0 -0.37192739628E+02 -0.12076588454E+02  0.18827580979E+02  0.47787289462E+02  0.20000083971E+02 0.  0.
        -12    1    1    2    0    0  0.37192739628E+02  0.12076588454E+02 -0.18827580979E+02  0.43400710538E+02  0.00000000000E+00 0.  1.
         11    1    3    3    0    0 -0.29035935044E+01 -0.10392850105E+00 -0.28618687326E+01  0.40782286934E+01  0.51100000000E-03 0. -1.
        -11    1    3    3    0    0  0.54437580931E+00 -0.13704761885E+01  0.38907295246E+00  0.15250993503E+01  0.51100000000E-03 0.  1.
         12    1    3    3    0    0 -0.34833521933E+02 -0.10602183764E+02  0.21300376759E+02  0.42183961418E+02  0.00000000000E+00 0. -1.
</event>
<event>
 7    1  0.2732193E-010  0.4778727E+02  0.7816164E-02  0.1312668E+00
        -11   -1    0    0    0    0  0.00000000000E+00  0.00000000000E+00  0.45593999997E+02  0.45594000000E+02  0.51100000000E-03 0. -1.
         11   -1    0    0    0    0 -0.00000000000E+00 -0.00000000000E+00 -0.45593999997E+02  0.45594000000E+02  0.51100000000E-03 0.  1.
    9900012    2    1    2    0    0 -0.29092221281E+01 -0.41417039801E+02  0.12640741112E+02  0.47787273104E+02  0.20000009389E+02 0.  0.
        -12    1    1    2    0    0  0.29092221281E+01  0.41417039801E+02 -0.12640741112E+02  0.43400726896E+02  0.00000000000E+00 0.  1.
         11    1    3    3    0    0  0.33909708548E+01 -0.27377032156E+02  0.57099266965E+01  0.28170975065E+02  0.51100000000E-03 0. -1.
        -11    1    3    3    0    0 -0.60705942149E+01 -0.12953618500E+02  0.92565198015E+01  0.17039116921E+02  0.51100000000E-03 0.  1.
        -12    1    3    3    0    0 -0.22959876792E+00 -0.10863891459E+01 -0.23257053857E+01  0.25771811173E+01  0.00000000000E+00 0.  1.
</event>
<event>
 7    1  0.2732193E-010  0.4778731E+02  0.7816164E-02  0.1312668E+00
        -11   -1    0    0    0    0  0.00000000000E+00  0.00000000000E+00  0.45593999997E+02  0.45594000000E+02  0.51100000000E-03 0.  1.
         11   -1    0    0    0    0 -0.00000000000E+00 -0.00000000000E+00 -0.45593999997E+02  0.45594000000E+02  0.51100000000E-03 0. -1.
    9900012    2    1    2    0    0 -0.84705840365E+01  0.16093233812E+02 -0.39406561606E+02  0.47787308000E+02  0.20000168494E+02 0.  0.
        -12    1    1    2    0    0  0.84705840365E+01 -0.16093233812E+02  0.39406561606E+02  0.43400692000E+02  0.00000000000E+00 0.  1.
         11    1    3    3    0    0 -0.46804497536E+01  0.13891589277E+01 -0.68783252262E+01  0.84349114163E+01  0.51100000000E-03 0. -1.
        -11    1    3    3    0    0 -0.18293065001E+01  0.16822765236E+02 -0.32290464340E+02  0.36455807220E+02  0.51100000000E-03 0.  1.
        -12    1    3    3    0    0 -0.19608277828E+01 -0.21186903519E+01 -0.23777204019E+00  0.28965893641E+01  0.00000000000E+00 0.  1.
</event>
<event>
 7    1  0.2732193E-010  0.4778727E+02  0.7816164E-02  0.1312668E+00
        -11   -1    0    0    0    0  0.00000000000E+00  0.00000000000E+00  0.45593999997E+02  0.45594000000E+02  0.51100000000E-03 0.  1.
         11   -1    0    0    0    0 -0.00000000000E+00 -0.00000000000E+00 -0.45593999997E+02  0.45594000000E+02  0.51100000000E-03 0. -1.
    9900012    2    1    2    0    0  0.37522430722E+02  0.36306602057E+01 -0.21506021739E+02  0.47787268763E+02  0.19999989599E+02 0.  0.
        -12    1    1    2    0    0 -0.37522430722E+02 -0.36306602057E+01  0.21506021739E+02  0.43400731237E+02  0.00000000000E+00 0.  1.
         11    1    3    3    0    0  0.31851019760E+02  0.14196951064E+01 -0.11959824562E+02  0.34052024870E+02  0.51100000000E-03 0. -1.
        -11    1    3    3    0    0  0.39224713955E+01  0.49093683740E+01 -0.44154268551E+01  0.76800829588E+01  0.51100000000E-03 0.  1.
         12    1    3    3    0    0  0.17489395670E+01 -0.26984032747E+01 -0.51307703224E+01  0.60551609345E+01  0.00000000000E+00 0. -1.
</event>
<event>
 7    1  0.2732193E-010  0.4778727E+02  0.7816164E-02  0.1312668E+00
        -11   -1    0    0    0    0  0.00000000000E+00  0.00000000000E+00  0.45593999997E+02  0.45594000000E+02  0.51100000000E-03 0.  1.
         11   -1    0    0    0    0 -0.00000000000E+00 -0.00000000000E+00 -0.45593999997E+02  0.45594000000E+02  0.51100000000E-03 0. -1.
    9900012    2    1    2    0    0  0.31492403248E+02  0.16011762880E+02 -0.25208632678E+02  0.47787272191E+02  0.20000005227E+02 0.  0.
        -12    1    1    2    0    0 -0.31492403248E+02 -0.16011762880E+02  0.25208632678E+02  0.43400727809E+02  0.00000000000E+00 0.  1.
         11    1    3    3    0    0  0.17047477223E+02  0.93551641340E+01 -0.25351199338E+01  0.19610262848E+02  0.51100000000E-03 0. -1.
        -11    1    3    3    0    0  0.14136646376E+02  0.60000489916E+01 -0.22749344460E+02  0.27447732735E+02  0.51100000000E-03 0.  1.
        -12    1    3    3    0    0  0.30827964979E+00  0.65654975395E+00  0.75831715580E-01  0.72927660800E+00  0.00000000000E+00 0.  1.
</event>
<event>
 7    1  0.2732193E-010  0.4778727E+02  0.7816164E-02  0.1312668E+00
        -11   -1    0    0    0    0  0.00000000000E+00  0.00000000000E+00  0.45593999997E+02  0.45594000000E+02  0.51100000000E-03 0. -1.
         11   -1    0    0    0    0 -0.00000000000E+00 -0.00000000000E+00 -0.45593999997E+02  0.45594000000E+02  0.51100000000E-03 0.  1.
    9900012    2    1    2    0    0  0.29966774007E+01 -0.81782803886E+01  0.42517749658E+02  0.47787269805E+02  0.19999994347E+02 0.  0.
        -12    1    1    2    0    0 -0.29966774007E+01  0.81782803886E+01 -0.42517749658E+02  0.43400730195E+02  0.00000000000E+00 0.  1.
         11    1    3    3    0    0 -0.23024679982E+01 -0.63868864686E+01  0.66509669745E+01  0.95041590686E+01  0.51100000000E-03 0. -1.
        -11    1    3    3    0    0 -0.10620015124E+01 -0.19818132131E+01  0.44229585060E+00  0.22915184277E+01  0.51100000000E-03 0.  1.
         12    1    3    3    0    0  0.63611469113E+01  0.19041929303E+00  0.35424486833E+02  0.35991592308E+02  0.00000000000E+00 0. -1.
</event>
<event>
 7    1  0.2732193E-010  0.4778726E+02  0.7816164E-02  0.1312668E+00
        -11   -1    0    0    0    0  0.00000000000E+00  0.00000000000E+00  0.45593999997E+02  0.45594000000E+02  0.51100000000E-03 0.  1.
         11   -1    0    0    0    0 -0.00000000000E+00 -0.00000000000E+00 -0.45593999997E+02  0.45594000000E+02  0.51100000000E-03 0. -1.
    9900012    2    1    2    0    0  0.12683759809E+01 -0.25937182031E+02 -0.34774673857E+02  0.47787261168E+02  0.19999954969E+02 0.  0.
        -12    1    1    2    0    0 -0.12683759809E+01  0.25937182031E+02  0.34774673857E+02  0.43400738832E+02  0.00000000000E+00 0.  1.
         11    1    3    3    0    0  0.85428807771E+01 -0.73729166826E+01 -0.17434259665E+02  0.20767621980E+02  0.51100000000E-03 0. -1.
        -11    1    3    3    0    0 -0.23848615403E+01 -0.13223892156E+02 -0.12090650484E+02  0.18076026048E+02  0.51100000000E-03 0.  1.
         12    1    3    3    0    0 -0.48896432558E+01 -0.53403731919E+01 -0.52497637083E+01  0.89436131396E+01  0.00000000000E+00 0. -1.
</event>
<event>
 7    1  0.2732193E-010  0.4778727E+02  0.7816164E-02  0.1312668E+00
        -11   -1    0    0    0    0  0.00000000000E+00  0.00000000000E+00  0.45593999997E+02  0.45594000000E+02  0.51100000000E-03 0.  1.
         11   -1    0    0    0    0 -0.00000000000E+00 -0.00000000000E+00 -0.45593999997E+02  0.45594000000E+02  0.51100000000E-03 0. -1.
    9900012    2    1    2    0    0  0.16304211987E+02  0.14042716180E+02 -0.37690823988E+02  0.47787269371E+02  0.19999992372E+02 0.  0.
        -12    1    1    2    0    0 -0.16304211987E+02 -0.14042716180E+02  0.37690823988E+02  0.43400730629E+02  0.00000000000E+00 0.  1.
         11    1    3    3    0    0  0.57438185474E+01  0.24461922417E+01 -0.29114861381E+02  0.29776676468E+02  0.51100000000E-03 0. -1.
        -11    1    3    3    0    0  0.35284410329E+01  0.46831429678E+01 -0.21745078874E+01  0.62538155547E+01  0.51100000000E-03 0.  1.
         12    1    3    3    0    0  0.70319524069E+01  0.69133809705E+01 -0.64014547188E+01  0.11756777348E+02  0.00000000000E+00 0. -1.
</event>
<event>
 7    1  0.2732193E-010  0.4778728E+02  0.7816164E-02  0.1312668E+00
        -11   -1    0    0    0    0  0.00000000000E+00  0.00000000000E+00  0.45593999997E+02  0.45594000000E+02  0.51100000000E-03 0. -1.
         11   -1    0    0    0    0 -0.00000000000E+00 -0.00000000000E+00 -0.45593999997E+02  0.45594000000E+02  0.51100000000E-03 0.  1.
    9900012    2    1    2    0    0 -0.38484684550E+02 -0.22199603725E+01  0.19940499407E+02  0.47787277822E+02  0.20000030901E+02 0.  0.
        -12    1    1    2    0    0  0.38484684550E+02  0.22199603725E+01 -0.19940499407E+02  0.43400722178E+02  0.00000000000E+00 0.  1.
         11    1    3    3    0    0 -0.35825314341E+01 -0.22843547372E+01  0.44683625319E+01  0.61659607539E+01  0.51100000000E-03 0. -1.
        -11    1    3    3    0    0  0.14413810450E+01  0.38204418356E+00 -0.91862057695E+00  0.17513997546E+01  0.51100000000E-03 0.  1.
        -12    1    3    3    0    0 -0.36343534161E+02 -0.31764981892E+00  0.16390757452E+02  0.39869917313E+02  0.00000000000E+00 0.  1.
</event>
<event>
 7    1  0.2732193E-010  0.4778727E+02  0.7816164E-02  0.1312668E+00
        -11   -1    0    0    0    0  0.00000000000E+00  0.00000000000E+00  0.45593999997E+02  0.45594000000E+02  0.51100000000E-03 0.  1.
         11   -1    0    0    0    0 -0.00000000000E+00 -0.00000000000E+00 -0.45593999997E+02  0.45594000000E+02  0.51100000000E-03 0. -1.
    9900012    2    1    2    0    0  0.93460109841E+01 -0.33228873626E+02 -0.26308121176E+02  0.47787271854E+02  0.20000003692E+02 0.  0.
        -12    1    1    2    0    0 -0.93460109841E+01  0.33228873626E+02  0.26308121176E+02  0.43400728146E+02  0.00000000000E+00 0.  1.
         11    1    3    3    0    0  0.92424873654E+01 -0.60260943094E+01 -0.89104248260E+01  0.14182138632E+02  0.51100000000E-03 0. -1.
        -11    1    3    3    0    0 -0.35644957478E+01 -0.63247289609E+01 -0.24312124415E+01  0.76562798122E+01  0.51100000000E-03 0.  1.
         12    1    3    3    0    0  0.36680193665E+01 -0.20878050356E+02 -0.14966483909E+02  0.25948853410E+02  0.00000000000E+00 0. -1.
</event>
<event>
 7    1  0.2732193E-010  0.4778727E+02  0.7816164E-02  0.1312668E+00
        -11   -1    0    0    0    0  0.00000000000E+00  0.00000000000E+00  0.45593999997E+02  0.45594000000E+02  0.51100000000E-03 0.  1.
         11   -1    0    0    0    0 -0.00000000000E+00 -0.00000000000E+00 -0.45593999997E+02  0.45594000000E+02  0.51100000000E-03 0. -1.
    9900012    2    1    2    0    0 -0.21200990662E+02 -0.37869948975E+02  0.91398548369E-01  0.47787269659E+02  0.19999993682E+02 0.  0.
        -12    1    1    2    0    0  0.21200990662E+02  0.37869948975E+02 -0.91398548369E-01  0.43400730341E+02  0.00000000000E+00 0.  1.
         11    1    3    3    0    0 -0.13914447110E+02 -0.21777039597E+02 -0.25138448491E+01  0.25964797480E+02  0.51100000000E-03 0. -1.
        -11    1    3    3    0    0 -0.63687728968E+01 -0.16594752597E+01  0.32610297709E+01  0.73450283714E+01  0.51100000000E-03 0.  1.
        -12    1    3    3    0    0 -0.91777065571E+00 -0.14433434118E+02 -0.65578637348E+00  0.14477443807E+02  0.00000000000E+00 0.  1.
</event>
<event>
 7    1  0.2732193E-010  0.4778728E+02  0.7816164E-02  0.1312668E+00
        -11   -1    0    0    0    0  0.00000000000E+00  0.00000000000E+00  0.45593999997E+02  0.45594000000E+02  0.51100000000E-03 0.  1.
         11   -1    0    0    0    0 -0.00000000000E+00 -0.00000000000E+00 -0.45593999997E+02  0.45594000000E+02  0.51100000000E-03 0. -1.
    9900012    2    1    2    0    0  0.40991735208E+02 -0.41981866141E+01  0.13626262466E+02  0.47787283935E+02  0.20000058771E+02 0.  0.
        -12    1    1    2    0    0 -0.40991735208E+02  0.41981866141E+01 -0.13626262466E+02  0.43400716065E+02  0.00000000000E+00 0.  1.
         11    1    3    3    0    0  0.10055518399E+02 -0.61477792170E+01  0.67033473110E+01  0.13558890257E+02  0.51100000000E-03 0. -1.
        -11    1    3    3    0    0 -0.44385213298E+00 -0.30087252277E+00  0.23821221378E+01  0.24417278988E+01  0.51100000000E-03 0.  1.
         12    1    3    3    0    0  0.31380068942E+02  0.22504651257E+01  0.45407930168E+01  0.31786665779E+02  0.00000000000E+00 0. -1.
</event>
<event>
 7    1  0.2732193E-010  0.4778728E+02  0.7816164E-02  0.1312668E+00
        -11   -1    0    0    0    0  0.00000000000E+00  0.00000000000E+00  0.45593999997E+02  0.45594000000E+02  0.51100000000E-03 0.  1.
         11   -1    0    0    0    0 -0.00000000000E+00 -0.00000000000E+00 -0.45593999997E+02  0.45594000000E+02  0.51100000000E-03 0. -1.
    9900012    2    1    2    0    0  0.32156616696E+02 -0.19688100202E+02 -0.21493102720E+02  0.47787277063E+02  0.20000027442E+02 0.  0.
        -12    1    1    2    0    0 -0.32156616696E+02  0.19688100202E+02  0.21493102720E+02  0.43400722937E+02  0.00000000000E+00 0.  1.
         11    1    3    3    0    0  0.46083155766E+01 -0.86024331099E+01  0.54935561613E+00  0.97744677460E+01  0.51100000000E-03 0.  1.
        -11    1    3    3    0    0  0.18222286581E+02 -0.92242949723E+01 -0.19336364143E+02  0.28125332434E+02  0.51100000000E-03 0. -1.
        -12    1    3    3    0    0  0.93260145382E+01 -0.18613721202E+01 -0.27060941931E+01  0.98874768833E+01  0.00000000000E+00 0.  1.
</event>
<event>
 7    1  0.2732193E-010  0.4778727E+02  0.7816164E-02  0.1312668E+00
        -11   -1    0    0    0    0  0.00000000000E+00  0.00000000000E+00  0.45593999997E+02  0.45594000000E+02  0.51100000000E-03 0. -1.
         11   -1    0    0    0    0 -0.00000000000E+00 -0.00000000000E+00 -0.45593999997E+02  0.45594000000E+02  0.51100000000E-03 0.  1.
    9900012    2    1    2    0    0  0.26228546851E+02  0.28086747404E+02  0.20169807828E+02  0.47787271925E+02  0.20000004014E+02 0.  0.
        -12    1    1    2    0    0 -0.26228546851E+02 -0.28086747404E+02 -0.20169807828E+02  0.43400728075E+02  0.00000000000E+00 0.  1.
         11    1    3    3    0    0  0.14511853908E+02  0.23827894686E+02  0.66702889782E+01  0.28685453184E+02  0.51100000000E-03 0. -1.
        -11    1    3    3    0    0  0.37512865099E+01 -0.10948139738E+01  0.35874091693E+01  0.53047406087E+01  0.51100000000E-03 0.  1.
         12    1    3    3    0    0  0.79654064325E+01  0.53536666912E+01  0.99121096803E+01  0.13797078132E+02  0.00000000000E+00 0. -1.
</event>
<event>
 7    1  0.2732193E-010  0.4778727E+02  0.7816164E-02  0.1312668E+00
        -11   -1    0    0    0    0  0.00000000000E+00  0.00000000000E+00  0.45593999997E+02  0.45594000000E+02  0.51100000000E-03 0.  1.
         11   -1    0    0    0    0 -0.00000000000E+00 -0.00000000000E+00 -0.45593999997E+02  0.45594000000E+02  0.51100000000E-03 0. -1.
    9900012    2    1    2    0    0  0.31207585197E+02  0.11228604632E+02 -0.27993362516E+02  0.47787270965E+02  0.19999999636E+02 0.  0.
        -12    1    1    2    0    0 -0.31207585197E+02 -0.11228604632E+02  0.27993362516E+02  0.43400729035E+02  0.00000000000E+00 0.  1.
         11    1    3    3    0    0  0.30467116016E+02  0.11388008901E+02 -0.18223108936E+02  0.37282886216E+02  0.51100000000E-03 0.  1.
        -11    1    3    3    0    0  0.11540367477E+01  0.91991329235E+00 -0.89888444565E+01  0.91091913035E+01  0.51100000000E-03 0. -1.
        -12    1    3    3    0    0 -0.41356756622E+00 -0.10793175613E+01 -0.78140912354E+00  0.13951934448E+01  0.00000000000E+00 0.  1.
</event>
<event>
 7    1  0.2732193E-010  0.4778727E+02  0.7816164E-02  0.1312668E+00
        -11   -1    0    0    0    0  0.00000000000E+00  0.00000000000E+00  0.45593999997E+02  0.45594000000E+02  0.51100000000E-03 0.  1.
         11   -1    0    0    0    0 -0.00000000000E+00 -0.00000000000E+00 -0.45593999997E+02  0.45594000000E+02  0.51100000000E-03 0. -1.
    9900012    2    1    2    0    0  0.85705445097E+00 -0.14163862656E+02 -0.41015530206E+02  0.47787271138E+02  0.20000000427E+02 0.  0.
        -12    1    1    2    0    0 -0.85705445097E+00  0.14163862656E+02  0.41015530206E+02  0.43400728862E+02  0.00000000000E+00 0.  1.
         11    1    3    3    0    0  0.21656559653E+01  0.10113942631E+01 -0.25352153078E-01  0.23903194574E+01  0.51100000000E-03 0.  1.
        -11    1    3    3    0    0 -0.23127873420E+01 -0.14609642960E+02 -0.41558190438E+02  0.44112060091E+02  0.51100000000E-03 0. -1.
         12    1    3    3    0    0  0.10041858277E+01 -0.56561395918E+00  0.56801238541E+00  0.12848915897E+01  0.00000000000E+00 0. -1.
</event>
<event>
 7    1  0.2732193E-010  0.4778727E+02  0.7816164E-02  0.1312668E+00
        -11   -1    0    0    0    0  0.00000000000E+00  0.00000000000E+00  0.45593999997E+02  0.45594000000E+02  0.51100000000E-03 0.  1.
         11   -1    0    0    0    0 -0.00000000000E+00 -0.00000000000E+00 -0.45593999997E+02  0.45594000000E+02  0.51100000000E-03 0. -1.
    9900012    2    1    2    0    0 -0.16781455542E+02  0.12576771482E+02 -0.37997773840E+02  0.47787271345E+02  0.20000001369E+02 0.  0.
        -12    1    1    2    0    0  0.16781455542E+02 -0.12576771482E+02  0.37997773840E+02  0.43400728655E+02  0.00000000000E+00 0.  1.
         11    1    3    3    0    0 -0.70265362104E+01 -0.50007380160E+01 -0.12243417473E+02  0.14976009599E+02  0.51100000000E-03 0. -1.
        -11    1    3    3    0    0 -0.56909918444E+01  0.12205307718E+02 -0.15389573252E+02  0.20449838381E+02  0.51100000000E-03 0.  1.
         12    1    3    3    0    0 -0.40639274868E+01  0.53722017803E+01 -0.10364783115E+02  0.12361423365E+02  0.00000000000E+00 0. -1.
</event>
<event>
 7    1  0.2732193E-010  0.4778728E+02  0.7816164E-02  0.1312668E+00
        -11   -1    0    0    0    0  0.00000000000E+00  0.00000000000E+00  0.45593999997E+02  0.45594000000E+02  0.51100000000E-03 0.  1.
         11   -1    0    0    0    0 -0.00000000000E+00 -0.00000000000E+00 -0.45593999997E+02  0.45594000000E+02  0.51100000000E-03 0. -1.
    9900012    2    1    2    0    0  0.35918957211E+02 -0.55616487674E+01 -0.23717478178E+02  0.47787283471E+02  0.20000056656E+02 0.  0.
        -12    1    1    2    0    0 -0.35918957211E+02  0.55616487674E+01  0.23717478178E+02  0.43400716529E+02  0.00000000000E+00 0.  1.
         11    1    3    3    0    0  0.25670570575E+02 -0.32004226121E+01 -0.61218856525E+01  0.26583799253E+02  0.51100000000E-03 0. -1.
        -11    1    3    3    0    0  0.56702041381E+01 -0.34290812634E+01 -0.13188821289E+02  0.14759905844E+02  0.51100000000E-03 0.  1.
        -12    1    3    3    0    0  0.45781824978E+01  0.10678551081E+01 -0.44067712368E+01  0.64435783730E+01  0.00000000000E+00 0.  1.
</event>
<event>
 7    1  0.2732193E-010  0.4778727E+02  0.7816164E-02  0.1312668E+00
        -11   -1    0    0    0    0  0.00000000000E+00  0.00000000000E+00  0.45593999997E+02  0.45594000000E+02  0.51100000000E-03 0.  1.
         11   -1    0    0    0    0 -0.00000000000E+00 -0.00000000000E+00 -0.45593999997E+02  0.45594000000E+02  0.51100000000E-03 0. -1.
    9900012    2    1    2    0    0 -0.23725101562E+02 -0.30228136757E+02 -0.20174299104E+02  0.47787273736E+02  0.20000012271E+02 0.  0.
        -12    1    1    2    0    0  0.23725101562E+02  0.30228136757E+02  0.20174299104E+02  0.43400726264E+02  0.00000000000E+00 0.  1.
         11    1    3    3    0    0 -0.69129733340E+01 -0.18899955475E+02 -0.42582781224E+01  0.20570134908E+02  0.51100000000E-03 0. -1.
        -11    1    3    3    0    0 -0.84149195556E+01 -0.28975528700E+01 -0.24166341236E+01  0.92220824389E+01  0.51100000000E-03 0.  1.
         12    1    3    3    0    0 -0.83972086725E+01 -0.84306284114E+01 -0.13499386858E+02  0.17995056389E+02  0.00000000000E+00 0. -1.
</event>
<event>
 7    1  0.2732193E-010  0.4778727E+02  0.7816164E-02  0.1312668E+00
        -11   -1    0    0    0    0  0.00000000000E+00  0.00000000000E+00  0.45593999997E+02  0.45594000000E+02  0.51100000000E-03 0. -1.
         11   -1    0    0    0    0 -0.00000000000E+00 -0.00000000000E+00 -0.45593999997E+02  0.45594000000E+02  0.51100000000E-03 0.  1.
    9900012    2    1    2    0    0 -0.36869131764E+02 -0.22599607444E+02  0.36808127655E+01  0.47787268251E+02  0.19999987265E+02 0.  0.
        -12    1    1    2    0    0  0.36869131764E+02  0.22599607444E+02 -0.36808127655E+01  0.43400731749E+02  0.00000000000E+00 0.  1.
         11    1    3    3    0    0 -0.19603531666E+02 -0.11085298533E+02  0.82368846574E+00  0.22535766246E+02  0.51100000000E-03 0. -1.
        -11    1    3    3    0    0 -0.29054201487E+01  0.17574622570E+01 -0.33161725874E+01  0.47462765107E+01  0.51100000000E-03 0.  1.
        -12    1    3    3    0    0 -0.14360179950E+02 -0.13271771168E+02  0.61732968872E+01  0.20505225495E+02  0.00000000000E+00 0.  1.
</event>
<event>
 7    1  0.2732193E-010  0.4778727E+02  0.7816164E-02  0.1312668E+00
        -11   -1    0    0    0    0  0.00000000000E+00  0.00000000000E+00  0.45593999997E+02  0.45594000000E+02  0.51100000000E-03 0.  1.
         11   -1    0    0    0    0 -0.00000000000E+00 -0.00000000000E+00 -0.45593999997E+02  0.45594000000E+02  0.51100000000E-03 0. -1.
    9900012    2    1    2    0    0 -0.23170137862E+02 -0.11965814669E+00 -0.36698142794E+02  0.47787270846E+02  0.19999999093E+02 0.  0.
        -12    1    1    2    0    0  0.23170137862E+02  0.11965814669E+00  0.36698142794E+02  0.43400729154E+02  0.00000000000E+00 0.  1.
         11    1    3    3    0    0 -0.12713977608E+02 -0.45004314731E+01 -0.32598547769E+02  0.35278384699E+02  0.51100000000E-03 0. -1.
        -11    1    3    3    0    0 -0.20263465892E+01  0.23873860635E+01 -0.73805228305E+00  0.32172059538E+01  0.51100000000E-03 0.  1.
         12    1    3    3    0    0 -0.84298136648E+01  0.19933872629E+01 -0.33615427421E+01  0.92916801930E+01  0.00000000000E+00 0. -1.
</event>
<event>
 7    1  0.2732193E-010  0.4778727E+02  0.7816164E-02  0.1312668E+00
        -11   -1    0    0    0    0  0.00000000000E+00  0.00000000000E+00  0.45593999997E+02  0.45594000000E+02  0.51100000000E-03 0. -1.
         11   -1    0    0    0    0 -0.00000000000E+00 -0.00000000000E+00 -0.45593999997E+02  0.45594000000E+02  0.51100000000E-03 0.  1.
    9900012    2    1    2    0    0  0.35764168092E+02 -0.14595228157E+02 -0.19787036144E+02  0.47787271854E+02  0.20000003690E+02 0.  0.
        -12    1    1    2    0    0 -0.35764168092E+02  0.14595228157E+02  0.19787036144E+02  0.43400728146E+02  0.00000000000E+00 0.  1.
         11    1    3    3    0    0  0.21701497566E+02 -0.39668373390E+00 -0.14180268787E+02  0.25926673094E+02  0.51100000000E-03 0. -1.
        -11    1    3    3    0    0  0.14565056420E+01 -0.38156324438E+01  0.10619286121E+01  0.42199706480E+01  0.51100000000E-03 0.  1.
         12    1    3    3    0    0  0.12606164884E+02 -0.10382911980E+02 -0.66686959691E+01  0.17640628112E+02  0.00000000000E+00 0. -1.
</event>
<event>
 7    1  0.2732193E-010  0.4778727E+02  0.7816164E-02  0.1312668E+00
        -11   -1    0    0    0    0  0.00000000000E+00  0.00000000000E+00  0.45593999997E+02  0.45594000000E+02  0.51100000000E-03 0.  1.
         11   -1    0    0    0    0 -0.00000000000E+00 -0.00000000000E+00 -0.45593999997E+02  0.45594000000E+02  0.51100000000E-03 0. -1.
    9900012    2    1    2    0    0 -0.40229921428E+02  0.56824204907E+01  0.15260624705E+02  0.47787272505E+02  0.20000006657E+02 0.  0.
        -12    1    1    2    0    0  0.40229921428E+02 -0.56824204907E+01 -0.15260624705E+02  0.43400727495E+02  0.00000000000E+00 0.  1.
         11    1    3    3    0    0 -0.64806356391E+01 -0.64415082272E+00 -0.35815812864E+01  0.74324486774E+01  0.51100000000E-03 0. -1.
        -11    1    3    3    0    0 -0.33233498577E+01 -0.80414077572E+00 -0.70963613578E+00  0.34921168895E+01  0.51100000000E-03 0.  1.
        -12    1    3    3    0    0 -0.30425935931E+02  0.71307120891E+01  0.19551842127E+02  0.36862706938E+02  0.00000000000E+00 0.  1.
</event>
<event>
 7    1  0.2732193E-010  0.4778727E+02  0.7816164E-02  0.1312668E+00
        -11   -1    0    0    0    0  0.00000000000E+00  0.00000000000E+00  0.45593999997E+02  0.45594000000E+02  0.51100000000E-03 0.  1.
         11   -1    0    0    0    0 -0.00000000000E+00 -0.00000000000E+00 -0.45593999997E+02  0.45594000000E+02  0.51100000000E-03 0. -1.
    9900012    2    1    2    0    0 -0.33382532967E+02 -0.43811757750E+01 -0.27386767058E+02  0.47787271684E+02  0.20000002914E+02 0.  0.
        -12    1    1    2    0    0  0.33382532967E+02  0.43811757750E+01  0.27386767058E+02  0.43400728316E+02  0.00000000000E+00 0.  1.
         11    1    3    3    0    0 -0.43534383823E+01 -0.15484719521E+00 -0.55409533255E+01  0.70483024494E+01  0.51100000000E-03 0. -1.
        -11    1    3    3    0    0 -0.26007625542E+02 -0.59072448754E+01 -0.24627305456E+02  0.36301464194E+02  0.51100000000E-03 0.  1.
        -12    1    3    3    0    0 -0.30214690429E+01  0.16809162957E+01  0.27814917234E+01  0.44375050397E+01  0.00000000000E+00 0.  1.
</event>
<event>
 7    1  0.2732193E-010  0.4778727E+02  0.7816164E-02  0.1312668E+00
        -11   -1    0    0    0    0  0.00000000000E+00  0.00000000000E+00  0.45593999997E+02  0.45594000000E+02  0.51100000000E-03 0.  1.
         11   -1    0    0    0    0 -0.00000000000E+00 -0.00000000000E+00 -0.45593999997E+02  0.45594000000E+02  0.51100000000E-03 0. -1.
    9900012    2    1    2    0    0 -0.12420553547E+01 -0.10447804776E+02 -0.42106103128E+02  0.47787271356E+02  0.20000001423E+02 0.  0.
        -12    1    1    2    0    0  0.12420553547E+01  0.10447804776E+02  0.42106103128E+02  0.43400728644E+02  0.00000000000E+00 0.  1.
         11    1    3    3    0    0  0.62091847754E+00 -0.32109647146E+01 -0.33482872737E+01  0.46804766939E+01  0.51100000000E-03 0. -1.
        -11    1    3    3    0    0  0.60525497851E+01 -0.75781404886E+01 -0.28754077954E+02  0.30345651606E+02  0.51100000000E-03 0.  1.
        -12    1    3    3    0    0 -0.79155236173E+01  0.34130042702E+00 -0.10003737900E+02  0.12761143056E+02  0.00000000000E+00 0.  1.
</event>
<event>
 7    1  0.2732193E-010  0.4778727E+02  0.7816164E-02  0.1312668E+00
        -11   -1    0    0    0    0  0.00000000000E+00  0.00000000000E+00  0.45593999997E+02  0.45594000000E+02  0.51100000000E-03 0.  1.
         11   -1    0    0    0    0 -0.00000000000E+00 -0.00000000000E+00 -0.45593999997E+02  0.45594000000E+02  0.51100000000E-03 0. -1.
    9900012    2    1    2    0    0  0.37931350885E+02  0.20209055080E+02  0.60357402145E+01  0.47787269049E+02  0.19999990900E+02 0.  0.
        -12    1    1    2    0    0 -0.37931350885E+02 -0.20209055080E+02 -0.60357402145E+01  0.43400730951E+02  0.00000000000E+00 0.  1.
         11    1    3    3    0    0  0.23195845117E+02  0.16657936374E+02 -0.33643837171E+01  0.28755054390E+02  0.51100000000E-03 0. -1.
        -11    1    3    3    0    0  0.12718660429E+01  0.11432514829E+01  0.39586523693E+01  0.43122611268E+01  0.51100000000E-03 0.  1.
         12    1    3    3    0    0  0.13463639725E+02  0.24078672233E+01  0.54414715624E+01  0.14719953532E+02  0.00000000000E+00 0. -1.
</event>
<event>
 7    1  0.2732193E-010  0.4778727E+02  0.7816164E-02  0.1312668E+00
        -11   -1    0    0    0    0  0.00000000000E+00  0.00000000000E+00  0.45593999997E+02  0.45594000000E+02  0.51100000000E-03 0.  1.
         11   -1    0    0    0    0 -0.00000000000E+00 -0.00000000000E+00 -0.45593999997E+02  0.45594000000E+02  0.51100000000E-03 0. -1.
    9900012    2    1    2    0    0  0.84920724029E+01  0.96768432348E+01 -0.41447153443E+02  0.47787272850E+02  0.20000008231E+02 0.  0.
        -12    1    1    2    0    0 -0.84920724029E+01 -0.96768432348E+01  0.41447153443E+02  0.43400727150E+02  0.00000000000E+00 0.  1.
         11    1    3    3    0    0  0.51095185725E+01  0.82398561434E+01 -0.36855891950E+02  0.38109830503E+02  0.51100000000E-03 0. -1.
        -11    1    3    3    0    0  0.38883345798E+01  0.21709932655E+01  0.52492423024E+00  0.44841836796E+01  0.51100000000E-03 0.  1.
        -12    1    3    3    0    0 -0.50578074934E+00 -0.73400617416E+00 -0.51161857226E+01  0.51932586666E+01  0.00000000000E+00 0.  1.
</event>
<event>
 7    1  0.2732193E-010  0.4778726E+02  0.7816164E-02  0.1312668E+00
        -11   -1    0    0    0    0  0.00000000000E+00  0.00000000000E+00  0.45593999997E+02  0.45594000000E+02  0.51100000000E-03 0.  1.
         11   -1    0    0    0    0 -0.00000000000E+00 -0.00000000000E+00 -0.45593999997E+02  0.45594000000E+02  0.51100000000E-03 0. -1.
    9900012    2    1    2    0    0 -0.68803046088E+01  0.40969184762E+02  0.12562310294E+02  0.47787258860E+02  0.19999944444E+02 0.  0.
        -12    1    1    2    0    0  0.68803046088E+01 -0.40969184762E+02 -0.12562310294E+02  0.43400741140E+02  0.00000000000E+00 0.  1.
         11    1    3    3    0    0 -0.64011334035E+01  0.36817386182E+01 -0.17602693534E+00  0.73865210922E+01  0.51100000000E-03 0. -1.
        -11    1    3    3    0    0  0.33014716069E+01  0.19927946105E+02  0.95783788279E+01  0.22355493552E+02  0.51100000000E-03 0.  1.
         12    1    3    3    0    0 -0.37806428122E+01  0.17359500039E+02  0.31599584019E+01  0.18045244215E+02  0.00000000000E+00 0. -1.
</event>
<event>
 7    1  0.2732193E-010  0.4778727E+02  0.7816164E-02  0.1312668E+00
        -11   -1    0    0    0    0  0.00000000000E+00  0.00000000000E+00  0.45593999997E+02  0.45594000000E+02  0.51100000000E-03 0.  1.
         11   -1    0    0    0    0 -0.00000000000E+00 -0.00000000000E+00 -0.45593999997E+02  0.45594000000E+02  0.51100000000E-03 0. -1.
    9900012    2    1    2    0    0  0.41687057113E+00 -0.48168995842E+01 -0.43130579919E+02  0.47787271587E+02  0.20000002473E+02 0.  0.
        -12    1    1    2    0    0 -0.41687057113E+00  0.48168995842E+01  0.43130579919E+02  0.43400728413E+02  0.00000000000E+00 0.  1.
         11    1    3    3    0    0  0.16245315498E+01 -0.98705062531E+01 -0.29402398087E+02  0.31057479131E+02  0.51100000000E-03 0. -1.
        -11    1    3    3    0    0 -0.42045394566E+01  0.48416347675E+01 -0.79190660989E+01  0.10189758947E+02  0.51100000000E-03 0.  1.
        -12    1    3    3    0    0  0.29968784780E+01  0.21197190144E+00 -0.58091157326E+01  0.65400335086E+01  0.00000000000E+00 0.  1.
</event>
<event>
 7    1  0.2732193E-010  0.4778727E+02  0.7816164E-02  0.1312668E+00
        -11   -1    0    0    0    0  0.00000000000E+00  0.00000000000E+00  0.45593999997E+02  0.45594000000E+02  0.51100000000E-03 0.  1.
         11   -1    0    0    0    0 -0.00000000000E+00 -0.00000000000E+00 -0.45593999997E+02  0.45594000000E+02  0.51100000000E-03 0. -1.
    9900012    2    1    2    0    0 -0.39636190652E+02  0.16714345073E+02  0.57642247363E+01  0.47787271580E+02  0.20000002441E+02 0.  0.
        -12    1    1    2    0    0  0.39636190652E+02 -0.16714345073E+02 -0.57642247363E+01  0.43400728420E+02  0.00000000000E+00 0.  1.
         11    1    3    3    0    0 -0.42575456880E+01  0.83876638245E+00 -0.47749240206E+01  0.64521410395E+01  0.51100000000E-03 0.  1.
        -11    1    3    3    0    0 -0.29084638447E+02  0.13683526729E+02  0.47200444830E+01  0.32487442459E+02  0.51100000000E-03 0. -1.
         12    1    3    3    0    0 -0.62940065169E+01  0.21920519617E+01  0.58191042740E+01  0.88476880816E+01  0.00000000000E+00 0. -1.
</event>
<event>
 7    1  0.2732193E-010  0.4778727E+02  0.7816164E-02  0.1312668E+00
        -11   -1    0    0    0    0  0.00000000000E+00  0.00000000000E+00  0.45593999997E+02  0.45594000000E+02  0.51100000000E-03 0.  1.
         11   -1    0    0    0    0 -0.00000000000E+00 -0.00000000000E+00 -0.45593999997E+02  0.45594000000E+02  0.51100000000E-03 0. -1.
    9900012    2    1    2    0    0 -0.28305942068E+02 -0.72286833676E+01 -0.32095841473E+02  0.47787271211E+02  0.20000000759E+02 0.  0.
        -12    1    1    2    0    0  0.28305942068E+02  0.72286833676E+01  0.32095841473E+02  0.43400728789E+02  0.00000000000E+00 0.  1.
         11    1    3    3    0    0 -0.14439724438E+02  0.44774047722E+01 -0.12573213755E+02  0.19663125381E+02  0.51100000000E-03 0. -1.
        -11    1    3    3    0    0  0.98537800128E+00  0.41709301732E+00 -0.92646939798E+00  0.14153735186E+01  0.51100000000E-03 0.  1.
         12    1    3    3    0    0 -0.14851595631E+02 -0.12123181157E+02 -0.18596158319E+02  0.26708772311E+02  0.00000000000E+00 0. -1.
</event>
<event>
 7    1  0.2732193E-010  0.4778728E+02  0.7816164E-02  0.1312668E+00
        -11   -1    0    0    0    0  0.00000000000E+00  0.00000000000E+00  0.45593999997E+02  0.45594000000E+02  0.51100000000E-03 0.  1.
         11   -1    0    0    0    0 -0.00000000000E+00 -0.00000000000E+00 -0.45593999997E+02  0.45594000000E+02  0.51100000000E-03 0. -1.
    9900012    2    1    2    0    0  0.11476450399E+02  0.30128579582E+02 -0.29054821760E+02  0.47787275480E+02  0.20000020221E+02 0.  0.
        -12    1    1    2    0    0 -0.11476450399E+02 -0.30128579582E+02  0.29054821760E+02  0.43400724520E+02  0.00000000000E+00 0.  1.
         11    1    3    3    0    0  0.49272674853E+01  0.23635719968E+02 -0.97045455350E+01  0.26021211109E+02  0.51100000000E-03 0. -1.
        -11    1    3    3    0    0  0.23720978745E+01  0.49932385672E+01 -0.10801331137E+02  0.12133755985E+02  0.51100000000E-03 0.  1.
         12    1    3    3    0    0  0.41770850396E+01  0.14996210468E+01 -0.85489450880E+01  0.96323083853E+01  0.00000000000E+00 0. -1.
</event>
<event>
 7    1  0.2732193E-010  0.4778727E+02  0.7816164E-02  0.1312668E+00
        -11   -1    0    0    0    0  0.00000000000E+00  0.00000000000E+00  0.45593999997E+02  0.45594000000E+02  0.51100000000E-03 0.  1.
         11   -1    0    0    0    0 -0.00000000000E+00 -0.00000000000E+00 -0.45593999997E+02  0.45594000000E+02  0.51100000000E-03 0. -1.
    9900012    2    1    2    0    0 -0.27448020810E+02  0.34921407743E+01 -0.33437016207E+02  0.47787274817E+02  0.20000017199E+02 0.  0.
        -12    1    1    2    0    0  0.27448020810E+02 -0.34921407743E+01  0.33437016207E+02  0.43400725183E+02  0.00000000000E+00 0.  1.
         11    1    3    3    0    0 -0.21964481071E+02  0.50833744145E+01 -0.12802440204E+02  0.25926465235E+02  0.51100000000E-03 0. -1.
        -11    1    3    3    0    0 -0.23529059582E+00  0.85074437309E+00 -0.77436126419E+00  0.11742075121E+01  0.51100000000E-03 0.  1.
         12    1    3    3    0    0 -0.52482491437E+01 -0.24419780133E+01 -0.19860214739E+02  0.20686602069E+02  0.00000000000E+00 0. -1.
</event>
<event>
 7    1  0.2732193E-010  0.4778729E+02  0.7816164E-02  0.1312668E+00
        -11   -1    0    0    0    0  0.00000000000E+00  0.00000000000E+00  0.45593999997E+02  0.45594000000E+02  0.51100000000E-03 0.  1.
         11   -1    0    0    0    0 -0.00000000000E+00 -0.00000000000E+00 -0.45593999997E+02  0.45594000000E+02  0.51100000000E-03 0. -1.
    9900012    2    1    2    0    0 -0.58632788965E+00  0.38492210603E+02 -0.20040657046E+02  0.47787285808E+02  0.20000067314E+02 0.  0.
        -12    1    1    2    0    0  0.58632788965E+00 -0.38492210603E+02  0.20040657046E+02  0.43400714192E+02  0.00000000000E+00 0.  1.
         11    1    3    3    0    0 -0.36927412619E+01  0.46935930926E+00 -0.20790340949E+01  0.42636861068E+01  0.51100000000E-03 0. -1.
        -11    1    3    3    0    0 -0.15273366168E+01  0.70799609309E+01 -0.77590972953E+01  0.10614244911E+02  0.51100000000E-03 0.  1.
         12    1    3    3    0    0  0.46337499891E+01  0.30942890363E+02 -0.10202525656E+02  0.32909354791E+02  0.00000000000E+00 0. -1.
</event>
<event>
 7    1  0.2732193E-010  0.4778727E+02  0.7816164E-02  0.1312668E+00
        -11   -1    0    0    0    0  0.00000000000E+00  0.00000000000E+00  0.45593999997E+02  0.45594000000E+02  0.51100000000E-03 0. -1.
         11   -1    0    0    0    0 -0.00000000000E+00 -0.00000000000E+00 -0.45593999997E+02  0.45594000000E+02  0.51100000000E-03 0.  1.
    9900012    2    1    2    0    0 -0.59484744671E+01  0.31344201503E+02  0.29424135407E+02  0.47787273499E+02  0.20000011191E+02 0.  0.
        -12    1    1    2    0    0  0.59484744671E+01 -0.31344201503E+02 -0.29424135407E+02  0.43400726501E+02  0.00000000000E+00 0.  1.
         11    1    3    3    0    0 -0.98544505713E+01  0.19941345305E+02  0.16190901107E+02  0.27512046953E+02  0.51100000000E-03 0. -1.
        -11    1    3    3    0    0  0.31224359697E+01  0.56738925923E+01  0.12958116386E+02  0.14486388234E+02  0.51100000000E-03 0.  1.
         12    1    3    3    0    0  0.78354013448E+00  0.57289636058E+01  0.27511791515E+00  0.57888383123E+01  0.00000000000E+00 0. -1.
</event>
<event>
 7    1  0.2732193E-010  0.4778727E+02  0.7816164E-02  0.1312668E+00
        -11   -1    0    0    0    0  0.00000000000E+00  0.00000000000E+00  0.45593999997E+02  0.45594000000E+02  0.51100000000E-03 0.  1.
         11   -1    0    0    0    0 -0.00000000000E+00 -0.00000000000E+00 -0.45593999997E+02  0.45594000000E+02  0.51100000000E-03 0. -1.
    9900012    2    1    2    0    0  0.18693960401E+01 -0.13481732264E+01 -0.43339488552E+02  0.47787268664E+02  0.19999989145E+02 0.  0.
        -12    1    1    2    0    0 -0.18693960401E+01  0.13481732264E+01  0.43339488552E+02  0.43400731336E+02  0.00000000000E+00 0.  1.
         11    1    3    3    0    0  0.14007871059E+01 -0.59606087140E+01 -0.21978063339E+02  0.22815046114E+02  0.51100000000E-03 0. -1.
        -11    1    3    3    0    0 -0.46983482201E+01  0.25246117159E+01 -0.38030167461E+01  0.65506546959E+01  0.51100000000E-03 0.  1.
         12    1    3    3    0    0  0.51669571544E+01  0.20878237717E+01 -0.17558408466E+02  0.18421567854E+02  0.00000000000E+00 0. -1.
</event>
<event>
 7    1  0.2732193E-010  0.4778727E+02  0.7816164E-02  0.1312668E+00
        -11   -1    0    0    0    0  0.00000000000E+00  0.00000000000E+00  0.45593999997E+02  0.45594000000E+02  0.51100000000E-03 0. -1.
         11   -1    0    0    0    0 -0.00000000000E+00 -0.00000000000E+00 -0.45593999997E+02  0.45594000000E+02  0.51100000000E-03 0.  1.
    9900012    2    1    2    0    0  0.25923793821E+02 -0.27616068493E+02 -0.21188039941E+02  0.47787270033E+02  0.19999995389E+02 0.  0.
        -12    1    1    2    0    0 -0.25923793821E+02  0.27616068493E+02  0.21188039941E+02  0.43400729967E+02  0.00000000000E+00 0.  1.
         11    1    3    3    0    0  0.17649536822E+02 -0.21921242736E+02 -0.13053769078E+02  0.31023344767E+02  0.51100000000E-03 0. -1.
        -11    1    3    3    0    0 -0.12386147437E+01 -0.17245245014E+01 -0.58255152905E+01  0.62003854639E+01  0.51100000000E-03 0.  1.
         12    1    3    3    0    0  0.95128717431E+01 -0.39703012555E+01 -0.23087555725E+01  0.10563539802E+02  0.00000000000E+00 0. -1.
</event>
<event>
 7    1  0.2732193E-010  0.4778727E+02  0.7816164E-02  0.1312668E+00
        -11   -1    0    0    0    0  0.00000000000E+00  0.00000000000E+00  0.45593999997E+02  0.45594000000E+02  0.51100000000E-03 0. -1.
         11   -1    0    0    0    0 -0.00000000000E+00 -0.00000000000E+00 -0.45593999997E+02  0.45594000000E+02  0.51100000000E-03 0.  1.
    9900012    2    1    2    0    0 -0.39615433471E+01  0.37194201996E+02  0.22011827855E+02  0.47787273585E+02  0.20000011585E+02 0.  0.
        -12    1    1    2    0    0  0.39615433471E+01 -0.37194201996E+02 -0.22011827855E+02  0.43400726415E+02  0.00000000000E+00 0.  1.
         11    1    3    3    0    0 -0.27257595226E+00 -0.15366515802E+01 -0.66790299217E-01  0.15620681592E+01  0.51100000000E-03 0.  1.
        -11    1    3    3    0    0 -0.95858200434E+00  0.33912446530E+02  0.14636767599E+02  0.36948719533E+02  0.51100000000E-03 0. -1.
        -12    1    3    3    0    0 -0.27303853905E+01  0.48184070460E+01  0.74418505551E+01  0.92764858932E+01  0.00000000000E+00 0.  1.
</event>
<event>
 7    1  0.2732193E-010  0.4778727E+02  0.7816164E-02  0.1312668E+00
        -11   -1    0    0    0    0  0.00000000000E+00  0.00000000000E+00  0.45593999997E+02  0.45594000000E+02  0.51100000000E-03 0.  1.
         11   -1    0    0    0    0 -0.00000000000E+00 -0.00000000000E+00 -0.45593999997E+02  0.45594000000E+02  0.51100000000E-03 0. -1.
    9900012    2    1    2    0    0 -0.35730171031E+02 -0.23770770307E+02 -0.64752341274E+01  0.47787270745E+02  0.19999998633E+02 0.  0.
        -12    1    1    2    0    0  0.35730171031E+02  0.23770770307E+02  0.64752341274E+01  0.43400729255E+02  0.00000000000E+00 0.  1.
         11    1    3    3    0    0 -0.10170959472E+02 -0.10421067176E+01 -0.31368063949E+01  0.10694576084E+02  0.51100000000E-03 0. -1.
        -11    1    3    3    0    0 -0.74113163065E+01 -0.12080178416E+02  0.41354046032E+01  0.14763464751E+02  0.51100000000E-03 0.  1.
        -12    1    3    3    0    0 -0.18147895253E+02 -0.10648485173E+02 -0.74738323356E+01  0.22329229910E+02  0.00000000000E+00 0.  1.
</event>
<event>
 7    1  0.2732193E-010  0.4778727E+02  0.7816164E-02  0.1312668E+00
        -11   -1    0    0    0    0  0.00000000000E+00  0.00000000000E+00  0.45593999997E+02  0.45594000000E+02  0.51100000000E-03 0.  1.
         11   -1    0    0    0    0 -0.00000000000E+00 -0.00000000000E+00 -0.45593999997E+02  0.45594000000E+02  0.51100000000E-03 0. -1.
    9900012    2    1    2    0    0 -0.15610985297E+02  0.23376241103E+02 -0.33067686547E+02  0.47787269550E+02  0.19999993186E+02 0.  0.
        -12    1    1    2    0    0  0.15610985297E+02 -0.23376241103E+02  0.33067686547E+02  0.43400730450E+02  0.00000000000E+00 0.  1.
         11    1    3    3    0    0 -0.13294808989E+02  0.55226495516E+01 -0.16875121988E+02  0.22181554194E+02  0.51100000000E-03 0. -1.
        -11    1    3    3    0    0 -0.29785499753E+01  0.18358815613E+02 -0.16343132690E+02  0.24759157035E+02  0.51100000000E-03 0.  1.
        -12    1    3    3    0    0  0.66237366752E+00 -0.50522406240E+00  0.15056813034E+00  0.84655832080E+00  0.00000000000E+00 0.  1.
</event>
<event>
 7    1  0.2732193E-010  0.4778728E+02  0.7816164E-02  0.1312668E+00
        -11   -1    0    0    0    0  0.00000000000E+00  0.00000000000E+00  0.45593999997E+02  0.45594000000E+02  0.51100000000E-03 0. -1.
         11   -1    0    0    0    0 -0.00000000000E+00 -0.00000000000E+00 -0.45593999997E+02  0.45594000000E+02  0.51100000000E-03 0.  1.
    9900012    2    1    2    0    0  0.26586572417E+01  0.40801619482E+02 -0.14552739506E+02  0.47787276068E+02  0.20000022905E+02 0.  0.
        -12    1    1    2    0    0 -0.26586572417E+01 -0.40801619482E+02  0.14552739506E+02  0.43400723932E+02  0.00000000000E+00 0.  1.
         11    1    3    3    0    0  0.21320599199E+01  0.61161061467E+01  0.54427062587E+00  0.64998972819E+01  0.51100000000E-03 0. -1.
        -11    1    3    3    0    0  0.49087380162E+01  0.59945136516E+01  0.14436432262E+01  0.78812441185E+01  0.51100000000E-03 0.  1.
        -12    1    3    3    0    0 -0.43821406944E+01  0.28690999684E+02 -0.16540653358E+02  0.33406134668E+02  0.00000000000E+00 0.  1.
</event>
<event>
 7    1  0.2732193E-010  0.4778727E+02  0.7816164E-02  0.1312668E+00
        -11   -1    0    0    0    0  0.00000000000E+00  0.00000000000E+00  0.45593999997E+02  0.45594000000E+02  0.51100000000E-03 0. -1.
         11   -1    0    0    0    0 -0.00000000000E+00 -0.00000000000E+00 -0.45593999997E+02  0.45594000000E+02  0.51100000000E-03 0.  1.
    9900012    2    1    2    0    0  0.79705130674E+00  0.15048582393E+02  0.40700469633E+02  0.47787270154E+02  0.19999995940E+02 0.  0.
        -12    1    1    2    0    0 -0.79705130674E+00 -0.15048582393E+02 -0.40700469633E+02  0.43400729846E+02  0.00000000000E+00 0.  1.
         11    1    3    3    0    0  0.25327430218E+01 -0.40878312699E+01  0.88842451210E+01  0.10102225663E+02  0.51100000000E-03 0.  1.
        -11    1    3    3    0    0  0.96803108918E+00  0.25957328254E+00  0.26986638824E+01  0.28787583243E+01  0.51100000000E-03 0. -1.
         12    1    3    3    0    0 -0.27037228042E+01  0.18876840380E+02  0.29117560630E+02  0.34806286167E+02  0.00000000000E+00 0. -1.
</event>
<event>
 7    1  0.2732193E-010  0.4778727E+02  0.7816164E-02  0.1312668E+00
        -11   -1    0    0    0    0  0.00000000000E+00  0.00000000000E+00  0.45593999997E+02  0.45594000000E+02  0.51100000000E-03 0.  1.
         11   -1    0    0    0    0 -0.00000000000E+00 -0.00000000000E+00 -0.45593999997E+02  0.45594000000E+02  0.51100000000E-03 0. -1.
    9900012    2    1    2    0    0 -0.39915107267E+02  0.19611179022E+01 -0.16928130689E+02  0.47787269820E+02  0.19999994418E+02 0.  0.
        -12    1    1    2    0    0  0.39915107267E+02 -0.19611179022E+01  0.16928130689E+02  0.43400730180E+02  0.00000000000E+00 0.  1.
         11    1    3    3    0    0 -0.11760539331E+02 -0.64521543799E+01 -0.10198655688E+02  0.16850909756E+02  0.51100000000E-03 0. -1.
        -11    1    3    3    0    0 -0.23430209993E+02  0.44530249220E+01 -0.66953670170E+01  0.24771598879E+02  0.51100000000E-03 0.  1.
        -12    1    3    3    0    0 -0.47243579428E+01  0.39602473600E+01 -0.34107984119E-01  0.61647611858E+01  0.00000000000E+00 0.  1.
</event>
<event>
 7    1  0.2732193E-010  0.4778727E+02  0.7816164E-02  0.1312668E+00
        -11   -1    0    0    0    0  0.00000000000E+00  0.00000000000E+00  0.45593999997E+02  0.45594000000E+02  0.51100000000E-03 0.  1.
         11   -1    0    0    0    0 -0.00000000000E+00 -0.00000000000E+00 -0.45593999997E+02  0.45594000000E+02  0.51100000000E-03 0. -1.
    9900012    2    1    2    0    0  0.33323636062E+02  0.21382157455E+02 -0.17775327565E+02  0.47787266736E+02  0.19999980355E+02 0.  0.
        -12    1    1    2    0    0 -0.33323636062E+02 -0.21382157455E+02  0.17775327565E+02  0.43400733264E+02  0.00000000000E+00 0.  1.
         11    1    3    3    0    0  0.95020661496E+01 -0.16893165143E+01 -0.67524983794E+01  0.11778764198E+02  0.51100000000E-03 0. -1.
        -11    1    3    3    0    0  0.78992620046E+01  0.56126338595E+01  0.53353955112E+00  0.97048783491E+01  0.51100000000E-03 0.  1.
         12    1    3    3    0    0  0.15922307908E+02  0.17458840110E+02 -0.11556368737E+02  0.26303624189E+02  0.00000000000E+00 0. -1.
</event>
<event>
 7    1  0.2732193E-010  0.4778728E+02  0.7816164E-02  0.1312668E+00
        -11   -1    0    0    0    0  0.00000000000E+00  0.00000000000E+00  0.45593999997E+02  0.45594000000E+02  0.51100000000E-03 0.  1.
         11   -1    0    0    0    0 -0.00000000000E+00 -0.00000000000E+00 -0.45593999997E+02  0.45594000000E+02  0.51100000000E-03 0. -1.
    9900012    2    1    2    0    0 -0.18156383204E+02 -0.27335852363E+02 -0.28402812256E+02  0.47787276280E+02  0.20000023869E+02 0.  0.
        -12    1    1    2    0    0  0.18156383204E+02  0.27335852363E+02  0.28402812256E+02  0.43400723720E+02  0.00000000000E+00 0.  1.
         11    1    3    3    0    0 -0.91036290576E+01 -0.26485241300E+02 -0.25089303893E+02  0.37600761147E+02  0.51100000000E-03 0. -1.
        -11    1    3    3    0    0 -0.67665770077E+01 -0.16616482009E+01 -0.14239091065E+01  0.71116212321E+01  0.51100000000E-03 0.  1.
         12    1    3    3    0    0 -0.22861771384E+01  0.81103713872E+00 -0.18895992558E+01  0.30748939000E+01  0.00000000000E+00 0. -1.
</event>
<event>
 7    1  0.2732193E-010  0.4778727E+02  0.7816164E-02  0.1312668E+00
        -11   -1    0    0    0    0  0.00000000000E+00  0.00000000000E+00  0.45593999997E+02  0.45594000000E+02  0.51100000000E-03 0.  1.
         11   -1    0    0    0    0 -0.00000000000E+00 -0.00000000000E+00 -0.45593999997E+02  0.45594000000E+02  0.51100000000E-03 0. -1.
    9900012    2    1    2    0    0 -0.36464105572E+02 -0.17468783910E+02 -0.15774463211E+02  0.47787273093E+02  0.20000009340E+02 0.  0.
        -12    1    1    2    0    0  0.36464105572E+02  0.17468783910E+02  0.15774463211E+02  0.43400726907E+02  0.00000000000E+00 0.  1.
         11    1    3    3    0    0 -0.55273008091E+01  0.29804751287E+01 -0.24226996709E+01  0.67308068004E+01  0.51100000000E-03 0. -1.
        -11    1    3    3    0    0 -0.25035127466E+02 -0.15840203199E+02 -0.53632242976E+01  0.30107039372E+02  0.51100000000E-03 0.  1.
         12    1    3    3    0    0 -0.59016772968E+01 -0.46090558400E+01 -0.79885392427E+01  0.10949426920E+02  0.00000000000E+00 0. -1.
</event>
<event>
 7    1  0.2732193E-010  0.4778732E+02  0.7816164E-02  0.1312668E+00
        -11   -1    0    0    0    0  0.00000000000E+00  0.00000000000E+00  0.45593999997E+02  0.45594000000E+02  0.51100000000E-03 0.  1.
         11   -1    0    0    0    0 -0.00000000000E+00 -0.00000000000E+00 -0.45593999997E+02  0.45594000000E+02  0.51100000000E-03 0. -1.
    9900012    2    1    2    0    0 -0.15502082715E+02  0.17323600261E+02 -0.36649658712E+02  0.47787318229E+02  0.20000215132E+02 0.  0.
        -12    1    1    2    0    0  0.15502082715E+02 -0.17323600261E+02  0.36649658712E+02  0.43400681771E+02  0.00000000000E+00 0.  1.
         11    1    3    3    0    0 -0.10929258905E+02  0.17101257963E+02 -0.18324140508E+02  0.27343661967E+02  0.51100000000E-03 0. -1.
        -11    1    3    3    0    0 -0.49473508387E+01 -0.28910542254E+01 -0.13754876552E+02  0.14900708173E+02  0.51100000000E-03 0.  1.
        -12    1    3    3    0    0  0.37452702855E+00  0.31133965226E+01 -0.45706416524E+01  0.55429480889E+01  0.00000000000E+00 0.  1.
</event>
<event>
 7    1  0.2732193E-010  0.4778727E+02  0.7816164E-02  0.1312668E+00
        -11   -1    0    0    0    0  0.00000000000E+00  0.00000000000E+00  0.45593999997E+02  0.45594000000E+02  0.51100000000E-03 0.  1.
         11   -1    0    0    0    0 -0.00000000000E+00 -0.00000000000E+00 -0.45593999997E+02  0.45594000000E+02  0.51100000000E-03 0. -1.
    9900012    2    1    2    0    0 -0.14399683376E+02 -0.13316687773E+02 -0.38716127934E+02  0.47787267095E+02  0.19999981991E+02 0.  0.
        -12    1    1    2    0    0  0.14399683376E+02  0.13316687773E+02  0.38716127934E+02  0.43400732905E+02  0.00000000000E+00 0.  1.
         11    1    3    3    0    0 -0.92693990927E-02 -0.12132591755E+02 -0.18553594408E+02  0.22168349833E+02  0.51100000000E-03 0. -1.
        -11    1    3    3    0    0 -0.84205592026E+01  0.10818878170E+01 -0.15634904186E+02  0.17791192419E+02  0.51100000000E-03 0.  1.
        -12    1    3    3    0    0 -0.59698547741E+01 -0.22659838345E+01 -0.45276293398E+01  0.78277248419E+01  0.00000000000E+00 0.  1.
</event>
<event>
 7    1  0.2732193E-010  0.4778727E+02  0.7816164E-02  0.1312668E+00
        -11   -1    0    0    0    0  0.00000000000E+00  0.00000000000E+00  0.45593999997E+02  0.45594000000E+02  0.51100000000E-03 0.  1.
         11   -1    0    0    0    0 -0.00000000000E+00 -0.00000000000E+00 -0.45593999997E+02  0.45594000000E+02  0.51100000000E-03 0. -1.
    9900012    2    1    2    0    0  0.30558925646E+02  0.83594602461E+01 -0.29663017972E+02  0.47787272501E+02  0.20000006643E+02 0.  0.
        -12    1    1    2    0    0 -0.30558925646E+02 -0.83594602461E+01  0.29663017972E+02  0.43400727499E+02  0.00000000000E+00 0.  1.
         11    1    3    3    0    0  0.32478795232E+01  0.71149805621E+01 -0.25868269934E+01  0.82379210940E+01  0.51100000000E-03 0. -1.
        -11    1    3    3    0    0  0.13482223129E+02  0.12791906144E+01 -0.19615227847E+02  0.23836187465E+02  0.51100000000E-03 0.  1.
        -12    1    3    3    0    0  0.13828822993E+02 -0.34710930410E-01 -0.74609631317E+01  0.15713163942E+02  0.00000000000E+00 0.  1.
</event>
<event>
 7    1  0.2732193E-010  0.4778727E+02  0.7816164E-02  0.1312668E+00
        -11   -1    0    0    0    0  0.00000000000E+00  0.00000000000E+00  0.45593999997E+02  0.45594000000E+02  0.51100000000E-03 0.  1.
         11   -1    0    0    0    0 -0.00000000000E+00 -0.00000000000E+00 -0.45593999997E+02  0.45594000000E+02  0.51100000000E-03 0. -1.
    9900012    2    1    2    0    0 -0.35415010166E+02 -0.19743195230E+02 -0.15479222399E+02  0.47787273865E+02  0.20000012861E+02 0.  0.
        -12    1    1    2    0    0  0.35415010166E+02  0.19743195230E+02  0.15479222399E+02  0.43400726135E+02  0.00000000000E+00 0.  1.
         11    1    3    3    0    0 -0.12637083345E+02  0.15652058864E+01 -0.66620871420E+01  0.14371122095E+02  0.51100000000E-03 0. -1.
        -11    1    3    3    0    0  0.21833276504E+00 -0.18653001991E+01  0.40568036155E+00  0.19213513072E+01  0.51100000000E-03 0.  1.
         12    1    3    3    0    0 -0.22996259586E+02 -0.19443100917E+02 -0.92228156188E+01  0.31494800463E+02  0.00000000000E+00 0. -1.
</event>
<event>
 7    1  0.2732193E-010  0.4778727E+02  0.7816164E-02  0.1312668E+00
        -11   -1    0    0    0    0  0.00000000000E+00  0.00000000000E+00  0.45593999997E+02  0.45594000000E+02  0.51100000000E-03 0.  1.
         11   -1    0    0    0    0 -0.00000000000E+00 -0.00000000000E+00 -0.45593999997E+02  0.45594000000E+02  0.51100000000E-03 0. -1.
    9900012    2    1    2    0    0 -0.21706337027E+02  0.25673830312E+02 -0.27446541222E+02  0.47787271261E+02  0.20000000988E+02 0.  0.
        -12    1    1    2    0    0  0.21706337027E+02 -0.25673830312E+02  0.27446541222E+02  0.43400728739E+02  0.00000000000E+00 0.  1.
         11    1    3    3    0    0 -0.19109671171E+02  0.20930945618E+02 -0.19715548395E+02  0.34525162788E+02  0.51100000000E-03 0. -1.
        -11    1    3    3    0    0  0.29223689919E+01  0.29656126030E+01 -0.82439818924E+00  0.42443764291E+01  0.51100000000E-03 0.  1.
         12    1    3    3    0    0 -0.55190348477E+01  0.17772720904E+01 -0.69065946377E+01  0.90177320443E+01  0.00000000000E+00 0. -1.
</event>
<event>
 7    1  0.2732193E-010  0.4778728E+02  0.7816164E-02  0.1312668E+00
        -11   -1    0    0    0    0  0.00000000000E+00  0.00000000000E+00  0.45593999997E+02  0.45594000000E+02  0.51100000000E-03 0. -1.
         11   -1    0    0    0    0 -0.00000000000E+00 -0.00000000000E+00 -0.45593999997E+02  0.45594000000E+02  0.51100000000E-03 0.  1.
    9900012    2    1    2    0    0 -0.42279682848E+01 -0.24074293128E+02  0.35863290561E+02  0.47787275176E+02  0.20000018838E+02 0.  0.
        -12    1    1    2    0    0  0.42279682848E+01  0.24074293128E+02 -0.35863290561E+02  0.43400724824E+02  0.00000000000E+00 0.  1.
         11    1    3    3    0    0  0.22676072002E+01 -0.24069000534E+02  0.32080167520E+02  0.40169590208E+02  0.51100000000E-03 0. -1.
        -11    1    3    3    0    0 -0.51155322129E+01 -0.25628332183E+00  0.24316107564E+01  0.56698396886E+01  0.51100000000E-03 0.  1.
         12    1    3    3    0    0 -0.13800432721E+01  0.25099072818E+00  0.13515122840E+01  0.19478452793E+01  0.00000000000E+00 0. -1.
</event>
<event>
 7    1  0.2732193E-010  0.4778727E+02  0.7816164E-02  0.1312668E+00
        -11   -1    0    0    0    0  0.00000000000E+00  0.00000000000E+00  0.45593999997E+02  0.45594000000E+02  0.51100000000E-03 0.  1.
         11   -1    0    0    0    0 -0.00000000000E+00 -0.00000000000E+00 -0.45593999997E+02  0.45594000000E+02  0.51100000000E-03 0. -1.
    9900012    2    1    2    0    0  0.35618243819E+02 -0.21046656736E+02 -0.13114962507E+02  0.47787270811E+02  0.19999998936E+02 0.  0.
        -12    1    1    2    0    0 -0.35618243819E+02  0.21046656736E+02  0.13114962507E+02  0.43400729189E+02  0.00000000000E+00 0.  1.
         11    1    3    3    0    0  0.23887665274E+02 -0.18573468019E+02 -0.14827544938E+02  0.33696444258E+02  0.51100000000E-03 0. -1.
        -11    1    3    3    0    0 -0.35097892672E-02 -0.59625063821E+00  0.21183300578E+01  0.22006475495E+01  0.51100000000E-03 0.  1.
         12    1    3    3    0    0  0.11734088335E+02 -0.18769380795E+01 -0.40574762744E+00  0.11890179004E+02  0.00000000000E+00 0. -1.
</event>
<event>
 7    1  0.2732193E-010  0.4778727E+02  0.7816164E-02  0.1312668E+00
        -11   -1    0    0    0    0  0.00000000000E+00  0.00000000000E+00  0.45593999997E+02  0.45594000000E+02  0.51100000000E-03 0.  1.
         11   -1    0    0    0    0 -0.00000000000E+00 -0.00000000000E+00 -0.45593999997E+02  0.45594000000E+02  0.51100000000E-03 0. -1.
    9900012    2    1    2    0    0 -0.28166295218E+02 -0.17604717721E+02 -0.27934872039E+02  0.47787270189E+02  0.19999996098E+02 0.  0.
        -12    1    1    2    0    0  0.28166295218E+02  0.17604717721E+02  0.27934872039E+02  0.43400729811E+02  0.00000000000E+00 0.  1.
         11    1    3    3    0    0 -0.16872605022E+02 -0.34193662655E+01 -0.41014762263E+01  0.17697428439E+02  0.51100000000E-03 0. -1.
        -11    1    3    3    0    0 -0.16049625405E+01 -0.27857535027E+01 -0.27083417827E+01  0.42037415248E+01  0.51100000000E-03 0.  1.
         12    1    3    3    0    0 -0.96887276555E+01 -0.11399597953E+02 -0.21125054030E+02  0.25886100225E+02  0.00000000000E+00 0. -1.
</event>
<event>
 7    1  0.2732193E-010  0.4778728E+02  0.7816164E-02  0.1312668E+00
        -11   -1    0    0    0    0  0.00000000000E+00  0.00000000000E+00  0.45593999997E+02  0.45594000000E+02  0.51100000000E-03 0.  1.
         11   -1    0    0    0    0 -0.00000000000E+00 -0.00000000000E+00 -0.45593999997E+02  0.45594000000E+02  0.51100000000E-03 0. -1.
    9900012    2    1    2    0    0  0.74990626392E+00  0.21609409975E+02 -0.37631023830E+02  0.47787275198E+02  0.20000018939E+02 0.  0.
        -12    1    1    2    0    0 -0.74990626392E+00 -0.21609409975E+02  0.37631023830E+02  0.43400724802E+02  0.00000000000E+00 0.  1.
         11    1    3    3    0    0  0.80737836808E+01  0.55017907374E+01 -0.98027002198E+01  0.13840108963E+02  0.51100000000E-03 0. -1.
        -11    1    3    3    0    0  0.96821811068E+00  0.14177505183E+01 -0.42590774141E+00  0.17688585323E+01  0.51100000000E-03 0.  1.
         12    1    3    3    0    0 -0.82920955276E+01  0.14689868719E+02 -0.27402415868E+02  0.32178307703E+02  0.00000000000E+00 0. -1.
</event>
<event>
 7    1  0.2732193E-010  0.4778727E+02  0.7816164E-02  0.1312668E+00
        -11   -1    0    0    0    0  0.00000000000E+00  0.00000000000E+00  0.45593999997E+02  0.45594000000E+02  0.51100000000E-03 0. -1.
         11   -1    0    0    0    0 -0.00000000000E+00 -0.00000000000E+00 -0.45593999997E+02  0.45594000000E+02  0.51100000000E-03 0.  1.
    9900012    2    1    2    0    0  0.30940817941E+02  0.29338143634E+02  0.80970810957E+01  0.47787267184E+02  0.19999982398E+02 0.  0.
        -12    1    1    2    0    0 -0.30940817941E+02 -0.29338143634E+02 -0.80970810957E+01  0.43400732816E+02  0.00000000000E+00 0.  1.
         11    1    3    3    0    0  0.23112135013E+02  0.26218049594E+02  0.21972517008E+01  0.35019777622E+02  0.51100000000E-03 0. -1.
        -11    1    3    3    0    0 -0.87942386568E+00 -0.12901357054E+01  0.80758815060E+00  0.17578496397E+01  0.51100000000E-03 0.  1.
         12    1    3    3    0    0  0.87081067935E+01  0.44102297450E+01  0.50922412444E+01  0.11009639922E+02  0.00000000000E+00 0. -1.
</event>
<event>
 7    1  0.2732193E-010  0.4778727E+02  0.7816164E-02  0.1312668E+00
        -11   -1    0    0    0    0  0.00000000000E+00  0.00000000000E+00  0.45593999997E+02  0.45594000000E+02  0.51100000000E-03 0.  1.
         11   -1    0    0    0    0 -0.00000000000E+00 -0.00000000000E+00 -0.45593999997E+02  0.45594000000E+02  0.51100000000E-03 0. -1.
    9900012    2    1    2    0    0  0.35208239768E+02  0.23191150207E+02  0.10304079580E+02  0.47787266694E+02  0.19999980164E+02 0.  0.
        -12    1    1    2    0    0 -0.35208239768E+02 -0.23191150207E+02 -0.10304079580E+02  0.43400733306E+02  0.00000000000E+00 0.  1.
         11    1    3    3    0    0  0.19419399120E+02  0.96060356711E+01  0.43875556082E+01  0.22105194592E+02  0.51100000000E-03 0. -1.
        -11    1    3    3    0    0  0.54017232496E+00  0.43588013044E+01 -0.34157054708E+01  0.55639894929E+01  0.51100000000E-03 0.  1.
        -12    1    3    3    0    0  0.15248668324E+02  0.92263132319E+01  0.93322294424E+01  0.20118082609E+02  0.00000000000E+00 0.  1.
</event>
<event>
 7    1  0.2732193E-010  0.4778725E+02  0.7816164E-02  0.1312668E+00
        -11   -1    0    0    0    0  0.00000000000E+00  0.00000000000E+00  0.45593999997E+02  0.45594000000E+02  0.51100000000E-03 0.  1.
         11   -1    0    0    0    0 -0.00000000000E+00 -0.00000000000E+00 -0.45593999997E+02  0.45594000000E+02  0.51100000000E-03 0. -1.
    9900012    2    1    2    0    0  0.11457202000E+02  0.41788721287E+02 -0.24617975967E+01  0.47787249409E+02  0.19999901355E+02 0.  0.
        -12    1    1    2    0    0 -0.11457202000E+02 -0.41788721287E+02  0.24617975967E+01  0.43400750591E+02  0.00000000000E+00 0.  1.
         11    1    3    3    0    0  0.19562735959E+01  0.19772438975E+02 -0.67862087144E+01  0.20995927662E+02  0.51100000000E-03 0. -1.
        -11    1    3    3    0    0  0.21961418831E+01  0.26571674799E+01  0.50183010926E+01  0.60882611889E+01  0.51100000000E-03 0.  1.
         12    1    3    3    0    0  0.73047865205E+01  0.19359114832E+02 -0.69388997487E+00  0.20703060558E+02  0.00000000000E+00 0. -1.
</event>
<event>
 7    1  0.2732193E-010  0.4778727E+02  0.7816164E-02  0.1312668E+00
        -11   -1    0    0    0    0  0.00000000000E+00  0.00000000000E+00  0.45593999997E+02  0.45594000000E+02  0.51100000000E-03 0. -1.
         11   -1    0    0    0    0 -0.00000000000E+00 -0.00000000000E+00 -0.45593999997E+02  0.45594000000E+02  0.51100000000E-03 0.  1.
    9900012    2    1    2    0    0 -0.35117376262E+02 -0.21294933934E+02  0.14032778208E+02  0.47787271999E+02  0.20000004354E+02 0.  0.
        -12    1    1    2    0    0  0.35117376262E+02  0.21294933934E+02 -0.14032778208E+02  0.43400728001E+02  0.00000000000E+00 0.  1.
         11    1    3    3    0    0 -0.18666173005E+02 -0.82949281599E+01  0.11890457306E+02  0.23635033807E+02  0.51100000000E-03 0. -1.
        -11    1    3    3    0    0 -0.14732247271E+02 -0.12383197446E+02 -0.22682336341E+01  0.19378533812E+02  0.51100000000E-03 0.  1.
         12    1    3    3    0    0 -0.17189559852E+01 -0.61680832805E+00  0.44105545361E+01  0.47737043801E+01  0.00000000000E+00 0. -1.
</event>
<event>
 7    1  0.2732193E-010  0.4778727E+02  0.7816164E-02  0.1312668E+00
        -11   -1    0    0    0    0  0.00000000000E+00  0.00000000000E+00  0.45593999997E+02  0.45594000000E+02  0.51100000000E-03 0.  1.
         11   -1    0    0    0    0 -0.00000000000E+00 -0.00000000000E+00 -0.45593999997E+02  0.45594000000E+02  0.51100000000E-03 0. -1.
    9900012    2    1    2    0    0  0.18900940686E+02  0.18433319048E+02 -0.34446923606E+02  0.47787270100E+02  0.19999995695E+02 0.  0.
        -12    1    1    2    0    0 -0.18900940686E+02 -0.18433319048E+02  0.34446923606E+02  0.43400729900E+02  0.00000000000E+00 0.  1.
         11    1    3    3    0    0  0.17922440600E+02  0.69393401470E+01 -0.27338754787E+02  0.33418196125E+02  0.51100000000E-03 0. -1.
        -11    1    3    3    0    0  0.10641052009E+01  0.67909218504E+01 -0.14750590817E+01  0.70302730396E+01  0.51100000000E-03 0.  1.
        -12    1    3    3    0    0 -0.85605115016E-01  0.47030570503E+01 -0.56331097377E+01  0.73388009355E+01  0.00000000000E+00 0.  1.
</event>
<event>
 7    1  0.2732193E-010  0.4778727E+02  0.7816164E-02  0.1312668E+00
        -11   -1    0    0    0    0  0.00000000000E+00  0.00000000000E+00  0.45593999997E+02  0.45594000000E+02  0.51100000000E-03 0. -1.
         11   -1    0    0    0    0 -0.00000000000E+00 -0.00000000000E+00 -0.45593999997E+02  0.45594000000E+02  0.51100000000E-03 0.  1.
    9900012    2    1    2    0    0  0.12901025424E+02 -0.15820970416E+02  0.38299914027E+02  0.47787274472E+02  0.20000015627E+02 0.  0.
        -12    1    1    2    0    0 -0.12901025424E+02  0.15820970416E+02 -0.38299914027E+02  0.43400725528E+02  0.00000000000E+00 0.  1.
         11    1    3    3    0    0  0.20038460461E+01 -0.80159123120E+01  0.96677227925E+01  0.12717512077E+02  0.51100000000E-03 0. -1.
        -11    1    3    3    0    0  0.12815004695E+02 -0.10608153224E+02  0.21632596426E+02  0.27289677326E+02  0.51100000000E-03 0.  1.
        -12    1    3    3    0    0 -0.19178253170E+01  0.28030951202E+01  0.69995948082E+01  0.77800850688E+01  0.00000000000E+00 0.  1.
</event>
<event>
 7    1  0.2732193E-010  0.4778727E+02  0.7816164E-02  0.1312668E+00
        -11   -1    0    0    0    0  0.00000000000E+00  0.00000000000E+00  0.45593999997E+02  0.45594000000E+02  0.51100000000E-03 0.  1.
         11   -1    0    0    0    0 -0.00000000000E+00 -0.00000000000E+00 -0.45593999997E+02  0.45594000000E+02  0.51100000000E-03 0. -1.
    9900012    2    1    2    0    0 -0.33982905494E+02  0.25671746023E+02 -0.83514576721E+01  0.47787271263E+02  0.20000000997E+02 0.  0.
        -12    1    1    2    0    0  0.33982905494E+02 -0.25671746023E+02  0.83514576721E+01  0.43400728737E+02  0.00000000000E+00 0.  1.
         11    1    3    3    0    0 -0.49706904416E+01  0.82969022430E+01  0.44971685574E+01  0.10666343122E+02  0.51100000000E-03 0.  1.
        -11    1    3    3    0    0 -0.90664577214E+01  0.83597082165E+01 -0.80061142650E+01  0.14703171187E+02  0.51100000000E-03 0. -1.
         12    1    3    3    0    0 -0.19945757331E+02  0.90151355633E+01 -0.48425119646E+01  0.22417756954E+02  0.00000000000E+00 0. -1.
</event>
<event>
 7    1  0.2732193E-010  0.4778727E+02  0.7816164E-02  0.1312668E+00
        -11   -1    0    0    0    0  0.00000000000E+00  0.00000000000E+00  0.45593999997E+02  0.45594000000E+02  0.51100000000E-03 0.  1.
         11   -1    0    0    0    0 -0.00000000000E+00 -0.00000000000E+00 -0.45593999997E+02  0.45594000000E+02  0.51100000000E-03 0. -1.
    9900012    2    1    2    0    0 -0.50996665509E+00 -0.27029043137E+02 -0.33952820583E+02  0.47787271153E+02  0.20000000497E+02 0.  0.
        -12    1    1    2    0    0  0.50996665509E+00  0.27029043137E+02  0.33952820583E+02  0.43400728847E+02  0.00000000000E+00 0.  1.
         11    1    3    3    0    0  0.38191828232E+01 -0.31592483293E+01 -0.82872558990E+01  0.96563770659E+01  0.51100000000E-03 0. -1.
        -11    1    3    3    0    0 -0.60601398944E+01 -0.22268729088E+02 -0.15754630058E+02  0.27943334792E+02  0.51100000000E-03 0.  1.
        -12    1    3    3    0    0  0.17309904161E+01 -0.16010657194E+01 -0.99109346252E+01  0.10187559296E+02  0.00000000000E+00 0.  1.
</event>
<event>
 7    1  0.2732193E-010  0.4778728E+02  0.7816164E-02  0.1312668E+00
        -11   -1    0    0    0    0  0.00000000000E+00  0.00000000000E+00  0.45593999997E+02  0.45594000000E+02  0.51100000000E-03 0.  1.
         11   -1    0    0    0    0 -0.00000000000E+00 -0.00000000000E+00 -0.45593999997E+02  0.45594000000E+02  0.51100000000E-03 0. -1.
    9900012    2    1    2    0    0 -0.34541533036E+02 -0.25896855485E+02 -0.44562119124E+01  0.47787280500E+02  0.20000043112E+02 0.  0.
        -12    1    1    2    0    0  0.34541533036E+02  0.25896855485E+02  0.44562119124E+01  0.43400719500E+02  0.00000000000E+00 0.  1.
         11    1    3    3    0    0 -0.31428892870E+01 -0.33711839525E+01 -0.14929456052E+01  0.48447415982E+01  0.51100000000E-03 0. -1.
        -11    1    3    3    0    0 -0.22975778537E+02 -0.10267907184E+02  0.55992089084E+01  0.25781145397E+02  0.51100000000E-03 0.  1.
        -12    1    3    3    0    0 -0.84228652113E+01 -0.12257764349E+02 -0.85624752157E+01  0.17161393505E+02  0.00000000000E+00 0.  1.
</event>
<event>
 7    1  0.2732193E-010  0.4778727E+02  0.7816164E-02  0.1312668E+00
        -11   -1    0    0    0    0  0.00000000000E+00  0.00000000000E+00  0.45593999997E+02  0.45594000000E+02  0.51100000000E-03 0. -1.
         11   -1    0    0    0    0 -0.00000000000E+00 -0.00000000000E+00 -0.45593999997E+02  0.45594000000E+02  0.51100000000E-03 0.  1.
    9900012    2    1    2    0    0 -0.26488611318E+02  0.34210959867E+02  0.34039659816E+01  0.47787270871E+02  0.19999999209E+02 0.  0.
        -12    1    1    2    0    0  0.26488611318E+02 -0.34210959867E+02 -0.34039659816E+01  0.43400729129E+02  0.00000000000E+00 0.  1.
         11    1    3    3    0    0 -0.23750204619E+02  0.18292099479E+02  0.34160163697E+01  0.30171879141E+02  0.51100000000E-03 0. -1.
        -11    1    3    3    0    0 -0.20051541690E+01  0.16441710404E+02 -0.53841194597E+00  0.16572277210E+02  0.51100000000E-03 0.  1.
        -12    1    3    3    0    0 -0.73325252950E+00 -0.52285001660E+00  0.52636155784E+00  0.10431145198E+01  0.00000000000E+00 0.  1.
</event>
<event>
 7    1  0.2732193E-010  0.4778727E+02  0.7816164E-02  0.1312668E+00
        -11   -1    0    0    0    0  0.00000000000E+00  0.00000000000E+00  0.45593999997E+02  0.45594000000E+02  0.51100000000E-03 0.  1.
         11   -1    0    0    0    0 -0.00000000000E+00 -0.00000000000E+00 -0.45593999997E+02  0.45594000000E+02  0.51100000000E-03 0. -1.
    9900012    2    1    2    0    0  0.23997352600E+02  0.25608458694E+02 -0.25533454434E+02  0.47787269778E+02  0.19999994225E+02 0.  0.
        -12    1    1    2    0    0 -0.23997352600E+02 -0.25608458694E+02  0.25533454434E+02  0.43400730222E+02  0.00000000000E+00 0.  1.
         11    1    3    3    0    0  0.28950199935E+01  0.31939710496E+00 -0.10734953608E+02  0.11123056437E+02  0.51100000000E-03 0. -1.
        -11    1    3    3    0    0  0.95933179941E+01  0.75966364319E+01 -0.35183083538E+01  0.12732601036E+02  0.51100000000E-03 0.  1.
         12    1    3    3    0    0  0.11509014613E+02  0.17692425157E+02 -0.11280192472E+02  0.23931612304E+02  0.00000000000E+00 0. -1.
</event>
<event>
 7    1  0.2900567E-010  0.4778730E+02  0.7816164E-02  0.1312668E+00
        -11   -1    0    0    0    0  0.00000000000E+00  0.00000000000E+00  0.45593999997E+02  0.45594000000E+02  0.51100000000E-03 0. -1.
         11   -1    0    0    0    0 -0.00000000000E+00 -0.00000000000E+00 -0.45593999997E+02  0.45594000000E+02  0.51100000000E-03 0.  1.
    9900012    2    1    2    0    0 -0.42865224003E+02 -0.27983905536E+01 -0.61937677253E+01  0.47787295200E+02  0.20000110133E+02 0.  0.
        -12    1    1    2    0    0  0.42865224003E+02  0.27983905536E+01  0.61937677253E+01  0.43400704800E+02  0.00000000000E+00 0.  1.
         11    1    3    3    0    0 -0.31061534264E+02  0.79441365179E+00 -0.61490527947E+00  0.31077775221E+02  0.51100000000E-03 0. -1.
        -11    1    3    3    0    0  0.20929699180E+00 -0.11966804990E+01  0.19745192303E+01  0.23183131582E+01  0.51100000000E-03 0.  1.
         12    1    3    3    0    0 -0.12012986731E+02 -0.23961237064E+01 -0.75533816761E+01  0.14391206821E+02  0.00000000000E+00 0. -1.
</event>
<event>
 7    1  0.2732193E-010  0.4778727E+02  0.7816164E-02  0.1312668E+00
        -11   -1    0    0    0    0  0.00000000000E+00  0.00000000000E+00  0.45593999997E+02  0.45594000000E+02  0.51100000000E-03 0.  1.
         11   -1    0    0    0    0 -0.00000000000E+00 -0.00000000000E+00 -0.45593999997E+02  0.45594000000E+02  0.51100000000E-03 0. -1.
    9900012    2    1    2    0    0  0.18694424616E+02 -0.39161655921E+02 -0.71166439745E+00  0.47787271062E+02  0.20000000079E+02 0.  0.
        -12    1    1    2    0    0 -0.18694424616E+02  0.39161655921E+02  0.71166439745E+00  0.43400728938E+02  0.00000000000E+00 0.  1.
         11    1    3    3    0    0  0.10676197068E+02 -0.24155115565E+02 -0.59371906451E+01  0.27068450728E+02  0.51100000000E-03 0. -1.
        -11    1    3    3    0    0  0.40359211644E+01 -0.84832599641E+00  0.43363841218E+01  0.59843582909E+01  0.51100000000E-03 0.  1.
        -12    1    3    3    0    0  0.39823063830E+01 -0.14158214359E+02  0.88914212582E+00  0.14734462043E+02  0.00000000000E+00 0.  1.
</event>
<event>
 7    1  0.2732193E-010  0.4778727E+02  0.7816164E-02  0.1312668E+00
        -11   -1    0    0    0    0  0.00000000000E+00  0.00000000000E+00  0.45593999997E+02  0.45594000000E+02  0.51100000000E-03 0. -1.
         11   -1    0    0    0    0 -0.00000000000E+00 -0.00000000000E+00 -0.45593999997E+02  0.45594000000E+02  0.51100000000E-03 0.  1.
    9900012    2    1    2    0    0  0.32339408160E+02 -0.71445384540E+01  0.28048908536E+02  0.47787273970E+02  0.20000013339E+02 0.  0.
        -12    1    1    2    0    0 -0.32339408160E+02  0.71445384540E+01 -0.28048908536E+02  0.43400726030E+02  0.00000000000E+00 0.  1.
         11    1    3    3    0    0  0.61785783383E+01 -0.35081860301E+01  0.54944937306E+01  0.89817404283E+01  0.51100000000E-03 0. -1.
        -11    1    3    3    0    0  0.16669555570E+02 -0.84974251316E+01  0.20836610515E+02  0.28004368495E+02  0.51100000000E-03 0.  1.
        -12    1    3    3    0    0  0.94912742515E+01  0.48610727077E+01  0.17178042903E+01  0.10801165047E+02  0.00000000000E+00 0.  1.
</event>
<event>
 7    1  0.2732193E-010  0.4778727E+02  0.7816164E-02  0.1312668E+00
        -11   -1    0    0    0    0  0.00000000000E+00  0.00000000000E+00  0.45593999997E+02  0.45594000000E+02  0.51100000000E-03 0. -1.
         11   -1    0    0    0    0 -0.00000000000E+00 -0.00000000000E+00 -0.45593999997E+02  0.45594000000E+02  0.51100000000E-03 0.  1.
    9900012    2    1    2    0    0  0.36897713156E+02  0.20128478333E+02  0.10817866978E+02  0.47787272793E+02  0.20000007970E+02 0.  0.
        -12    1    1    2    0    0 -0.36897713156E+02 -0.20128478333E+02 -0.10817866978E+02  0.43400727207E+02  0.00000000000E+00 0.  1.
         11    1    3    3    0    0  0.26154903517E+01 -0.21194435514E+01  0.37179381678E+01  0.50155652950E+01  0.51100000000E-03 0. -1.
        -11    1    3    3    0    0  0.32941455727E+02  0.17618593980E+02  0.64074590807E+01  0.37902636997E+02  0.51100000000E-03 0.  1.
        -12    1    3    3    0    0  0.13407670778E+01  0.46293279049E+01  0.69246973000E+00  0.48690705001E+01  0.00000000000E+00 0.  1.
</event>
<event>
 7    1  0.2732193E-010  0.4778727E+02  0.7816164E-02  0.1312668E+00
        -11   -1    0    0    0    0  0.00000000000E+00  0.00000000000E+00  0.45593999997E+02  0.45594000000E+02  0.51100000000E-03 0.  1.
         11   -1    0    0    0    0 -0.00000000000E+00 -0.00000000000E+00 -0.45593999997E+02  0.45594000000E+02  0.51100000000E-03 0. -1.
    9900012    2    1    2    0    0  0.27385363641E+02 -0.31554766250E+02 -0.11745726600E+02  0.47787268345E+02  0.19999987691E+02 0.  0.
        -12    1    1    2    0    0 -0.27385363641E+02  0.31554766250E+02  0.11745726600E+02  0.43400731655E+02  0.00000000000E+00 0.  1.
         11    1    3    3    0    0  0.19489056065E+02 -0.29190574134E+02 -0.23456932431E+01  0.35176912906E+02  0.51100000000E-03 0. -1.
        -11    1    3    3    0    0  0.47299369578E+01 -0.14181544019E+01 -0.68088329041E+01  0.84109257106E+01  0.51100000000E-03 0.  1.
         12    1    3    3    0    0  0.31663706184E+01 -0.94603771395E+00 -0.25912004532E+01  0.41994297277E+01  0.00000000000E+00 0. -1.
</event>
<event>
 7    1  0.2732193E-010  0.4778727E+02  0.7816164E-02  0.1312668E+00
        -11   -1    0    0    0    0  0.00000000000E+00  0.00000000000E+00  0.45593999997E+02  0.45594000000E+02  0.51100000000E-03 0.  1.
         11   -1    0    0    0    0 -0.00000000000E+00 -0.00000000000E+00 -0.45593999997E+02  0.45594000000E+02  0.51100000000E-03 0. -1.
    9900012    2    1    2    0    0  0.23545114685E+01  0.37853968562E+02  0.21098736282E+02  0.47787270365E+02  0.19999996901E+02 0.  0.
        -12    1    1    2    0    0 -0.23545114685E+01 -0.37853968562E+02 -0.21098736282E+02  0.43400729635E+02  0.00000000000E+00 0.  1.
         11    1    3    3    0    0 -0.39374148666E+01  0.26315406360E+02  0.14254652125E+02  0.30186072206E+02  0.51100000000E-03 0. -1.
        -11    1    3    3    0    0  0.40935076835E+01  0.21404449583E+01 -0.14852646019E+01  0.48522490633E+01  0.51100000000E-03 0.  1.
        -12    1    3    3    0    0  0.21984186516E+01  0.93981172437E+01  0.83293487592E+01  0.12748949096E+02  0.00000000000E+00 0.  1.
</event>
<event>
 7    1  0.2732193E-010  0.4778727E+02  0.7816164E-02  0.1312668E+00
        -11   -1    0    0    0    0  0.00000000000E+00  0.00000000000E+00  0.45593999997E+02  0.45594000000E+02  0.51100000000E-03 0.  1.
         11   -1    0    0    0    0 -0.00000000000E+00 -0.00000000000E+00 -0.45593999997E+02  0.45594000000E+02  0.51100000000E-03 0. -1.
    9900012    2    1    2    0    0 -0.36699748644E+02 -0.22967047946E+02 -0.30440289313E+01  0.47787274729E+02  0.20000016799E+02 0.  0.
        -12    1    1    2    0    0  0.36699748644E+02  0.22967047946E+02  0.30440289313E+01  0.43400725271E+02  0.00000000000E+00 0.  1.
         11    1    3    3    0    0 -0.29496804746E+02 -0.19700569129E+02 -0.13140677839E+01  0.35495079781E+02  0.51100000000E-03 0. -1.
        -11    1    3    3    0    0 -0.20021841958E+01 -0.96606080693E+00 -0.51826460102E+01  0.56393115684E+01  0.51100000000E-03 0.  1.
        -12    1    3    3    0    0 -0.52007597021E+01 -0.23004180100E+01  0.34526848629E+01  0.66528833796E+01  0.00000000000E+00 0.  1.
</event>
<event>
 7    1  0.2732193E-010  0.4778727E+02  0.7816164E-02  0.1312668E+00
        -11   -1    0    0    0    0  0.00000000000E+00  0.00000000000E+00  0.45593999997E+02  0.45594000000E+02  0.51100000000E-03 0.  1.
         11   -1    0    0    0    0 -0.00000000000E+00 -0.00000000000E+00 -0.45593999997E+02  0.45594000000E+02  0.51100000000E-03 0. -1.
    9900012    2    1    2    0    0 -0.26085328903E+02  0.32079408817E+02 -0.13194334894E+02  0.47787270429E+02  0.19999997193E+02 0.  0.
        -12    1    1    2    0    0  0.26085328903E+02 -0.32079408817E+02  0.13194334894E+02  0.43400729571E+02  0.00000000000E+00 0.  1.
         11    1    3    3    0    0  0.48512102060E+00  0.13412211263E+01  0.23911952335E+01  0.27842470114E+01  0.51100000000E-03 0. -1.
        -11    1    3    3    0    0 -0.16336527423E+02  0.26460459453E+02 -0.10750787421E+02  0.32903152937E+02  0.51100000000E-03 0.  1.
         12    1    3    3    0    0 -0.10233922500E+02  0.42777282373E+01 -0.48347427060E+01  0.12099870481E+02  0.00000000000E+00 0. -1.
</event>
<event>
 7    1  0.2732193E-010  0.4778725E+02  0.7816164E-02  0.1312668E+00
        -11   -1    0    0    0    0  0.00000000000E+00  0.00000000000E+00  0.45593999997E+02  0.45594000000E+02  0.51100000000E-03 0.  1.
         11   -1    0    0    0    0 -0.00000000000E+00 -0.00000000000E+00 -0.45593999997E+02  0.45594000000E+02  0.51100000000E-03 0. -1.
    9900012    2    1    2    0    0 -0.26961053566E+02  0.31079664986E+02  0.13812358592E+02  0.47787248452E+02  0.19999896994E+02 0.  0.
        -12    1    1    2    0    0  0.26961053566E+02 -0.31079664986E+02 -0.13812358592E+02  0.43400751548E+02  0.00000000000E+00 0.  1.
         11    1    3    3    0    0 -0.44364505100E+01  0.77263944531E+01  0.14544903554E+01  0.90274474149E+01  0.51100000000E-03 0. -1.
        -11    1    3    3    0    0 -0.22825169072E+02  0.22797647258E+02  0.65509546863E+01  0.32918628027E+02  0.51100000000E-03 0.  1.
        -12    1    3    3    0    0  0.30056601616E+00  0.55562327519E+00  0.58069135502E+01  0.58411730101E+01  0.00000000000E+00 0.  1.
</event>
<event>
 7    1  0.2732193E-010  0.4778727E+02  0.7816164E-02  0.1312668E+00
        -11   -1    0    0    0    0  0.00000000000E+00  0.00000000000E+00  0.45593999997E+02  0.45594000000E+02  0.51100000000E-03 0.  1.
         11   -1    0    0    0    0 -0.00000000000E+00 -0.00000000000E+00 -0.45593999997E+02  0.45594000000E+02  0.51100000000E-03 0. -1.
    9900012    2    1    2    0    0 -0.38642679414E+02 -0.19625779394E+02 -0.22793043077E+01  0.47787272849E+02  0.20000008226E+02 0.  0.
        -12    1    1    2    0    0  0.38642679414E+02  0.19625779394E+02  0.22793043077E+01  0.43400727151E+02  0.00000000000E+00 0.  1.
         11    1    3    3    0    0 -0.20237692689E+02 -0.11768778369E+02 -0.28471140545E+01  0.23583350236E+02  0.51100000000E-03 0. -1.
        -11    1    3    3    0    0  0.22938369392E+00  0.27401806604E+01  0.29241436279E+00  0.27652691282E+01  0.51100000000E-03 0.  1.
        -12    1    3    3    0    0 -0.18634370419E+02 -0.10597181686E+02  0.27539538401E+00  0.21438653484E+02  0.00000000000E+00 0.  1.
</event>
<event>
 7    1  0.2732193E-010  0.4778727E+02  0.7816164E-02  0.1312668E+00
        -11   -1    0    0    0    0  0.00000000000E+00  0.00000000000E+00  0.45593999997E+02  0.45594000000E+02  0.51100000000E-03 0. -1.
         11   -1    0    0    0    0 -0.00000000000E+00 -0.00000000000E+00 -0.45593999997E+02  0.45594000000E+02  0.51100000000E-03 0.  1.
    9900012    2    1    2    0    0  0.37110569355E+02 -0.21790746676E+02  0.56206790097E+01  0.47787273842E+02  0.20000012754E+02 0.  0.
        -12    1    1    2    0    0 -0.37110569355E+02  0.21790746676E+02 -0.56206790097E+01  0.43400726158E+02  0.00000000000E+00 0.  1.
         11    1    3    3    0    0  0.81043738045E+01 -0.34970688520E+01  0.31103901078E+00  0.88321634296E+01  0.51100000000E-03 0. -1.
        -11    1    3    3    0    0  0.13301062328E+02 -0.11877272183E+02 -0.57111579237E+01  0.18724454028E+02  0.51100000000E-03 0.  1.
        -12    1    3    3    0    0  0.15705133222E+02 -0.64164056411E+01  0.11020797923E+02  0.20230656384E+02  0.00000000000E+00 0.  1.
</event>
<event>
 7    1 -0.2732193E-010  0.4778727E+02  0.7816164E-02  0.1312668E+00
        -11   -1    0    0    0    0  0.00000000000E+00  0.00000000000E+00  0.45593999997E+02  0.45594000000E+02  0.51100000000E-03 0. -1.
         11   -1    0    0    0    0 -0.00000000000E+00 -0.00000000000E+00 -0.45593999997E+02  0.45594000000E+02  0.51100000000E-03 0.  1.
    9900012    2    1    2    0    0 -0.26258839308E+02 -0.29792674886E+02  0.17506936903E+02  0.47787274679E+02  0.20000016573E+02 0.  0.
        -12    1    1    2    0    0  0.26258839308E+02  0.29792674886E+02 -0.17506936903E+02  0.43400725321E+02  0.00000000000E+00 0.  1.
         11    1    3    3    0    0 -0.11455289363E+02 -0.12370150947E+02  0.73490024779E+01  0.18391631970E+02  0.51100000000E-03 0.  1.
        -11    1    3    3    0    0 -0.72748953096E+01 -0.10297528060E+02 -0.26857082487E+01  0.12890935380E+02  0.51100000000E-03 0. -1.
        -12    1    3    3    0    0 -0.75286546344E+01 -0.71249958788E+01  0.12843642674E+02  0.16504707329E+02  0.00000000000E+00 0.  1.
</event>
<event>
 7    1  0.2732193E-010  0.4778726E+02  0.7816164E-02  0.1312668E+00
        -11   -1    0    0    0    0  0.00000000000E+00  0.00000000000E+00  0.45593999997E+02  0.45594000000E+02  0.51100000000E-03 0. -1.
         11   -1    0    0    0    0 -0.00000000000E+00 -0.00000000000E+00 -0.45593999997E+02  0.45594000000E+02  0.51100000000E-03 0.  1.
    9900012    2    1    2    0    0  0.58133716357E+01 -0.40442268045E+02  0.14637344161E+02  0.47787260623E+02  0.19999952485E+02 0.  0.
        -12    1    1    2    0    0 -0.58133716357E+01  0.40442268045E+02 -0.14637344161E+02  0.43400739377E+02  0.00000000000E+00 0.  1.
         11    1    3    3    0    0 -0.10909231346E+01 -0.27437747344E+02  0.58070571119E+01  0.28066741976E+02  0.51100000000E-03 0. -1.
        -11    1    3    3    0    0  0.70955355680E+01 -0.94939802684E+01  0.10494406109E+02  0.15830819504E+02  0.51100000000E-03 0.  1.
        -12    1    3    3    0    0 -0.19124079775E+00 -0.35105404329E+01 -0.16641190604E+01  0.38896991428E+01  0.00000000000E+00 0.  1.
</event>
<event>
 7    1  0.2732193E-010  0.4778727E+02  0.7816164E-02  0.1312668E+00
        -11   -1    0    0    0    0  0.00000000000E+00  0.00000000000E+00  0.45593999997E+02  0.45594000000E+02  0.51100000000E-03 0.  1.
         11   -1    0    0    0    0 -0.00000000000E+00 -0.00000000000E+00 -0.45593999997E+02  0.45594000000E+02  0.51100000000E-03 0. -1.
    9900012    2    1    2    0    0  0.28372204331E+02  0.15669714200E+02 -0.28863497812E+02  0.47787269272E+02  0.19999991921E+02 0.  0.
        -12    1    1    2    0    0 -0.28372204331E+02 -0.15669714200E+02  0.28863497812E+02  0.43400730728E+02  0.00000000000E+00 0.  1.
         11    1    3    3    0    0  0.47221148422E+01  0.12307048979E+02 -0.12318598265E+02  0.18041887003E+02  0.51100000000E-03 0. -1.
        -11    1    3    3    0    0  0.12930857861E+02 -0.78849533032E+00 -0.10942729641E+02  0.16957952181E+02  0.51100000000E-03 0.  1.
         12    1    3    3    0    0  0.10719231628E+02  0.41511605515E+01 -0.56021699070E+01  0.12787430089E+02  0.00000000000E+00 0. -1.
</event>
<event>
 7    1  0.2732193E-010  0.4778727E+02  0.7816164E-02  0.1312668E+00
        -11   -1    0    0    0    0  0.00000000000E+00  0.00000000000E+00  0.45593999997E+02  0.45594000000E+02  0.51100000000E-03 0. -1.
         11   -1    0    0    0    0 -0.00000000000E+00 -0.00000000000E+00 -0.45593999997E+02  0.45594000000E+02  0.51100000000E-03 0.  1.
    9900012    2    1    2    0    0 -0.20857920415E+02  0.34443888621E+02  0.16192252943E+02  0.47787270021E+02  0.19999995332E+02 0.  0.
        -12    1    1    2    0    0  0.20857920415E+02 -0.34443888621E+02 -0.16192252943E+02  0.43400729979E+02  0.00000000000E+00 0.  1.
         11    1    3    3    0    0 -0.15089572267E+02  0.27964896621E+02  0.45727594406E+01  0.32103594244E+02  0.51100000000E-03 0. -1.
        -11    1    3    3    0    0 -0.22085460933E+01 -0.51178437954E+00  0.47206309386E+01  0.52367886931E+01  0.51100000000E-03 0.  1.
         12    1    3    3    0    0 -0.35598020547E+01  0.69907763799E+01  0.68988625640E+01  0.10446887084E+02  0.00000000000E+00 0. -1.
</event>
<event>
 7    1  0.2732193E-010  0.4778727E+02  0.7816164E-02  0.1312668E+00
        -11   -1    0    0    0    0  0.00000000000E+00  0.00000000000E+00  0.45593999997E+02  0.45594000000E+02  0.51100000000E-03 0. -1.
         11   -1    0    0    0    0 -0.00000000000E+00 -0.00000000000E+00 -0.45593999997E+02  0.45594000000E+02  0.51100000000E-03 0.  1.
    9900012    2    1    2    0    0 -0.36092554283E+02  0.19361487717E+02  0.14355617965E+02  0.47787269034E+02  0.19999990832E+02 0.  0.
        -12    1    1    2    0    0  0.36092554283E+02 -0.19361487717E+02 -0.14355617965E+02  0.43400730966E+02  0.00000000000E+00 0.  1.
         11    1    3    3    0    0 -0.49338200331E+01  0.64497864324E+01  0.14770868173E+01  0.82537331474E+01  0.51100000000E-03 0. -1.
        -11    1    3    3    0    0 -0.10262051287E+02  0.10265966895E+02 -0.59793003370E+00  0.14527811036E+02  0.51100000000E-03 0.  1.
        -12    1    3    3    0    0 -0.20896682963E+02  0.26457343894E+01  0.13476461182E+02  0.25005724850E+02  0.00000000000E+00 0.  1.
</event>
<event>
 7    1  0.2732193E-010  0.4778727E+02  0.7816164E-02  0.1312668E+00
        -11   -1    0    0    0    0  0.00000000000E+00  0.00000000000E+00  0.45593999997E+02  0.45594000000E+02  0.51100000000E-03 0. -1.
         11   -1    0    0    0    0 -0.00000000000E+00 -0.00000000000E+00 -0.45593999997E+02  0.45594000000E+02  0.51100000000E-03 0.  1.
    9900012    2    1    2    0    0 -0.15351619885E+02  0.35188901413E+02  0.20240853512E+02  0.47787272280E+02  0.20000005634E+02 0.  0.
        -12    1    1    2    0    0  0.15351619885E+02 -0.35188901413E+02 -0.20240853512E+02  0.43400727720E+02  0.00000000000E+00 0.  1.
         11    1    3    3    0    0 -0.16981683191E+02  0.34536339708E+02  0.20047108790E+02  0.43393811719E+02  0.51100000000E-03 0. -1.
        -11    1    3    3    0    0  0.30633341319E-01 -0.66620834483E+00 -0.15482102789E+01  0.16857423555E+01  0.51100000000E-03 0.  1.
         12    1    3    3    0    0  0.15994299646E+01  0.13187700495E+01  0.17419550005E+01  0.27077182052E+01  0.00000000000E+00 0. -1.
</event>
<event>
 7    1  0.2732193E-010  0.4778727E+02  0.7816164E-02  0.1312668E+00
        -11   -1    0    0    0    0  0.00000000000E+00  0.00000000000E+00  0.45593999997E+02  0.45594000000E+02  0.51100000000E-03 0.  1.
         11   -1    0    0    0    0 -0.00000000000E+00 -0.00000000000E+00 -0.45593999997E+02  0.45594000000E+02  0.51100000000E-03 0. -1.
    9900012    2    1    2    0    0 -0.55258933298E+01 -0.57026272420E+01 -0.42668110406E+02  0.47787273046E+02  0.20000009124E+02 0.  0.
        -12    1    1    2    0    0  0.55258933298E+01  0.57026272420E+01  0.42668110406E+02  0.43400726954E+02  0.00000000000E+00 0.  1.
         11    1    3    3    0    0 -0.13230705730E+01  0.73871586245E+00 -0.32961393476E+02  0.32996207009E+02  0.51100000000E-03 0. -1.
        -11    1    3    3    0    0 -0.18406534101E+01 -0.20823290722E+01  0.10307656010E+01  0.29642161403E+01  0.51100000000E-03 0.  1.
         12    1    3    3    0    0 -0.23621693467E+01 -0.43590140323E+01 -0.10737482531E+02  0.11826849896E+02  0.00000000000E+00 0. -1.
</event>
<event>
 7    1  0.2732193E-010  0.4778727E+02  0.7816164E-02  0.1312668E+00
        -11   -1    0    0    0    0  0.00000000000E+00  0.00000000000E+00  0.45593999997E+02  0.45594000000E+02  0.51100000000E-03 0.  1.
         11   -1    0    0    0    0 -0.00000000000E+00 -0.00000000000E+00 -0.45593999997E+02  0.45594000000E+02  0.51100000000E-03 0. -1.
    9900012    2    1    2    0    0 -0.37306868162E+02  0.89324148386E+01 -0.20298604248E+02  0.47787265199E+02  0.19999973347E+02 0.  0.
        -12    1    1    2    0    0  0.37306868162E+02 -0.89324148386E+01  0.20298604248E+02  0.43400734801E+02  0.00000000000E+00 0.  1.
         11    1    3    3    0    0 -0.44462405976E+01  0.77014664595E+01 -0.44872171251E+01  0.99607609582E+01  0.51100000000E-03 0. -1.
        -11    1    3    3    0    0 -0.27475091159E+02  0.15673963713E+01 -0.16937335070E+02  0.32314248948E+02  0.51100000000E-03 0.  1.
        -12    1    3    3    0    0 -0.53855364054E+01 -0.33644799221E+00  0.11259479472E+01  0.55122552921E+01  0.00000000000E+00 0.  1.
</event>
<event>
 7    1  0.2732193E-010  0.4778727E+02  0.7816164E-02  0.1312668E+00
        -11   -1    0    0    0    0  0.00000000000E+00  0.00000000000E+00  0.45593999997E+02  0.45594000000E+02  0.51100000000E-03 0.  1.
         11   -1    0    0    0    0 -0.00000000000E+00 -0.00000000000E+00 -0.45593999997E+02  0.45594000000E+02  0.51100000000E-03 0. -1.
    9900012    2    1    2    0    0 -0.37088098751E+02  0.22221371294E+02  0.37824375176E+01  0.47787271380E+02  0.20000001532E+02 0.  0.
        -12    1    1    2    0    0  0.37088098751E+02 -0.22221371294E+02 -0.37824375176E+01  0.43400728620E+02  0.00000000000E+00 0.  1.
         11    1    3    3    0    0 -0.33433261316E+02  0.17935119579E+02  0.67268167650E-01  0.37940163440E+02  0.51100000000E-03 0. -1.
        -11    1    3    3    0    0 -0.92385217888E+00 -0.18789384687E+01 -0.10639650894E+00  0.20964811223E+01  0.51100000000E-03 0.  1.
         12    1    3    3    0    0 -0.27309852557E+01  0.61651901834E+01  0.38215658589E+01  0.77506268184E+01  0.00000000000E+00 0. -1.
</event>
<event>
 7    1  0.2732193E-010  0.4778727E+02  0.7816164E-02  0.1312668E+00
        -11   -1    0    0    0    0  0.00000000000E+00  0.00000000000E+00  0.45593999997E+02  0.45594000000E+02  0.51100000000E-03 0. -1.
         11   -1    0    0    0    0 -0.00000000000E+00 -0.00000000000E+00 -0.45593999997E+02  0.45594000000E+02  0.51100000000E-03 0.  1.
    9900012    2    1    2    0    0 -0.36664591178E+02 -0.20714782282E+02  0.10499005527E+02  0.47787267652E+02  0.19999984532E+02 0.  0.
        -12    1    1    2    0    0  0.36664591178E+02  0.20714782282E+02 -0.10499005527E+02  0.43400732348E+02  0.00000000000E+00 0.  1.
         11    1    3    3    0    0 -0.27738987287E+02 -0.16135199476E+02  0.47775666163E+01  0.32444124597E+02  0.51100000000E-03 0. -1.
        -11    1    3    3    0    0 -0.26901290072E+01 -0.49099590928E-01  0.70281871661E+01  0.75255976472E+01  0.51100000000E-03 0.  1.
        -12    1    3    3    0    0 -0.62354748840E+01 -0.45304832156E+01 -0.13067482552E+01  0.78175454075E+01  0.00000000000E+00 0.  1.
</event>
<event>
 7    1  0.2732193E-010  0.4778727E+02  0.7816164E-02  0.1312668E+00
        -11   -1    0    0    0    0  0.00000000000E+00  0.00000000000E+00  0.45593999997E+02  0.45594000000E+02  0.51100000000E-03 0. -1.
         11   -1    0    0    0    0 -0.00000000000E+00 -0.00000000000E+00 -0.45593999997E+02  0.45594000000E+02  0.51100000000E-03 0.  1.
    9900012    2    1    2    0    0  0.35178164993E+02  0.19656444003E+02 -0.16116576675E+02  0.47787272738E+02  0.20000007723E+02 0.  0.
        -12    1    1    2    0    0 -0.35178164993E+02 -0.19656444003E+02  0.16116576675E+02  0.43400727262E+02  0.00000000000E+00 0.  1.
         11    1    3    3    0    0  0.39877737043E+01  0.50450922150E+01  0.29480648795E+01  0.70743467097E+01  0.51100000000E-03 0. -1.
        -11    1    3    3    0    0  0.89687885116E+01  0.15437571650E+01 -0.96605715940E+01  0.13272113522E+02  0.51100000000E-03 0.  1.
         12    1    3    3    0    0  0.22221602777E+02  0.13067594623E+02 -0.94040699605E+01  0.27440812507E+02  0.00000000000E+00 0. -1.
</event>
<event>
 7    1  0.2732193E-010  0.4778727E+02  0.7816164E-02  0.1312668E+00
        -11   -1    0    0    0    0  0.00000000000E+00  0.00000000000E+00  0.45593999997E+02  0.45594000000E+02  0.51100000000E-03 0.  1.
         11   -1    0    0    0    0 -0.00000000000E+00 -0.00000000000E+00 -0.45593999997E+02  0.45594000000E+02  0.51100000000E-03 0. -1.
    9900012    2    1    2    0    0  0.12578733109E+02  0.59525811730E+01 -0.41109186675E+02  0.47787274449E+02  0.20000015523E+02 0.  0.
        -12    1    1    2    0    0 -0.12578733109E+02 -0.59525811730E+01  0.41109186675E+02  0.43400725551E+02  0.00000000000E+00 0.  1.
         11    1    3    3    0    0  0.13121103229E+02  0.53524959161E+01 -0.20969885564E+02  0.25309062868E+02  0.51100000000E-03 0. -1.
        -11    1    3    3    0    0 -0.30811941641E+01 -0.33580581334E+01 -0.57323959231E+01  0.73232967429E+01  0.51100000000E-03 0.  1.
         12    1    3    3    0    0  0.25388240442E+01  0.39581433904E+01 -0.14406905189E+02  0.15154914838E+02  0.00000000000E+00 0. -1.
</event>
<event>
 7    1  0.2732193E-010  0.4778727E+02  0.7816164E-02  0.1312668E+00
        -11   -1    0    0    0    0  0.00000000000E+00  0.00000000000E+00  0.45593999997E+02  0.45594000000E+02  0.51100000000E-03 0.  1.
         11   -1    0    0    0    0 -0.00000000000E+00 -0.00000000000E+00 -0.45593999997E+02  0.45594000000E+02  0.51100000000E-03 0. -1.
    9900012    2    1    2    0    0  0.43100387007E+02 -0.25665892155E+01 -0.44036856673E+01  0.47787272036E+02  0.20000004519E+02 0.  0.
        -12    1    1    2    0    0 -0.43100387007E+02  0.25665892155E+01  0.44036856673E+01  0.43400727964E+02  0.00000000000E+00 0.  1.
         11    1    3    3    0    0  0.10454712984E+02 -0.75124255130E+01  0.36833088273E+01  0.13390456484E+02  0.51100000000E-03 0.  1.
        -11    1    3    3    0    0  0.25873224227E+02  0.37307149403E+01 -0.41461491905E+01  0.26467574865E+02  0.51100000000E-03 0. -1.
        -12    1    3    3    0    0  0.67724497962E+01  0.12151213572E+01 -0.39408453041E+01  0.79292406865E+01  0.00000000000E+00 0.  1.
</event>
<event>
 7    1  0.2732193E-010  0.4778726E+02  0.7816164E-02  0.1312668E+00
        -11   -1    0    0    0    0  0.00000000000E+00  0.00000000000E+00  0.45593999997E+02  0.45594000000E+02  0.51100000000E-03 0.  1.
         11   -1    0    0    0    0 -0.00000000000E+00 -0.00000000000E+00 -0.45593999997E+02  0.45594000000E+02  0.51100000000E-03 0. -1.
    9900012    2    1    2    0    0 -0.33912378382E+02  0.94946888099E+01 -0.25365831424E+02  0.47787263521E+02  0.19999965697E+02 0.  0.
        -12    1    1    2    0    0  0.33912378382E+02 -0.94946888099E+01  0.25365831424E+02  0.43400736479E+02  0.00000000000E+00 0.  1.
         11    1    3    3    0    0 -0.10995519499E+02  0.17345657268E+01 -0.18162021275E+02  0.21301858707E+02  0.51100000000E-03 0. -1.
        -11    1    3    3    0    0 -0.48173112336E+01  0.42021844271E+01  0.67336116113E+00  0.64279278928E+01  0.51100000000E-03 0.  1.
         12    1    3    3    0    0 -0.18099547650E+02  0.35579386560E+01 -0.78771713098E+01  0.20057476921E+02  0.00000000000E+00 0. -1.
</event>
<event>
 7    1  0.2732193E-010  0.4778727E+02  0.7816164E-02  0.1312668E+00
        -11   -1    0    0    0    0  0.00000000000E+00  0.00000000000E+00  0.45593999997E+02  0.45594000000E+02  0.51100000000E-03 0. -1.
         11   -1    0    0    0    0 -0.00000000000E+00 -0.00000000000E+00 -0.45593999997E+02  0.45594000000E+02  0.51100000000E-03 0.  1.
    9900012    2    1    2    0    0  0.11813092407E+02  0.13209411305E+02  0.39617996290E+02  0.47787270406E+02  0.19999997091E+02 0.  0.
        -12    1    1    2    0    0 -0.11813092407E+02 -0.13209411305E+02 -0.39617996290E+02  0.43400729594E+02  0.00000000000E+00 0.  1.
         11    1    3    3    0    0  0.89675405640E+01 -0.14809781976E+01  0.62805981665E+01  0.11047895446E+02  0.51100000000E-03 0.  1.
        -11    1    3    3    0    0  0.29462679199E+01  0.11038798617E+02  0.28279498017E+02  0.30500255375E+02  0.51100000000E-03 0. -1.
        -12    1    3    3    0    0 -0.10071607678E+00  0.36515908850E+01  0.50579001062E+01  0.62391195856E+01  0.00000000000E+00 0.  1.
</event>
<event>
 7    1  0.2732193E-010  0.4778727E+02  0.7816164E-02  0.1312668E+00
        -11   -1    0    0    0    0  0.00000000000E+00  0.00000000000E+00  0.45593999997E+02  0.45594000000E+02  0.51100000000E-03 0.  1.
         11   -1    0    0    0    0 -0.00000000000E+00 -0.00000000000E+00 -0.45593999997E+02  0.45594000000E+02  0.51100000000E-03 0. -1.
    9900012    2    1    2    0    0  0.15384175534E+02 -0.10508533007E+02 -0.39198486009E+02  0.47787269266E+02  0.19999991893E+02 0.  0.
        -12    1    1    2    0    0 -0.15384175534E+02  0.10508533007E+02  0.39198486009E+02  0.43400730734E+02  0.00000000000E+00 0.  1.
         11    1    3    3    0    0  0.93429431270E+01  0.62651081684E+00 -0.12454392443E+02  0.15581880293E+02  0.51100000000E-03 0. -1.
        -11    1    3    3    0    0 -0.29600496006E+01 -0.41146240816E+01 -0.14975238383E+02  0.15809800437E+02  0.51100000000E-03 0.  1.
        -12    1    3    3    0    0  0.90012820074E+01 -0.70204197424E+01 -0.11768855182E+02  0.16395588536E+02  0.00000000000E+00 0.  1.
</event>
<event>
 7    1  0.2732193E-010  0.4778727E+02  0.7816164E-02  0.1312668E+00
        -11   -1    0    0    0    0  0.00000000000E+00  0.00000000000E+00  0.45593999997E+02  0.45594000000E+02  0.51100000000E-03 0.  1.
         11   -1    0    0    0    0 -0.00000000000E+00 -0.00000000000E+00 -0.45593999997E+02  0.45594000000E+02  0.51100000000E-03 0. -1.
    9900012    2    1    2    0    0 -0.29374008580E+02 -0.15215557023E+02 -0.28094088252E+02  0.47787270164E+02  0.19999995986E+02 0.  0.
        -12    1    1    2    0    0  0.29374008580E+02  0.15215557023E+02  0.28094088252E+02  0.43400729836E+02  0.00000000000E+00 0.  1.
         11    1    3    3    0    0 -0.12482387261E+02  0.37765986843E+01 -0.78638234988E+01  0.15228670646E+02  0.51100000000E-03 0. -1.
        -11    1    3    3    0    0 -0.12940173975E+02 -0.13511791184E+02 -0.15706031961E+02  0.24427362602E+02  0.51100000000E-03 0.  1.
         12    1    3    3    0    0 -0.39514473439E+01 -0.54803645228E+01 -0.45242327931E+01  0.81312369158E+01  0.00000000000E+00 0. -1.
</event>
<event>
 7    1  0.2732193E-010  0.4778727E+02  0.7816164E-02  0.1312668E+00
        -11   -1    0    0    0    0  0.00000000000E+00  0.00000000000E+00  0.45593999997E+02  0.45594000000E+02  0.51100000000E-03 0.  1.
         11   -1    0    0    0    0 -0.00000000000E+00 -0.00000000000E+00 -0.45593999997E+02  0.45594000000E+02  0.51100000000E-03 0. -1.
    9900012    2    1    2    0    0 -0.24329180416E+02 -0.35321957499E+02  0.66387954979E+01  0.47787270664E+02  0.19999998264E+02 0.  0.
        -12    1    1    2    0    0  0.24329180416E+02  0.35321957499E+02 -0.66387954979E+01  0.43400729336E+02  0.00000000000E+00 0.  1.
         11    1    3    3    0    0 -0.54735302077E+01 -0.10444116070E+02  0.35783137098E+00  0.11796912179E+02  0.51100000000E-03 0. -1.
        -11    1    3    3    0    0 -0.15342376360E+02 -0.11214109193E+02 -0.28047790033E+01  0.19209673159E+02  0.51100000000E-03 0.  1.
        -12    1    3    3    0    0 -0.35132738478E+01 -0.13663732237E+02  0.90857431302E+01  0.16780685325E+02  0.00000000000E+00 0.  1.
</event>
<event>
 7    1  0.2732193E-010  0.4778727E+02  0.7816164E-02  0.1312668E+00
        -11   -1    0    0    0    0  0.00000000000E+00  0.00000000000E+00  0.45593999997E+02  0.45594000000E+02  0.51100000000E-03 0. -1.
         11   -1    0    0    0    0 -0.00000000000E+00 -0.00000000000E+00 -0.45593999997E+02  0.45594000000E+02  0.51100000000E-03 0.  1.
    9900012    2    1    2    0    0 -0.10842335660E+02 -0.37376531888E+02  0.19210987989E+02  0.47787269153E+02  0.19999991377E+02 0.  0.
        -12    1    1    2    0    0  0.10842335660E+02  0.37376531888E+02 -0.19210987989E+02  0.43400730847E+02  0.00000000000E+00 0.  1.
         11    1    3    3    0    0  0.55558320750E+01 -0.79394372623E+01  0.27961651551E+01  0.10085656841E+02  0.51100000000E-03 0. -1.
        -11    1    3    3    0    0 -0.12261745135E+02 -0.19100117068E+02  0.95721350691E+01  0.24633120708E+02  0.51100000000E-03 0.  1.
         12    1    3    3    0    0 -0.41364226002E+01 -0.10336977558E+02  0.68426877645E+01  0.13068491604E+02  0.00000000000E+00 0. -1.
</event>
<event>
 7    1  0.2732193E-010  0.4778728E+02  0.7816164E-02  0.1312668E+00
        -11   -1    0    0    0    0  0.00000000000E+00  0.00000000000E+00  0.45593999997E+02  0.45594000000E+02  0.51100000000E-03 0.  1.
         11   -1    0    0    0    0 -0.00000000000E+00 -0.00000000000E+00 -0.45593999997E+02  0.45594000000E+02  0.51100000000E-03 0. -1.
    9900012    2    1    2    0    0  0.36806359440E+02  0.80573817576E+01 -0.21540501034E+02  0.47787277877E+02  0.20000031152E+02 0.  0.
        -12    1    1    2    0    0 -0.36806359440E+02 -0.80573817576E+01  0.21540501034E+02  0.43400722123E+02  0.00000000000E+00 0.  1.
         11    1    3    3    0    0  0.37197814642E+02  0.70329241566E+01 -0.18603656180E+02  0.42180984576E+02  0.51100000000E-03 0. -1.
        -11    1    3    3    0    0 -0.20292499339E+01 -0.42406304953E+00 -0.17031945033E+00  0.20800706095E+01  0.51100000000E-03 0.  1.
         12    1    3    3    0    0  0.16377947323E+01  0.14485206506E+01 -0.27665254036E+01  0.35262226914E+01  0.00000000000E+00 0. -1.
</event>
<event>
 7    1  0.2732193E-010  0.4778727E+02  0.7816164E-02  0.1312668E+00
        -11   -1    0    0    0    0  0.00000000000E+00  0.00000000000E+00  0.45593999997E+02  0.45594000000E+02  0.51100000000E-03 0.  1.
         11   -1    0    0    0    0 -0.00000000000E+00 -0.00000000000E+00 -0.45593999997E+02  0.45594000000E+02  0.51100000000E-03 0. -1.
    9900012    2    1    2    0    0 -0.29544726704E+02  0.20717680459E+02 -0.24114525581E+02  0.47787268398E+02  0.19999987934E+02 0.  0.
        -12    1    1    2    0    0  0.29544726704E+02 -0.20717680459E+02  0.24114525581E+02  0.43400731602E+02  0.00000000000E+00 0.  1.
         11    1    3    3    0    0 -0.47742970785E+01  0.11863140132E+02 -0.12375565093E+02  0.17795578609E+02  0.51100000000E-03 0. -1.
        -11    1    3    3    0    0 -0.24725587122E+02  0.89656727786E+01 -0.12571199983E+02  0.29150866474E+02  0.51100000000E-03 0.  1.
        -12    1    3    3    0    0 -0.44842503222E-01 -0.11113245171E+00  0.83223949456E+00  0.84082331570E+00  0.00000000000E+00 0.  1.
</event>
<event>
 7    1  0.2732193E-010  0.4778727E+02  0.7816164E-02  0.1312668E+00
        -11   -1    0    0    0    0  0.00000000000E+00  0.00000000000E+00  0.45593999997E+02  0.45594000000E+02  0.51100000000E-03 0.  1.
         11   -1    0    0    0    0 -0.00000000000E+00 -0.00000000000E+00 -0.45593999997E+02  0.45594000000E+02  0.51100000000E-03 0. -1.
    9900012    2    1    2    0    0  0.10714325861E+02  0.17957583130E+02 -0.38030928789E+02  0.47787272874E+02  0.20000008341E+02 0.  0.
        -12    1    1    2    0    0 -0.10714325861E+02 -0.17957583130E+02  0.38030928789E+02  0.43400727126E+02  0.00000000000E+00 0.  1.
         11    1    3    3    0    0  0.13105938749E+02  0.15050093070E+02 -0.22800137684E+02  0.30300449016E+02  0.51100000000E-03 0. -1.
        -11    1    3    3    0    0 -0.29002597805E+01  0.15039979517E+01 -0.15608674047E+02  0.15946918900E+02  0.51100000000E-03 0.  1.
        -12    1    3    3    0    0  0.50864689310E+00  0.14034921088E+01  0.37788294224E+00  0.15399049579E+01  0.00000000000E+00 0.  1.
</event>
<event>
 7    1  0.2732193E-010  0.4778727E+02  0.7816164E-02  0.1312668E+00
        -11   -1    0    0    0    0  0.00000000000E+00  0.00000000000E+00  0.45593999997E+02  0.45594000000E+02  0.51100000000E-03 0.  1.
         11   -1    0    0    0    0 -0.00000000000E+00 -0.00000000000E+00 -0.45593999997E+02  0.45594000000E+02  0.51100000000E-03 0. -1.
    9900012    2    1    2    0    0  0.12431951430E+02 -0.30471522649E+02 -0.28294101632E+02  0.47787270789E+02  0.19999998835E+02 0.  0.
        -12    1    1    2    0    0 -0.12431951430E+02  0.30471522649E+02  0.28294101632E+02  0.43400729211E+02  0.00000000000E+00 0.  1.
         11    1    3    3    0    0  0.86241451455E+01 -0.28252348199E+02 -0.14571200174E+02  0.32937682569E+02  0.51100000000E-03 0. -1.
        -11    1    3    3    0    0  0.39776878972E+01 -0.28579430334E+01 -0.12870321205E+02  0.13770802721E+02  0.51100000000E-03 0.  1.
         12    1    3    3    0    0 -0.16988161253E+00  0.63876858350E+00 -0.85258025346E+00  0.10787854996E+01  0.00000000000E+00 0. -1.
</event>
<event>
 7    1  0.2732193E-010  0.4778727E+02  0.7816164E-02  0.1312668E+00
        -11   -1    0    0    0    0  0.00000000000E+00  0.00000000000E+00  0.45593999997E+02  0.45594000000E+02  0.51100000000E-03 0.  1.
         11   -1    0    0    0    0 -0.00000000000E+00 -0.00000000000E+00 -0.45593999997E+02  0.45594000000E+02  0.51100000000E-03 0. -1.
    9900012    2    1    2    0    0 -0.96240562116E+01  0.41238051683E+02  0.95091587697E+01  0.47787268842E+02  0.19999989958E+02 0.  0.
        -12    1    1    2    0    0  0.96240562116E+01 -0.41238051683E+02 -0.95091587697E+01  0.43400731158E+02  0.00000000000E+00 0.  1.
         11    1    3    3    0    0  0.17490153360E+01  0.16007407250E+02  0.10386134363E+02  0.19161626465E+02  0.51100000000E-03 0. -1.
        -11    1    3    3    0    0 -0.61443910457E+01  0.17589089348E+02 -0.35964567483E+01  0.18975355248E+02  0.51100000000E-03 0.  1.
         12    1    3    3    0    0 -0.52286805019E+01  0.76415550853E+01  0.27194811547E+01  0.96502871286E+01  0.00000000000E+00 0. -1.
</event>
<event>
 7    1  0.2732193E-010  0.4778727E+02  0.7816164E-02  0.1312668E+00
        -11   -1    0    0    0    0  0.00000000000E+00  0.00000000000E+00  0.45593999997E+02  0.45594000000E+02  0.51100000000E-03 0.  1.
         11   -1    0    0    0    0 -0.00000000000E+00 -0.00000000000E+00 -0.45593999997E+02  0.45594000000E+02  0.51100000000E-03 0. -1.
    9900012    2    1    2    0    0 -0.34686994130E+02  0.25967404859E+02 -0.24757873034E+01  0.47787271900E+02  0.20000003899E+02 0.  0.
        -12    1    1    2    0    0  0.34686994130E+02 -0.25967404859E+02  0.24757873034E+01  0.43400728100E+02  0.00000000000E+00 0.  1.
         11    1    3    3    0    0 -0.34358227324E+02  0.25969647657E+02 -0.26028760889E+01  0.43147251923E+02  0.51100000000E-03 0. -1.
        -11    1    3    3    0    0  0.45602502371E+00  0.10335688023E+01  0.20373698577E+01  0.23296135923E+01  0.51100000000E-03 0.  1.
         12    1    3    3    0    0 -0.78479182905E+00 -0.10358116003E+01 -0.19102810722E+01  0.23104063844E+01  0.00000000000E+00 0. -1.
</event>
<event>
 7    1  0.2732193E-010  0.4778727E+02  0.7816164E-02  0.1312668E+00
        -11   -1    0    0    0    0  0.00000000000E+00  0.00000000000E+00  0.45593999997E+02  0.45594000000E+02  0.51100000000E-03 0. -1.
         11   -1    0    0    0    0 -0.00000000000E+00 -0.00000000000E+00 -0.45593999997E+02  0.45594000000E+02  0.51100000000E-03 0.  1.
    9900012    2    1    2    0    0 -0.39451371014E+02  0.17960112327E+02  0.21557666332E+01  0.47787266833E+02  0.19999980799E+02 0.  0.
        -12    1    1    2    0    0  0.39451371014E+02 -0.17960112327E+02 -0.21557666332E+01  0.43400733167E+02  0.00000000000E+00 0.  1.
         11    1    3    3    0    0 -0.13416416041E+02  0.44780450205E+01 -0.52494253278E+01  0.15086735006E+02  0.51100000000E-03 0.  1.
        -11    1    3    3    0    0 -0.19587817254E+02  0.68863132853E+01  0.10103261363E+02  0.23090686128E+02  0.51100000000E-03 0. -1.
        -12    1    3    3    0    0 -0.64471377186E+01  0.65957540209E+01 -0.26980694023E+01  0.96098456994E+01  0.00000000000E+00 0.  1.
</event>
<event>
 7    1  0.2732193E-010  0.4778727E+02  0.7816164E-02  0.1312668E+00
        -11   -1    0    0    0    0  0.00000000000E+00  0.00000000000E+00  0.45593999997E+02  0.45594000000E+02  0.51100000000E-03 0.  1.
         11   -1    0    0    0    0 -0.00000000000E+00 -0.00000000000E+00 -0.45593999997E+02  0.45594000000E+02  0.51100000000E-03 0. -1.
    9900012    2    1    2    0    0  0.80857228114E+01 -0.40707649872E+02  0.12693763492E+02  0.47787270708E+02  0.19999998467E+02 0.  0.
        -12    1    1    2    0    0 -0.80857228114E+01  0.40707649872E+02 -0.12693763492E+02  0.43400729292E+02  0.00000000000E+00 0.  1.
         11    1    3    3    0    0  0.40833934761E+01 -0.43751601400E+01 -0.11444393360E+01  0.60931002114E+01  0.51100000000E-03 0. -1.
        -11    1    3    3    0    0 -0.23520507746E+01 -0.29325521418E+02  0.13105373742E+02  0.32206663448E+02  0.51100000000E-03 0.  1.
        -12    1    3    3    0    0  0.63543801099E+01 -0.70069683132E+01  0.73282908639E+00  0.94875070484E+01  0.00000000000E+00 0.  1.
</event>
<event>
 7    1  0.2732193E-010  0.4778727E+02  0.7816164E-02  0.1312668E+00
        -11   -1    0    0    0    0  0.00000000000E+00  0.00000000000E+00  0.45593999997E+02  0.45594000000E+02  0.51100000000E-03 0. -1.
         11   -1    0    0    0    0 -0.00000000000E+00 -0.00000000000E+00 -0.45593999997E+02  0.45594000000E+02  0.51100000000E-03 0.  1.
    9900012    2    1    2    0    0  0.69316015150E+01  0.35699683825E+02  0.23687733060E+02  0.47787271639E+02  0.20000002710E+02 0.  0.
        -12    1    1    2    0    0 -0.69316015150E+01 -0.35699683825E+02 -0.23687733060E+02  0.43400728361E+02  0.00000000000E+00 0.  1.
         11    1    3    3    0    0  0.49204291540E+00  0.37785674520E+01  0.26127229977E+01  0.46201731508E+01  0.51100000000E-03 0. -1.
        -11    1    3    3    0    0 -0.31456156139E+01  0.35879605335E+01 -0.22128332206E+01  0.52597518481E+01  0.51100000000E-03 0.  1.
        -12    1    3    3    0    0  0.95851742134E+01  0.28333155839E+02  0.23287843283E+02  0.37907346640E+02  0.00000000000E+00 0.  1.
</event>
<event>
 7    1  0.2732193E-010  0.4778727E+02  0.7816164E-02  0.1312668E+00
        -11   -1    0    0    0    0  0.00000000000E+00  0.00000000000E+00  0.45593999997E+02  0.45594000000E+02  0.51100000000E-03 0.  1.
         11   -1    0    0    0    0 -0.00000000000E+00 -0.00000000000E+00 -0.45593999997E+02  0.45594000000E+02  0.51100000000E-03 0. -1.
    9900012    2    1    2    0    0 -0.24769553254E+02 -0.34596226396E+02 -0.85553320747E+01  0.47787270097E+02  0.19999995679E+02 0.  0.
        -12    1    1    2    0    0  0.24769553254E+02  0.34596226396E+02  0.85553320747E+01  0.43400729903E+02  0.00000000000E+00 0.  1.
         11    1    3    3    0    0 -0.89174112834E+01 -0.54895896095E+01 -0.53003231197E+01  0.11736662367E+02  0.51100000000E-03 0. -1.
        -11    1    3    3    0    0 -0.84494175012E+01 -0.18268692932E+02  0.47450520769E+01  0.20679780391E+02  0.51100000000E-03 0.  1.
        -12    1    3    3    0    0 -0.74027244693E+01 -0.10837943854E+02 -0.80000610319E+01  0.15370827338E+02  0.00000000000E+00 0.  1.
</event>
<event>
 7    1  0.2732193E-010  0.4778727E+02  0.7816164E-02  0.1312668E+00
        -11   -1    0    0    0    0  0.00000000000E+00  0.00000000000E+00  0.45593999997E+02  0.45594000000E+02  0.51100000000E-03 0. -1.
         11   -1    0    0    0    0 -0.00000000000E+00 -0.00000000000E+00 -0.45593999997E+02  0.45594000000E+02  0.51100000000E-03 0.  1.
    9900012    2    1    2    0    0  0.20932705655E+02 -0.18135619003E+02  0.33414731830E+02  0.47787272518E+02  0.20000006720E+02 0.  0.
        -12    1    1    2    0    0 -0.20932705655E+02  0.18135619003E+02 -0.33414731830E+02  0.43400727482E+02  0.00000000000E+00 0.  1.
         11    1    3    3    0    0  0.86793176462E+01 -0.33789381396E+01  0.17296914412E+02  0.19645127289E+02  0.51100000000E-03 0. -1.
        -11    1    3    3    0    0  0.75688480879E+01 -0.16406741860E+02  0.11997804719E+02  0.21689074627E+02  0.51100000000E-03 0.  1.
        -12    1    3    3    0    0  0.46845399207E+01  0.16500609965E+01  0.41200126984E+01  0.64530706021E+01  0.00000000000E+00 0.  1.
</event>
<event>
 7    1  0.2732193E-010  0.4778727E+02  0.7816164E-02  0.1312668E+00
        -11   -1    0    0    0    0  0.00000000000E+00  0.00000000000E+00  0.45593999997E+02  0.45594000000E+02  0.51100000000E-03 0.  1.
         11   -1    0    0    0    0 -0.00000000000E+00 -0.00000000000E+00 -0.45593999997E+02  0.45594000000E+02  0.51100000000E-03 0. -1.
    9900012    2    1    2    0    0  0.44553032102E+01  0.17450994353E+02 -0.39487167392E+02  0.47787270522E+02  0.19999997616E+02 0.  0.
        -12    1    1    2    0    0 -0.44553032102E+01 -0.17450994353E+02  0.39487167392E+02  0.43400729478E+02  0.00000000000E+00 0.  1.
         11    1    3    3    0    0  0.63656671272E+01  0.17511619584E+02 -0.17263928725E+02  0.25401215989E+02  0.51100000000E-03 0. -1.
        -11    1    3    3    0    0 -0.32673663883E+00 -0.71259861330E+00 -0.11522652643E+02  0.11549289061E+02  0.51100000000E-03 0.  1.
         12    1    3    3    0    0 -0.15836272782E+01  0.65197338320E+00 -0.10700586024E+02  0.10836765472E+02  0.00000000000E+00 0. -1.
</event>
<event>
 7    1  0.2732193E-010  0.4778727E+02  0.7816164E-02  0.1312668E+00
        -11   -1    0    0    0    0  0.00000000000E+00  0.00000000000E+00  0.45593999997E+02  0.45594000000E+02  0.51100000000E-03 0. -1.
         11   -1    0    0    0    0 -0.00000000000E+00 -0.00000000000E+00 -0.45593999997E+02  0.45594000000E+02  0.51100000000E-03 0.  1.
    9900012    2    1    2    0    0  0.39395413393E+02 -0.24551779536E+01 -0.18044308189E+02  0.47787267827E+02  0.19999985329E+02 0.  0.
        -12    1    1    2    0    0 -0.39395413393E+02  0.24551779536E+01  0.18044308189E+02  0.43400732173E+02  0.00000000000E+00 0.  1.
         11    1    3    3    0    0  0.24328209406E+02  0.48007199313E+00 -0.10505526605E+02  0.26503930492E+02  0.51100000000E-03 0. -1.
        -11    1    3    3    0    0 -0.63883186908E+00 -0.39711622313E+00  0.24061951409E+01  0.25210281175E+01  0.51100000000E-03 0.  1.
        -12    1    3    3    0    0  0.15706035856E+02 -0.25381337236E+01 -0.99449767244E+01  0.18762309217E+02  0.00000000000E+00 0.  1.
</event>
<event>
 7    1  0.2732193E-010  0.4778727E+02  0.7816164E-02  0.1312668E+00
        -11   -1    0    0    0    0  0.00000000000E+00  0.00000000000E+00  0.45593999997E+02  0.45594000000E+02  0.51100000000E-03 0.  1.
         11   -1    0    0    0    0 -0.00000000000E+00 -0.00000000000E+00 -0.45593999997E+02  0.45594000000E+02  0.51100000000E-03 0. -1.
    9900012    2    1    2    0    0 -0.22917888211E+02 -0.28189459483E+01 -0.36748433590E+02  0.47787269273E+02  0.19999991923E+02 0.  0.
        -12    1    1    2    0    0  0.22917888211E+02  0.28189459483E+01  0.36748433590E+02  0.43400730727E+02  0.00000000000E+00 0.  1.
         11    1    3    3    0    0 -0.45526868511E+01  0.17626083004E+01 -0.21484097220E+02  0.22031799273E+02  0.51100000000E-03 0. -1.
        -11    1    3    3    0    0 -0.10090180074E+02 -0.64595313541E+01 -0.68275084594E+01  0.13789566754E+02  0.51100000000E-03 0.  1.
        -12    1    3    3    0    0 -0.82750212861E+01  0.18779771054E+01 -0.84368279109E+01  0.11965903246E+02  0.00000000000E+00 0.  1.
</event>
<event>
 7    1  0.2732193E-010  0.4778727E+02  0.7816164E-02  0.1312668E+00
        -11   -1    0    0    0    0  0.00000000000E+00  0.00000000000E+00  0.45593999997E+02  0.45594000000E+02  0.51100000000E-03 0.  1.
         11   -1    0    0    0    0 -0.00000000000E+00 -0.00000000000E+00 -0.45593999997E+02  0.45594000000E+02  0.51100000000E-03 0. -1.
    9900012    2    1    2    0    0 -0.36168857030E+02 -0.44113162605E+01 -0.23579180005E+02  0.47787266599E+02  0.19999979731E+02 0.  0.
        -12    1    1    2    0    0  0.36168857030E+02  0.44113162605E+01  0.23579180005E+02  0.43400733401E+02  0.00000000000E+00 0.  1.
         11    1    3    3    0    0 -0.28566147997E+01  0.27684073550E+00 -0.36443307255E+01  0.46387536693E+01  0.51100000000E-03 0. -1.
        -11    1    3    3    0    0 -0.22361088536E+02 -0.94537599427E+01 -0.19598135376E+02  0.31200621277E+02  0.51100000000E-03 0.  1.
        -12    1    3    3    0    0 -0.10951153695E+02  0.47656029468E+01 -0.33671390367E+00  0.11947891653E+02  0.00000000000E+00 0.  1.
</event>
<event>
 7    1  0.2732193E-010  0.4778726E+02  0.7816164E-02  0.1312668E+00
        -11   -1    0    0    0    0  0.00000000000E+00  0.00000000000E+00  0.45593999997E+02  0.45594000000E+02  0.51100000000E-03 0. -1.
         11   -1    0    0    0    0 -0.00000000000E+00 -0.00000000000E+00 -0.45593999997E+02  0.45594000000E+02  0.51100000000E-03 0.  1.
    9900012    2    1    2    0    0 -0.35964151375E+02  0.23883979705E+02 -0.44451636232E+01  0.47787260947E+02  0.19999953963E+02 0.  0.
        -12    1    1    2    0    0  0.35964151375E+02 -0.23883979705E+02  0.44451636232E+01  0.43400739053E+02  0.00000000000E+00 0.  1.
         11    1    3    3    0    0 -0.17390291542E+02  0.30256405980E+01  0.22095522940E+01  0.17789290670E+02  0.51100000000E-03 0. -1.
        -11    1    3    3    0    0 -0.10399101624E+02  0.15757354540E+02 -0.75231359802E+01  0.20323216082E+02  0.51100000000E-03 0.  1.
        -12    1    3    3    0    0 -0.81747582089E+01  0.51009845668E+01  0.86842006305E+00  0.96747541949E+01  0.00000000000E+00 0.  1.
</event>
<event>
 7    1  0.2732193E-010  0.4778727E+02  0.7816164E-02  0.1312668E+00
        -11   -1    0    0    0    0  0.00000000000E+00  0.00000000000E+00  0.45593999997E+02  0.45594000000E+02  0.51100000000E-03 0. -1.
         11   -1    0    0    0    0 -0.00000000000E+00 -0.00000000000E+00 -0.45593999997E+02  0.45594000000E+02  0.51100000000E-03 0.  1.
    9900012    2    1    2    0    0  0.12957634059E+02 -0.81720759157E+01  0.40607145238E+02  0.47787270173E+02  0.19999996026E+02 0.  0.
        -12    1    1    2    0    0 -0.12957634059E+02  0.81720759157E+01 -0.40607145238E+02  0.43400729827E+02  0.00000000000E+00 0.  1.
         11    1    3    3    0    0  0.36116271010E+01 -0.82565533388E+01  0.32022078731E+02  0.33266019448E+02  0.51100000000E-03 0. -1.
        -11    1    3    3    0    0  0.47949735549E+01  0.43939025150E+00  0.19352907257E-01  0.48151022815E+01  0.51100000000E-03 0.  1.
         12    1    3    3    0    0  0.45510334031E+01 -0.35491282844E+00  0.85657135989E+01  0.97061484437E+01  0.00000000000E+00 0. -1.
</event>
<event>
 7    1  0.2732193E-010  0.4778728E+02  0.7816164E-02  0.1312668E+00
        -11   -1    0    0    0    0  0.00000000000E+00  0.00000000000E+00  0.45593999997E+02  0.45594000000E+02  0.51100000000E-03 0.  1.
         11   -1    0    0    0    0 -0.00000000000E+00 -0.00000000000E+00 -0.45593999997E+02  0.45594000000E+02  0.51100000000E-03 0. -1.
    9900012    2    1    2    0    0  0.13823039833E+02 -0.72476782536E+01 -0.40497128589E+02  0.47787277722E+02  0.20000030446E+02 0.  0.
        -12    1    1    2    0    0 -0.13823039833E+02  0.72476782536E+01  0.40497128589E+02  0.43400722278E+02  0.00000000000E+00 0.  1.
         11    1    3    3    0    0  0.69577877013E+01  0.17555032792E+01 -0.15371762959E+02  0.16964188699E+02  0.51100000000E-03 0. -1.
        -11    1    3    3    0    0 -0.33545551827E+01 -0.51781668874E+01 -0.50472864051E+01  0.79712955724E+01  0.51100000000E-03 0.  1.
        -12    1    3    3    0    0  0.10219807315E+02 -0.38250146454E+01 -0.20078079224E+02  0.22851793451E+02  0.00000000000E+00 0.  1.
</event>
<event>
 7    1  0.2732193E-010  0.4778728E+02  0.7816164E-02  0.1312668E+00
        -11   -1    0    0    0    0  0.00000000000E+00  0.00000000000E+00  0.45593999997E+02  0.45594000000E+02  0.51100000000E-03 0.  1.
         11   -1    0    0    0    0 -0.00000000000E+00 -0.00000000000E+00 -0.45593999997E+02  0.45594000000E+02  0.51100000000E-03 0. -1.
    9900012    2    1    2    0    0  0.13036120009E+01  0.37433029226E+02 -0.21924672781E+02  0.47787281597E+02  0.20000048115E+02 0.  0.
        -12    1    1    2    0    0 -0.13036120009E+01 -0.37433029226E+02  0.21924672781E+02  0.43400718403E+02  0.00000000000E+00 0.  1.
         11    1    3    3    0    0  0.26995638746E+01  0.28201681095E+02 -0.25010300681E+02  0.37790707881E+02  0.51100000000E-03 0. -1.
        -11    1    3    3    0    0 -0.11486191836E+01  0.74136297348E+01  0.16861498809E+01  0.76892349135E+01  0.51100000000E-03 0.  1.
         12    1    3    3    0    0 -0.24733269018E+00  0.18177183962E+01  0.13994780189E+01  0.23073388032E+01  0.00000000000E+00 0. -1.
</event>
<event>
 7    1  0.2732193E-010  0.4778727E+02  0.7816164E-02  0.1312668E+00
        -11   -1    0    0    0    0  0.00000000000E+00  0.00000000000E+00  0.45593999997E+02  0.45594000000E+02  0.51100000000E-03 0. -1.
         11   -1    0    0    0    0 -0.00000000000E+00 -0.00000000000E+00 -0.45593999997E+02  0.45594000000E+02  0.51100000000E-03 0.  1.
    9900012    2    1    2    0    0  0.98129903832E+01 -0.36752000153E+02  0.20895426918E+02  0.47787272338E+02  0.20000005897E+02 0.  0.
        -12    1    1    2    0    0 -0.98129903832E+01  0.36752000153E+02 -0.20895426918E+02  0.43400727662E+02  0.00000000000E+00 0.  1.
         11    1    3    3    0    0  0.12728081409E+02 -0.27497238882E+02  0.10298503800E+02  0.32002521514E+02  0.51100000000E-03 0. -1.
        -11    1    3    3    0    0 -0.48032388341E+01 -0.45256944633E+01  0.62577592143E+01  0.90946448154E+01  0.51100000000E-03 0.  1.
        -12    1    3    3    0    0  0.18881478079E+01 -0.47290668077E+01  0.43391639036E+01  0.66901060080E+01  0.00000000000E+00 0.  1.
</event>
<event>
 7    1  0.2732193E-010  0.4778727E+02  0.7816164E-02  0.1312668E+00
        -11   -1    0    0    0    0  0.00000000000E+00  0.00000000000E+00  0.45593999997E+02  0.45594000000E+02  0.51100000000E-03 0.  1.
         11   -1    0    0    0    0 -0.00000000000E+00 -0.00000000000E+00 -0.45593999997E+02  0.45594000000E+02  0.51100000000E-03 0. -1.
    9900012    2    1    2    0    0 -0.94857940763E+01 -0.46143283391E-02 -0.42351420446E+02  0.47787272767E+02  0.20000007855E+02 0.  0.
        -12    1    1    2    0    0  0.94857940763E+01  0.46143283391E-02  0.42351420446E+02  0.43400727233E+02  0.00000000000E+00 0.  1.
         11    1    3    3    0    0 -0.97189581070E+01 -0.36146782255E+01 -0.42467062623E+02  0.43714705231E+02  0.51100000000E-03 0. -1.
        -11    1    3    3    0    0  0.25005050087E+00  0.37920804876E+01 -0.84835263825E-01  0.38012625482E+01  0.51100000000E-03 0.  1.
         12    1    3    3    0    0 -0.16886470103E-01 -0.18201659042E+00  0.20047744093E+00  0.27130498776E+00  0.00000000000E+00 0. -1.
</event>
<event>
 7    1  0.2732193E-010  0.4778727E+02  0.7816164E-02  0.1312668E+00
        -11   -1    0    0    0    0  0.00000000000E+00  0.00000000000E+00  0.45593999997E+02  0.45594000000E+02  0.51100000000E-03 0.  1.
         11   -1    0    0    0    0 -0.00000000000E+00 -0.00000000000E+00 -0.45593999997E+02  0.45594000000E+02  0.51100000000E-03 0. -1.
    9900012    2    1    2    0    0 -0.82525369342E+01 -0.32742622920E+02 -0.27266091946E+02  0.47787268537E+02  0.19999988566E+02 0.  0.
        -12    1    1    2    0    0  0.82525369342E+01  0.32742622920E+02  0.27266091946E+02  0.43400731463E+02  0.00000000000E+00 0.  1.
         11    1    3    3    0    0 -0.29852570103E+00 -0.25766047253E+01 -0.11914187807E+02  0.12193271951E+02  0.51100000000E-03 0. -1.
        -11    1    3    3    0    0 -0.39468216150E+01 -0.19083193483E+02 -0.55405011195E+01  0.20259388621E+02  0.51100000000E-03 0.  1.
         12    1    3    3    0    0 -0.40071896182E+01 -0.11082824712E+02 -0.98114030192E+01  0.15334607965E+02  0.00000000000E+00 0. -1.
</event>
<event>
 7    1  0.2732193E-010  0.4778728E+02  0.7816164E-02  0.1312668E+00
        -11   -1    0    0    0    0  0.00000000000E+00  0.00000000000E+00  0.45593999997E+02  0.45594000000E+02  0.51100000000E-03 0.  1.
         11   -1    0    0    0    0 -0.00000000000E+00 -0.00000000000E+00 -0.45593999997E+02  0.45594000000E+02  0.51100000000E-03 0. -1.
    9900012    2    1    2    0    0  0.22913611316E+02 -0.31892451665E+02 -0.18478647469E+02  0.47787280317E+02  0.20000042277E+02 0.  0.
        -12    1    1    2    0    0 -0.22913611316E+02  0.31892451665E+02  0.18478647469E+02  0.43400719683E+02  0.00000000000E+00 0.  1.
         11    1    3    3    0    0  0.19684888776E+02 -0.17790262232E+02 -0.73676554735E+01  0.27536714108E+02  0.51100000000E-03 0. -1.
        -11    1    3    3    0    0 -0.11179105274E+00 -0.11599380183E+02 -0.45208869857E+01  0.12449760531E+02  0.51100000000E-03 0.  1.
         12    1    3    3    0    0  0.33405135925E+01 -0.25028092501E+01 -0.65901050094E+01  0.78008056788E+01  0.00000000000E+00 0. -1.
</event>
<event>
 7    1  0.2732193E-010  0.4778727E+02  0.7816164E-02  0.1312668E+00
        -11   -1    0    0    0    0  0.00000000000E+00  0.00000000000E+00  0.45593999997E+02  0.45594000000E+02  0.51100000000E-03 0.  1.
         11   -1    0    0    0    0 -0.00000000000E+00 -0.00000000000E+00 -0.45593999997E+02  0.45594000000E+02  0.51100000000E-03 0. -1.
    9900012    2    1    2    0    0 -0.38177975751E+02 -0.21901704099E+01 -0.20524830534E+02  0.47787270199E+02  0.19999996145E+02 0.  0.
        -12    1    1    2    0    0  0.38177975751E+02  0.21901704099E+01  0.20524830534E+02  0.43400729801E+02  0.00000000000E+00 0.  1.
         11    1    3    3    0    0 -0.29150134163E+02 -0.20637082122E+01 -0.81656997818E+01  0.30342509232E+02  0.51100000000E-03 0. -1.
        -11    1    3    3    0    0  0.27340456944E+00 -0.25388560042E+01 -0.37893776490E+01  0.45694554485E+01  0.51100000000E-03 0.  1.
         12    1    3    3    0    0 -0.93012461570E+01  0.24123938065E+01 -0.85697531028E+01  0.12875305518E+02  0.00000000000E+00 0. -1.
</event>
<event>
 7    1  0.2732193E-010  0.4778727E+02  0.7816164E-02  0.1312668E+00
        -11   -1    0    0    0    0  0.00000000000E+00  0.00000000000E+00  0.45593999997E+02  0.45594000000E+02  0.51100000000E-03 0.  1.
         11   -1    0    0    0    0 -0.00000000000E+00 -0.00000000000E+00 -0.45593999997E+02  0.45594000000E+02  0.51100000000E-03 0. -1.
    9900012    2    1    2    0    0 -0.18790724896E+02  0.48996600939E+01 -0.38813983158E+02  0.47787270747E+02  0.19999998642E+02 0.  0.
        -12    1    1    2    0    0  0.18790724896E+02 -0.48996600939E+01  0.38813983158E+02  0.43400729253E+02  0.00000000000E+00 0.  1.
         11    1    3    3    0    0 -0.14795042528E+02 -0.16042979024E+01 -0.24859495400E+02  0.28973463151E+02  0.51100000000E-03 0. -1.
        -11    1    3    3    0    0 -0.30237089123E+01  0.82361083485E+01 -0.60344623156E+01  0.10648522527E+02  0.51100000000E-03 0.  1.
        -12    1    3    3    0    0 -0.97197345577E+00 -0.17321503521E+01 -0.79200254426E+01  0.81652850686E+01  0.00000000000E+00 0.  1.
</event>
<event>
 7    1  0.2732193E-010  0.4778727E+02  0.7816164E-02  0.1312668E+00
        -11   -1    0    0    0    0  0.00000000000E+00  0.00000000000E+00  0.45593999997E+02  0.45594000000E+02  0.51100000000E-03 0.  1.
         11   -1    0    0    0    0 -0.00000000000E+00 -0.00000000000E+00 -0.45593999997E+02  0.45594000000E+02  0.51100000000E-03 0. -1.
    9900012    2    1    2    0    0 -0.25895484605E+02 -0.26367822574E+02 -0.22754884058E+02  0.47787274906E+02  0.20000017605E+02 0.  0.
        -12    1    1    2    0    0  0.25895484605E+02  0.26367822574E+02  0.22754884058E+02  0.43400725094E+02  0.00000000000E+00 0.  1.
         11    1    3    3    0    0  0.80832804082E+00 -0.46719596065E+01 -0.43387768135E+01  0.64269421411E+01  0.51100000000E-03 0. -1.
        -11    1    3    3    0    0 -0.12441151155E+02 -0.18135151565E+02 -0.13750592995E+02  0.25937323923E+02  0.51100000000E-03 0.  1.
        -12    1    3    3    0    0 -0.14262661491E+02 -0.35607114021E+01 -0.46655142501E+01  0.15423008841E+02  0.00000000000E+00 0.  1.
</event>
<event>
 7    1  0.2732193E-010  0.4778727E+02  0.7816164E-02  0.1312668E+00
        -11   -1    0    0    0    0  0.00000000000E+00  0.00000000000E+00  0.45593999997E+02  0.45594000000E+02  0.51100000000E-03 0. -1.
         11   -1    0    0    0    0 -0.00000000000E+00 -0.00000000000E+00 -0.45593999997E+02  0.45594000000E+02  0.51100000000E-03 0.  1.
    9900012    2    1    2    0    0  0.14933693727E+02  0.27210528820E+02  0.30334722922E+02  0.47787268419E+02  0.19999988028E+02 0.  0.
        -12    1    1    2    0    0 -0.14933693727E+02 -0.27210528820E+02 -0.30334722922E+02  0.43400731581E+02  0.00000000000E+00 0.  1.
         11    1    3    3    0    0  0.47226440844E+01  0.13893220983E+02  0.80992362118E+01  0.16760745327E+02  0.51100000000E-03 0. -1.
        -11    1    3    3    0    0  0.78966834638E+01  0.61351622935E+01  0.21160680449E+02  0.23404534249E+02  0.51100000000E-03 0.  1.
        -12    1    3    3    0    0  0.23143661790E+01  0.71821455438E+01  0.10748062616E+01  0.76219888430E+01  0.00000000000E+00 0.  1.
</event>
<event>
 7    1  0.2732193E-010  0.4778726E+02  0.7816164E-02  0.1312668E+00
        -11   -1    0    0    0    0  0.00000000000E+00  0.00000000000E+00  0.45593999997E+02  0.45594000000E+02  0.51100000000E-03 0.  1.
         11   -1    0    0    0    0 -0.00000000000E+00 -0.00000000000E+00 -0.45593999997E+02  0.45594000000E+02  0.51100000000E-03 0. -1.
    9900012    2    1    2    0    0 -0.32190078220E+02 -0.18223786631E+02 -0.22700579100E+02  0.47787264678E+02  0.19999970975E+02 0.  0.
        -12    1    1    2    0    0  0.32190078220E+02  0.18223786631E+02  0.22700579100E+02  0.43400735322E+02  0.00000000000E+00 0.  1.
         11    1    3    3    0    0 -0.14685003704E+02 -0.34167117400E+01 -0.15430583567E+02  0.21573737793E+02  0.51100000000E-03 0. -1.
        -11    1    3    3    0    0 -0.85318827842E+01 -0.87766695210E+01  0.14474184860E+01  0.12325500893E+02  0.51100000000E-03 0.  1.
        -12    1    3    3    0    0 -0.89731917327E+01 -0.60304053695E+01 -0.87174140184E+01  0.13888025992E+02  0.00000000000E+00 0.  1.
</event>
<event>
 7    1  0.2732193E-010  0.4778727E+02  0.7816164E-02  0.1312668E+00
        -11   -1    0    0    0    0  0.00000000000E+00  0.00000000000E+00  0.45593999997E+02  0.45594000000E+02  0.51100000000E-03 0. -1.
         11   -1    0    0    0    0 -0.00000000000E+00 -0.00000000000E+00 -0.45593999997E+02  0.45594000000E+02  0.51100000000E-03 0.  1.
    9900012    2    1    2    0    0  0.19729318235E+02 -0.34214898968E+02  0.17992165252E+02  0.47787270515E+02  0.19999997586E+02 0.  0.
        -12    1    1    2    0    0 -0.19729318235E+02  0.34214898968E+02 -0.17992165252E+02  0.43400729485E+02  0.00000000000E+00 0.  1.
         11    1    3    3    0    0 -0.18457719223E+01  0.12299583286E+01  0.98282708482E+00  0.24260298471E+01  0.51100000000E-03 0. -1.
        -11    1    3    3    0    0  0.11787911020E+02 -0.15461163241E+02  0.49967712336E+01  0.20074116120E+02  0.51100000000E-03 0.  1.
         12    1    3    3    0    0  0.97871791369E+01 -0.19983694055E+02  0.12012566933E+02  0.25287124547E+02  0.00000000000E+00 0. -1.
</event>
<event>
 7    1  0.2732193E-010  0.4778724E+02  0.7816164E-02  0.1312668E+00
        -11   -1    0    0    0    0  0.00000000000E+00  0.00000000000E+00  0.45593999997E+02  0.45594000000E+02  0.51100000000E-03 0.  1.
         11   -1    0    0    0    0 -0.00000000000E+00 -0.00000000000E+00 -0.45593999997E+02  0.45594000000E+02  0.51100000000E-03 0. -1.
    9900012    2    1    2    0    0  0.13556161639E+02  0.18466304085E+02 -0.36862614622E+02  0.47787236623E+02  0.19999843058E+02 0.  0.
        -12    1    1    2    0    0 -0.13556161639E+02 -0.18466304085E+02  0.36862614622E+02  0.43400763377E+02  0.00000000000E+00 0.  1.
         11    1    3    3    0    0 -0.22151285619E+01  0.12193932785E+01 -0.27909699280E+01  0.37660626539E+01  0.51100000000E-03 0. -1.
        -11    1    3    3    0    0  0.41121288471E+01  0.14949651855E+02 -0.15151938479E+02  0.21679089791E+02  0.51100000000E-03 0.  1.
        -12    1    3    3    0    0  0.11659161354E+02  0.22972589518E+01 -0.18919706215E+02  0.22342084178E+02  0.00000000000E+00 0.  1.
</event>
<event>
 7    1  0.2732193E-010  0.4778726E+02  0.7816164E-02  0.1312668E+00
        -11   -1    0    0    0    0  0.00000000000E+00  0.00000000000E+00  0.45593999997E+02  0.45594000000E+02  0.51100000000E-03 0.  1.
         11   -1    0    0    0    0 -0.00000000000E+00 -0.00000000000E+00 -0.45593999997E+02  0.45594000000E+02  0.51100000000E-03 0. -1.
    9900012    2    1    2    0    0  0.40488190373E+02 -0.75466624888E+01 -0.13688641777E+02  0.47787255904E+02  0.19999930970E+02 0.  0.
        -12    1    1    2    0    0 -0.40488190373E+02  0.75466624888E+01  0.13688641777E+02  0.43400744096E+02  0.00000000000E+00 0.  1.
         11    1    3    3    0    0  0.36948574816E+02 -0.70835284683E+01 -0.83963116567E+01  0.38547005152E+02  0.51100000000E-03 0. -1.
        -11    1    3    3    0    0  0.43270899520E+01 -0.36981033356E+00 -0.64869044880E+01  0.78064330672E+01  0.51100000000E-03 0.  1.
         12    1    3    3    0    0 -0.78747439538E+00 -0.93323686905E-01  0.11945743678E+01  0.14338176851E+01  0.00000000000E+00 0. -1.
</event>
<event>
 7    1  0.2732193E-010  0.4778727E+02  0.7816164E-02  0.1312668E+00
        -11   -1    0    0    0    0  0.00000000000E+00  0.00000000000E+00  0.45593999997E+02  0.45594000000E+02  0.51100000000E-03 0.  1.
         11   -1    0    0    0    0 -0.00000000000E+00 -0.00000000000E+00 -0.45593999997E+02  0.45594000000E+02  0.51100000000E-03 0. -1.
    9900012    2    1    2    0    0  0.19631695761E+02  0.68743359678E+01 -0.38091510302E+02  0.47787272696E+02  0.20000007528E+02 0.  0.
        -12    1    1    2    0    0 -0.19631695761E+02 -0.68743359678E+01  0.38091510302E+02  0.43400727304E+02  0.00000000000E+00 0.  1.
         11    1    3    3    0    0  0.32529126388E+01 -0.37460936265E+00 -0.10178188068E+02  0.10691926179E+02  0.51100000000E-03 0. -1.
        -11    1    3    3    0    0  0.12926603283E+02 -0.45741978992E+00 -0.25026116121E+02  0.28171134050E+02  0.51100000000E-03 0.  1.
        -12    1    3    3    0    0  0.34521798383E+01  0.77063651204E+01 -0.28872061138E+01  0.89242124665E+01  0.00000000000E+00 0.  1.
</event>
<event>
 7    1  0.2732193E-010  0.4778727E+02  0.7816164E-02  0.1312668E+00
        -11   -1    0    0    0    0  0.00000000000E+00  0.00000000000E+00  0.45593999997E+02  0.45594000000E+02  0.51100000000E-03 0.  1.
         11   -1    0    0    0    0 -0.00000000000E+00 -0.00000000000E+00 -0.45593999997E+02  0.45594000000E+02  0.51100000000E-03 0. -1.
    9900012    2    1    2    0    0 -0.13899410739E+02  0.32325813481E+02 -0.25406125557E+02  0.47787273602E+02  0.20000011660E+02 0.  0.
        -12    1    1    2    0    0  0.13899410739E+02 -0.32325813481E+02  0.25406125557E+02  0.43400726398E+02  0.00000000000E+00 0.  1.
         11    1    3    3    0    0 -0.10064215437E+02  0.17355313063E+02 -0.12191105951E+02  0.23475910812E+02  0.51100000000E-03 0. -1.
        -11    1    3    3    0    0  0.33431987072E+01  0.12093341180E+02 -0.94648572428E+01  0.15716532741E+02  0.51100000000E-03 0.  1.
        -12    1    3    3    0    0 -0.71783940093E+01  0.28771592379E+01 -0.37501623631E+01  0.85948300496E+01  0.00000000000E+00 0.  1.
</event>
<event>
 7    1  0.2732193E-010  0.4778727E+02  0.7816164E-02  0.1312668E+00
        -11   -1    0    0    0    0  0.00000000000E+00  0.00000000000E+00  0.45593999997E+02  0.45594000000E+02  0.51100000000E-03 0.  1.
         11   -1    0    0    0    0 -0.00000000000E+00 -0.00000000000E+00 -0.45593999997E+02  0.45594000000E+02  0.51100000000E-03 0. -1.
    9900012    2    1    2    0    0  0.38067852253E+02  0.19743400073E+02 -0.66827991041E+01  0.47787273906E+02  0.20000013046E+02 0.  0.
        -12    1    1    2    0    0 -0.38067852253E+02 -0.19743400073E+02  0.66827991041E+01  0.43400726094E+02  0.00000000000E+00 0.  1.
         11    1    3    3    0    0  0.83471759397E+01  0.11452263524E+02  0.22088132561E+01  0.14342543089E+02  0.51100000000E-03 0. -1.
        -11    1    3    3    0    0  0.93549370986E+01  0.37603152886E+01 -0.74406638303E+01  0.12530694222E+02  0.51100000000E-03 0.  1.
         12    1    3    3    0    0  0.20365739215E+02  0.45308212611E+01 -0.14509485299E+01  0.20914036595E+02  0.00000000000E+00 0. -1.
</event>
<event>
 7    1  0.2732193E-010  0.4778727E+02  0.7816164E-02  0.1312668E+00
        -11   -1    0    0    0    0  0.00000000000E+00  0.00000000000E+00  0.45593999997E+02  0.45594000000E+02  0.51100000000E-03 0. -1.
         11   -1    0    0    0    0 -0.00000000000E+00 -0.00000000000E+00 -0.45593999997E+02  0.45594000000E+02  0.51100000000E-03 0.  1.
    9900012    2    1    2    0    0 -0.35724352254E+02 -0.15731870995E+02  0.18971083779E+02  0.47787272717E+02  0.20000007624E+02 0.  0.
        -12    1    1    2    0    0  0.35724352254E+02  0.15731870995E+02 -0.18971083779E+02  0.43400727283E+02  0.00000000000E+00 0.  1.
         11    1    3    3    0    0 -0.30231029595E+02 -0.19961018255E+02  0.16713389591E+02  0.39896049829E+02  0.51100000000E-03 0. -1.
        -11    1    3    3    0    0 -0.49441229684E+01  0.31119570352E+01  0.28643469324E+01  0.65063900994E+01  0.51100000000E-03 0.  1.
         12    1    3    3    0    0 -0.54919969108E+00  0.11171902243E+01 -0.60665274432E+00  0.13848327878E+01  0.00000000000E+00 0. -1.
</event>
<event>
 7    1  0.2732193E-010  0.4778727E+02  0.7816164E-02  0.1312668E+00
        -11   -1    0    0    0    0  0.00000000000E+00  0.00000000000E+00  0.45593999997E+02  0.45594000000E+02  0.51100000000E-03 0. -1.
         11   -1    0    0    0    0 -0.00000000000E+00 -0.00000000000E+00 -0.45593999997E+02  0.45594000000E+02  0.51100000000E-03 0.  1.
    9900012    2    1    2    0    0  0.33593806078E+02 -0.18431396794E+02 -0.20380457646E+02  0.47787271338E+02  0.20000001338E+02 0.  0.
        -12    1    1    2    0    0 -0.33593806078E+02  0.18431396794E+02  0.20380457646E+02  0.43400728662E+02  0.00000000000E+00 0.  1.
         11    1    3    3    0    0  0.33534768310E+02 -0.11198057734E+02 -0.17966962544E+02  0.39658402968E+02  0.51100000000E-03 0. -1.
        -11    1    3    3    0    0 -0.11354718914E+01 -0.19399038371E+01 -0.16142736307E+00  0.22535710258E+01  0.51100000000E-03 0.  1.
         12    1    3    3    0    0  0.11945096589E+01 -0.52934352230E+01 -0.22520677386E+01  0.58752973443E+01  0.00000000000E+00 0. -1.
</event>
<event>
 7    1  0.2732193E-010  0.4778727E+02  0.7816164E-02  0.1312668E+00
        -11   -1    0    0    0    0  0.00000000000E+00  0.00000000000E+00  0.45593999997E+02  0.45594000000E+02  0.51100000000E-03 0. -1.
         11   -1    0    0    0    0 -0.00000000000E+00 -0.00000000000E+00 -0.45593999997E+02  0.45594000000E+02  0.51100000000E-03 0.  1.
    9900012    2    1    2    0    0  0.24584082799E+02  0.10391235013E+02  0.34223799888E+02  0.47787269926E+02  0.19999994901E+02 0.  0.
        -12    1    1    2    0    0 -0.24584082799E+02 -0.10391235013E+02 -0.34223799888E+02  0.43400730074E+02  0.00000000000E+00 0.  1.
         11    1    3    3    0    0 -0.31611925373E+00 -0.64637245801E+00 -0.16158762686E+01  0.17688372208E+01  0.51100000000E-03 0. -1.
        -11    1    3    3    0    0  0.42866306160E+01 -0.16224319059E+01  0.44444465833E+01  0.63844023229E+01  0.51100000000E-03 0.  1.
         12    1    3    3    0    0  0.20613571436E+02  0.12660039377E+02  0.31395229574E+02  0.39634030383E+02  0.00000000000E+00 0. -1.
</event>
<event>
 7    1  0.2732193E-010  0.4778727E+02  0.7816164E-02  0.1312668E+00
        -11   -1    0    0    0    0  0.00000000000E+00  0.00000000000E+00  0.45593999997E+02  0.45594000000E+02  0.51100000000E-03 0.  1.
         11   -1    0    0    0    0 -0.00000000000E+00 -0.00000000000E+00 -0.45593999997E+02  0.45594000000E+02  0.51100000000E-03 0. -1.
    9900012    2    1    2    0    0  0.13899908125E+02 -0.40269633923E+02  0.82929119767E+01  0.47787271305E+02  0.20000001188E+02 0.  0.
        -12    1    1    2    0    0 -0.13899908125E+02  0.40269633923E+02 -0.82929119767E+01  0.43400728695E+02  0.00000000000E+00 0.  1.
         11    1    3    3    0    0 -0.15140207806E+00 -0.22503365580E+01 -0.40935709428E+01  0.46737843915E+01  0.51100000000E-03 0.  1.
        -11    1    3    3    0    0  0.30824132436E+01 -0.14896102172E+02  0.78634761127E+01  0.17123941957E+02  0.51100000000E-03 0. -1.
         12    1    3    3    0    0  0.10968896960E+02 -0.23123195193E+02  0.45230068068E+01  0.25989544956E+02  0.00000000000E+00 0. -1.
</event>
<event>
 7    1  0.2732193E-010  0.4778727E+02  0.7816164E-02  0.1312668E+00
        -11   -1    0    0    0    0  0.00000000000E+00  0.00000000000E+00  0.45593999997E+02  0.45594000000E+02  0.51100000000E-03 0.  1.
         11   -1    0    0    0    0 -0.00000000000E+00 -0.00000000000E+00 -0.45593999997E+02  0.45594000000E+02  0.51100000000E-03 0. -1.
    9900012    2    1    2    0    0 -0.12431659836E+02 -0.38380569069E+02 -0.16000286255E+02  0.47787269493E+02  0.19999992925E+02 0.  0.
        -12    1    1    2    0    0  0.12431659836E+02  0.38380569069E+02  0.16000286255E+02  0.43400730507E+02  0.00000000000E+00 0.  1.
         11    1    3    3    0    0 -0.86479643796E+01 -0.20753631143E+02 -0.78546422520E+01  0.23815874931E+02  0.51100000000E-03 0. -1.
        -11    1    3    3    0    0 -0.43771641340E+01 -0.87401529054E+00 -0.53648178517E+01  0.69788780923E+01  0.51100000000E-03 0.  1.
        -12    1    3    3    0    0  0.59346867749E+00 -0.16752922635E+02 -0.27808261511E+01  0.16992516470E+02  0.00000000000E+00 0.  1.
</event>
<event>
 7    1  0.2732193E-010  0.4778726E+02  0.7816164E-02  0.1312668E+00
        -11   -1    0    0    0    0  0.00000000000E+00  0.00000000000E+00  0.45593999997E+02  0.45594000000E+02  0.51100000000E-03 0. -1.
         11   -1    0    0    0    0 -0.00000000000E+00 -0.00000000000E+00 -0.45593999997E+02  0.45594000000E+02  0.51100000000E-03 0.  1.
    9900012    2    1    2    0    0  0.39349252058E+02 -0.10042458561E+02  0.15310446873E+02  0.47787258129E+02  0.19999941112E+02 0.  0.
        -12    1    1    2    0    0 -0.39349252058E+02  0.10042458561E+02 -0.15310446873E+02  0.43400741871E+02  0.00000000000E+00 0.  1.
         11    1    3    3    0    0  0.53155213802E+01  0.17902115073E+01  0.79389367132E+01  0.97204084884E+01  0.51100000000E-03 0. -1.
        -11    1    3    3    0    0  0.97442295729E+01 -0.81133781788E+01  0.12363028383E+01  0.12739912104E+02  0.51100000000E-03 0.  1.
        -12    1    3    3    0    0  0.24289501105E+02 -0.37192918900E+01  0.61352073215E+01  0.25326937537E+02  0.00000000000E+00 0.  1.
</event>
<event>
 7    1  0.2732193E-010  0.4778727E+02  0.7816164E-02  0.1312668E+00
        -11   -1    0    0    0    0  0.00000000000E+00  0.00000000000E+00  0.45593999997E+02  0.45594000000E+02  0.51100000000E-03 0.  1.
         11   -1    0    0    0    0 -0.00000000000E+00 -0.00000000000E+00 -0.45593999997E+02  0.45594000000E+02  0.51100000000E-03 0. -1.
    9900012    2    1    2    0    0  0.22870952964E+02  0.76091691329E+01 -0.36092148532E+02  0.47787272701E+02  0.20000007555E+02 0.  0.
        -12    1    1    2    0    0 -0.22870952964E+02 -0.76091691329E+01  0.36092148532E+02  0.43400727299E+02  0.00000000000E+00 0.  1.
         11    1    3    3    0    0  0.74902587637E+01  0.83358315817E+01 -0.44395822561E+01  0.12054043113E+02  0.51100000000E-03 0. -1.
        -11    1    3    3    0    0  0.87017257603E+01 -0.31875069161E+01 -0.15127485338E+02  0.17740378927E+02  0.51100000000E-03 0.  1.
         12    1    3    3    0    0  0.66789684398E+01  0.24608444673E+01 -0.16525080938E+02  0.17992850662E+02  0.00000000000E+00 0. -1.
</event>
<event>
 7    1  0.2732193E-010  0.4778727E+02  0.7816164E-02  0.1312668E+00
        -11   -1    0    0    0    0  0.00000000000E+00  0.00000000000E+00  0.45593999997E+02  0.45594000000E+02  0.51100000000E-03 0. -1.
         11   -1    0    0    0    0 -0.00000000000E+00 -0.00000000000E+00 -0.45593999997E+02  0.45594000000E+02  0.51100000000E-03 0.  1.
    9900012    2    1    2    0    0 -0.20914072163E+02  0.66219378179E+01  0.37448294294E+02  0.47787271660E+02  0.20000002808E+02 0.  0.
        -12    1    1    2    0    0  0.20914072163E+02 -0.66219378179E+01 -0.37448294294E+02  0.43400728340E+02  0.00000000000E+00 0.  1.
         11    1    3    3    0    0  0.17471063233E+01  0.71931831482E+00  0.10772220124E+02  0.10936659727E+02  0.51100000000E-03 0. -1.
        -11    1    3    3    0    0 -0.23108669987E+02  0.70114547394E+01  0.25966192928E+02  0.35460038093E+02  0.51100000000E-03 0.  1.
        -12    1    3    3    0    0  0.44749150119E+00 -0.11088352363E+01  0.70988124266E+00  0.13905738397E+01  0.00000000000E+00 0.  1.
</event>
<event>
 7    1  0.2732193E-010  0.4778727E+02  0.7816164E-02  0.1312668E+00
        -11   -1    0    0    0    0  0.00000000000E+00  0.00000000000E+00  0.45593999997E+02  0.45594000000E+02  0.51100000000E-03 0.  1.
         11   -1    0    0    0    0 -0.00000000000E+00 -0.00000000000E+00 -0.45593999997E+02  0.45594000000E+02  0.51100000000E-03 0. -1.
    9900012    2    1    2    0    0 -0.43185437698E+01  0.32713342780E+02 -0.28192382919E+02  0.47787273384E+02  0.20000010667E+02 0.  0.
        -12    1    1    2    0    0  0.43185437698E+01 -0.32713342780E+02  0.28192382919E+02  0.43400726616E+02  0.00000000000E+00 0.  1.
         11    1    3    3    0    0 -0.35768579874E+01  0.18422470926E+02 -0.15973169515E+02  0.24643934197E+02  0.51100000000E-03 0. -1.
        -11    1    3    3    0    0 -0.39903410457E+01 -0.19057317000E+00 -0.56340538687E+01  0.69066419519E+01  0.51100000000E-03 0.  1.
        -12    1    3    3    0    0  0.32486552634E+01  0.14481445024E+02 -0.65851595354E+01  0.16236697235E+02  0.00000000000E+00 0.  1.
</event>
<event>
 7    1  0.2732193E-010  0.4778727E+02  0.7816164E-02  0.1312668E+00
        -11   -1    0    0    0    0  0.00000000000E+00  0.00000000000E+00  0.45593999997E+02  0.45594000000E+02  0.51100000000E-03 0.  1.
         11   -1    0    0    0    0 -0.00000000000E+00 -0.00000000000E+00 -0.45593999997E+02  0.45594000000E+02  0.51100000000E-03 0. -1.
    9900012    2    1    2    0    0  0.63395732904E+00  0.36865456663E+02 -0.22894534977E+02  0.47787268109E+02  0.19999986615E+02 0.  0.
        -12    1    1    2    0    0 -0.63395732904E+00 -0.36865456663E+02  0.22894534977E+02  0.43400731891E+02  0.00000000000E+00 0.  1.
         11    1    3    3    0    0 -0.11076575667E+01  0.29143303091E+01 -0.10198582056E+02  0.10664487922E+02  0.51100000000E-03 0. -1.
        -11    1    3    3    0    0 -0.81135154383E+00  0.36134636516E+01 -0.40198612163E+01  0.54657749083E+01  0.51100000000E-03 0.  1.
         12    1    3    3    0    0  0.25529664396E+01  0.30337662703E+02 -0.86760917047E+01  0.31657005278E+02  0.00000000000E+00 0. -1.
</event>
<event>
 7    1  0.2732193E-010  0.4778727E+02  0.7816164E-02  0.1312668E+00
        -11   -1    0    0    0    0  0.00000000000E+00  0.00000000000E+00  0.45593999997E+02  0.45594000000E+02  0.51100000000E-03 0. -1.
         11   -1    0    0    0    0 -0.00000000000E+00 -0.00000000000E+00 -0.45593999997E+02  0.45594000000E+02  0.51100000000E-03 0.  1.
    9900012    2    1    2    0    0  0.10073117419E+01  0.21674587733E+02  0.37587511449E+02  0.47787269047E+02  0.19999990893E+02 0.  0.
        -12    1    1    2    0    0 -0.10073117419E+01 -0.21674587733E+02 -0.37587511449E+02  0.43400730953E+02  0.00000000000E+00 0.  1.
         11    1    3    3    0    0  0.66511844989E+01  0.15293592031E+02  0.27929012898E+02  0.32529401688E+02  0.51100000000E-03 0. -1.
        -11    1    3    3    0    0 -0.21367247046E+01  0.74616394085E+01  0.82496053376E+01  0.11326854974E+02  0.51100000000E-03 0.  1.
         12    1    3    3    0    0 -0.35071480523E+01 -0.10806437062E+01  0.14088932125E+01  0.39310123842E+01  0.00000000000E+00 0. -1.
</event>
<event>
 7    1  0.2732193E-010  0.4778723E+02  0.7816164E-02  0.1312668E+00
        -11   -1    0    0    0    0  0.00000000000E+00  0.00000000000E+00  0.45593999997E+02  0.45594000000E+02  0.51100000000E-03 0.  1.
         11   -1    0    0    0    0 -0.00000000000E+00 -0.00000000000E+00 -0.45593999997E+02  0.45594000000E+02  0.51100000000E-03 0. -1.
    9900012    2    1    2    0    0 -0.24385835511E+02 -0.22794004724E+02 -0.27737903808E+02  0.47787228894E+02  0.19999807816E+02 0.  0.
        -12    1    1    2    0    0  0.24385835511E+02  0.22794004724E+02  0.27737903808E+02  0.43400771106E+02  0.00000000000E+00 0.  1.
         11    1    3    3    0    0 -0.42732391483E+01 -0.14266715228E+01 -0.59015425341E+01  0.74245652395E+01  0.51100000000E-03 0. -1.
        -11    1    3    3    0    0 -0.11735235694E+02 -0.35644769277E+01 -0.20059156723E+01  0.12427588282E+02  0.51100000000E-03 0.  1.
        -12    1    3    3    0    0 -0.83773606693E+01 -0.17802856274E+02 -0.19830445602E+02  0.27935075372E+02  0.00000000000E+00 0.  1.
</event>
<event>
 7    1  0.2732193E-010  0.4778727E+02  0.7816164E-02  0.1312668E+00
        -11   -1    0    0    0    0  0.00000000000E+00  0.00000000000E+00  0.45593999997E+02  0.45594000000E+02  0.51100000000E-03 0.  1.
         11   -1    0    0    0    0 -0.00000000000E+00 -0.00000000000E+00 -0.45593999997E+02  0.45594000000E+02  0.51100000000E-03 0. -1.
    9900012    2    1    2    0    0 -0.19312855791E+02 -0.36746081812E+02 -0.12663422875E+02  0.47787271823E+02  0.20000003550E+02 0.  0.
        -12    1    1    2    0    0  0.19312855791E+02  0.36746081812E+02  0.12663422875E+02  0.43400728177E+02  0.00000000000E+00 0.  1.
         11    1    3    3    0    0 -0.27306527636E-01 -0.96854799389E+01 -0.62844304131E+01  0.11545706266E+02  0.51100000000E-03 0. -1.
        -11    1    3    3    0    0 -0.19226150688E+02 -0.17248100350E+02 -0.53266318431E+01  0.26372615400E+02  0.51100000000E-03 0.  1.
        -12    1    3    3    0    0 -0.59398575358E-01 -0.98125015236E+01 -0.10523606190E+01  0.98689501576E+01  0.00000000000E+00 0.  1.
</event>
<event>
 7    1  0.2732193E-010  0.4778727E+02  0.7816164E-02  0.1312668E+00
        -11   -1    0    0    0    0  0.00000000000E+00  0.00000000000E+00  0.45593999997E+02  0.45594000000E+02  0.51100000000E-03 0.  1.
         11   -1    0    0    0    0 -0.00000000000E+00 -0.00000000000E+00 -0.45593999997E+02  0.45594000000E+02  0.51100000000E-03 0. -1.
    9900012    2    1    2    0    0  0.14108850086E+02 -0.27920841794E+02 -0.30083057831E+02  0.47787269296E+02  0.19999992026E+02 0.  0.
        -12    1    1    2    0    0 -0.14108850086E+02  0.27920841794E+02  0.30083057831E+02  0.43400730704E+02  0.00000000000E+00 0.  1.
         11    1    3    3    0    0  0.37844592378E+00 -0.12164258137E+02 -0.41152223521E+01  0.12847079536E+02  0.51100000000E-03 0. -1.
        -11    1    3    3    0    0  0.63870186742E+00 -0.56116014483E+01 -0.24044797351E+01  0.61383657391E+01  0.51100000000E-03 0.  1.
         12    1    3    3    0    0  0.13091702295E+02 -0.10144982209E+02 -0.23563355744E+02  0.28801824020E+02  0.00000000000E+00 0. -1.
</event>
<event>
 7    1  0.2732193E-010  0.4778727E+02  0.7816164E-02  0.1312668E+00
        -11   -1    0    0    0    0  0.00000000000E+00  0.00000000000E+00  0.45593999997E+02  0.45594000000E+02  0.51100000000E-03 0. -1.
         11   -1    0    0    0    0 -0.00000000000E+00 -0.00000000000E+00 -0.45593999997E+02  0.45594000000E+02  0.51100000000E-03 0.  1.
    9900012    2    1    2    0    0  0.18916937764E+02  0.33228133197E+02  0.20534451574E+02  0.47787273375E+02  0.20000010627E+02 0.  0.
        -12    1    1    2    0    0 -0.18916937764E+02 -0.33228133197E+02 -0.20534451574E+02  0.43400726625E+02  0.00000000000E+00 0.  1.
         11    1    3    3    0    0 -0.15665427831E+01  0.69824386620E+01  0.87649586455E+01  0.11315167090E+02  0.51100000000E-03 0.  1.
        -11    1    3    3    0    0  0.18350843287E+02  0.19678893384E+02  0.62278342447E+01  0.27618801817E+02  0.51100000000E-03 0. -1.
         12    1    3    3    0    0  0.21326372600E+01  0.65668011503E+01  0.55416586842E+01  0.88533044680E+01  0.00000000000E+00 0. -1.
</event>
<event>
 7    1  0.2732193E-010  0.4778727E+02  0.7816164E-02  0.1312668E+00
        -11   -1    0    0    0    0  0.00000000000E+00  0.00000000000E+00  0.45593999997E+02  0.45594000000E+02  0.51100000000E-03 0. -1.
         11   -1    0    0    0    0 -0.00000000000E+00 -0.00000000000E+00 -0.45593999997E+02  0.45594000000E+02  0.51100000000E-03 0.  1.
    9900012    2    1    2    0    0  0.30849916503E+01 -0.16586831413E+01  0.43259156069E+02  0.47787274349E+02  0.20000015065E+02 0.  0.
        -12    1    1    2    0    0 -0.30849916503E+01  0.16586831413E+01 -0.43259156069E+02  0.43400725651E+02  0.00000000000E+00 0.  1.
         11    1    3    3    0    0 -0.32176352771E+01  0.31803912893E+01  0.16249249549E+02  0.16867310891E+02  0.51100000000E-03 0. -1.
        -11    1    3    3    0    0  0.15624796023E+01 -0.66130236985E+01  0.52714372842E+01  0.86000858279E+01  0.51100000000E-03 0.  1.
        -12    1    3    3    0    0  0.47401473251E+01  0.17739492680E+01  0.21738469237E+02  0.22319877630E+02  0.00000000000E+00 0.  1.
</event>
<event>
 7    1  0.2732193E-010  0.4778727E+02  0.7816164E-02  0.1312668E+00
        -11   -1    0    0    0    0  0.00000000000E+00  0.00000000000E+00  0.45593999997E+02  0.45594000000E+02  0.51100000000E-03 0.  1.
         11   -1    0    0    0    0 -0.00000000000E+00 -0.00000000000E+00 -0.45593999997E+02  0.45594000000E+02  0.51100000000E-03 0. -1.
    9900012    2    1    2    0    0  0.16274898035E+02 -0.39585846255E+02  0.71911058306E+01  0.47787268061E+02  0.19999986396E+02 0.  0.
        -12    1    1    2    0    0 -0.16274898035E+02  0.39585846255E+02 -0.71911058306E+01  0.43400731939E+02  0.00000000000E+00 0.  1.
         11    1    3    3    0    0  0.17186770596E+02 -0.32653187736E+02  0.48757090961E+01  0.37220804562E+02  0.51100000000E-03 0. -1.
        -11    1    3    3    0    0 -0.32847755697E+01 -0.34004520408E+00  0.79817257507E+00  0.33974197569E+01  0.51100000000E-03 0.  1.
        -12    1    3    3    0    0  0.23729030092E+01 -0.65926133154E+01  0.15172241593E+01  0.71690437415E+01  0.00000000000E+00 0.  1.
</event>
<event>
 7    1  0.2732193E-010  0.4778727E+02  0.7816164E-02  0.1312668E+00
        -11   -1    0    0    0    0  0.00000000000E+00  0.00000000000E+00  0.45593999997E+02  0.45594000000E+02  0.51100000000E-03 0.  1.
         11   -1    0    0    0    0 -0.00000000000E+00 -0.00000000000E+00 -0.45593999997E+02  0.45594000000E+02  0.51100000000E-03 0. -1.
    9900012    2    1    2    0    0  0.99351894431E+01 -0.19520113767E+02 -0.37468391926E+02  0.47787271616E+02  0.20000002605E+02 0.  0.
        -12    1    1    2    0    0 -0.99351894431E+01  0.19520113767E+02  0.37468391926E+02  0.43400728384E+02  0.00000000000E+00 0.  1.
         11    1    3    3    0    0  0.20223714736E+01 -0.16097143347E+02 -0.19792480520E+02  0.25591996712E+02  0.51100000000E-03 0. -1.
        -11    1    3    3    0    0  0.75775774560E+00  0.88220507660E+00 -0.12096792748E+02  0.12152566710E+02  0.51100000000E-03 0.  1.
         12    1    3    3    0    0  0.71550602239E+01 -0.43051754963E+01 -0.55791186583E+01  0.10042708194E+02  0.00000000000E+00 0. -1.
</event>
<event>
 7    1  0.2732193E-010  0.4778727E+02  0.7816164E-02  0.1312668E+00
        -11   -1    0    0    0    0  0.00000000000E+00  0.00000000000E+00  0.45593999997E+02  0.45594000000E+02  0.51100000000E-03 0. -1.
         11   -1    0    0    0    0 -0.00000000000E+00 -0.00000000000E+00 -0.45593999997E+02  0.45594000000E+02  0.51100000000E-03 0.  1.
    9900012    2    1    2    0    0 -0.23861292972E+02  0.31971017472E+02  0.17091395526E+02  0.47787273491E+02  0.20000011154E+02 0.  0.
        -12    1    1    2    0    0  0.23861292972E+02 -0.31971017472E+02 -0.17091395526E+02  0.43400726509E+02  0.00000000000E+00 0.  1.
         11    1    3    3    0    0 -0.17704417333E+02  0.18183655281E+02  0.10097393344E+02  0.27313898753E+02  0.51100000000E-03 0. -1.
        -11    1    3    3    0    0  0.11979479354E+01  0.32666341193E+00 -0.22459797559E+01  0.25663619319E+01  0.51100000000E-03 0.  1.
         12    1    3    3    0    0 -0.73548235747E+01  0.13460698779E+02  0.92399819373E+01  0.17907012806E+02  0.00000000000E+00 0. -1.
</event>
<event>
 7    1  0.2732193E-010  0.4778727E+02  0.7816164E-02  0.1312668E+00
        -11   -1    0    0    0    0  0.00000000000E+00  0.00000000000E+00  0.45593999997E+02  0.45594000000E+02  0.51100000000E-03 0.  1.
         11   -1    0    0    0    0 -0.00000000000E+00 -0.00000000000E+00 -0.45593999997E+02  0.45594000000E+02  0.51100000000E-03 0. -1.
    9900012    2    1    2    0    0 -0.35321358731E+02 -0.19282783106E+02 -0.16254203542E+02  0.47787271438E+02  0.20000001795E+02 0.  0.
        -12    1    1    2    0    0  0.35321358731E+02  0.19282783106E+02  0.16254203542E+02  0.43400728562E+02  0.00000000000E+00 0.  1.
         11    1    3    3    0    0 -0.78966491781E+01 -0.17050699278E+01 -0.95509159472E+01  0.12509369584E+02  0.51100000000E-03 0. -1.
        -11    1    3    3    0    0 -0.19831019313E+02 -0.14890154127E+02 -0.89018540303E-03  0.24798911628E+02  0.51100000000E-03 0.  1.
        -12    1    3    3    0    0 -0.75936902405E+01 -0.26875590508E+01 -0.67023974090E+01  0.10478990226E+02  0.00000000000E+00 0.  1.
</event>
<event>
 7    1  0.2732193E-010  0.4778727E+02  0.7816164E-02  0.1312668E+00
        -11   -1    0    0    0    0  0.00000000000E+00  0.00000000000E+00  0.45593999997E+02  0.45594000000E+02  0.51100000000E-03 0.  1.
         11   -1    0    0    0    0 -0.00000000000E+00 -0.00000000000E+00 -0.45593999997E+02  0.45594000000E+02  0.51100000000E-03 0. -1.
    9900012    2    1    2    0    0  0.52856452041E+01  0.32248111598E+02 -0.28561242772E+02  0.47787270334E+02  0.19999996760E+02 0.  0.
        -12    1    1    2    0    0 -0.52856452041E+01 -0.32248111598E+02  0.28561242772E+02  0.43400729666E+02  0.00000000000E+00 0.  1.
         11    1    3    3    0    0  0.35255374291E+01  0.41530635981E+01  0.21526710520E+00  0.54519438370E+01  0.51100000000E-03 0.  1.
        -11    1    3    3    0    0  0.26412781846E+01  0.22387376031E+02 -0.28783067976E+02  0.36560032253E+02  0.51100000000E-03 0. -1.
        -12    1    3    3    0    0 -0.88117040962E+00  0.57076719688E+01  0.65580979416E-02  0.57752942438E+01  0.00000000000E+00 0.  1.
</event>
<event>
 7    1  0.2732193E-010  0.4778728E+02  0.7816164E-02  0.1312668E+00
        -11   -1    0    0    0    0  0.00000000000E+00  0.00000000000E+00  0.45593999997E+02  0.45594000000E+02  0.51100000000E-03 0. -1.
         11   -1    0    0    0    0 -0.00000000000E+00 -0.00000000000E+00 -0.45593999997E+02  0.45594000000E+02  0.51100000000E-03 0.  1.
    9900012    2    1    2    0    0  0.16970986707E+02 -0.11786044529E+02  0.38166705171E+02  0.47787278589E+02  0.20000034397E+02 0.  0.
        -12    1    1    2    0    0 -0.16970986707E+02  0.11786044529E+02 -0.38166705171E+02  0.43400721411E+02  0.00000000000E+00 0.  1.
         11    1    3    3    0    0  0.27574398240E+01  0.39124864667E+01  0.11175878671E+02  0.12157766615E+02  0.51100000000E-03 0. -1.
        -11    1    3    3    0    0  0.12388674240E+02 -0.12970280778E+02  0.15586667070E+02  0.23762399363E+02  0.51100000000E-03 0.  1.
         12    1    3    3    0    0  0.18248726430E+01 -0.27282502173E+01  0.11404159429E+02  0.11867112610E+02  0.00000000000E+00 0. -1.
</event>
<event>
 7    1  0.2732193E-010  0.4778727E+02  0.7816164E-02  0.1312668E+00
        -11   -1    0    0    0    0  0.00000000000E+00  0.00000000000E+00  0.45593999997E+02  0.45594000000E+02  0.51100000000E-03 0. -1.
         11   -1    0    0    0    0 -0.00000000000E+00 -0.00000000000E+00 -0.45593999997E+02  0.45594000000E+02  0.51100000000E-03 0.  1.
    9900012    2    1    2    0    0  0.94870147246E+00  0.31399620654E+02  0.29946406352E+02  0.47787268841E+02  0.19999989954E+02 0.  0.
        -12    1    1    2    0    0 -0.94870147246E+00 -0.31399620654E+02 -0.29946406352E+02  0.43400731159E+02  0.00000000000E+00 0.  1.
         11    1    3    3    0    0 -0.25565548060E+01  0.31948073881E+02  0.21567184222E+02  0.38631060466E+02  0.51100000000E-03 0. -1.
        -11    1    3    3    0    0  0.16686330100E+01 -0.77337434600E+00  0.40383669883E+01  0.44374375707E+01  0.51100000000E-03 0.  1.
         12    1    3    3    0    0  0.18366232685E+01  0.22492111881E+00  0.43408551421E+01  0.47187708044E+01  0.00000000000E+00 0. -1.
</event>
<event>
 7    1  0.2732193E-010  0.4778727E+02  0.7816164E-02  0.1312668E+00
        -11   -1    0    0    0    0  0.00000000000E+00  0.00000000000E+00  0.45593999997E+02  0.45594000000E+02  0.51100000000E-03 0.  1.
         11   -1    0    0    0    0 -0.00000000000E+00 -0.00000000000E+00 -0.45593999997E+02  0.45594000000E+02  0.51100000000E-03 0. -1.
    9900012    2    1    2    0    0  0.16775455419E+02  0.30659332786E+02 -0.25733491434E+02  0.47787272209E+02  0.20000005311E+02 0.  0.
        -12    1    1    2    0    0 -0.16775455419E+02 -0.30659332786E+02  0.25733491434E+02  0.43400727791E+02  0.00000000000E+00 0.  1.
         11    1    3    3    0    0  0.82273290608E+01  0.23063497266E+02 -0.15064672846E+02  0.28749925527E+02  0.51100000000E-03 0. -1.
        -11    1    3    3    0    0  0.27353459417E+00  0.66018389933E+01 -0.17597514062E+01  0.68378230849E+01  0.51100000000E-03 0.  1.
         12    1    3    3    0    0  0.82745917639E+01  0.99399652686E+00 -0.89090671814E+01  0.12199523597E+02  0.00000000000E+00 0. -1.
</event>
<event>
 7    1  0.2732193E-010  0.4778727E+02  0.7816164E-02  0.1312668E+00
        -11   -1    0    0    0    0  0.00000000000E+00  0.00000000000E+00  0.45593999997E+02  0.45594000000E+02  0.51100000000E-03 0. -1.
         11   -1    0    0    0    0 -0.00000000000E+00 -0.00000000000E+00 -0.45593999997E+02  0.45594000000E+02  0.51100000000E-03 0.  1.
    9900012    2    1    2    0    0 -0.17635463964E+02 -0.37449294084E+02  0.13044714193E+02  0.47787265156E+02  0.19999973150E+02 0.  0.
        -12    1    1    2    0    0  0.17635463964E+02  0.37449294084E+02 -0.13044714193E+02  0.43400734844E+02  0.00000000000E+00 0.  1.
         11    1    3    3    0    0 -0.17065885447E+02 -0.20182578362E+02  0.45086651016E+01  0.26812478003E+02  0.51100000000E-03 0. -1.
        -11    1    3    3    0    0  0.41600003310E+00 -0.82702224668E+01  0.85802537224E+01  0.11924361194E+02  0.51100000000E-03 0.  1.
         12    1    3    3    0    0 -0.98557855047E+00 -0.89964932559E+01 -0.44204630701E-01  0.90504259585E+01  0.00000000000E+00 0. -1.
</event>
<event>
 7    1  0.2732193E-010  0.4778727E+02  0.7816164E-02  0.1312668E+00
        -11   -1    0    0    0    0  0.00000000000E+00  0.00000000000E+00  0.45593999997E+02  0.45594000000E+02  0.51100000000E-03 0.  1.
         11   -1    0    0    0    0 -0.00000000000E+00 -0.00000000000E+00 -0.45593999997E+02  0.45594000000E+02  0.51100000000E-03 0. -1.
    9900012    2    1    2    0    0  0.33375997235E+00  0.29501835651E+02 -0.31830073960E+02  0.47787270619E+02  0.19999998061E+02 0.  0.
        -12    1    1    2    0    0 -0.33375997235E+00 -0.29501835651E+02  0.31830073960E+02  0.43400729381E+02  0.00000000000E+00 0.  1.
         11    1    3    3    0    0 -0.82746281930E+00  0.44653139543E+01 -0.15729214533E+02  0.16371680229E+02  0.51100000000E-03 0. -1.
        -11    1    3    3    0    0 -0.34347079775E+01  0.83242395455E+01 -0.23932940915E+01  0.93176198555E+01  0.51100000000E-03 0.  1.
         12    1    3    3    0    0  0.45959307692E+01  0.16712282151E+02 -0.13707565335E+02  0.22097970535E+02  0.00000000000E+00 0. -1.
</event>
<event>
 7    1  0.2732193E-010  0.4778728E+02  0.7816164E-02  0.1312668E+00
        -11   -1    0    0    0    0  0.00000000000E+00  0.00000000000E+00  0.45593999997E+02  0.45594000000E+02  0.51100000000E-03 0. -1.
         11   -1    0    0    0    0 -0.00000000000E+00 -0.00000000000E+00 -0.45593999997E+02  0.45594000000E+02  0.51100000000E-03 0.  1.
    9900012    2    1    2    0    0 -0.26849193323E+02  0.25569183723E+02  0.22560142992E+02  0.47787281225E+02  0.20000046417E+02 0.  0.
        -12    1    1    2    0    0  0.26849193323E+02 -0.25569183723E+02 -0.22560142992E+02  0.43400718775E+02  0.00000000000E+00 0.  1.
         11    1    3    3    0    0 -0.88250978514E+01  0.19009480793E+02  0.17187845209E+02  0.27104699506E+02  0.51100000000E-03 0. -1.
        -11    1    3    3    0    0 -0.12635158987E+02  0.20669047009E+01  0.46830523299E+01  0.13632692950E+02  0.51100000000E-03 0.  1.
         12    1    3    3    0    0 -0.53889364848E+01  0.44927982290E+01  0.68924545272E+00  0.70498887692E+01  0.00000000000E+00 0. -1.
</event>
<event>
 7    1  0.2732193E-010  0.4778727E+02  0.7816164E-02  0.1312668E+00
        -11   -1    0    0    0    0  0.00000000000E+00  0.00000000000E+00  0.45593999997E+02  0.45594000000E+02  0.51100000000E-03 0. -1.
         11   -1    0    0    0    0 -0.00000000000E+00 -0.00000000000E+00 -0.45593999997E+02  0.45594000000E+02  0.51100000000E-03 0.  1.
    9900012    2    1    2    0    0  0.29407718616E+02  0.35759735960E+01  0.31717845153E+02  0.47787271867E+02  0.20000003748E+02 0.  0.
        -12    1    1    2    0    0 -0.29407718616E+02 -0.35759735960E+01 -0.31717845153E+02  0.43400728133E+02  0.00000000000E+00 0.  1.
         11    1    3    3    0    0  0.16425732545E+02 -0.15894194991E+01  0.24494816474E+02  0.29535182044E+02  0.51100000000E-03 0. -1.
        -11    1    3    3    0    0  0.13378366394E+02  0.23511701439E+01  0.44822492709E+01  0.14303819322E+02  0.51100000000E-03 0.  1.
        -12    1    3    3    0    0 -0.39638032353E+00  0.28142229512E+01  0.27407794081E+01  0.39482705003E+01  0.00000000000E+00 0.  1.
</event>
<event>
 7    1  0.2732193E-010  0.4778729E+02  0.7816164E-02  0.1312668E+00
        -11   -1    0    0    0    0  0.00000000000E+00  0.00000000000E+00  0.45593999997E+02  0.45594000000E+02  0.51100000000E-03 0.  1.
         11   -1    0    0    0    0 -0.00000000000E+00 -0.00000000000E+00 -0.45593999997E+02  0.45594000000E+02  0.51100000000E-03 0. -1.
    9900012    2    1    2    0    0 -0.17435804793E+02 -0.10721311226E+02 -0.38270981831E+02  0.47787287408E+02  0.20000074607E+02 0.  0.
        -12    1    1    2    0    0  0.17435804793E+02  0.10721311226E+02  0.38270981831E+02  0.43400712592E+02  0.00000000000E+00 0.  1.
         11    1    3    3    0    0 -0.36894769725E+01 -0.28703418181E+01 -0.68398231296E+01  0.82845810509E+01  0.51100000000E-03 0. -1.
        -11    1    3    3    0    0 -0.87547367085E+01 -0.10591492320E+02 -0.30858256830E+02  0.33779537286E+02  0.51100000000E-03 0.  1.
        -12    1    3    3    0    0 -0.49915911119E+01  0.27405229117E+01 -0.57290187132E+00  0.57231690708E+01  0.00000000000E+00 0.  1.
</event>
<event>
 7    1  0.2732193E-010  0.4778727E+02  0.7816164E-02  0.1312668E+00
        -11   -1    0    0    0    0  0.00000000000E+00  0.00000000000E+00  0.45593999997E+02  0.45594000000E+02  0.51100000000E-03 0. -1.
         11   -1    0    0    0    0 -0.00000000000E+00 -0.00000000000E+00 -0.45593999997E+02  0.45594000000E+02  0.51100000000E-03 0.  1.
    9900012    2    1    2    0    0 -0.37953404931E+02  0.18230478518E+02 -0.10526718789E+02  0.47787273033E+02  0.20000009066E+02 0.  0.
        -12    1    1    2    0    0  0.37953404931E+02 -0.18230478518E+02  0.10526718789E+02  0.43400726967E+02  0.00000000000E+00 0.  1.
         11    1    3    3    0    0 -0.74392677352E+01  0.38554916551E+01 -0.10311307023E+02  0.13286480841E+02  0.51100000000E-03 0. -1.
        -11    1    3    3    0    0 -0.18031049373E+02  0.99570508126E+01  0.31523250163E+01  0.20837436398E+02  0.51100000000E-03 0.  1.
         12    1    3    3    0    0 -0.12483087823E+02  0.44179360500E+01 -0.33677367816E+01  0.13663355794E+02  0.00000000000E+00 0. -1.
</event>
<event>
 7    1  0.2732193E-010  0.4778728E+02  0.7816164E-02  0.1312668E+00
        -11   -1    0    0    0    0  0.00000000000E+00  0.00000000000E+00  0.45593999997E+02  0.45594000000E+02  0.51100000000E-03 0.  1.
         11   -1    0    0    0    0 -0.00000000000E+00 -0.00000000000E+00 -0.45593999997E+02  0.45594000000E+02  0.51100000000E-03 0. -1.
    9900012    2    1    2    0    0 -0.19669664952E+02 -0.14459654374E+02 -0.35883778006E+02  0.47787275952E+02  0.20000022376E+02 0.  0.
        -12    1    1    2    0    0  0.19669664952E+02  0.14459654374E+02  0.35883778006E+02  0.43400724048E+02  0.00000000000E+00 0.  1.
         11    1    3    3    0    0  0.72212417899E+00  0.16086117257E+00  0.11646658814E+01  0.13797777079E+01  0.51100000000E-03 0. -1.
        -11    1    3    3    0    0 -0.16226280755E+01 -0.19641290292E+01 -0.13516491001E+02  0.13754499408E+02  0.51100000000E-03 0.  1.
         12    1    3    3    0    0 -0.18769161055E+02 -0.12656386518E+02 -0.23531952886E+02  0.32652998836E+02  0.00000000000E+00 0. -1.
</event>
<event>
 7    1  0.2732193E-010  0.4778727E+02  0.7816164E-02  0.1312668E+00
        -11   -1    0    0    0    0  0.00000000000E+00  0.00000000000E+00  0.45593999997E+02  0.45594000000E+02  0.51100000000E-03 0. -1.
         11   -1    0    0    0    0 -0.00000000000E+00 -0.00000000000E+00 -0.45593999997E+02  0.45594000000E+02  0.51100000000E-03 0.  1.
    9900012    2    1    2    0    0 -0.29120810795E+02  0.27600464383E+02  0.16547390898E+02  0.47787269580E+02  0.19999993321E+02 0.  0.
        -12    1    1    2    0    0  0.29120810795E+02 -0.27600464383E+02 -0.16547390898E+02  0.43400730420E+02  0.00000000000E+00 0.  1.
         11    1    3    3    0    0 -0.11648731793E+02  0.45444373364E+01  0.20443984114E+01  0.12669823527E+02  0.51100000000E-03 0. -1.
        -11    1    3    3    0    0 -0.15319380909E+02  0.22976418367E+02  0.16509168951E+02  0.32173776467E+02  0.51100000000E-03 0.  1.
        -12    1    3    3    0    0 -0.21526980927E+01  0.79608679125E-01 -0.20061764647E+01  0.29436695853E+01  0.00000000000E+00 0.  1.
</event>
<event>
 7    1  0.2732193E-010  0.4778727E+02  0.7816164E-02  0.1312668E+00
        -11   -1    0    0    0    0  0.00000000000E+00  0.00000000000E+00  0.45593999997E+02  0.45594000000E+02  0.51100000000E-03 0. -1.
         11   -1    0    0    0    0 -0.00000000000E+00 -0.00000000000E+00 -0.45593999997E+02  0.45594000000E+02  0.51100000000E-03 0.  1.
    9900012    2    1    2    0    0 -0.21022382797E+02 -0.31190803209E+02  0.21652171508E+02  0.47787270579E+02  0.19999997878E+02 0.  0.
        -12    1    1    2    0    0  0.21022382797E+02  0.31190803209E+02 -0.21652171508E+02  0.43400729421E+02  0.00000000000E+00 0.  1.
         11    1    3    3    0    0 -0.11178598655E+02 -0.27235994488E+02  0.94454537091E+01  0.30918878694E+02  0.51100000000E-03 0. -1.
        -11    1    3    3    0    0 -0.46572151422E+01 -0.19968792706E+00  0.78291502935E+01  0.91118122637E+01  0.51100000000E-03 0.  1.
         12    1    3    3    0    0 -0.51865689993E+01 -0.37551207937E+01  0.43775675055E+01  0.77565796216E+01  0.00000000000E+00 0. -1.
</event>
<event>
 7    1  0.2732193E-010  0.4778727E+02  0.7816164E-02  0.1312668E+00
        -11   -1    0    0    0    0  0.00000000000E+00  0.00000000000E+00  0.45593999997E+02  0.45594000000E+02  0.51100000000E-03 0.  1.
         11   -1    0    0    0    0 -0.00000000000E+00 -0.00000000000E+00 -0.45593999997E+02  0.45594000000E+02  0.51100000000E-03 0. -1.
    9900012    2    1    2    0    0 -0.39834253013E+02 -0.87114994859E+01 -0.14864903932E+02  0.47787270683E+02  0.19999998350E+02 0.  0.
        -12    1    1    2    0    0  0.39834253013E+02  0.87114994859E+01  0.14864903932E+02  0.43400729317E+02  0.00000000000E+00 0.  1.
         11    1    3    3    0    0 -0.20619765330E+02 -0.59974314496E+01 -0.56637267726E+01  0.22208595351E+02  0.51100000000E-03 0. -1.
        -11    1    3    3    0    0  0.28720168990E+00  0.22463594795E+01 -0.43120720019E+01  0.48705832230E+01  0.51100000000E-03 0.  1.
        -12    1    3    3    0    0 -0.19501689373E+02 -0.49604275158E+01 -0.48891051572E+01  0.20708092108E+02  0.00000000000E+00 0.  1.
</event>
<event>
 7    1  0.2732193E-010  0.4778727E+02  0.7816164E-02  0.1312668E+00
        -11   -1    0    0    0    0  0.00000000000E+00  0.00000000000E+00  0.45593999997E+02  0.45594000000E+02  0.51100000000E-03 0.  1.
         11   -1    0    0    0    0 -0.00000000000E+00 -0.00000000000E+00 -0.45593999997E+02  0.45594000000E+02  0.51100000000E-03 0. -1.
    9900012    2    1    2    0    0  0.29297193041E+02 -0.25825231688E+02 -0.18930276924E+02  0.47787268483E+02  0.19999988321E+02 0.  0.
        -12    1    1    2    0    0 -0.29297193041E+02  0.25825231688E+02  0.18930276924E+02  0.43400731517E+02  0.00000000000E+00 0.  1.
         11    1    3    3    0    0  0.13978852424E+02 -0.15495705666E+02 -0.11325819115E+02  0.23744460156E+02  0.51100000000E-03 0. -1.
        -11    1    3    3    0    0  0.15194392543E+02 -0.55550812003E+01 -0.14362003829E+01  0.16241649045E+02  0.51100000000E-03 0.  1.
        -12    1    3    3    0    0  0.12394807366E+00 -0.47744448209E+01 -0.61682574262E+01  0.78011592824E+01  0.00000000000E+00 0.  1.
</event>
<event>
 7    1  0.2732193E-010  0.4778727E+02  0.7816164E-02  0.1312668E+00
        -11   -1    0    0    0    0  0.00000000000E+00  0.00000000000E+00  0.45593999997E+02  0.45594000000E+02  0.51100000000E-03 0. -1.
         11   -1    0    0    0    0 -0.00000000000E+00 -0.00000000000E+00 -0.45593999997E+02  0.45594000000E+02  0.51100000000E-03 0.  1.
    9900012    2    1    2    0    0 -0.25597563928E+02 -0.23609250465E+02  0.25903495326E+02  0.47787273547E+02  0.20000011409E+02 0.  0.
        -12    1    1    2    0    0  0.25597563928E+02  0.23609250465E+02 -0.25903495326E+02  0.43400726453E+02  0.00000000000E+00 0.  1.
         11    1    3    3    0    0 -0.31627976424E+00 -0.92883940393E+01  0.30859838930E+01  0.97927316704E+01  0.51100000000E-03 0. -1.
        -11    1    3    3    0    0 -0.77256384851E+01 -0.10954034008E+01  0.28741723743E+01  0.83154233633E+01  0.51100000000E-03 0.  1.
         12    1    3    3    0    0 -0.17555645679E+02 -0.13225453024E+02  0.19943339059E+02  0.29679118513E+02  0.00000000000E+00 0. -1.
</event>
<event>
 7    1  0.2732193E-010  0.4778724E+02  0.7816164E-02  0.1312668E+00
        -11   -1    0    0    0    0  0.00000000000E+00  0.00000000000E+00  0.45593999997E+02  0.45594000000E+02  0.51100000000E-03 0.  1.
         11   -1    0    0    0    0 -0.00000000000E+00 -0.00000000000E+00 -0.45593999997E+02  0.45594000000E+02  0.51100000000E-03 0. -1.
    9900012    2    1    2    0    0 -0.85662632674E+01  0.34207620734E+02 -0.25299879903E+02  0.47787238419E+02  0.19999851249E+02 0.  0.
        -12    1    1    2    0    0  0.85662632674E+01 -0.34207620734E+02  0.25299879903E+02  0.43400761581E+02  0.00000000000E+00 0.  1.
         11    1    3    3    0    0 -0.10231663672E+02  0.31534700077E+02 -0.26632723563E+02  0.42525594823E+02  0.51100000000E-03 0. -1.
        -11    1    3    3    0    0  0.13781644063E+01  0.37383100445E+01  0.97760332135E+00  0.41024392299E+01  0.51100000000E-03 0.  1.
         12    1    3    3    0    0  0.28723599838E+00 -0.10653893874E+01  0.35524033800E+00  0.11592043665E+01  0.00000000000E+00 0. -1.
</event>
<event>
 7    1  0.2732193E-010  0.4778727E+02  0.7816164E-02  0.1312668E+00
        -11   -1    0    0    0    0  0.00000000000E+00  0.00000000000E+00  0.45593999997E+02  0.45594000000E+02  0.51100000000E-03 0.  1.
         11   -1    0    0    0    0 -0.00000000000E+00 -0.00000000000E+00 -0.45593999997E+02  0.45594000000E+02  0.51100000000E-03 0. -1.
    9900012    2    1    2    0    0 -0.18628279218E+01 -0.35233891478E+02 -0.25273026755E+02  0.47787272841E+02  0.20000008192E+02 0.  0.
        -12    1    1    2    0    0  0.18628279218E+01  0.35233891478E+02  0.25273026755E+02  0.43400727159E+02  0.00000000000E+00 0.  1.
         11    1    3    3    0    0 -0.14143841208E+01 -0.24303815974E+00  0.22955778905E+01  0.27072547166E+01  0.51100000000E-03 0. -1.
        -11    1    3    3    0    0  0.29820300240E+01 -0.13516896624E+02 -0.92700067950E+01  0.16659292411E+02  0.51100000000E-03 0.  1.
         12    1    3    3    0    0 -0.34304738250E+01 -0.21473956695E+02 -0.18298597850E+02  0.28420725714E+02  0.00000000000E+00 0. -1.
</event>
<event>
 7    1  0.2732193E-010  0.4778727E+02  0.7816164E-02  0.1312668E+00
        -11   -1    0    0    0    0  0.00000000000E+00  0.00000000000E+00  0.45593999997E+02  0.45594000000E+02  0.51100000000E-03 0. -1.
         11   -1    0    0    0    0 -0.00000000000E+00 -0.00000000000E+00 -0.45593999997E+02  0.45594000000E+02  0.51100000000E-03 0.  1.
    9900012    2    1    2    0    0 -0.39141749782E+02 -0.12069949856E+02  0.14347922976E+02  0.47787272365E+02  0.20000006023E+02 0.  0.
        -12    1    1    2    0    0  0.39141749782E+02  0.12069949856E+02 -0.14347922976E+02  0.43400727635E+02  0.00000000000E+00 0.  1.
         11    1    3    3    0    0  0.98701958289E+00 -0.23053357305E+00 -0.17799198158E+01  0.20482842081E+01  0.51100000000E-03 0. -1.
        -11    1    3    3    0    0 -0.29835410319E+02 -0.11510035758E+02  0.15174585535E+02  0.35396337077E+02  0.51100000000E-03 0.  1.
        -12    1    3    3    0    0 -0.10293359045E+02 -0.32938052424E+00  0.95325725711E+00  0.10342651080E+02  0.00000000000E+00 0.  1.
</event>
<event>
 7    1  0.2732193E-010  0.4778727E+02  0.7816164E-02  0.1312668E+00
        -11   -1    0    0    0    0  0.00000000000E+00  0.00000000000E+00  0.45593999997E+02  0.45594000000E+02  0.51100000000E-03 0.  1.
         11   -1    0    0    0    0 -0.00000000000E+00 -0.00000000000E+00 -0.45593999997E+02  0.45594000000E+02  0.51100000000E-03 0. -1.
    9900012    2    1    2    0    0  0.30388881784E+02  0.27357193982E+02 -0.14550707470E+02  0.47787270899E+02  0.19999999337E+02 0.  0.
        -12    1    1    2    0    0 -0.30388881784E+02 -0.27357193982E+02  0.14550707470E+02  0.43400729101E+02  0.00000000000E+00 0.  1.
         11    1    3    3    0    0  0.18939114603E+02  0.19948867234E+02 -0.10622769399E+02  0.29487125934E+02  0.51100000000E-03 0. -1.
        -11    1    3    3    0    0  0.74718508474E-01 -0.24440448472E+01 -0.19389494409E+01  0.31206510965E+01  0.51100000000E-03 0.  1.
        -12    1    3    3    0    0  0.11375048672E+02  0.98523715945E+01 -0.19889886299E+01  0.15179493868E+02  0.00000000000E+00 0.  1.
</event>
<event>
 7    1  0.2732193E-010  0.4778728E+02  0.7816164E-02  0.1312668E+00
        -11   -1    0    0    0    0  0.00000000000E+00  0.00000000000E+00  0.45593999997E+02  0.45594000000E+02  0.51100000000E-03 0.  1.
         11   -1    0    0    0    0 -0.00000000000E+00 -0.00000000000E+00 -0.45593999997E+02  0.45594000000E+02  0.51100000000E-03 0. -1.
    9900012    2    1    2    0    0 -0.38027253995E+02  0.19257695098E+02 -0.81665195156E+01  0.47787275260E+02  0.20000019222E+02 0.  0.
        -12    1    1    2    0    0  0.38027253995E+02 -0.19257695098E+02  0.81665195156E+01  0.43400724740E+02  0.00000000000E+00 0.  1.
         11    1    3    3    0    0 -0.69442720415E+01  0.29812866675E+01 -0.94952038765E+01  0.12135480266E+02  0.51100000000E-03 0. -1.
        -11    1    3    3    0    0 -0.89355598261E+01  0.33158925094E+01  0.28437771026E+01  0.99461772058E+01  0.51100000000E-03 0.  1.
         12    1    3    3    0    0 -0.22147422128E+02  0.12960515921E+02 -0.15150927417E+01  0.25705617788E+02  0.00000000000E+00 0. -1.
</event>
<event>
 7    1  0.2732193E-010  0.4778727E+02  0.7816164E-02  0.1312668E+00
        -11   -1    0    0    0    0  0.00000000000E+00  0.00000000000E+00  0.45593999997E+02  0.45594000000E+02  0.51100000000E-03 0.  1.
         11   -1    0    0    0    0 -0.00000000000E+00 -0.00000000000E+00 -0.45593999997E+02  0.45594000000E+02  0.51100000000E-03 0. -1.
    9900012    2    1    2    0    0 -0.36656132764E+02  0.14363149051E+02 -0.18266124350E+02  0.47787269377E+02  0.19999992398E+02 0.  0.
        -12    1    1    2    0    0  0.36656132764E+02 -0.14363149051E+02  0.18266124350E+02  0.43400730623E+02  0.00000000000E+00 0.  1.
         11    1    3    3    0    0 -0.99239467651E+01 -0.97536338069E+00 -0.35812773450E+01  0.10595357512E+02  0.51100000000E-03 0. -1.
        -11    1    3    3    0    0 -0.68967389331E+01  0.10133033181E+02 -0.52014066506E+00  0.12268411304E+02  0.51100000000E-03 0.  1.
        -12    1    3    3    0    0 -0.19835447065E+02  0.52054792508E+01 -0.14164706340E+02  0.24923500561E+02  0.00000000000E+00 0.  1.
</event>
<event>
 7    1  0.2732193E-010  0.4778727E+02  0.7816164E-02  0.1312668E+00
        -11   -1    0    0    0    0  0.00000000000E+00  0.00000000000E+00  0.45593999997E+02  0.45594000000E+02  0.51100000000E-03 0. -1.
         11   -1    0    0    0    0 -0.00000000000E+00 -0.00000000000E+00 -0.45593999997E+02  0.45594000000E+02  0.51100000000E-03 0.  1.
    9900012    2    1    2    0    0  0.21904568034E+02  0.86398139363E+01  0.36457742080E+02  0.47787269094E+02  0.19999991107E+02 0.  0.
        -12    1    1    2    0    0 -0.21904568034E+02 -0.86398139363E+01 -0.36457742080E+02  0.43400730906E+02  0.00000000000E+00 0.  1.
         11    1    3    3    0    0  0.82569289526E+01  0.61297100237E+01  0.88460944600E+01  0.13564792964E+02  0.51100000000E-03 0. -1.
        -11    1    3    3    0    0  0.14294705655E+02  0.19768090009E+01  0.12512241273E+02  0.19099805379E+02  0.51100000000E-03 0.  1.
        -12    1    3    3    0    0 -0.64706657319E+00  0.53329491169E+00  0.15099406347E+02  0.15122670751E+02  0.00000000000E+00 0.  1.
</event>
<event>
 7    1  0.2732193E-010  0.4778727E+02  0.7816164E-02  0.1312668E+00
        -11   -1    0    0    0    0  0.00000000000E+00  0.00000000000E+00  0.45593999997E+02  0.45594000000E+02  0.51100000000E-03 0. -1.
         11   -1    0    0    0    0 -0.00000000000E+00 -0.00000000000E+00 -0.45593999997E+02  0.45594000000E+02  0.51100000000E-03 0.  1.
    9900012    2    1    2    0    0  0.19189205996E+02 -0.92554835958E+01  0.37811815883E+02  0.47787273927E+02  0.20000013141E+02 0.  0.
        -12    1    1    2    0    0 -0.19189205996E+02  0.92554835958E+01 -0.37811815883E+02  0.43400726073E+02  0.00000000000E+00 0.  1.
         11    1    3    3    0    0  0.16532245299E+02 -0.28544225577E+01  0.28918274531E+02  0.33432461244E+02  0.51100000000E-03 0. -1.
        -11    1    3    3    0    0 -0.14937158030E+01 -0.69194087793E+01  0.53592288910E+01  0.88786676547E+01  0.51100000000E-03 0.  1.
        -12    1    3    3    0    0  0.41506764999E+01  0.51834774120E+00  0.35343124612E+01  0.54761450274E+01  0.00000000000E+00 0.  1.
</event>
<event>
 7    1  0.2732193E-010  0.4778728E+02  0.7816164E-02  0.1312668E+00
        -11   -1    0    0    0    0  0.00000000000E+00  0.00000000000E+00  0.45593999997E+02  0.45594000000E+02  0.51100000000E-03 0. -1.
         11   -1    0    0    0    0 -0.00000000000E+00 -0.00000000000E+00 -0.45593999997E+02  0.45594000000E+02  0.51100000000E-03 0.  1.
    9900012    2    1    2    0    0  0.22675518385E+02 -0.34455599338E+02 -0.13500190326E+02  0.47787278823E+02  0.20000035468E+02 0.  0.
        -12    1    1    2    0    0 -0.22675518385E+02  0.34455599338E+02  0.13500190326E+02  0.43400721177E+02  0.00000000000E+00 0.  1.
         11    1    3    3    0    0  0.26030942154E+02 -0.27787355855E+02 -0.10386951996E+02  0.39466895835E+02  0.51100000000E-03 0. -1.
        -11    1    3    3    0    0 -0.15491593900E+01 -0.47195126088E+01 -0.26270644780E+01  0.56191780639E+01  0.51100000000E-03 0.  1.
         12    1    3    3    0    0 -0.18062643790E+01 -0.19487308746E+01 -0.48617385184E+00  0.27012049242E+01  0.00000000000E+00 0. -1.
</event>
<event>
 7    1  0.3266738E-010  0.4778727E+02  0.7816164E-02  0.1312668E+00
        -11   -1    0    0    0    0  0.00000000000E+00  0.00000000000E+00  0.45593999997E+02  0.45594000000E+02  0.51100000000E-03 0. -1.
         11   -1    0    0    0    0 -0.00000000000E+00 -0.00000000000E+00 -0.45593999997E+02  0.45594000000E+02  0.51100000000E-03 0.  1.
    9900012    2    1    2    0    0  0.21568411528E+02  0.13763506093E+02  0.35056997464E+02  0.47787267897E+02  0.19999985651E+02 0.  0.
        -12    1    1    2    0    0 -0.21568411528E+02 -0.13763506093E+02 -0.35056997464E+02  0.43400732103E+02  0.00000000000E+00 0.  1.
         11    1    3    3    0    0  0.93151518239E+01  0.22944621924E+01  0.20063823976E+02  0.22239461393E+02  0.51100000000E-03 0. -1.
        -11    1    3    3    0    0 -0.17237413780E+01  0.48754650912E+01  0.29356412145E+01  0.59463798899E+01  0.51100000000E-03 0.  1.
        -12    1    3    3    0    0  0.13977001082E+02  0.65935788097E+01  0.12057532274E+02  0.19601426614E+02  0.00000000000E+00 0.  1.
</event>
<event>
 7    1  0.2732193E-010  0.4778732E+02  0.7816164E-02  0.1312668E+00
        -11   -1    0    0    0    0  0.00000000000E+00  0.00000000000E+00  0.45593999997E+02  0.45594000000E+02  0.51100000000E-03 0.  1.
         11   -1    0    0    0    0 -0.00000000000E+00 -0.00000000000E+00 -0.45593999997E+02  0.45594000000E+02  0.51100000000E-03 0. -1.
    9900012    2    1    2    0    0 -0.29135717855E+02 -0.27061865391E+02 -0.17389209932E+02  0.47787317569E+02  0.20000212124E+02 0.  0.
        -12    1    1    2    0    0  0.29135717855E+02  0.27061865391E+02  0.17389209932E+02  0.43400682431E+02  0.00000000000E+00 0.  1.
         11    1    3    3    0    0  0.75263949717E+00 -0.52485708180E+01  0.10883626753E+01  0.54128084594E+01  0.51100000000E-03 0. -1.
        -11    1    3    3    0    0 -0.28851840908E+01 -0.43309479102E+01  0.14230607490E+00  0.52059243482E+01  0.51100000000E-03 0.  1.
         12    1    3    3    0    0 -0.27003173262E+02 -0.17482346663E+02 -0.18619878682E+02  0.37168584762E+02  0.00000000000E+00 0. -1.
</event>
<event>
 7    1  0.2732193E-010  0.4778727E+02  0.7816164E-02  0.1312668E+00
        -11   -1    0    0    0    0  0.00000000000E+00  0.00000000000E+00  0.45593999997E+02  0.45594000000E+02  0.51100000000E-03 0. -1.
         11   -1    0    0    0    0 -0.00000000000E+00 -0.00000000000E+00 -0.45593999997E+02  0.45594000000E+02  0.51100000000E-03 0.  1.
    9900012    2    1    2    0    0 -0.16214227492E+02 -0.40219566134E+02  0.17630848155E+01  0.47787272573E+02  0.20000006968E+02 0.  0.
        -12    1    1    2    0    0  0.16214227492E+02  0.40219566134E+02 -0.17630848155E+01  0.43400727427E+02  0.00000000000E+00 0.  1.
         11    1    3    3    0    0 -0.12121337363E+02 -0.14753577551E+02 -0.62941115559E+01  0.20104992180E+02  0.51100000000E-03 0. -1.
        -11    1    3    3    0    0 -0.22810317854E+00 -0.98526175212E+01  0.58129674116E+01  0.11441883301E+02  0.51100000000E-03 0.  1.
         12    1    3    3    0    0 -0.38647869509E+01 -0.15613371062E+02  0.22442289598E+01  0.16240397092E+02  0.00000000000E+00 0. -1.
</event>
<event>
 7    1  0.2732193E-010  0.4778727E+02  0.7816164E-02  0.1312668E+00
        -11   -1    0    0    0    0  0.00000000000E+00  0.00000000000E+00  0.45593999997E+02  0.45594000000E+02  0.51100000000E-03 0. -1.
         11   -1    0    0    0    0 -0.00000000000E+00 -0.00000000000E+00 -0.45593999997E+02  0.45594000000E+02  0.51100000000E-03 0.  1.
    9900012    2    1    2    0    0 -0.33973330986E+02 -0.26662567669E+02  0.43062236451E+01  0.47787270800E+02  0.19999998886E+02 0.  0.
        -12    1    1    2    0    0  0.33973330986E+02  0.26662567669E+02 -0.43062236451E+01  0.43400729200E+02  0.00000000000E+00 0.  1.
         11    1    3    3    0    0 -0.22703364040E+02 -0.22056603339E+02  0.96798892720E+01  0.33100404019E+02  0.51100000000E-03 0. -1.
        -11    1    3    3    0    0 -0.21209562630E+01  0.61298243778E+00 -0.32706903530E+01  0.39460890239E+01  0.51100000000E-03 0.  1.
         12    1    3    3    0    0 -0.91490106827E+01 -0.52189467677E+01 -0.21029752739E+01  0.10740777758E+02  0.00000000000E+00 0. -1.
</event>
<event>
 7    1  0.2732193E-010  0.4778727E+02  0.7816164E-02  0.1312668E+00
        -11   -1    0    0    0    0  0.00000000000E+00  0.00000000000E+00  0.45593999997E+02  0.45594000000E+02  0.51100000000E-03 0.  1.
         11   -1    0    0    0    0 -0.00000000000E+00 -0.00000000000E+00 -0.45593999997E+02  0.45594000000E+02  0.51100000000E-03 0. -1.
    9900012    2    1    2    0    0 -0.42251033136E+02 -0.66236026366E+01 -0.73892761809E+01  0.47787270566E+02  0.19999997816E+02 0.  0.
        -12    1    1    2    0    0  0.42251033136E+02  0.66236026366E+01  0.73892761809E+01  0.43400729434E+02  0.00000000000E+00 0.  1.
         11    1    3    3    0    0 -0.22744686469E+02  0.24660547611E+01 -0.73071006304E+01  0.24016575704E+02  0.51100000000E-03 0. -1.
        -11    1    3    3    0    0 -0.10520240489E+02 -0.99395937031E+01 -0.17930874365E+01  0.14583763086E+02  0.51100000000E-03 0.  1.
         12    1    3    3    0    0 -0.89861061783E+01  0.84993630549E+00  0.17109118860E+01  0.91869317758E+01  0.00000000000E+00 0. -1.
</event>
<event>
 7    1  0.2732193E-010  0.4778727E+02  0.7816164E-02  0.1312668E+00
        -11   -1    0    0    0    0  0.00000000000E+00  0.00000000000E+00  0.45593999997E+02  0.45594000000E+02  0.51100000000E-03 0.  1.
         11   -1    0    0    0    0 -0.00000000000E+00 -0.00000000000E+00 -0.45593999997E+02  0.45594000000E+02  0.51100000000E-03 0. -1.
    9900012    2    1    2    0    0 -0.38017119712E+02 -0.19682366599E+02 -0.71362826552E+01  0.47787268712E+02  0.19999989367E+02 0.  0.
        -12    1    1    2    0    0  0.38017119712E+02  0.19682366599E+02  0.71362826552E+01  0.43400731288E+02  0.00000000000E+00 0.  1.
         11    1    3    3    0    0 -0.90779357675E+01 -0.11606873779E+02 -0.90630791318E+01  0.17299359535E+02  0.51100000000E-03 0. -1.
        -11    1    3    3    0    0 -0.58383114265E+00 -0.49754838233E+00  0.81087436378E+00  0.11162126548E+01  0.51100000000E-03 0.  1.
         12    1    3    3    0    0 -0.28355352802E+02 -0.75779444378E+01  0.11159221127E+01  0.29371696522E+02  0.00000000000E+00 0. -1.
</event>
<event>
 7    1  0.2732193E-010  0.4778727E+02  0.7816164E-02  0.1312668E+00
        -11   -1    0    0    0    0  0.00000000000E+00  0.00000000000E+00  0.45593999997E+02  0.45594000000E+02  0.51100000000E-03 0.  1.
         11   -1    0    0    0    0 -0.00000000000E+00 -0.00000000000E+00 -0.45593999997E+02  0.45594000000E+02  0.51100000000E-03 0. -1.
    9900012    2    1    2    0    0 -0.33417019204E+02  0.12576606032E+02 -0.24672963821E+02  0.47787270335E+02  0.19999996764E+02 0.  0.
        -12    1    1    2    0    0  0.33417019204E+02 -0.12576606032E+02  0.24672963821E+02  0.43400729665E+02  0.00000000000E+00 0.  1.
         11    1    3    3    0    0 -0.25636772346E+02  0.15448788315E+02 -0.16594291134E+02  0.34223963172E+02  0.51100000000E-03 0. -1.
        -11    1    3    3    0    0 -0.22810685464E+01  0.16853630311E+01 -0.76311127383E-01  0.28371721677E+01  0.51100000000E-03 0.  1.
         12    1    3    3    0    0 -0.54991783115E+01 -0.45575453141E+01 -0.80023615598E+01  0.10726134995E+02  0.00000000000E+00 0. -1.
</event>
<event>
 7    1  0.2732193E-010  0.4778727E+02  0.7816164E-02  0.1312668E+00
        -11   -1    0    0    0    0  0.00000000000E+00  0.00000000000E+00  0.45593999997E+02  0.45594000000E+02  0.51100000000E-03 0.  1.
         11   -1    0    0    0    0 -0.00000000000E+00 -0.00000000000E+00 -0.45593999997E+02  0.45594000000E+02  0.51100000000E-03 0. -1.
    9900012    2    1    2    0    0  0.25101140107E+02  0.10942531522E+02 -0.33672200345E+02  0.47787270664E+02  0.19999998268E+02 0.  0.
        -12    1    1    2    0    0 -0.25101140107E+02 -0.10942531522E+02  0.33672200345E+02  0.43400729336E+02  0.00000000000E+00 0.  1.
         11    1    3    3    0    0  0.22749910950E+02  0.11375949700E+02 -0.31518171243E+02  0.40501429587E+02  0.51100000000E-03 0. -1.
        -11    1    3    3    0    0  0.38302070874E+01 -0.21498634944E+01 -0.38095252957E+00  0.44088007970E+01  0.51100000000E-03 0.  1.
         12    1    3    3    0    0 -0.14789779309E+01  0.17164453161E+01 -0.17730765726E+01  0.28770402805E+01  0.00000000000E+00 0. -1.
</event>
<event>
 7    1  0.2732193E-010  0.4778729E+02  0.7816164E-02  0.1312668E+00
        -11   -1    0    0    0    0  0.00000000000E+00  0.00000000000E+00  0.45593999997E+02  0.45594000000E+02  0.51100000000E-03 0. -1.
         11   -1    0    0    0    0 -0.00000000000E+00 -0.00000000000E+00 -0.45593999997E+02  0.45594000000E+02  0.51100000000E-03 0.  1.
    9900012    2    1    2    0    0 -0.28955350008E+02 -0.15939176065E+02 -0.28127430763E+02  0.47787285847E+02  0.20000067489E+02 0.  0.
        -12    1    1    2    0    0  0.28955350008E+02  0.15939176065E+02  0.28127430763E+02  0.43400714153E+02  0.00000000000E+00 0.  1.
         11    1    3    3    0    0 -0.51085785127E+01 -0.78435552651E+01 -0.15938313329E+02  0.18483743280E+02  0.51100000000E-03 0. -1.
        -11    1    3    3    0    0 -0.11764700549E+02  0.49146529545E+00 -0.45040100405E+01  0.12606975207E+02  0.51100000000E-03 0.  1.
         12    1    3    3    0    0 -0.12082070946E+02 -0.85870860951E+01 -0.76851073929E+01  0.16696567360E+02  0.00000000000E+00 0. -1.
</event>
<event>
 7    1  0.2732193E-010  0.4778727E+02  0.7816164E-02  0.1312668E+00
        -11   -1    0    0    0    0  0.00000000000E+00  0.00000000000E+00  0.45593999997E+02  0.45594000000E+02  0.51100000000E-03 0. -1.
         11   -1    0    0    0    0 -0.00000000000E+00 -0.00000000000E+00 -0.45593999997E+02  0.45594000000E+02  0.51100000000E-03 0.  1.
    9900012    2    1    2    0    0 -0.87512742475E+01 -0.36773768670E+02  0.21324362347E+02  0.47787270828E+02  0.19999999012E+02 0.  0.
        -12    1    1    2    0    0  0.87512742475E+01  0.36773768670E+02 -0.21324362347E+02  0.43400729172E+02  0.00000000000E+00 0.  1.
         11    1    3    3    0    0  0.59658639774E+01 -0.14255335232E+02  0.55600124730E+01  0.16423149957E+02  0.51100000000E-03 0. -1.
        -11    1    3    3    0    0 -0.65256820780E+01 -0.70893617951E+01  0.60175120458E+01  0.11360194925E+02  0.51100000000E-03 0.  1.
         12    1    3    3    0    0 -0.81914561468E+01 -0.15429071643E+02  0.97468378284E+01  0.20003925946E+02  0.00000000000E+00 0. -1.
</event>
<event>
 7    1  0.2732193E-010  0.4778730E+02  0.7816164E-02  0.1312668E+00
        -11   -1    0    0    0    0  0.00000000000E+00  0.00000000000E+00  0.45593999997E+02  0.45594000000E+02  0.51100000000E-03 0.  1.
         11   -1    0    0    0    0 -0.00000000000E+00 -0.00000000000E+00 -0.45593999997E+02  0.45594000000E+02  0.51100000000E-03 0. -1.
    9900012    2    1    2    0    0 -0.38974351291E+02  0.18832415214E+02  0.31560120277E+01  0.47787304922E+02  0.20000154459E+02 0.  0.
        -12    1    1    2    0    0  0.38974351291E+02 -0.18832415214E+02 -0.31560120277E+01  0.43400695078E+02  0.00000000000E+00 0.  1.
         11    1    3    3    0    0 -0.96450969792E+01  0.81389409509E+01 -0.72779002562E+01  0.14568393458E+02  0.51100000000E-03 0. -1.
        -11    1    3    3    0    0 -0.21242187104E+02  0.56585158710E+01  0.66275577277E+01  0.22960266473E+02  0.51100000000E-03 0.  1.
         12    1    3    3    0    0 -0.80870672075E+01  0.50349583925E+01  0.38063545561E+01  0.10258644990E+02  0.00000000000E+00 0. -1.
</event>
<event>
 7    1  0.2732193E-010  0.4778727E+02  0.7816164E-02  0.1312668E+00
        -11   -1    0    0    0    0  0.00000000000E+00  0.00000000000E+00  0.45593999997E+02  0.45594000000E+02  0.51100000000E-03 0.  1.
         11   -1    0    0    0    0 -0.00000000000E+00 -0.00000000000E+00 -0.45593999997E+02  0.45594000000E+02  0.51100000000E-03 0. -1.
    9900012    2    1    2    0    0 -0.27238630880E+02 -0.97077880937E+01 -0.32364161802E+02  0.47787272690E+02  0.20000007501E+02 0.  0.
        -12    1    1    2    0    0  0.27238630880E+02  0.97077880937E+01  0.32364161802E+02  0.43400727310E+02  0.00000000000E+00 0.  1.
         11    1    3    3    0    0 -0.40897927025E+01 -0.12035272980E+01 -0.53642100063E+01  0.68519801196E+01  0.51100000000E-03 0. -1.
        -11    1    3    3    0    0 -0.87289788916E+01  0.10365350279E+01 -0.20775478562E+02  0.22558590096E+02  0.51100000000E-03 0.  1.
        -12    1    3    3    0    0 -0.14419859286E+02 -0.95407958236E+01 -0.62244732337E+01  0.18376702474E+02  0.00000000000E+00 0.  1.
</event>
<event>
 7    1  0.2732193E-010  0.4778727E+02  0.7816164E-02  0.1312668E+00
        -11   -1    0    0    0    0  0.00000000000E+00  0.00000000000E+00  0.45593999997E+02  0.45594000000E+02  0.51100000000E-03 0. -1.
         11   -1    0    0    0    0 -0.00000000000E+00 -0.00000000000E+00 -0.45593999997E+02  0.45594000000E+02  0.51100000000E-03 0.  1.
    9900012    2    1    2    0    0 -0.19435536254E+02  0.35058919866E+02 -0.16635959511E+02  0.47787273272E+02  0.20000010159E+02 0.  0.
        -12    1    1    2    0    0  0.19435536254E+02 -0.35058919866E+02  0.16635959511E+02  0.43400726728E+02  0.00000000000E+00 0.  1.
         11    1    3    3    0    0 -0.15264642149E+02  0.20576422489E+02 -0.14124895050E+02  0.29255958758E+02  0.51100000000E-03 0. -1.
        -11    1    3    3    0    0 -0.86228931140E+00  0.11229279488E+02  0.26717297645E+01  0.11574903925E+02  0.51100000000E-03 0.  1.
        -12    1    3    3    0    0 -0.33086047935E+01  0.32532178881E+01 -0.51827942253E+01  0.69564105894E+01  0.00000000000E+00 0.  1.
</event>
<event>
 7    1  0.2732193E-010  0.4778727E+02  0.7816164E-02  0.1312668E+00
        -11   -1    0    0    0    0  0.00000000000E+00  0.00000000000E+00  0.45593999997E+02  0.45594000000E+02  0.51100000000E-03 0.  1.
         11   -1    0    0    0    0 -0.00000000000E+00 -0.00000000000E+00 -0.45593999997E+02  0.45594000000E+02  0.51100000000E-03 0. -1.
    9900012    2    1    2    0    0  0.27592815249E+02 -0.32305096883E+02  0.88679365278E+01  0.47787273782E+02  0.20000012482E+02 0.  0.
        -12    1    1    2    0    0 -0.27592815249E+02  0.32305096883E+02 -0.88679365278E+01  0.43400726218E+02  0.00000000000E+00 0.  1.
         11    1    3    3    0    0  0.15720720050E+02 -0.83005008874E+01 -0.14175980596E+01  0.17833926612E+02  0.51100000000E-03 0. -1.
        -11    1    3    3    0    0  0.85923480666E+01 -0.10594195859E+02  0.84000340230E+01  0.16019550650E+02  0.51100000000E-03 0.  1.
         12    1    3    3    0    0  0.32797471324E+01 -0.13410400137E+02  0.18855005645E+01  0.13933796520E+02  0.00000000000E+00 0. -1.
</event>
<event>
 7    1  0.2732193E-010  0.4778728E+02  0.7816164E-02  0.1312668E+00
        -11   -1    0    0    0    0  0.00000000000E+00  0.00000000000E+00  0.45593999997E+02  0.45594000000E+02  0.51100000000E-03 0.  1.
         11   -1    0    0    0    0 -0.00000000000E+00 -0.00000000000E+00 -0.45593999997E+02  0.45594000000E+02  0.51100000000E-03 0. -1.
    9900012    2    1    2    0    0 -0.38660695061E+02 -0.17877130080E+02 -0.83295507286E+01  0.47787279524E+02  0.20000038661E+02 0.  0.
        -12    1    1    2    0    0  0.38660695061E+02  0.17877130080E+02  0.83295507286E+01  0.43400720476E+02  0.00000000000E+00 0.  1.
         11    1    3    3    0    0 -0.18034972856E+01 -0.40558650158E+01 -0.57930853489E+01  0.72981149351E+01  0.51100000000E-03 0. -1.
        -11    1    3    3    0    0 -0.22032071212E+02 -0.35905024125E+01 -0.26236785080E+01  0.22476377792E+02  0.51100000000E-03 0.  1.
         12    1    3    3    0    0 -0.14825126563E+02 -0.10230762652E+02  0.87213128256E-01  0.18012786796E+02  0.00000000000E+00 0. -1.
</event>
<event>
 7    1  0.2732193E-010  0.4778727E+02  0.7816164E-02  0.1312668E+00
        -11   -1    0    0    0    0  0.00000000000E+00  0.00000000000E+00  0.45593999997E+02  0.45594000000E+02  0.51100000000E-03 0. -1.
         11   -1    0    0    0    0 -0.00000000000E+00 -0.00000000000E+00 -0.45593999997E+02  0.45594000000E+02  0.51100000000E-03 0.  1.
    9900012    2    1    2    0    0 -0.29534048733E+02 -0.11464285544E+02  0.29663667891E+02  0.47787273389E+02  0.20000010691E+02 0.  0.
        -12    1    1    2    0    0  0.29534048733E+02  0.11464285544E+02 -0.29663667891E+02  0.43400726611E+02  0.00000000000E+00 0.  1.
         11    1    3    3    0    0 -0.19160933585E+02 -0.13670123893E+02  0.24634987958E+02  0.34071928256E+02  0.51100000000E-03 0. -1.
        -11    1    3    3    0    0 -0.65642125977E+00  0.28508127975E+01  0.18947237760E+01  0.34853982449E+01  0.51100000000E-03 0.  1.
         12    1    3    3    0    0 -0.97166938881E+01 -0.64497444844E+00  0.31339561567E+01  0.10229946889E+02  0.00000000000E+00 0. -1.
</event>
<event>
 7    1  0.2732193E-010  0.4778727E+02  0.7816164E-02  0.1312668E+00
        -11   -1    0    0    0    0  0.00000000000E+00  0.00000000000E+00  0.45593999997E+02  0.45594000000E+02  0.51100000000E-03 0.  1.
         11   -1    0    0    0    0 -0.00000000000E+00 -0.00000000000E+00 -0.45593999997E+02  0.45594000000E+02  0.51100000000E-03 0. -1.
    9900012    2    1    2    0    0  0.10741925819E+02  0.17801740783E+02 -0.38096362651E+02  0.47787265070E+02  0.19999972762E+02 0.  0.
        -12    1    1    2    0    0 -0.10741925819E+02 -0.17801740783E+02  0.38096362651E+02  0.43400734930E+02  0.00000000000E+00 0.  1.
         11    1    3    3    0    0  0.17886210313E+01 -0.22317510124E+01 -0.53244810574E+01  0.60440033559E+01  0.51100000000E-03 0.  1.
        -11    1    3    3    0    0  0.72853261010E+01  0.19351591740E+02 -0.19739362827E+02  0.28586754351E+02  0.51100000000E-03 0. -1.
        -12    1    3    3    0    0  0.16679786872E+01  0.68190005508E+00 -0.13032518767E+02  0.13156507363E+02  0.00000000000E+00 0.  1.
</event>
<event>
 7    1  0.2732193E-010  0.4778728E+02  0.7816164E-02  0.1312668E+00
        -11   -1    0    0    0    0  0.00000000000E+00  0.00000000000E+00  0.45593999997E+02  0.45594000000E+02  0.51100000000E-03 0. -1.
         11   -1    0    0    0    0 -0.00000000000E+00 -0.00000000000E+00 -0.45593999997E+02  0.45594000000E+02  0.51100000000E-03 0.  1.
    9900012    2    1    2    0    0 -0.19572840577E+02  0.32088823650E+02  0.21698711998E+02  0.47787276574E+02  0.20000025213E+02 0.  0.
        -12    1    1    2    0    0  0.19572840577E+02 -0.32088823650E+02 -0.21698711998E+02  0.43400723426E+02  0.00000000000E+00 0.  1.
         11    1    3    3    0    0  0.37007191862E+00  0.66488280933E+01  0.60632982513E+01  0.90059676984E+01  0.51100000000E-03 0. -1.
        -11    1    3    3    0    0 -0.16457847503E+01  0.13590403507E+02  0.58864061632E+01  0.14901592288E+02  0.51100000000E-03 0.  1.
         12    1    3    3    0    0 -0.18297127745E+02  0.11849592050E+02  0.97490075833E+01  0.23879716588E+02  0.00000000000E+00 0. -1.
</event>
<event>
 7    1  0.2732193E-010  0.4778723E+02  0.7816164E-02  0.1312668E+00
        -11   -1    0    0    0    0  0.00000000000E+00  0.00000000000E+00  0.45593999997E+02  0.45594000000E+02  0.51100000000E-03 0.  1.
         11   -1    0    0    0    0 -0.00000000000E+00 -0.00000000000E+00 -0.45593999997E+02  0.45594000000E+02  0.51100000000E-03 0. -1.
    9900012    2    1    2    0    0 -0.27037857720E+02 -0.11149162308E+02  0.32066759123E+02  0.47787232599E+02  0.19999824713E+02 0.  0.
        -12    1    1    2    0    0  0.27037857720E+02  0.11149162308E+02 -0.32066759123E+02  0.43400767401E+02  0.00000000000E+00 0.  1.
         11    1    3    3    0    0 -0.52218944090E+01  0.31508370695E+01  0.32985418966E+01  0.69337099999E+01  0.51100000000E-03 0. -1.
        -11    1    3    3    0    0 -0.10281822793E+02 -0.93447701025E+01  0.23370784092E+02  0.27188860909E+02  0.51100000000E-03 0.  1.
        -12    1    3    3    0    0 -0.11534140518E+02 -0.49552292752E+01  0.53974331349E+01  0.13664661690E+02  0.00000000000E+00 0.  1.
</event>
<event>
 7    1  0.2732193E-010  0.4778727E+02  0.7816164E-02  0.1312668E+00
        -11   -1    0    0    0    0  0.00000000000E+00  0.00000000000E+00  0.45593999997E+02  0.45594000000E+02  0.51100000000E-03 0.  1.
         11   -1    0    0    0    0 -0.00000000000E+00 -0.00000000000E+00 -0.45593999997E+02  0.45594000000E+02  0.51100000000E-03 0. -1.
    9900012    2    1    2    0    0 -0.16603203442E+01 -0.60408753392E+01 -0.42946185950E+02  0.47787265834E+02  0.19999976243E+02 0.  0.
        -12    1    1    2    0    0  0.16603203442E+01  0.60408753392E+01  0.42946185950E+02  0.43400734166E+02  0.00000000000E+00 0.  1.
         11    1    3    3    0    0 -0.47592526566E+01 -0.10277313397E+02 -0.29715174120E+02  0.31800396692E+02  0.51100000000E-03 0. -1.
        -11    1    3    3    0    0  0.54870432721E+01  0.29938914332E+01 -0.86246242465E+01  0.10651533854E+02  0.51100000000E-03 0.  1.
        -12    1    3    3    0    0 -0.23881109597E+01  0.12425466246E+01 -0.46063875830E+01  0.53353352880E+01  0.00000000000E+00 0.  1.
</event>
<event>
 7    1  0.2732193E-010  0.4778726E+02  0.7816164E-02  0.1312668E+00
        -11   -1    0    0    0    0  0.00000000000E+00  0.00000000000E+00  0.45593999997E+02  0.45594000000E+02  0.51100000000E-03 0.  1.
         11   -1    0    0    0    0 -0.00000000000E+00 -0.00000000000E+00 -0.45593999997E+02  0.45594000000E+02  0.51100000000E-03 0. -1.
    9900012    2    1    2    0    0 -0.10014872842E+02 -0.37543322829E+02 -0.19334564693E+02  0.47787260848E+02  0.19999953509E+02 0.  0.
        -12    1    1    2    0    0  0.10014872842E+02  0.37543322829E+02  0.19334564693E+02  0.43400739152E+02  0.00000000000E+00 0.  1.
         11    1    3    3    0    0  0.25732616422E-01 -0.18234095098E+02 -0.82480201184E+01  0.20012813954E+02  0.51100000000E-03 0. -1.
        -11    1    3    3    0    0 -0.40236205045E+01 -0.32182953530E+01 -0.91310090367E+01  0.10484382349E+02  0.51100000000E-03 0.  1.
        -12    1    3    3    0    0 -0.60169849539E+01 -0.16090932378E+02 -0.19555355375E+01  0.17290064545E+02  0.00000000000E+00 0.  1.
</event>
<event>
 7    1  0.2732193E-010  0.4778726E+02  0.7816164E-02  0.1312668E+00
        -11   -1    0    0    0    0  0.00000000000E+00  0.00000000000E+00  0.45593999997E+02  0.45594000000E+02  0.51100000000E-03 0.  1.
         11   -1    0    0    0    0 -0.00000000000E+00 -0.00000000000E+00 -0.45593999997E+02  0.45594000000E+02  0.51100000000E-03 0. -1.
    9900012    2    1    2    0    0  0.32432928095E+02  0.26614968214E+02 -0.11107339499E+02  0.47787258663E+02  0.19999943550E+02 0.  0.
        -12    1    1    2    0    0 -0.32432928095E+02 -0.26614968214E+02  0.11107339499E+02  0.43400741337E+02  0.00000000000E+00 0.  1.
         11    1    3    3    0    0  0.13201955912E+02  0.13673986377E+02 -0.71486982865E+01  0.20306979854E+02  0.51100000000E-03 0. -1.
        -11    1    3    3    0    0  0.36086249465E+01  0.69523873968E+00  0.45797571825E+01  0.58719423550E+01  0.51100000000E-03 0.  1.
        -12    1    3    3    0    0  0.15622347236E+02  0.12245743098E+02 -0.85383983948E+01  0.21608336454E+02  0.00000000000E+00 0.  1.
</event>
<event>
 7    1  0.2732193E-010  0.4778726E+02  0.7816164E-02  0.1312668E+00
        -11   -1    0    0    0    0  0.00000000000E+00  0.00000000000E+00  0.45593999997E+02  0.45594000000E+02  0.51100000000E-03 0. -1.
         11   -1    0    0    0    0 -0.00000000000E+00 -0.00000000000E+00 -0.45593999997E+02  0.45594000000E+02  0.51100000000E-03 0.  1.
    9900012    2    1    2    0    0 -0.71245315575E+01  0.28898125266E+02  0.31587397210E+02  0.47787259726E+02  0.19999948395E+02 0.  0.
        -12    1    1    2    0    0  0.71245315575E+01 -0.28898125266E+02 -0.31587397210E+02  0.43400740274E+02  0.00000000000E+00 0.  1.
         11    1    3    3    0    0 -0.70935238787E+01  0.12272596328E+02  0.22968455674E+02  0.26990454942E+02  0.51100000000E-03 0. -1.
        -11    1    3    3    0    0  0.59199416466E+00  0.13307227528E+02  0.10473397910E+02  0.16944758057E+02  0.51100000000E-03 0.  1.
         12    1    3    3    0    0 -0.62300184346E+00  0.33183014096E+01 -0.18544563739E+01  0.38520467267E+01  0.00000000000E+00 0. -1.
</event>
<event>
 7    1  0.2732193E-010  0.4778727E+02  0.7816164E-02  0.1312668E+00
        -11   -1    0    0    0    0  0.00000000000E+00  0.00000000000E+00  0.45593999997E+02  0.45594000000E+02  0.51100000000E-03 0. -1.
         11   -1    0    0    0    0 -0.00000000000E+00 -0.00000000000E+00 -0.45593999997E+02  0.45594000000E+02  0.51100000000E-03 0.  1.
    9900012    2    1    2    0    0  0.36983019339E+02 -0.21581299984E+02  0.70800312303E+01  0.47787273386E+02  0.20000010677E+02 0.  0.
        -12    1    1    2    0    0 -0.36983019339E+02  0.21581299984E+02 -0.70800312303E+01  0.43400726614E+02  0.00000000000E+00 0.  1.
         11    1    3    3    0    0  0.48090672766E+01 -0.20612488405E+01 -0.66181144630E+00  0.52738856174E+01  0.51100000000E-03 0. -1.
        -11    1    3    3    0    0  0.24219954764E+02 -0.12719476964E+02 -0.29950828748E+01  0.27520207570E+02  0.51100000000E-03 0.  1.
        -12    1    3    3    0    0  0.79539972982E+01 -0.68005741789E+01  0.10736925551E+02  0.14993180199E+02  0.00000000000E+00 0.  1.
</event>
<event>
 7    1  0.2732193E-010  0.4778727E+02  0.7816164E-02  0.1312668E+00
        -11   -1    0    0    0    0  0.00000000000E+00  0.00000000000E+00  0.45593999997E+02  0.45594000000E+02  0.51100000000E-03 0. -1.
         11   -1    0    0    0    0 -0.00000000000E+00 -0.00000000000E+00 -0.45593999997E+02  0.45594000000E+02  0.51100000000E-03 0.  1.
    9900012    2    1    2    0    0  0.19062984422E+01 -0.40264905912E+02 -0.16084978994E+02  0.47787272228E+02  0.20000005398E+02 0.  0.
        -12    1    1    2    0    0 -0.19062984422E+01  0.40264905912E+02  0.16084978994E+02  0.43400727772E+02  0.00000000000E+00 0.  1.
         11    1    3    3    0    0 -0.43569770085E+01 -0.73634571392E+01  0.31151711101E+01  0.91053852746E+01  0.51100000000E-03 0. -1.
        -11    1    3    3    0    0  0.35859674292E+01 -0.24543396378E+02 -0.14163723735E+02  0.28563062484E+02  0.51100000000E-03 0.  1.
         12    1    3    3    0    0  0.26773080215E+01 -0.83580523954E+01 -0.50364263692E+01  0.10118824470E+02  0.00000000000E+00 0. -1.
</event>
<event>
 7    1  0.2732193E-010  0.4778727E+02  0.7816164E-02  0.1312668E+00
        -11   -1    0    0    0    0  0.00000000000E+00  0.00000000000E+00  0.45593999997E+02  0.45594000000E+02  0.51100000000E-03 0.  1.
         11   -1    0    0    0    0 -0.00000000000E+00 -0.00000000000E+00 -0.45593999997E+02  0.45594000000E+02  0.51100000000E-03 0. -1.
    9900012    2    1    2    0    0  0.17055651213E+02  0.27126732692E+02 -0.29272321387E+02  0.47787266547E+02  0.19999979495E+02 0.  0.
        -12    1    1    2    0    0 -0.17055651213E+02 -0.27126732692E+02  0.29272321387E+02  0.43400733453E+02  0.00000000000E+00 0.  1.
         11    1    3    3    0    0  0.94160317128E+01  0.17945606812E+01 -0.81336220023E+01  0.12571312914E+02  0.51100000000E-03 0. -1.
        -11    1    3    3    0    0  0.73089900702E+01  0.21350452927E+02 -0.12738420641E+02  0.25913906243E+02  0.51100000000E-03 0.  1.
         12    1    3    3    0    0  0.33062943024E+00  0.39817190834E+01 -0.84002787435E+01  0.93020473901E+01  0.00000000000E+00 0. -1.
</event>
<event>
 7    1  0.2732193E-010  0.4778727E+02  0.7816164E-02  0.1312668E+00
        -11   -1    0    0    0    0  0.00000000000E+00  0.00000000000E+00  0.45593999997E+02  0.45594000000E+02  0.51100000000E-03 0. -1.
         11   -1    0    0    0    0 -0.00000000000E+00 -0.00000000000E+00 -0.45593999997E+02  0.45594000000E+02  0.51100000000E-03 0.  1.
    9900012    2    1    2    0    0  0.61040133025E+01  0.29328888934E+00  0.42968337715E+02  0.47787273707E+02  0.20000012138E+02 0.  0.
        -12    1    1    2    0    0 -0.61040133025E+01 -0.29328888934E+00 -0.42968337715E+02  0.43400726293E+02  0.00000000000E+00 0.  1.
         11    1    3    3    0    0  0.77422455570E+01  0.11549367720E+01  0.29084295811E+02  0.30119304578E+02  0.51100000000E-03 0. -1.
        -11    1    3    3    0    0 -0.32446109382E+01  0.28973585957E+01  0.14595965832E+01  0.45883122626E+01  0.51100000000E-03 0.  1.
         12    1    3    3    0    0  0.16063786837E+01 -0.37590064783E+01  0.12424445322E+02  0.13079656866E+02  0.00000000000E+00 0. -1.
</event>
<event>
 7    1  0.2732193E-010  0.4778727E+02  0.7816164E-02  0.1312668E+00
        -11   -1    0    0    0    0  0.00000000000E+00  0.00000000000E+00  0.45593999997E+02  0.45594000000E+02  0.51100000000E-03 0.  1.
         11   -1    0    0    0    0 -0.00000000000E+00 -0.00000000000E+00 -0.45593999997E+02  0.45594000000E+02  0.51100000000E-03 0. -1.
    9900012    2    1    2    0    0  0.39837995303E+02 -0.16128057773E+02 -0.60368313033E+01  0.47787269021E+02  0.19999990776E+02 0.  0.
        -12    1    1    2    0    0 -0.39837995303E+02  0.16128057773E+02  0.60368313033E+01  0.43400730979E+02  0.00000000000E+00 0.  1.
         11    1    3    3    0    0  0.95929791098E+01 -0.33572262076E+01  0.45961496505E+01  0.11154407554E+02  0.51100000000E-03 0. -1.
        -11    1    3    3    0    0  0.24724241697E+02 -0.56895906209E+01 -0.10985966087E+02  0.27646898922E+02  0.51100000000E-03 0.  1.
        -12    1    3    3    0    0  0.55207744966E+01 -0.70812409444E+01  0.35298513315E+00  0.89859625449E+01  0.00000000000E+00 0.  1.
</event>
<event>
 7    1  0.2732193E-010  0.4778727E+02  0.7816164E-02  0.1312668E+00
        -11   -1    0    0    0    0  0.00000000000E+00  0.00000000000E+00  0.45593999997E+02  0.45594000000E+02  0.51100000000E-03 0.  1.
         11   -1    0    0    0    0 -0.00000000000E+00 -0.00000000000E+00 -0.45593999997E+02  0.45594000000E+02  0.51100000000E-03 0. -1.
    9900012    2    1    2    0    0 -0.10214393391E+02 -0.36959220014E+01 -0.42019398959E+02  0.47787267741E+02  0.19999984936E+02 0.  0.
        -12    1    1    2    0    0  0.10214393391E+02  0.36959220014E+01  0.42019398959E+02  0.43400732259E+02  0.00000000000E+00 0.  1.
         11    1    3    3    0    0 -0.27384864207E+01  0.78335480906E+01 -0.20272753862E+02  0.21905440717E+02  0.51100000000E-03 0. -1.
        -11    1    3    3    0    0 -0.28421088057E+01 -0.45248069739E+01 -0.59924289633E+01  0.80287399856E+01  0.51100000000E-03 0.  1.
         12    1    3    3    0    0 -0.46337981643E+01 -0.70046631181E+01 -0.15754216133E+02  0.17853087038E+02  0.00000000000E+00 0. -1.
</event>
<event>
 7    1  0.2998303E-010  0.4778727E+02  0.7816164E-02  0.1312668E+00
        -11   -1    0    0    0    0  0.00000000000E+00  0.00000000000E+00  0.45593999997E+02  0.45594000000E+02  0.51100000000E-03 0.  1.
         11   -1    0    0    0    0 -0.00000000000E+00 -0.00000000000E+00 -0.45593999997E+02  0.45594000000E+02  0.51100000000E-03 0. -1.
    9900012    2    1    2    0    0 -0.42478476758E+02 -0.88724381215E+01  0.69426674488E+00  0.47787272446E+02  0.20000006390E+02 0.  0.
        -12    1    1    2    0    0  0.42478476758E+02  0.88724381215E+01 -0.69426674488E+00  0.43400727554E+02  0.00000000000E+00 0.  1.
         11    1    3    3    0    0 -0.12505266462E+02 -0.34014860493E+01  0.27817761430E+01  0.13254813292E+02  0.51100000000E-03 0. -1.
        -11    1    3    3    0    0 -0.23920949804E+02  0.27949921557E+01 -0.33064712639E-01  0.24083706405E+02  0.51100000000E-03 0.  1.
        -12    1    3    3    0    0 -0.60522604920E+01 -0.82659442278E+01 -0.20544446855E+01  0.10448752749E+02  0.00000000000E+00 0.  1.
</event>
<event>
 7    1  0.2732193E-010  0.4778728E+02  0.7816164E-02  0.1312668E+00
        -11   -1    0    0    0    0  0.00000000000E+00  0.00000000000E+00  0.45593999997E+02  0.45594000000E+02  0.51100000000E-03 0. -1.
         11   -1    0    0    0    0 -0.00000000000E+00 -0.00000000000E+00 -0.45593999997E+02  0.45594000000E+02  0.51100000000E-03 0.  1.
    9900012    2    1    2    0    0  0.17139504234E+01  0.43206674258E+02  0.37240528972E+01  0.47787275393E+02  0.20000019825E+02 0.  0.
        -12    1    1    2    0    0 -0.17139504234E+01 -0.43206674258E+02 -0.37240528972E+01  0.43400724607E+02  0.00000000000E+00 0.  1.
         11    1    3    3    0    0  0.55085458667E+01  0.32003357306E+02  0.93547864966E+00  0.32487444913E+02  0.51100000000E-03 0. -1.
        -11    1    3    3    0    0 -0.52065634978E+01  0.76675760217E+01  0.53590893454E+01  0.10706066709E+02  0.51100000000E-03 0.  1.
        -12    1    3    3    0    0  0.14119680545E+01  0.35357409299E+01 -0.25705150979E+01  0.45937637705E+01  0.00000000000E+00 0.  1.
</event>
<event>
 7    1  0.2732193E-010  0.4778727E+02  0.7816164E-02  0.1312668E+00
        -11   -1    0    0    0    0  0.00000000000E+00  0.00000000000E+00  0.45593999997E+02  0.45594000000E+02  0.51100000000E-03 0.  1.
         11   -1    0    0    0    0 -0.00000000000E+00 -0.00000000000E+00 -0.45593999997E+02  0.45594000000E+02  0.51100000000E-03 0. -1.
    9900012    2    1    2    0    0 -0.16953303740E+02  0.38192218910E+02 -0.11728737929E+02  0.47787269749E+02  0.19999994092E+02 0.  0.
        -12    1    1    2    0    0  0.16953303740E+02 -0.38192218910E+02  0.11728737929E+02  0.43400730251E+02  0.00000000000E+00 0.  1.
         11    1    3    3    0    0 -0.10830847277E+02  0.23339725039E+02  0.14248128320E+01  0.25769751832E+02  0.51100000000E-03 0. -1.
        -11    1    3    3    0    0  0.95380399620E+00  0.90610531856E+00  0.34350508864E+00  0.13596929501E+01  0.51100000000E-03 0.  1.
         12    1    3    3    0    0 -0.70762604594E+01  0.13946388552E+02 -0.13497055849E+02  0.20657824966E+02  0.00000000000E+00 0. -1.
</event>
<event>
 7    1  0.2732193E-010  0.4778728E+02  0.7816164E-02  0.1312668E+00
        -11   -1    0    0    0    0  0.00000000000E+00  0.00000000000E+00  0.45593999997E+02  0.45594000000E+02  0.51100000000E-03 0.  1.
         11   -1    0    0    0    0 -0.00000000000E+00 -0.00000000000E+00 -0.45593999997E+02  0.45594000000E+02  0.51100000000E-03 0. -1.
    9900012    2    1    2    0    0 -0.36014938842E+01 -0.37528472840E+02 -0.21500368051E+02  0.47787275833E+02  0.20000021831E+02 0.  0.
        -12    1    1    2    0    0  0.36014938842E+01  0.37528472840E+02  0.21500368051E+02  0.43400724167E+02  0.00000000000E+00 0.  1.
         11    1    3    3    0    0 -0.24152506553E+01 -0.21370725370E+02 -0.11936540292E+02  0.24597201730E+02  0.51100000000E-03 0. -1.
        -11    1    3    3    0    0  0.25041458381E+01 -0.19137456610E+01 -0.77475883907E+01  0.83641075415E+01  0.51100000000E-03 0.  1.
        -12    1    3    3    0    0 -0.36903890670E+01 -0.14244001809E+02 -0.18162393687E+01  0.14825966561E+02  0.00000000000E+00 0.  1.
</event>
<event>
 7    1  0.2732193E-010  0.4778727E+02  0.7816164E-02  0.1312668E+00
        -11   -1    0    0    0    0  0.00000000000E+00  0.00000000000E+00  0.45593999997E+02  0.45594000000E+02  0.51100000000E-03 0. -1.
         11   -1    0    0    0    0 -0.00000000000E+00 -0.00000000000E+00 -0.45593999997E+02  0.45594000000E+02  0.51100000000E-03 0.  1.
    9900012    2    1    2    0    0 -0.15957250281E+02  0.83581403128E+01  0.39485833001E+02  0.47787270123E+02  0.19999995800E+02 0.  0.
        -12    1    1    2    0    0  0.15957250281E+02 -0.83581403128E+01 -0.39485833001E+02  0.43400729877E+02  0.00000000000E+00 0.  1.
         11    1    3    3    0    0  0.10610245555E+01  0.21614672168E+01  0.17185114407E+02  0.17352978738E+02  0.51100000000E-03 0. -1.
        -11    1    3    3    0    0 -0.14744219162E+02  0.84512688020E+01  0.15879411752E+02  0.23258797495E+02  0.51100000000E-03 0.  1.
        -12    1    3    3    0    0 -0.22740556749E+01 -0.22545957060E+01  0.64213068427E+01  0.71754938909E+01  0.00000000000E+00 0.  1.
</event>
<event>
 7    1  0.2732193E-010  0.4778727E+02  0.7816164E-02  0.1312668E+00
        -11   -1    0    0    0    0  0.00000000000E+00  0.00000000000E+00  0.45593999997E+02  0.45594000000E+02  0.51100000000E-03 0.  1.
         11   -1    0    0    0    0 -0.00000000000E+00 -0.00000000000E+00 -0.45593999997E+02  0.45594000000E+02  0.51100000000E-03 0. -1.
    9900012    2    1    2    0    0 -0.34283376875E+02 -0.17439029177E+02  0.20103573271E+02  0.47787270434E+02  0.19999997215E+02 0.  0.
        -12    1    1    2    0    0  0.34283376875E+02  0.17439029177E+02 -0.20103573271E+02  0.43400729566E+02  0.00000000000E+00 0.  1.
         11    1    3    3    0    0 -0.28273940018E+02 -0.14409423165E+02  0.12861139241E+02  0.34241145759E+02  0.51100000000E-03 0. -1.
        -11    1    3    3    0    0  0.19776475524E+01  0.11936215725E+01  0.22453314188E+01  0.32213872386E+01  0.51100000000E-03 0.  1.
        -12    1    3    3    0    0 -0.79870844100E+01 -0.42232275848E+01  0.49971026110E+01  0.10324737435E+02  0.00000000000E+00 0.  1.
</event>
<event>
 7    1  0.2732193E-010  0.4778727E+02  0.7816164E-02  0.1312668E+00
        -11   -1    0    0    0    0  0.00000000000E+00  0.00000000000E+00  0.45593999997E+02  0.45594000000E+02  0.51100000000E-03 0.  1.
         11   -1    0    0    0    0 -0.00000000000E+00 -0.00000000000E+00 -0.45593999997E+02  0.45594000000E+02  0.51100000000E-03 0. -1.
    9900012    2    1    2    0    0 -0.22853086604E+02  0.29236734138E+02 -0.22507174930E+02  0.47787272889E+02  0.20000008411E+02 0.  0.
        -12    1    1    2    0    0  0.22853086604E+02 -0.29236734138E+02  0.22507174930E+02  0.43400727111E+02  0.00000000000E+00 0.  1.
         11    1    3    3    0    0 -0.60708102270E+01  0.74637506241E+01 -0.36031362909E+01  0.10273504834E+02  0.51100000000E-03 0. -1.
        -11    1    3    3    0    0 -0.14385680412E+02  0.24656499253E+02 -0.17640788151E+02  0.33557237120E+02  0.51100000000E-03 0.  1.
        -12    1    3    3    0    0 -0.23965959659E+01 -0.28835157387E+01 -0.12632504889E+01  0.39565309346E+01  0.00000000000E+00 0.  1.
</event>
<event>
 7    1  0.2732193E-010  0.4778727E+02  0.7816164E-02  0.1312668E+00
        -11   -1    0    0    0    0  0.00000000000E+00  0.00000000000E+00  0.45593999997E+02  0.45594000000E+02  0.51100000000E-03 0.  1.
         11   -1    0    0    0    0 -0.00000000000E+00 -0.00000000000E+00 -0.45593999997E+02  0.45594000000E+02  0.51100000000E-03 0. -1.
    9900012    2    1    2    0    0 -0.19348010376E+02  0.12059295290E+02 -0.36930358935E+02  0.47787268215E+02  0.19999987097E+02 0.  0.
        -12    1    1    2    0    0  0.19348010376E+02 -0.12059295290E+02  0.36930358935E+02  0.43400731785E+02  0.00000000000E+00 0.  1.
         11    1    3    3    0    0 -0.10333104857E+02  0.92499793345E+01 -0.19224419394E+02  0.23704714193E+02  0.51100000000E-03 0. -1.
        -11    1    3    3    0    0 -0.47605485530E+00  0.11437015418E+01  0.21067322082E+01  0.24439726472E+01  0.51100000000E-03 0.  1.
        -12    1    3    3    0    0 -0.85388506645E+01  0.16656144141E+01 -0.19812671750E+02  0.21638581375E+02  0.00000000000E+00 0.  1.
</event>
<event>
 7    1  0.2732193E-010  0.4778727E+02  0.7816164E-02  0.1312668E+00
        -11   -1    0    0    0    0  0.00000000000E+00  0.00000000000E+00  0.45593999997E+02  0.45594000000E+02  0.51100000000E-03 0. -1.
         11   -1    0    0    0    0 -0.00000000000E+00 -0.00000000000E+00 -0.45593999997E+02  0.45594000000E+02  0.51100000000E-03 0.  1.
    9900012    2    1    2    0    0  0.19111239467E+02 -0.18368898777E+02  0.34365201941E+02  0.47787273961E+02  0.20000013299E+02 0.  0.
        -12    1    1    2    0    0 -0.19111239467E+02  0.18368898777E+02 -0.34365201941E+02  0.43400726039E+02  0.00000000000E+00 0.  1.
         11    1    3    3    0    0  0.74047861717E+01 -0.47041335302E+01  0.23217041033E+01  0.90746923211E+01  0.51100000000E-03 0. -1.
        -11    1    3    3    0    0  0.56072266315E+01 -0.29124153937E+01  0.21678127837E+02  0.22580176719E+02  0.51100000000E-03 0.  1.
        -12    1    3    3    0    0  0.60992266634E+01 -0.10752349853E+02  0.10365370001E+02  0.16132404921E+02  0.00000000000E+00 0.  1.
</event>
<event>
 7    1  0.2732193E-010  0.4778727E+02  0.7816164E-02  0.1312668E+00
        -11   -1    0    0    0    0  0.00000000000E+00  0.00000000000E+00  0.45593999997E+02  0.45594000000E+02  0.51100000000E-03 0.  1.
         11   -1    0    0    0    0 -0.00000000000E+00 -0.00000000000E+00 -0.45593999997E+02  0.45594000000E+02  0.51100000000E-03 0. -1.
    9900012    2    1    2    0    0  0.33598408508E+02 -0.96448117777E+01 -0.25724464182E+02  0.47787268370E+02  0.19999987808E+02 0.  0.
        -12    1    1    2    0    0 -0.33598408508E+02  0.96448117777E+01  0.25724464182E+02  0.43400731630E+02  0.00000000000E+00 0.  1.
         11    1    3    3    0    0  0.72841579413E+01 -0.52210004998E+00 -0.10201931443E+02  0.12546352091E+02  0.51100000000E-03 0. -1.
        -11    1    3    3    0    0  0.27076583495E+02 -0.10833542710E+02 -0.16058989734E+02  0.33292614390E+02  0.51100000000E-03 0.  1.
        -12    1    3    3    0    0 -0.76233292782E+00  0.17108309826E+01  0.53645699397E+00  0.19483018889E+01  0.00000000000E+00 0.  1.
</event>
<event>
 7    1  0.2732193E-010  0.4778727E+02  0.7816164E-02  0.1312668E+00
        -11   -1    0    0    0    0  0.00000000000E+00  0.00000000000E+00  0.45593999997E+02  0.45594000000E+02  0.51100000000E-03 0.  1.
         11   -1    0    0    0    0 -0.00000000000E+00 -0.00000000000E+00 -0.45593999997E+02  0.45594000000E+02  0.51100000000E-03 0. -1.
    9900012    2    1    2    0    0 -0.13675187200E+02 -0.24711081427E+02 -0.32954135348E+02  0.47787270435E+02  0.19999997222E+02 0.  0.
        -12    1    1    2    0    0  0.13675187200E+02  0.24711081427E+02  0.32954135348E+02  0.43400729565E+02  0.00000000000E+00 0.  1.
         11    1    3    3    0    0 -0.28990912277E+01 -0.47807228813E+01 -0.10470942529E+02  0.11870159178E+02  0.51100000000E-03 0. -1.
        -11    1    3    3    0    0  0.23751010775E+01 -0.12888338748E+01 -0.90445901631E+01  0.94396403197E+01  0.51100000000E-03 0.  1.
        -12    1    3    3    0    0 -0.13151197050E+02 -0.18641524671E+02 -0.13438602656E+02  0.26477470937E+02  0.00000000000E+00 0.  1.
</event>
<event>
 7    1  0.2732193E-010  0.4778727E+02  0.7816164E-02  0.1312668E+00
        -11   -1    0    0    0    0  0.00000000000E+00  0.00000000000E+00  0.45593999997E+02  0.45594000000E+02  0.51100000000E-03 0.  1.
         11   -1    0    0    0    0 -0.00000000000E+00 -0.00000000000E+00 -0.45593999997E+02  0.45594000000E+02  0.51100000000E-03 0. -1.
    9900012    2    1    2    0    0 -0.25223800168E+02  0.13468430093E+02 -0.32649418737E+02  0.47787271343E+02  0.20000001361E+02 0.  0.
        -12    1    1    2    0    0  0.25223800168E+02 -0.13468430093E+02  0.32649418737E+02  0.43400728657E+02  0.00000000000E+00 0.  1.
         11    1    3    3    0    0 -0.81282035186E+01  0.82511685902E+01 -0.15663910594E+02  0.19480954055E+02  0.51100000000E-03 0. -1.
        -11    1    3    3    0    0 -0.10960327806E+01 -0.23455727123E+01  0.12676539743E+01  0.28826977060E+01  0.51100000000E-03 0.  1.
         12    1    3    3    0    0 -0.15999563869E+02  0.75628342146E+01 -0.18253162118E+02  0.25423619582E+02  0.00000000000E+00 0. -1.
</event>
<event>
 7    1  0.2732193E-010  0.4778725E+02  0.7816164E-02  0.1312668E+00
        -11   -1    0    0    0    0  0.00000000000E+00  0.00000000000E+00  0.45593999997E+02  0.45594000000E+02  0.51100000000E-03 0. -1.
         11   -1    0    0    0    0 -0.00000000000E+00 -0.00000000000E+00 -0.45593999997E+02  0.45594000000E+02  0.51100000000E-03 0.  1.
    9900012    2    1    2    0    0  0.32253480307E+02  0.18802298194E+02  0.22131688513E+02  0.47787250632E+02  0.19999906930E+02 0.  0.
        -12    1    1    2    0    0 -0.32253480307E+02 -0.18802298194E+02 -0.22131688513E+02  0.43400749368E+02  0.00000000000E+00 0.  1.
         11    1    3    3    0    0  0.18688384369E+02  0.98240588236E+01  0.19289137237E+01  0.21201145028E+02  0.51100000000E-03 0. -1.
        -11    1    3    3    0    0  0.13671387538E+02  0.71377231980E+01  0.17677856564E+02  0.23459764335E+02  0.51100000000E-03 0.  1.
        -12    1    3    3    0    0 -0.10629160036E+00  0.18405161729E+01  0.25249182252E+01  0.31263412691E+01  0.00000000000E+00 0.  1.
</event>
<event>
 7    1  0.2732193E-010  0.4778727E+02  0.7816164E-02  0.1312668E+00
        -11   -1    0    0    0    0  0.00000000000E+00  0.00000000000E+00  0.45593999997E+02  0.45594000000E+02  0.51100000000E-03 0.  1.
         11   -1    0    0    0    0 -0.00000000000E+00 -0.00000000000E+00 -0.45593999997E+02  0.45594000000E+02  0.51100000000E-03 0. -1.
    9900012    2    1    2    0    0  0.26399338275E+02 -0.24714760922E+02 -0.23997471022E+02  0.47787273230E+02  0.20000009963E+02 0.  0.
        -12    1    1    2    0    0 -0.26399338275E+02  0.24714760922E+02  0.23997471022E+02  0.43400726770E+02  0.00000000000E+00 0.  1.
         11    1    3    3    0    0  0.73826825897E+01 -0.13902875990E+02 -0.93088537823E+01  0.18287939250E+02  0.51100000000E-03 0. -1.
        -11    1    3    3    0    0  0.19073235496E+02 -0.89402846159E+01 -0.79655218136E+01  0.22520358330E+02  0.51100000000E-03 0.  1.
        -12    1    3    3    0    0 -0.56579810633E-01 -0.18716003162E+01 -0.67230954257E+01  0.69789756498E+01  0.00000000000E+00 0.  1.
</event>
<event>
 7    1  0.2732193E-010  0.4778728E+02  0.7816164E-02  0.1312668E+00
        -11   -1    0    0    0    0  0.00000000000E+00  0.00000000000E+00  0.45593999997E+02  0.45594000000E+02  0.51100000000E-03 0. -1.
         11   -1    0    0    0    0 -0.00000000000E+00 -0.00000000000E+00 -0.45593999997E+02  0.45594000000E+02  0.51100000000E-03 0.  1.
    9900012    2    1    2    0    0 -0.27513495259E+02  0.12533301048E+02  0.31137541618E+02  0.47787279332E+02  0.20000037785E+02 0.  0.
        -12    1    1    2    0    0  0.27513495259E+02 -0.12533301048E+02 -0.31137541618E+02  0.43400720668E+02  0.00000000000E+00 0.  1.
         11    1    3    3    0    0 -0.12129624016E+01  0.89532792762E+01  0.47695665795E+01  0.10216714404E+02  0.51100000000E-03 0. -1.
        -11    1    3    3    0    0 -0.17341665771E+02  0.24777290084E+01  0.15057551630E+02  0.23099834937E+02  0.51100000000E-03 0.  1.
        -12    1    3    3    0    0 -0.89588670859E+01  0.11022927630E+01  0.11310423408E+02  0.14470729991E+02  0.00000000000E+00 0.  1.
</event>
<event>
 7    1  0.2732193E-010  0.4778726E+02  0.7816164E-02  0.1312668E+00
        -11   -1    0    0    0    0  0.00000000000E+00  0.00000000000E+00  0.45593999997E+02  0.45594000000E+02  0.51100000000E-03 0.  1.
         11   -1    0    0    0    0 -0.00000000000E+00 -0.00000000000E+00 -0.45593999997E+02  0.45594000000E+02  0.51100000000E-03 0. -1.
    9900012    2    1    2    0    0 -0.50794869350E+01 -0.98708505006E+01 -0.41956992434E+02  0.47787261628E+02  0.19999957068E+02 0.  0.
        -12    1    1    2    0    0  0.50794869350E+01  0.98708505006E+01  0.41956992434E+02  0.43400738372E+02  0.00000000000E+00 0.  1.
         11    1    3    3    0    0 -0.64453577005E+01 -0.75593767453E+01 -0.23601288231E+02  0.25606788535E+02  0.51100000000E-03 0. -1.
        -11    1    3    3    0    0  0.56334243280E+01 -0.46613884930E+01 -0.86940177905E+01  0.11360015755E+02  0.51100000000E-03 0.  1.
        -12    1    3    3    0    0 -0.42675535625E+01  0.23499147377E+01 -0.96616864124E+01  0.10820457339E+02  0.00000000000E+00 0.  1.
</event>
<event>
 7    1  0.2732193E-010  0.4778727E+02  0.7816164E-02  0.1312668E+00
        -11   -1    0    0    0    0  0.00000000000E+00  0.00000000000E+00  0.45593999997E+02  0.45594000000E+02  0.51100000000E-03 0.  1.
         11   -1    0    0    0    0 -0.00000000000E+00 -0.00000000000E+00 -0.45593999997E+02  0.45594000000E+02  0.51100000000E-03 0. -1.
    9900012    2    1    2    0    0 -0.19782237930E+02  0.88546923176E+00 -0.38619972379E+02  0.47787271207E+02  0.20000000739E+02 0.  0.
        -12    1    1    2    0    0  0.19782237930E+02 -0.88546923176E+00  0.38619972379E+02  0.43400728793E+02  0.00000000000E+00 0.  1.
         11    1    3    3    0    0  0.20362095087E+01  0.97228561949E+00 -0.98557317205E+01  0.10110733727E+02  0.51100000000E-03 0.  1.
        -11    1    3    3    0    0 -0.12959136860E+02  0.52520459620E+01 -0.16989470332E+02  0.22003756892E+02  0.51100000000E-03 0. -1.
         12    1    3    3    0    0 -0.88593105787E+01 -0.53388623497E+01 -0.11774770326E+02  0.15672780588E+02  0.00000000000E+00 0. -1.
</event>
<event>
 7    1  0.2732193E-010  0.4778727E+02  0.7816164E-02  0.1312668E+00
        -11   -1    0    0    0    0  0.00000000000E+00  0.00000000000E+00  0.45593999997E+02  0.45594000000E+02  0.51100000000E-03 0.  1.
         11   -1    0    0    0    0 -0.00000000000E+00 -0.00000000000E+00 -0.45593999997E+02  0.45594000000E+02  0.51100000000E-03 0. -1.
    9900012    2    1    2    0    0 -0.29848648292E+02 -0.11241389081E+02 -0.29433190255E+02  0.47787270491E+02  0.19999997475E+02 0.  0.
        -12    1    1    2    0    0  0.29848648292E+02  0.11241389081E+02  0.29433190255E+02  0.43400729509E+02  0.00000000000E+00 0.  1.
         11    1    3    3    0    0 -0.28214197415E+02 -0.76760046862E+01 -0.22306521508E+02  0.36776934154E+02  0.51100000000E-03 0. -1.
        -11    1    3    3    0    0  0.88274426324E+00  0.17561730322E+01 -0.28742725446E+00  0.19864530805E+01  0.51100000000E-03 0.  1.
         12    1    3    3    0    0 -0.25171951408E+01 -0.53215574275E+01 -0.68392414926E+01  0.90238832564E+01  0.00000000000E+00 0. -1.
</event>
<event>
 7    1  0.2732193E-010  0.4778727E+02  0.7816164E-02  0.1312668E+00
        -11   -1    0    0    0    0  0.00000000000E+00  0.00000000000E+00  0.45593999997E+02  0.45594000000E+02  0.51100000000E-03 0.  1.
         11   -1    0    0    0    0 -0.00000000000E+00 -0.00000000000E+00 -0.45593999997E+02  0.45594000000E+02  0.51100000000E-03 0. -1.
    9900012    2    1    2    0    0  0.49161021830E+01 -0.42641061138E+02 -0.64183446931E+01  0.47787270694E+02  0.19999998404E+02 0.  0.
        -12    1    1    2    0    0 -0.49161021830E+01  0.42641061138E+02  0.64183446931E+01  0.43400729306E+02  0.00000000000E+00 0.  1.
         11    1    3    3    0    0  0.11558059516E+00 -0.17569120756E+02 -0.56069963179E+01  0.18442499044E+02  0.51100000000E-03 0. -1.
        -11    1    3    3    0    0  0.70862884618E+01 -0.13245402550E+02  0.51822103395E+01  0.15890609716E+02  0.51100000000E-03 0.  1.
        -12    1    3    3    0    0 -0.22857668739E+01 -0.11826537832E+02 -0.59935587148E+01  0.13454161934E+02  0.00000000000E+00 0.  1.
</event>
<event>
 7    1  0.2732193E-010  0.4778727E+02  0.7816164E-02  0.1312668E+00
        -11   -1    0    0    0    0  0.00000000000E+00  0.00000000000E+00  0.45593999997E+02  0.45594000000E+02  0.51100000000E-03 0.  1.
         11   -1    0    0    0    0 -0.00000000000E+00 -0.00000000000E+00 -0.45593999997E+02  0.45594000000E+02  0.51100000000E-03 0. -1.
    9900012    2    1    2    0    0 -0.92777897258E+01 -0.24951578059E+02 -0.34277757541E+02  0.47787270837E+02  0.19999999054E+02 0.  0.
        -12    1    1    2    0    0  0.92777897258E+01  0.24951578059E+02  0.34277757541E+02  0.43400729163E+02  0.00000000000E+00 0.  1.
         11    1    3    3    0    0 -0.44647736691E+01 -0.22711838019E+01  0.95110821886E+00  0.50987338510E+01  0.51100000000E-03 0. -1.
        -11    1    3    3    0    0 -0.16023217628E+01 -0.48675443659E+00 -0.21537227982E+01  0.27281655129E+01  0.51100000000E-03 0.  1.
         12    1    3    3    0    0 -0.32106942939E+01 -0.22193639821E+02 -0.33075142962E+02  0.39960371473E+02  0.00000000000E+00 0. -1.
</event>
<event>
 7    1  0.2732193E-010  0.4778729E+02  0.7816164E-02  0.1312668E+00
        -11   -1    0    0    0    0  0.00000000000E+00  0.00000000000E+00  0.45593999997E+02  0.45594000000E+02  0.51100000000E-03 0.  1.
         11   -1    0    0    0    0 -0.00000000000E+00 -0.00000000000E+00 -0.45593999997E+02  0.45594000000E+02  0.51100000000E-03 0. -1.
    9900012    2    1    2    0    0  0.18547733475E+01  0.39321230670E+02 -0.18276278845E+02  0.47787288784E+02  0.20000080883E+02 0.  0.
        -12    1    1    2    0    0 -0.18547733475E+01 -0.39321230670E+02  0.18276278845E+02  0.43400711216E+02  0.00000000000E+00 0.  1.
         11    1    3    3    0    0  0.94390287442E+00  0.53154926415E+01 -0.71544411143E+01  0.89627809622E+01  0.51100000000E-03 0. -1.
        -11    1    3    3    0    0  0.22752222810E+01  0.15833121571E+01  0.24022913989E+01  0.36680400817E+01  0.51100000000E-03 0.  1.
        -12    1    3    3    0    0 -0.13643518079E+01  0.32422425872E+02 -0.13524129129E+02  0.35156467740E+02  0.00000000000E+00 0.  1.
</event>
<event>
 7    1  0.2732193E-010  0.4778728E+02  0.7816164E-02  0.1312668E+00
        -11   -1    0    0    0    0  0.00000000000E+00  0.00000000000E+00  0.45593999997E+02  0.45594000000E+02  0.51100000000E-03 0.  1.
         11   -1    0    0    0    0 -0.00000000000E+00 -0.00000000000E+00 -0.45593999997E+02  0.45594000000E+02  0.51100000000E-03 0. -1.
    9900012    2    1    2    0    0 -0.22667156798E+02  0.18561658957E+02 -0.32020111639E+02  0.47787277311E+02  0.20000028573E+02 0.  0.
        -12    1    1    2    0    0  0.22667156798E+02 -0.18561658957E+02  0.32020111639E+02  0.43400722689E+02  0.00000000000E+00 0.  1.
         11    1    3    3    0    0 -0.11427759352E+02  0.16278589850E+02 -0.24451508313E+02  0.31519239051E+02  0.51100000000E-03 0. -1.
        -11    1    3    3    0    0 -0.79956794390E+01 -0.22250019350E+01 -0.66581408827E+01  0.10640129867E+02  0.51100000000E-03 0.  1.
         12    1    3    3    0    0 -0.32437180072E+01  0.45080710419E+01 -0.91046244327E+00  0.56279083939E+01  0.00000000000E+00 0. -1.
</event>
<event>
 7    1  0.2732193E-010  0.4778727E+02  0.7816164E-02  0.1312668E+00
        -11   -1    0    0    0    0  0.00000000000E+00  0.00000000000E+00  0.45593999997E+02  0.45594000000E+02  0.51100000000E-03 0.  1.
         11   -1    0    0    0    0 -0.00000000000E+00 -0.00000000000E+00 -0.45593999997E+02  0.45594000000E+02  0.51100000000E-03 0. -1.
    9900012    2    1    2    0    0  0.17496878252E+02  0.10926042698E+02 -0.38185129243E+02  0.47787271286E+02  0.20000001100E+02 0.  0.
        -12    1    1    2    0    0 -0.17496878252E+02 -0.10926042698E+02  0.38185129243E+02  0.43400728714E+02  0.00000000000E+00 0.  1.
         11    1    3    3    0    0  0.94503558967E+01 -0.44260173841E+01 -0.19679859375E+02  0.22275451100E+02  0.51100000000E-03 0. -1.
        -11    1    3    3    0    0  0.25328635920E+01  0.24745558747E+01 -0.33584306601E+01  0.48803566993E+01  0.51100000000E-03 0.  1.
         12    1    3    3    0    0  0.55136587637E+01  0.12877504208E+02 -0.15146839208E+02  0.20631463486E+02  0.00000000000E+00 0. -1.
</event>
<event>
 7    1  0.2732193E-010  0.4778726E+02  0.7816164E-02  0.1312668E+00
        -11   -1    0    0    0    0  0.00000000000E+00  0.00000000000E+00  0.45593999997E+02  0.45594000000E+02  0.51100000000E-03 0.  1.
         11   -1    0    0    0    0 -0.00000000000E+00 -0.00000000000E+00 -0.45593999997E+02  0.45594000000E+02  0.51100000000E-03 0. -1.
    9900012    2    1    2    0    0  0.31445788910E+02  0.23424591538E+02 -0.18603082767E+02  0.47787264783E+02  0.19999971453E+02 0.  0.
        -12    1    1    2    0    0 -0.31445788910E+02 -0.23424591538E+02  0.18603082767E+02  0.43400735217E+02  0.00000000000E+00 0.  1.
         11    1    3    3    0    0  0.12715393651E+02  0.12046454649E+02 -0.14396388823E+02  0.22672765970E+02  0.51100000000E-03 0. -1.
        -11    1    3    3    0    0  0.14686515769E+02  0.28159942583E+01 -0.55080263892E+00  0.14964189016E+02  0.51100000000E-03 0.  1.
        -12    1    3    3    0    0  0.40438794903E+01  0.85621426306E+01 -0.36558913052E+01  0.10150309798E+02  0.00000000000E+00 0.  1.
</event>
<event>
 7    1  0.2732193E-010  0.4778727E+02  0.7816164E-02  0.1312668E+00
        -11   -1    0    0    0    0  0.00000000000E+00  0.00000000000E+00  0.45593999997E+02  0.45594000000E+02  0.51100000000E-03 0.  1.
         11   -1    0    0    0    0 -0.00000000000E+00 -0.00000000000E+00 -0.45593999997E+02  0.45594000000E+02  0.51100000000E-03 0. -1.
    9900012    2    1    2    0    0 -0.16954766108E+01  0.29614310678E+02 -0.31681876445E+02  0.47787270364E+02  0.19999996898E+02 0.  0.
        -12    1    1    2    0    0  0.16954766108E+01 -0.29614310678E+02  0.31681876445E+02  0.43400729636E+02  0.00000000000E+00 0.  1.
         11    1    3    3    0    0 -0.42904145017E+01  0.64378684252E+01 -0.17884432000E+02  0.19486064628E+02  0.51100000000E-03 0. -1.
        -11    1    3    3    0    0 -0.26201478716E+01  0.11309830031E+02 -0.50281379089E+01  0.12651466370E+02  0.51100000000E-03 0.  1.
         12    1    3    3    0    0  0.52150857625E+01  0.11866612221E+02 -0.87693065361E+01  0.15649739367E+02  0.00000000000E+00 0. -1.
</event>
<event>
 7    1  0.2732193E-010  0.4778726E+02  0.7816164E-02  0.1312668E+00
        -11   -1    0    0    0    0  0.00000000000E+00  0.00000000000E+00  0.45593999997E+02  0.45594000000E+02  0.51100000000E-03 0.  1.
         11   -1    0    0    0    0 -0.00000000000E+00 -0.00000000000E+00 -0.45593999997E+02  0.45594000000E+02  0.51100000000E-03 0. -1.
    9900012    2    1    2    0    0  0.18332352483E+02  0.29956001042E+02 -0.25498760176E+02  0.47787263641E+02  0.19999966247E+02 0.  0.
        -12    1    1    2    0    0 -0.18332352483E+02 -0.29956001042E+02  0.25498760176E+02  0.43400736359E+02  0.00000000000E+00 0.  1.
         11    1    3    3    0    0  0.17860028565E+02  0.23978676335E+02 -0.24715743316E+02  0.38792080468E+02  0.51100000000E-03 0. -1.
        -11    1    3    3    0    0 -0.85643263803E+00 -0.12209404226E+01  0.48090690503E+00  0.15669856705E+01  0.51100000000E-03 0.  1.
         12    1    3    3    0    0  0.13287565557E+01  0.71982651296E+01 -0.12639237646E+01  0.74281975029E+01  0.00000000000E+00 0. -1.
</event>
<event>
 7    1  0.2732193E-010  0.4778727E+02  0.7816164E-02  0.1312668E+00
        -11   -1    0    0    0    0  0.00000000000E+00  0.00000000000E+00  0.45593999997E+02  0.45594000000E+02  0.51100000000E-03 0. -1.
         11   -1    0    0    0    0 -0.00000000000E+00 -0.00000000000E+00 -0.45593999997E+02  0.45594000000E+02  0.51100000000E-03 0.  1.
    9900012    2    1    2    0    0  0.12035081398E+02  0.18734471059E+02  0.37253182175E+02  0.47787272214E+02  0.20000005335E+02 0.  0.
        -12    1    1    2    0    0 -0.12035081398E+02 -0.18734471059E+02 -0.37253182175E+02  0.43400727786E+02  0.00000000000E+00 0.  1.
         11    1    3    3    0    0  0.39730415641E+00  0.61215015249E+01  0.21796518615E+00  0.61382522428E+01  0.51100000000E-03 0.  1.
        -11    1    3    3    0    0 -0.28165067044E+00  0.27987548337E+01  0.22882125982E+01  0.36260547259E+01  0.51100000000E-03 0. -1.
         12    1    3    3    0    0  0.11919427912E+02  0.98142147007E+01  0.34747004391E+02  0.38022965246E+02  0.00000000000E+00 0. -1.
</event>
<event>
 7    1  0.2732193E-010  0.4778728E+02  0.7816164E-02  0.1312668E+00
        -11   -1    0    0    0    0  0.00000000000E+00  0.00000000000E+00  0.45593999997E+02  0.45594000000E+02  0.51100000000E-03 0.  1.
         11   -1    0    0    0    0 -0.00000000000E+00 -0.00000000000E+00 -0.45593999997E+02  0.45594000000E+02  0.51100000000E-03 0. -1.
    9900012    2    1    2    0    0 -0.10988964736E+02  0.18783734426E+02 -0.37550447353E+02  0.47787284322E+02  0.20000060537E+02 0.  0.
        -12    1    1    2    0    0  0.10988964736E+02 -0.18783734426E+02  0.37550447353E+02  0.43400715678E+02  0.00000000000E+00 0.  1.
         11    1    3    3    0    0 -0.68220656182E+00  0.97745833452E+01 -0.60784575741E+01  0.11530634506E+02  0.51100000000E-03 0. -1.
        -11    1    3    3    0    0 -0.12713428596E+02  0.61378340241E+01 -0.26560835866E+02  0.30079598989E+02  0.51100000000E-03 0.  1.
        -12    1    3    3    0    0  0.24066704224E+01  0.28713170568E+01 -0.49111539132E+01  0.61770508272E+01  0.00000000000E+00 0.  1.
</event>
<event>
 7    1  0.2732193E-010  0.4778729E+02  0.7816164E-02  0.1312668E+00
        -11   -1    0    0    0    0  0.00000000000E+00  0.00000000000E+00  0.45593999997E+02  0.45594000000E+02  0.51100000000E-03 0.  1.
         11   -1    0    0    0    0 -0.00000000000E+00 -0.00000000000E+00 -0.45593999997E+02  0.45594000000E+02  0.51100000000E-03 0. -1.
    9900012    2    1    2    0    0  0.99222293989E+01  0.41003836138E+02  0.10191003080E+02  0.47787288507E+02  0.20000079619E+02 0.  0.
        -12    1    1    2    0    0 -0.99222293989E+01 -0.41003836138E+02 -0.10191003080E+02  0.43400711493E+02  0.00000000000E+00 0.  1.
         11    1    3    3    0    0 -0.33767276115E+01  0.17743568525E+02  0.15482682958E+01  0.18128255524E+02  0.51100000000E-03 0. -1.
        -11    1    3    3    0    0  0.13348363655E+02  0.17893490511E+02  0.42528784718E+01  0.22725377675E+02  0.51100000000E-03 0.  1.
         12    1    3    3    0    0 -0.49406644937E-01  0.53667771028E+01  0.43898563121E+01  0.69336553079E+01  0.00000000000E+00 0. -1.
</event>
<event>
 7    1  0.2732193E-010  0.4778726E+02  0.7816164E-02  0.1312668E+00
        -11   -1    0    0    0    0  0.00000000000E+00  0.00000000000E+00  0.45593999997E+02  0.45594000000E+02  0.51100000000E-03 0.  1.
         11   -1    0    0    0    0 -0.00000000000E+00 -0.00000000000E+00 -0.45593999997E+02  0.45594000000E+02  0.51100000000E-03 0. -1.
    9900012    2    1    2    0    0 -0.35696443496E+02 -0.61748092955E+01 -0.23901042413E+02  0.47787260646E+02  0.19999952588E+02 0.  0.
        -12    1    1    2    0    0  0.35696443496E+02  0.61748092955E+01  0.23901042413E+02  0.43400739354E+02  0.00000000000E+00 0.  1.
         11    1    3    3    0    0 -0.20626522301E+02 -0.30209593588E+01 -0.21129823028E+02  0.29682470233E+02  0.51100000000E-03 0. -1.
        -11    1    3    3    0    0 -0.26555093725E+01 -0.42990186250E+01  0.84632514272E+00  0.51234322162E+01  0.51100000000E-03 0.  1.
        -12    1    3    3    0    0 -0.12414411822E+02  0.11451686882E+01 -0.36175445278E+01  0.12981358197E+02  0.00000000000E+00 0.  1.
</event>
<event>
 7    1  0.2732193E-010  0.4778726E+02  0.7816164E-02  0.1312668E+00
        -11   -1    0    0    0    0  0.00000000000E+00  0.00000000000E+00  0.45593999997E+02  0.45594000000E+02  0.51100000000E-03 0.  1.
         11   -1    0    0    0    0 -0.00000000000E+00 -0.00000000000E+00 -0.45593999997E+02  0.45594000000E+02  0.51100000000E-03 0. -1.
    9900012    2    1    2    0    0 -0.30743541979E+02 -0.98985759028E+01 -0.28990975067E+02  0.47787264826E+02  0.19999971646E+02 0.  0.
        -12    1    1    2    0    0  0.30743541979E+02  0.98985759028E+01  0.28990975067E+02  0.43400735174E+02  0.00000000000E+00 0.  1.
         11    1    3    3    0    0 -0.13511930758E+02 -0.12841360211E+02 -0.13467850878E+02  0.22996865274E+02  0.51100000000E-03 0. -1.
        -11    1    3    3    0    0 -0.14792295804E+01  0.31328493156E+01 -0.38770880249E+01  0.51994881286E+01  0.51100000000E-03 0.  1.
         12    1    3    3    0    0 -0.15752381641E+02 -0.19006500746E+00 -0.11646036164E+02  0.19590911423E+02  0.00000000000E+00 0. -1.
</event>
<event>
 7    1  0.2732193E-010  0.4778727E+02  0.7816164E-02  0.1312668E+00
        -11   -1    0    0    0    0  0.00000000000E+00  0.00000000000E+00  0.45593999997E+02  0.45594000000E+02  0.51100000000E-03 0.  1.
         11   -1    0    0    0    0 -0.00000000000E+00 -0.00000000000E+00 -0.45593999997E+02  0.45594000000E+02  0.51100000000E-03 0. -1.
    9900012    2    1    2    0    0  0.31227382749E+02 -0.30139883617E+02  0.24707405912E+00  0.47787273470E+02  0.20000011059E+02 0.  0.
        -12    1    1    2    0    0 -0.31227382749E+02  0.30139883617E+02 -0.24707405912E+00  0.43400726530E+02  0.00000000000E+00 0.  1.
         11    1    3    3    0    0  0.16219572223E+02 -0.96714225803E+01 -0.46868569912E+00  0.18889960413E+02  0.51100000000E-03 0. -1.
        -11    1    3    3    0    0  0.57385767930E+01 -0.13319636863E+02  0.64378133182E+01  0.15867874160E+02  0.51100000000E-03 0.  1.
        -12    1    3    3    0    0  0.92692337321E+01 -0.71488241733E+01 -0.57220535600E+01  0.13029438898E+02  0.00000000000E+00 0.  1.
</event>
<event>
 7    1  0.2732193E-010  0.4778727E+02  0.7816164E-02  0.1312668E+00
        -11   -1    0    0    0    0  0.00000000000E+00  0.00000000000E+00  0.45593999997E+02  0.45594000000E+02  0.51100000000E-03 0.  1.
         11   -1    0    0    0    0 -0.00000000000E+00 -0.00000000000E+00 -0.45593999997E+02  0.45594000000E+02  0.51100000000E-03 0. -1.
    9900012    2    1    2    0    0 -0.30597433108E+02 -0.30164290770E+02  0.61266659523E+01  0.47787269751E+02  0.19999994104E+02 0.  0.
        -12    1    1    2    0    0  0.30597433108E+02  0.30164290770E+02 -0.61266659523E+01  0.43400730249E+02  0.00000000000E+00 0.  1.
         11    1    3    3    0    0 -0.60311670483E+01 -0.10298860007E+02  0.81513382673E+01  0.14452882384E+02  0.51100000000E-03 0. -1.
        -11    1    3    3    0    0 -0.14515232311E+02 -0.50566256575E+01 -0.66374212257E+00  0.15385122228E+02  0.51100000000E-03 0.  1.
         12    1    3    3    0    0 -0.10051033748E+02 -0.14808805105E+02 -0.13609301924E+01  0.17949265139E+02  0.00000000000E+00 0. -1.
</event>
<event>
 7    1  0.2732193E-010  0.4778727E+02  0.7816164E-02  0.1312668E+00
        -11   -1    0    0    0    0  0.00000000000E+00  0.00000000000E+00  0.45593999997E+02  0.45594000000E+02  0.51100000000E-03 0.  1.
         11   -1    0    0    0    0 -0.00000000000E+00 -0.00000000000E+00 -0.45593999997E+02  0.45594000000E+02  0.51100000000E-03 0. -1.
    9900012    2    1    2    0    0  0.11152387269E+02 -0.32359842381E+02 -0.26684980179E+02  0.47787270653E+02  0.19999998213E+02 0.  0.
        -12    1    1    2    0    0 -0.11152387269E+02  0.32359842381E+02  0.26684980179E+02  0.43400729347E+02  0.00000000000E+00 0.  1.
         11    1    3    3    0    0 -0.31527577407E+01 -0.15535397142E+01 -0.45237629860E+01  0.57286821198E+01  0.51100000000E-03 0.  1.
        -11    1    3    3    0    0  0.12105008354E+02 -0.13325020401E+02 -0.12954495658E+02  0.22178961968E+02  0.51100000000E-03 0. -1.
         12    1    3    3    0    0  0.22001366564E+01 -0.17481282265E+02 -0.92067215350E+01  0.19879626565E+02  0.00000000000E+00 0. -1.
</event>
<event>
 7    1  0.2732193E-010  0.4778727E+02  0.7816164E-02  0.1312668E+00
        -11   -1    0    0    0    0  0.00000000000E+00  0.00000000000E+00  0.45593999997E+02  0.45594000000E+02  0.51100000000E-03 0. -1.
         11   -1    0    0    0    0 -0.00000000000E+00 -0.00000000000E+00 -0.45593999997E+02  0.45594000000E+02  0.51100000000E-03 0.  1.
    9900012    2    1    2    0    0  0.35633546300E+02 -0.20314498129E+02  0.14184323441E+02  0.47787268582E+02  0.19999988774E+02 0.  0.
        -12    1    1    2    0    0 -0.35633546300E+02  0.20314498129E+02 -0.14184323441E+02  0.43400731418E+02  0.00000000000E+00 0.  1.
         11    1    3    3    0    0  0.33181909101E+02 -0.16485517284E+02  0.53750376730E+01  0.37439316260E+02  0.51100000000E-03 0. -1.
        -11    1    3    3    0    0  0.12000475354E+01 -0.38981431611E+01  0.58239988285E+01  0.71101755820E+01  0.51100000000E-03 0.  1.
         12    1    3    3    0    0  0.12515896628E+01  0.69162316640E-01  0.29852869394E+01  0.32377767404E+01  0.00000000000E+00 0. -1.
</event>
<event>
 7    1  0.2732193E-010  0.4778727E+02  0.7816164E-02  0.1312668E+00
        -11   -1    0    0    0    0  0.00000000000E+00  0.00000000000E+00  0.45593999997E+02  0.45594000000E+02  0.51100000000E-03 0. -1.
         11   -1    0    0    0    0 -0.00000000000E+00 -0.00000000000E+00 -0.45593999997E+02  0.45594000000E+02  0.51100000000E-03 0.  1.
    9900012    2    1    2    0    0 -0.17908777533E+02 -0.38805543722E+02  0.75517354085E+01  0.47787271389E+02  0.20000001572E+02 0.  0.
        -12    1    1    2    0    0  0.17908777533E+02  0.38805543722E+02 -0.75517354085E+01  0.43400728611E+02  0.00000000000E+00 0.  1.
         11    1    3    3    0    0 -0.33874033987E+01 -0.17471401585E+01  0.14223298674E+01  0.40681719521E+01  0.51100000000E-03 0. -1.
        -11    1    3    3    0    0 -0.17961298069E+02 -0.31814806204E+02  0.75076758835E+01  0.37298194589E+02  0.51100000000E-03 0.  1.
        -12    1    3    3    0    0  0.34399239344E+01 -0.52435973588E+01 -0.13782703424E+01  0.64209048484E+01  0.00000000000E+00 0.  1.
</event>
<event>
 7    1  0.2732193E-010  0.4778727E+02  0.7816164E-02  0.1312668E+00
        -11   -1    0    0    0    0  0.00000000000E+00  0.00000000000E+00  0.45593999997E+02  0.45594000000E+02  0.51100000000E-03 0. -1.
         11   -1    0    0    0    0 -0.00000000000E+00 -0.00000000000E+00 -0.45593999997E+02  0.45594000000E+02  0.51100000000E-03 0.  1.
    9900012    2    1    2    0    0 -0.18511173614E+02 -0.35438116691E+02  0.16884889651E+02  0.47787272337E+02  0.20000005892E+02 0.  0.
        -12    1    1    2    0    0  0.18511173614E+02  0.35438116691E+02 -0.16884889651E+02  0.43400727663E+02  0.00000000000E+00 0.  1.
         11    1    3    3    0    0 -0.92880401285E+01 -0.29677600366E+02  0.17387127341E+02  0.35627796035E+02  0.51100000000E-03 0. -1.
        -11    1    3    3    0    0 -0.52899841652E+01 -0.56358393036E+01 -0.19410086095E+01  0.79695753844E+01  0.51100000000E-03 0.  1.
         12    1    3    3    0    0 -0.39331493207E+01 -0.12467702192E+00  0.14387709194E+01  0.41899009173E+01  0.00000000000E+00 0. -1.
</event>
<event>
 7    1  0.2732193E-010  0.4778726E+02  0.7816164E-02  0.1312668E+00
        -11   -1    0    0    0    0  0.00000000000E+00  0.00000000000E+00  0.45593999997E+02  0.45594000000E+02  0.51100000000E-03 0.  1.
         11   -1    0    0    0    0 -0.00000000000E+00 -0.00000000000E+00 -0.45593999997E+02  0.45594000000E+02  0.51100000000E-03 0. -1.
    9900012    2    1    2    0    0  0.31826632033E+02 -0.29505884254E+02 -0.30472411368E+00  0.47787256124E+02  0.19999931973E+02 0.  0.
        -12    1    1    2    0    0 -0.31826632033E+02  0.29505884254E+02  0.30472411368E+00  0.43400743876E+02  0.00000000000E+00 0.  1.
         11    1    3    3    0    0  0.20569402570E+02 -0.18503446881E+02 -0.53394875670E+01  0.28177792609E+02  0.51100000000E-03 0. -1.
        -11    1    3    3    0    0  0.49304944637E+01 -0.84546800215E+01  0.75280295071E+01  0.12347575407E+02  0.51100000000E-03 0.  1.
        -12    1    3    3    0    0  0.63267349997E+01 -0.25477573513E+01 -0.24932660538E+01  0.72618881080E+01  0.00000000000E+00 0.  1.
</event>
<event>
 7    1  0.2732193E-010  0.4778727E+02  0.7816164E-02  0.1312668E+00
        -11   -1    0    0    0    0  0.00000000000E+00  0.00000000000E+00  0.45593999997E+02  0.45594000000E+02  0.51100000000E-03 0.  1.
         11   -1    0    0    0    0 -0.00000000000E+00 -0.00000000000E+00 -0.45593999997E+02  0.45594000000E+02  0.51100000000E-03 0. -1.
    9900012    2    1    2    0    0 -0.32280592362E+02 -0.15007388846E+01 -0.28971268422E+02  0.47787271269E+02  0.20000001024E+02 0.  0.
        -12    1    1    2    0    0  0.32280592362E+02  0.15007388846E+01  0.28971268422E+02  0.43400728731E+02  0.00000000000E+00 0.  1.
         11    1    3    3    0    0 -0.13382873361E+02  0.26302466501E+01 -0.15837594625E+02  0.20900930616E+02  0.51100000000E-03 0. -1.
        -11    1    3    3    0    0 -0.74988094716E+01 -0.72692950709E+01 -0.19749178122E+01  0.10628974313E+02  0.51100000000E-03 0.  1.
        -12    1    3    3    0    0 -0.11398909529E+02  0.31383095362E+01 -0.11158755984E+02  0.16257366340E+02  0.00000000000E+00 0.  1.
</event>
<event>
 7    1  0.2732193E-010  0.4778728E+02  0.7816164E-02  0.1312668E+00
        -11   -1    0    0    0    0  0.00000000000E+00  0.00000000000E+00  0.45593999997E+02  0.45594000000E+02  0.51100000000E-03 0.  1.
         11   -1    0    0    0    0 -0.00000000000E+00 -0.00000000000E+00 -0.45593999997E+02  0.45594000000E+02  0.51100000000E-03 0. -1.
    9900012    2    1    2    0    0 -0.24988620088E+02 -0.34267849237E+02 -0.92144576666E+01  0.47787275866E+02  0.20000021983E+02 0.  0.
        -12    1    1    2    0    0  0.24988620088E+02  0.34267849237E+02  0.92144576666E+01  0.43400724134E+02  0.00000000000E+00 0.  1.
         11    1    3    3    0    0 -0.11634212347E+02 -0.16606457365E+02 -0.42527009130E+01  0.20717499571E+02  0.51100000000E-03 0. -1.
        -11    1    3    3    0    0 -0.11623387200E+02 -0.53027734435E+01  0.17581164488E+01  0.12896259532E+02  0.51100000000E-03 0.  1.
        -12    1    3    3    0    0 -0.17310205406E+01 -0.12358618428E+02 -0.67198732024E+01  0.14173516763E+02  0.00000000000E+00 0.  1.
</event>
<event>
 7    1  0.2732193E-010  0.4778727E+02  0.7816164E-02  0.1312668E+00
        -11   -1    0    0    0    0  0.00000000000E+00  0.00000000000E+00  0.45593999997E+02  0.45594000000E+02  0.51100000000E-03 0.  1.
         11   -1    0    0    0    0 -0.00000000000E+00 -0.00000000000E+00 -0.45593999997E+02  0.45594000000E+02  0.51100000000E-03 0. -1.
    9900012    2    1    2    0    0  0.38281051245E+02  0.19336673144E+02 -0.66541086406E+01  0.47787274494E+02  0.20000015727E+02 0.  0.
        -12    1    1    2    0    0 -0.38281051245E+02 -0.19336673144E+02  0.66541086406E+01  0.43400725506E+02  0.00000000000E+00 0.  1.
         11    1    3    3    0    0  0.12886523568E+02  0.89486462092E+01  0.68348828776E+01  0.17113047153E+02  0.51100000000E-03 0. -1.
        -11    1    3    3    0    0  0.12213537489E+02  0.37178484771E+01 -0.66589743960E+01  0.14399126208E+02  0.51100000000E-03 0.  1.
         12    1    3    3    0    0  0.13180990188E+02  0.66701784578E+01 -0.68300171222E+01  0.16275101133E+02  0.00000000000E+00 0. -1.
</event>
<event>
 7    1  0.2732193E-010  0.4778727E+02  0.7816164E-02  0.1312668E+00
        -11   -1    0    0    0    0  0.00000000000E+00  0.00000000000E+00  0.45593999997E+02  0.45594000000E+02  0.51100000000E-03 0.  1.
         11   -1    0    0    0    0 -0.00000000000E+00 -0.00000000000E+00 -0.45593999997E+02  0.45594000000E+02  0.51100000000E-03 0. -1.
    9900012    2    1    2    0    0 -0.28578565022E+02  0.20293372604E+02 -0.25594294902E+02  0.47787270952E+02  0.19999999578E+02 0.  0.
        -12    1    1    2    0    0  0.28578565022E+02 -0.20293372604E+02  0.25594294902E+02  0.43400729048E+02  0.00000000000E+00 0.  1.
         11    1    3    3    0    0 -0.18495127899E+02  0.50472148807E+01 -0.15852884963E+02  0.24876858643E+02  0.51100000000E-03 0. -1.
        -11    1    3    3    0    0  0.15407647042E+00  0.74630628098E+01 -0.58209372850E+01  0.94659578067E+01  0.51100000000E-03 0.  1.
         12    1    3    3    0    0 -0.10237513594E+02  0.77830949137E+01 -0.39204726540E+01  0.13444454502E+02  0.00000000000E+00 0. -1.
</event>
<event>
 7    1  0.2732193E-010  0.4778727E+02  0.7816164E-02  0.1312668E+00
        -11   -1    0    0    0    0  0.00000000000E+00  0.00000000000E+00  0.45593999997E+02  0.45594000000E+02  0.51100000000E-03 0. -1.
         11   -1    0    0    0    0 -0.00000000000E+00 -0.00000000000E+00 -0.45593999997E+02  0.45594000000E+02  0.51100000000E-03 0.  1.
    9900012    2    1    2    0    0 -0.30250067098E+02 -0.89159803953E+01  0.29817141699E+02  0.47787271839E+02  0.20000003622E+02 0.  0.
        -12    1    1    2    0    0  0.30250067098E+02  0.89159803953E+01 -0.29817141699E+02  0.43400728161E+02  0.00000000000E+00 0.  1.
         11    1    3    3    0    0 -0.22340638363E+01 -0.77789276675E+00  0.38905233830E+01  0.45532769338E+01  0.51100000000E-03 0. -1.
        -11    1    3    3    0    0 -0.70406314897E+01  0.10537499969E+01  0.17395018158E+02  0.18795412680E+02  0.51100000000E-03 0.  1.
        -12    1    3    3    0    0 -0.20975371772E+02 -0.91918376254E+01  0.85316001573E+01  0.24438582225E+02  0.00000000000E+00 0.  1.
</event>
<event>
 7    1  0.2732193E-010  0.4778727E+02  0.7816164E-02  0.1312668E+00
        -11   -1    0    0    0    0  0.00000000000E+00  0.00000000000E+00  0.45593999997E+02  0.45594000000E+02  0.51100000000E-03 0. -1.
         11   -1    0    0    0    0 -0.00000000000E+00 -0.00000000000E+00 -0.45593999997E+02  0.45594000000E+02  0.51100000000E-03 0.  1.
    9900012    2    1    2    0    0 -0.26465084517E+02 -0.20983023039E+02  0.27256838358E+02  0.47787271992E+02  0.20000004322E+02 0.  0.
        -12    1    1    2    0    0  0.26465084517E+02  0.20983023039E+02 -0.27256838358E+02  0.43400728008E+02  0.00000000000E+00 0.  1.
         11    1    3    3    0    0 -0.23195269578E+02 -0.19012300479E+02  0.19538281250E+02  0.35794308692E+02  0.51100000000E-03 0. -1.
        -11    1    3    3    0    0  0.11868307194E+00 -0.41242637527E+01  0.11307405015E+01  0.42781084040E+01  0.51100000000E-03 0.  1.
         12    1    3    3    0    0 -0.33884980107E+01  0.21535411923E+01  0.65878166062E+01  0.77148548964E+01  0.00000000000E+00 0. -1.
</event>
<event>
 7    1  0.2732193E-010  0.4778726E+02  0.7816164E-02  0.1312668E+00
        -11   -1    0    0    0    0  0.00000000000E+00  0.00000000000E+00  0.45593999997E+02  0.45594000000E+02  0.51100000000E-03 0.  1.
         11   -1    0    0    0    0 -0.00000000000E+00 -0.00000000000E+00 -0.45593999997E+02  0.45594000000E+02  0.51100000000E-03 0. -1.
    9900012    2    1    2    0    0  0.29025719380E+01  0.10807978838E+02 -0.41933119202E+02  0.47787264794E+02  0.19999971503E+02 0.  0.
        -12    1    1    2    0    0 -0.29025719380E+01 -0.10807978838E+02  0.41933119202E+02  0.43400735206E+02  0.00000000000E+00 0.  1.
         11    1    3    3    0    0  0.15752445666E+01 -0.40855636567E+00  0.14309770973E+01  0.21670277946E+01  0.51100000000E-03 0. -1.
        -11    1    3    3    0    0 -0.17587123974E+01 -0.51646465251E+00 -0.87974103904E+01  0.89863360094E+01  0.51100000000E-03 0.  1.
         12    1    3    3    0    0  0.30860397688E+01  0.11732999856E+02 -0.34566685908E+02  0.36633900990E+02  0.00000000000E+00 0. -1.
</event>
<event>
 7    1  0.2732193E-010  0.4778728E+02  0.7816164E-02  0.1312668E+00
        -11   -1    0    0    0    0  0.00000000000E+00  0.00000000000E+00  0.45593999997E+02  0.45594000000E+02  0.51100000000E-03 0.  1.
         11   -1    0    0    0    0 -0.00000000000E+00 -0.00000000000E+00 -0.45593999997E+02  0.45594000000E+02  0.51100000000E-03 0. -1.
    9900012    2    1    2    0    0 -0.32906100432E+02  0.27265719512E+02  0.75757296068E+01  0.47787278978E+02  0.20000036173E+02 0.  0.
        -12    1    1    2    0    0  0.32906100432E+02 -0.27265719512E+02 -0.75757296068E+01  0.43400721022E+02  0.00000000000E+00 0.  1.
         11    1    3    3    0    0 -0.72386079197E+01  0.72290612909E+01 -0.65146197684E+01  0.12128356968E+02  0.51100000000E-03 0. -1.
        -11    1    3    3    0    0 -0.22651773964E+02  0.16070377292E+02  0.11843436645E+02  0.30193159521E+02  0.51100000000E-03 0.  1.
         12    1    3    3    0    0 -0.30157185485E+01  0.39662809292E+01  0.22469127299E+01  0.54657624892E+01  0.00000000000E+00 0. -1.
</event>
<event>
 7    1  0.2732193E-010  0.4778727E+02  0.7816164E-02  0.1312668E+00
        -11   -1    0    0    0    0  0.00000000000E+00  0.00000000000E+00  0.45593999997E+02  0.45594000000E+02  0.51100000000E-03 0. -1.
         11   -1    0    0    0    0 -0.00000000000E+00 -0.00000000000E+00 -0.45593999997E+02  0.45594000000E+02  0.51100000000E-03 0.  1.
    9900012    2    1    2    0    0 -0.40478570876E+02  0.73212892348E+01  0.13838609924E+02  0.47787273038E+02  0.20000009088E+02 0.  0.
        -12    1    1    2    0    0  0.40478570876E+02 -0.73212892348E+01 -0.13838609924E+02  0.43400726962E+02  0.00000000000E+00 0.  1.
         11    1    3    3    0    0 -0.13312802708E+02  0.12978838449E+01  0.68652327850E+01  0.15034847517E+02  0.51100000000E-03 0. -1.
        -11    1    3    3    0    0 -0.41878445820E+01 -0.13292934045E+01  0.74192367442E+01  0.86226525690E+01  0.51100000000E-03 0.  1.
        -12    1    3    3    0    0 -0.22977923587E+02  0.73526987944E+01 -0.44585960563E+00  0.24129772952E+02  0.00000000000E+00 0.  1.
</event>
<event>
 7    1  0.2732193E-010  0.4778728E+02  0.7816164E-02  0.1312668E+00
        -11   -1    0    0    0    0  0.00000000000E+00  0.00000000000E+00  0.45593999997E+02  0.45594000000E+02  0.51100000000E-03 0.  1.
         11   -1    0    0    0    0 -0.00000000000E+00 -0.00000000000E+00 -0.45593999997E+02  0.45594000000E+02  0.51100000000E-03 0. -1.
    9900012    2    1    2    0    0 -0.38628063144E+02  0.12135429383E+02 -0.15627753998E+02  0.47787278767E+02  0.20000035208E+02 0.  0.
        -12    1    1    2    0    0  0.38628063144E+02 -0.12135429383E+02  0.15627753998E+02  0.43400721233E+02  0.00000000000E+00 0.  1.
         11    1    3    3    0    0 -0.88579302565E+01  0.16628772965E+01 -0.83112569658E+01  0.12259897306E+02  0.51100000000E-03 0. -1.
        -11    1    3    3    0    0 -0.23671252438E+02  0.13947254384E+02 -0.40006794564E+01  0.27764357245E+02  0.51100000000E-03 0.  1.
        -12    1    3    3    0    0 -0.60988804492E+01 -0.34747022970E+01 -0.33158175758E+01  0.77630242163E+01  0.00000000000E+00 0.  1.
</event>
<event>
 7    1  0.2732193E-010  0.4778727E+02  0.7816164E-02  0.1312668E+00
        -11   -1    0    0    0    0  0.00000000000E+00  0.00000000000E+00  0.45593999997E+02  0.45594000000E+02  0.51100000000E-03 0.  1.
         11   -1    0    0    0    0 -0.00000000000E+00 -0.00000000000E+00 -0.45593999997E+02  0.45594000000E+02  0.51100000000E-03 0. -1.
    9900012    2    1    2    0    0  0.41010345635E+02  0.68940684301E+01 -0.12419605254E+02  0.47787271628E+02  0.20000002659E+02 0.  0.
        -12    1    1    2    0    0 -0.41010345635E+02 -0.68940684301E+01  0.12419605254E+02  0.43400728372E+02  0.00000000000E+00 0.  1.
         11    1    3    3    0    0  0.91763555476E+00  0.16361447212E+01 -0.16857208556E+01  0.25220387832E+01  0.51100000000E-03 0.  1.
        -11    1    3    3    0    0  0.23200684522E+02  0.11395921082E+02 -0.81814136546E+01  0.27112253857E+02  0.51100000000E-03 0. -1.
        -12    1    3    3    0    0  0.16892025558E+02 -0.61379973727E+01 -0.25524707440E+01  0.18152978987E+02  0.00000000000E+00 0.  1.
</event>
<event>
 7    1  0.2732193E-010  0.4778727E+02  0.7816164E-02  0.1312668E+00
        -11   -1    0    0    0    0  0.00000000000E+00  0.00000000000E+00  0.45593999997E+02  0.45594000000E+02  0.51100000000E-03 0.  1.
         11   -1    0    0    0    0 -0.00000000000E+00 -0.00000000000E+00 -0.45593999997E+02  0.45594000000E+02  0.51100000000E-03 0. -1.
    9900012    2    1    2    0    0  0.25691392438E+02  0.34881038476E+02 -0.26246779942E+01  0.47787269302E+02  0.19999992055E+02 0.  0.
        -12    1    1    2    0    0 -0.25691392438E+02 -0.34881038476E+02  0.26246779942E+01  0.43400730698E+02  0.00000000000E+00 0.  1.
         11    1    3    3    0    0  0.35031176746E+01  0.13181578951E+02 -0.65203027595E+01  0.15117546276E+02  0.51100000000E-03 0. -1.
        -11    1    3    3    0    0  0.12278449298E+02  0.69169998774E+01  0.46970940832E+01  0.14854894734E+02  0.51100000000E-03 0.  1.
         12    1    3    3    0    0  0.99098254647E+01  0.14782459648E+02 -0.80146931785E+00  0.17814828291E+02  0.00000000000E+00 0. -1.
</event>
<event>
 7    1  0.2732193E-010  0.4778727E+02  0.7816164E-02  0.1312668E+00
        -11   -1    0    0    0    0  0.00000000000E+00  0.00000000000E+00  0.45593999997E+02  0.45594000000E+02  0.51100000000E-03 0.  1.
         11   -1    0    0    0    0 -0.00000000000E+00 -0.00000000000E+00 -0.45593999997E+02  0.45594000000E+02  0.51100000000E-03 0. -1.
    9900012    2    1    2    0    0  0.23250292392E+02  0.18254846834E+02 -0.31777475951E+02  0.47787268358E+02  0.19999987751E+02 0.  0.
        -12    1    1    2    0    0 -0.23250292392E+02 -0.18254846834E+02  0.31777475951E+02  0.43400731642E+02  0.00000000000E+00 0.  1.
         11    1    3    3    0    0  0.19840808977E+02  0.47732935258E+01 -0.22954379140E+02  0.30713930942E+02  0.51100000000E-03 0. -1.
        -11    1    3    3    0    0  0.36930328932E+01  0.10481882705E+02 -0.49492169408E+01  0.12165652699E+02  0.51100000000E-03 0.  1.
        -12    1    3    3    0    0 -0.28354947824E+00  0.29996706031E+01 -0.38738798700E+01  0.49076847169E+01  0.00000000000E+00 0.  1.
</event>
<event>
 7    1  0.2732193E-010  0.4778727E+02  0.7816164E-02  0.1312668E+00
        -11   -1    0    0    0    0  0.00000000000E+00  0.00000000000E+00  0.45593999997E+02  0.45594000000E+02  0.51100000000E-03 0. -1.
         11   -1    0    0    0    0 -0.00000000000E+00 -0.00000000000E+00 -0.45593999997E+02  0.45594000000E+02  0.51100000000E-03 0.  1.
    9900012    2    1    2    0    0 -0.24264803975E+02  0.33196458790E+02  0.13886616354E+02  0.47787266113E+02  0.19999977517E+02 0.  0.
        -12    1    1    2    0    0  0.24264803975E+02 -0.33196458790E+02 -0.13886616354E+02  0.43400733887E+02  0.00000000000E+00 0.  1.
         11    1    3    3    0    0 -0.12976649637E+02  0.21963633270E+02  0.13567731482E+02  0.28894254793E+02  0.51100000000E-03 0. -1.
        -11    1    3    3    0    0 -0.55611314057E+01  0.81670409610E+01 -0.44479971427E+01  0.10835655006E+02  0.51100000000E-03 0.  1.
         12    1    3    3    0    0 -0.57270229317E+01  0.30657845591E+01  0.47668820152E+01  0.80573563140E+01  0.00000000000E+00 0. -1.
</event>
<event>
 7    1  0.2732193E-010  0.4778727E+02  0.7816164E-02  0.1312668E+00
        -11   -1    0    0    0    0  0.00000000000E+00  0.00000000000E+00  0.45593999997E+02  0.45594000000E+02  0.51100000000E-03 0.  1.
         11   -1    0    0    0    0 -0.00000000000E+00 -0.00000000000E+00 -0.45593999997E+02  0.45594000000E+02  0.51100000000E-03 0. -1.
    9900012    2    1    2    0    0 -0.11433382374E+02  0.17326788371E+02 -0.38114082777E+02  0.47787272659E+02  0.20000007363E+02 0.  0.
        -12    1    1    2    0    0  0.11433382374E+02 -0.17326788371E+02  0.38114082777E+02  0.43400727341E+02  0.00000000000E+00 0.  1.
         11    1    3    3    0    0 -0.40784491387E+01  0.37248576677E+01 -0.24591328862E+02  0.25204003005E+02  0.51100000000E-03 0. -1.
        -11    1    3    3    0    0  0.52095497941E-01  0.48827909426E+01 -0.16881043826E-01  0.48830980494E+01  0.51100000000E-03 0.  1.
         12    1    3    3    0    0 -0.74070287329E+01  0.87191397605E+01 -0.13505872871E+02  0.17700171605E+02  0.00000000000E+00 0. -1.
</event>
<event>
 7    1  0.2732193E-010  0.4778727E+02  0.7816164E-02  0.1312668E+00
        -11   -1    0    0    0    0  0.00000000000E+00  0.00000000000E+00  0.45593999997E+02  0.45594000000E+02  0.51100000000E-03 0. -1.
         11   -1    0    0    0    0 -0.00000000000E+00 -0.00000000000E+00 -0.45593999997E+02  0.45594000000E+02  0.51100000000E-03 0.  1.
    9900012    2    1    2    0    0 -0.37532286344E+02  0.14360565055E+02  0.16392841942E+02  0.47787267128E+02  0.19999982144E+02 0.  0.
        -12    1    1    2    0    0  0.37532286344E+02 -0.14360565055E+02 -0.16392841942E+02  0.43400732872E+02  0.00000000000E+00 0.  1.
         11    1    3    3    0    0 -0.94757495673E+00  0.43099387363E+01 -0.12175418317E+01  0.45777591223E+01  0.51100000000E-03 0. -1.
        -11    1    3    3    0    0 -0.19233166257E+02 -0.23569171536E+00  0.97053473914E+01  0.21544465719E+02  0.51100000000E-03 0.  1.
         12    1    3    3    0    0 -0.17351545130E+02  0.10286318034E+02  0.79050363818E+01  0.21665042287E+02  0.00000000000E+00 0. -1.
</event>
<event>
 7    1  0.2732193E-010  0.4778727E+02  0.7816164E-02  0.1312668E+00
        -11   -1    0    0    0    0  0.00000000000E+00  0.00000000000E+00  0.45593999997E+02  0.45594000000E+02  0.51100000000E-03 0. -1.
         11   -1    0    0    0    0 -0.00000000000E+00 -0.00000000000E+00 -0.45593999997E+02  0.45594000000E+02  0.51100000000E-03 0.  1.
    9900012    2    1    2    0    0 -0.14214674455E+01 -0.13461934104E+02  0.41235653038E+02  0.47787270501E+02  0.19999997524E+02 0.  0.
        -12    1    1    2    0    0  0.14214674455E+01  0.13461934104E+02 -0.41235653038E+02  0.43400729499E+02  0.00000000000E+00 0.  1.
         11    1    3    3    0    0  0.82477473008E+01 -0.95427120133E+01  0.15537306836E+02  0.20012410951E+02  0.51100000000E-03 0. -1.
        -11    1    3    3    0    0 -0.74535469012E+01 -0.35923709231E+01  0.19427490750E+02  0.21116057571E+02  0.51100000000E-03 0.  1.
         12    1    3    3    0    0 -0.22156678451E+01 -0.32685116718E+00  0.62708554526E+01  0.66588019788E+01  0.00000000000E+00 0. -1.
</event>
<event>
 7    1  0.2732193E-010  0.4778727E+02  0.7816164E-02  0.1312668E+00
        -11   -1    0    0    0    0  0.00000000000E+00  0.00000000000E+00  0.45593999997E+02  0.45594000000E+02  0.51100000000E-03 0.  1.
         11   -1    0    0    0    0 -0.00000000000E+00 -0.00000000000E+00 -0.45593999997E+02  0.45594000000E+02  0.51100000000E-03 0. -1.
    9900012    2    1    2    0    0  0.28256158873E+02 -0.17948245164E+02 -0.27623783004E+02  0.47787269520E+02  0.19999993050E+02 0.  0.
        -12    1    1    2    0    0 -0.28256158873E+02  0.17948245164E+02  0.27623783004E+02  0.43400730480E+02  0.00000000000E+00 0.  1.
         11    1    3    3    0    0  0.39913029475E+01 -0.39679156347E+01 -0.31609886721E+01  0.64549750851E+01  0.51100000000E-03 0.  1.
        -11    1    3    3    0    0  0.21115337206E+02 -0.62748964811E+01 -0.90486940769E+01  0.23814085243E+02  0.51100000000E-03 0. -1.
        -12    1    3    3    0    0  0.31495187192E+01 -0.77054330480E+01 -0.15414100255E+02  0.17518209192E+02  0.00000000000E+00 0.  1.
</event>
<event>
 7    1  0.2732193E-010  0.4778727E+02  0.7816164E-02  0.1312668E+00
        -11   -1    0    0    0    0  0.00000000000E+00  0.00000000000E+00  0.45593999997E+02  0.45594000000E+02  0.51100000000E-03 0.  1.
         11   -1    0    0    0    0 -0.00000000000E+00 -0.00000000000E+00 -0.45593999997E+02  0.45594000000E+02  0.51100000000E-03 0. -1.
    9900012    2    1    2    0    0 -0.32929000902E+02 -0.39251320625E+01 -0.27998168969E+02  0.47787271576E+02  0.20000002422E+02 0.  0.
        -12    1    1    2    0    0  0.32929000902E+02  0.39251320625E+01  0.27998168969E+02  0.43400728424E+02  0.00000000000E+00 0.  1.
         11    1    3    3    0    0 -0.30549301257E+01 -0.21158198216E+00 -0.33329533128E+01  0.45261399729E+01  0.51100000000E-03 0. -1.
        -11    1    3    3    0    0 -0.28658018802E+02  0.25635778296E+01 -0.22449366450E+02  0.36494219093E+02  0.51100000000E-03 0.  1.
        -12    1    3    3    0    0 -0.12160519742E+01 -0.62771279099E+01 -0.22158492066E+01  0.67669125093E+01  0.00000000000E+00 0.  1.
</event>
<event>
 7    1  0.2732193E-010  0.4778726E+02  0.7816164E-02  0.1312668E+00
        -11   -1    0    0    0    0  0.00000000000E+00  0.00000000000E+00  0.45593999997E+02  0.45594000000E+02  0.51100000000E-03 0.  1.
         11   -1    0    0    0    0 -0.00000000000E+00 -0.00000000000E+00 -0.45593999997E+02  0.45594000000E+02  0.51100000000E-03 0. -1.
    9900012    2    1    2    0    0  0.29278064753E+02 -0.31725841500E+02 -0.44598429715E+01  0.47787259293E+02  0.19999946419E+02 0.  0.
        -12    1    1    2    0    0 -0.29278064753E+02  0.31725841500E+02  0.44598429715E+01  0.43400740707E+02  0.00000000000E+00 0.  1.
         11    1    3    3    0    0  0.42498623410E+01 -0.18782066134E+02 -0.18813516010E+01  0.19348561246E+02  0.51100000000E-03 0. -1.
        -11    1    3    3    0    0  0.15558007739E+02 -0.92172557802E+01 -0.75160126562E+00  0.18099014163E+02  0.51100000000E-03 0.  1.
         12    1    3    3    0    0  0.94701946730E+01 -0.37265195863E+01 -0.18268901049E+01  0.10339683884E+02  0.00000000000E+00 0. -1.
</event>
<event>
 7    1  0.2732193E-010  0.4778727E+02  0.7816164E-02  0.1312668E+00
        -11   -1    0    0    0    0  0.00000000000E+00  0.00000000000E+00  0.45593999997E+02  0.45594000000E+02  0.51100000000E-03 0.  1.
         11   -1    0    0    0    0 -0.00000000000E+00 -0.00000000000E+00 -0.45593999997E+02  0.45594000000E+02  0.51100000000E-03 0. -1.
    9900012    2    1    2    0    0  0.85808276126E+01 -0.34277184427E+02 -0.25200548914E+02  0.47787266823E+02  0.19999980753E+02 0.  0.
        -12    1    1    2    0    0 -0.85808276126E+01  0.34277184427E+02  0.25200548914E+02  0.43400733177E+02  0.00000000000E+00 0.  1.
         11    1    3    3    0    0  0.11681244518E+02 -0.12304902884E+02 -0.12226557374E+02  0.20912934131E+02  0.51100000000E-03 0. -1.
        -11    1    3    3    0    0  0.12570186675E+01 -0.29753469791E+01 -0.46945970993E+01  0.56984232698E+01  0.51100000000E-03 0.  1.
         12    1    3    3    0    0 -0.43574355727E+01 -0.18996934563E+02 -0.82793944410E+01  0.21175909423E+02  0.00000000000E+00 0. -1.
</event>
<event>
 7    1  0.2732193E-010  0.4778727E+02  0.7816164E-02  0.1312668E+00
        -11   -1    0    0    0    0  0.00000000000E+00  0.00000000000E+00  0.45593999997E+02  0.45594000000E+02  0.51100000000E-03 0.  1.
         11   -1    0    0    0    0 -0.00000000000E+00 -0.00000000000E+00 -0.45593999997E+02  0.45594000000E+02  0.51100000000E-03 0. -1.
    9900012    2    1    2    0    0 -0.31442819690E+02 -0.20901949954E+02  0.21402831805E+02  0.47787266928E+02  0.19999981231E+02 0.  0.
        -12    1    1    2    0    0  0.31442819690E+02  0.20901949954E+02 -0.21402831805E+02  0.43400733072E+02  0.00000000000E+00 0.  1.
         11    1    3    3    0    0 -0.22170098389E+02 -0.16130924879E+02  0.76014412230E+01  0.28451747028E+02  0.51100000000E-03 0. -1.
        -11    1    3    3    0    0  0.10770200130E+01  0.10495765228E+01  0.26444352310E+01  0.30421408477E+01  0.51100000000E-03 0.  1.
        -12    1    3    3    0    0 -0.10349741313E+02 -0.58206015983E+01  0.11156955351E+02  0.16293379052E+02  0.00000000000E+00 0.  1.
</event>
<event>
 7    1  0.2732193E-010  0.4778727E+02  0.7816164E-02  0.1312668E+00
        -11   -1    0    0    0    0  0.00000000000E+00  0.00000000000E+00  0.45593999997E+02  0.45594000000E+02  0.51100000000E-03 0.  1.
         11   -1    0    0    0    0 -0.00000000000E+00 -0.00000000000E+00 -0.45593999997E+02  0.45594000000E+02  0.51100000000E-03 0. -1.
    9900012    2    1    2    0    0  0.24320756541E+02  0.21897353201E+02 -0.28506668555E+02  0.47787269269E+02  0.19999991903E+02 0.  0.
        -12    1    1    2    0    0 -0.24320756541E+02 -0.21897353201E+02  0.28506668555E+02  0.43400730731E+02  0.00000000000E+00 0.  1.
         11    1    3    3    0    0  0.17164488179E+02  0.23345309978E+02 -0.16578202509E+02  0.33383528141E+02  0.51100000000E-03 0. -1.
        -11    1    3    3    0    0  0.56635788273E+01  0.35500255857E+00 -0.76247072723E+01  0.95046469266E+01  0.51100000000E-03 0.  1.
         12    1    3    3    0    0  0.14926895344E+01 -0.18029593359E+01 -0.43037587732E+01  0.48990942011E+01  0.00000000000E+00 0. -1.
</event>
<event>
 7    1  0.2732193E-010  0.4778727E+02  0.7816164E-02  0.1312668E+00
        -11   -1    0    0    0    0  0.00000000000E+00  0.00000000000E+00  0.45593999997E+02  0.45594000000E+02  0.51100000000E-03 0.  1.
         11   -1    0    0    0    0 -0.00000000000E+00 -0.00000000000E+00 -0.45593999997E+02  0.45594000000E+02  0.51100000000E-03 0. -1.
    9900012    2    1    2    0    0  0.28023315230E+02  0.18978672705E+02 -0.27168488852E+02  0.47787274192E+02  0.20000014352E+02 0.  0.
        -12    1    1    2    0    0 -0.28023315230E+02 -0.18978672705E+02  0.27168488852E+02  0.43400725808E+02  0.00000000000E+00 0.  1.
         11    1    3    3    0    0  0.35709876836E+01  0.71521119892E+00 -0.47145947382E+01  0.59574225889E+01  0.51100000000E-03 0. -1.
        -11    1    3    3    0    0  0.43719616709E+01 -0.30289452765E+01 -0.68189963861E+01  0.86479633622E+01  0.51100000000E-03 0.  1.
        -12    1    3    3    0    0  0.20080365875E+02  0.21292406783E+02 -0.15634897728E+02  0.33181888241E+02  0.00000000000E+00 0.  1.
</event>
<event>
 7    1  0.2732193E-010  0.4778727E+02  0.7816164E-02  0.1312668E+00
        -11   -1    0    0    0    0  0.00000000000E+00  0.00000000000E+00  0.45593999997E+02  0.45594000000E+02  0.51100000000E-03 0.  1.
         11   -1    0    0    0    0 -0.00000000000E+00 -0.00000000000E+00 -0.45593999997E+02  0.45594000000E+02  0.51100000000E-03 0. -1.
    9900012    2    1    2    0    0  0.22707105086E+02  0.20299997670E+02 -0.30917969272E+02  0.47787270160E+02  0.19999995966E+02 0.  0.
        -12    1    1    2    0    0 -0.22707105086E+02 -0.20299997670E+02  0.30917969272E+02  0.43400729840E+02  0.00000000000E+00 0.  1.
         11    1    3    3    0    0  0.68087593677E+01 -0.22751991755E+01 -0.32769021454E+01  0.78913765178E+01  0.51100000000E-03 0. -1.
        -11    1    3    3    0    0  0.19726068133E+00  0.44769442176E+01 -0.23596447591E+01  0.50645695725E+01  0.51100000000E-03 0.  1.
         12    1    3    3    0    0  0.15701085037E+02  0.18098252628E+02 -0.25281422367E+02  0.34831324069E+02  0.00000000000E+00 0. -1.
</event>
<event>
 7    1  0.2732193E-010  0.4778726E+02  0.7816164E-02  0.1312668E+00
        -11   -1    0    0    0    0  0.00000000000E+00  0.00000000000E+00  0.45593999997E+02  0.45594000000E+02  0.51100000000E-03 0.  1.
         11   -1    0    0    0    0 -0.00000000000E+00 -0.00000000000E+00 -0.45593999997E+02  0.45594000000E+02  0.51100000000E-03 0. -1.
    9900012    2    1    2    0    0  0.21151549559E+01  0.43104190506E+02 -0.46020848072E+01  0.47787259174E+02  0.19999945879E+02 0.  0.
        -12    1    1    2    0    0 -0.21151549559E+01 -0.43104190506E+02  0.46020848072E+01  0.43400740826E+02  0.00000000000E+00 0.  1.
         11    1    3    3    0    0  0.27365500076E+01  0.25994557693E+02 -0.68975521666E+01  0.27032979150E+02  0.51100000000E-03 0. -1.
        -11    1    3    3    0    0  0.73296654073E+00  0.14632188505E+02  0.62228094779E+01  0.15917334527E+02  0.51100000000E-03 0.  1.
         12    1    3    3    0    0 -0.13543615924E+01  0.24774443084E+01 -0.39273421184E+01  0.48369454968E+01  0.00000000000E+00 0. -1.
</event>
<event>
 7    1  0.2732193E-010  0.4778727E+02  0.7816164E-02  0.1312668E+00
        -11   -1    0    0    0    0  0.00000000000E+00  0.00000000000E+00  0.45593999997E+02  0.45594000000E+02  0.51100000000E-03 0.  1.
         11   -1    0    0    0    0 -0.00000000000E+00 -0.00000000000E+00 -0.45593999997E+02  0.45594000000E+02  0.51100000000E-03 0. -1.
    9900012    2    1    2    0    0  0.11129953601E+02  0.40381414809E+02  0.11361733868E+02  0.47787268144E+02  0.19999986775E+02 0.  0.
        -12    1    1    2    0    0 -0.11129953601E+02 -0.40381414809E+02 -0.11361733868E+02  0.43400731856E+02  0.00000000000E+00 0.  1.
         11    1    3    3    0    0  0.68741542294E+01  0.50840401256E+01  0.50682964190E+01  0.99392700547E+01  0.51100000000E-03 0.  1.
        -11    1    3    3    0    0  0.35995791298E+01  0.35748440415E+02  0.49256099016E+01  0.36265267064E+02  0.51100000000E-03 0. -1.
         12    1    3    3    0    0  0.65622024216E+00 -0.45106573136E+00  0.13678275472E+01  0.15827310255E+01  0.00000000000E+00 0. -1.
</event>
<event>
 7    1  0.2732193E-010  0.4778727E+02  0.7816164E-02  0.1312668E+00
        -11   -1    0    0    0    0  0.00000000000E+00  0.00000000000E+00  0.45593999997E+02  0.45594000000E+02  0.51100000000E-03 0.  1.
         11   -1    0    0    0    0 -0.00000000000E+00 -0.00000000000E+00 -0.45593999997E+02  0.45594000000E+02  0.51100000000E-03 0. -1.
    9900012    2    1    2    0    0  0.36317565834E+02  0.23643304669E+02 -0.23773880537E+01  0.47787269387E+02  0.19999992443E+02 0.  0.
        -12    1    1    2    0    0 -0.36317565834E+02 -0.23643304669E+02  0.23773880537E+01  0.43400730613E+02  0.00000000000E+00 0.  1.
         11    1    3    3    0    0  0.62627966341E+01  0.70105857165E+01 -0.26439229620E+01  0.97653091430E+01  0.51100000000E-03 0. -1.
        -11    1    3    3    0    0  0.33199724058E+01  0.58344120241E+01  0.55483287361E+01  0.87089914724E+01  0.51100000000E-03 0.  1.
        -12    1    3    3    0    0  0.26734796794E+02  0.10798306928E+02 -0.52817938277E+01  0.29312968771E+02  0.00000000000E+00 0.  1.
</event>
<event>
 7    1  0.2732193E-010  0.4778728E+02  0.7816164E-02  0.1312668E+00
        -11   -1    0    0    0    0  0.00000000000E+00  0.00000000000E+00  0.45593999997E+02  0.45594000000E+02  0.51100000000E-03 0.  1.
         11   -1    0    0    0    0 -0.00000000000E+00 -0.00000000000E+00 -0.45593999997E+02  0.45594000000E+02  0.51100000000E-03 0. -1.
    9900012    2    1    2    0    0  0.39681465311E+02  0.16232657060E+01 -0.17503390107E+02  0.47787281734E+02  0.20000048736E+02 0.  0.
        -12    1    1    2    0    0 -0.39681465311E+02 -0.16232657060E+01  0.17503390107E+02  0.43400718266E+02  0.00000000000E+00 0.  1.
         11    1    3    3    0    0  0.49581642170E+01 -0.64295175973E+01 -0.45995649814E+01  0.93315640284E+01  0.51100000000E-03 0. -1.
        -11    1    3    3    0    0  0.18064206714E+02  0.20641480567E+01 -0.39023796675E+01  0.18595828531E+02  0.51100000000E-03 0.  1.
         12    1    3    3    0    0  0.16659094380E+02  0.59886352467E+01 -0.90014454581E+01  0.19859889174E+02  0.00000000000E+00 0. -1.
</event>
<event>
 7    1  0.2732193E-010  0.4778727E+02  0.7816164E-02  0.1312668E+00
        -11   -1    0    0    0    0  0.00000000000E+00  0.00000000000E+00  0.45593999997E+02  0.45594000000E+02  0.51100000000E-03 0. -1.
         11   -1    0    0    0    0 -0.00000000000E+00 -0.00000000000E+00 -0.45593999997E+02  0.45594000000E+02  0.51100000000E-03 0.  1.
    9900012    2    1    2    0    0 -0.30817328402E+02 -0.21963727880E+02 -0.21248768397E+02  0.47787271543E+02  0.20000002273E+02 0.  0.
        -12    1    1    2    0    0  0.30817328402E+02  0.21963727880E+02  0.21248768397E+02  0.43400728457E+02  0.00000000000E+00 0.  1.
         11    1    3    3    0    0 -0.23540488457E+02 -0.12901203013E+02 -0.62972933090E+01  0.27572659271E+02  0.51100000000E-03 0. -1.
        -11    1    3    3    0    0 -0.70641647962E+00 -0.78615736375E+00 -0.67654216680E+01  0.68474811610E+01  0.51100000000E-03 0.  1.
        -12    1    3    3    0    0 -0.65704234655E+01 -0.82763675026E+01 -0.81860534195E+01  0.13367131111E+02  0.00000000000E+00 0.  1.
</event>
<event>
 7    1  0.2732193E-010  0.4778727E+02  0.7816164E-02  0.1312668E+00
        -11   -1    0    0    0    0  0.00000000000E+00  0.00000000000E+00  0.45593999997E+02  0.45594000000E+02  0.51100000000E-03 0.  1.
         11   -1    0    0    0    0 -0.00000000000E+00 -0.00000000000E+00 -0.45593999997E+02  0.45594000000E+02  0.51100000000E-03 0. -1.
    9900012    2    1    2    0    0 -0.40181971459E+02 -0.21155102669E+01 -0.16265207739E+02  0.47787271932E+02  0.20000004048E+02 0.  0.
        -12    1    1    2    0    0  0.40181971459E+02  0.21155102669E+01  0.16265207739E+02  0.43400728068E+02  0.00000000000E+00 0.  1.
         11    1    3    3    0    0 -0.39617066208E+02 -0.61167244444E+01 -0.15693038000E+02  0.43048782733E+02  0.51100000000E-03 0. -1.
        -11    1    3    3    0    0  0.34677842618E+00  0.26213124168E+01 -0.12822130155E+01  0.29386399135E+01  0.51100000000E-03 0.  1.
         12    1    3    3    0    0 -0.91168367705E+00  0.13799017607E+01  0.71004327647E+00  0.17998492855E+01  0.00000000000E+00 0. -1.
</event>
<event>
 7    1  0.2732193E-010  0.4778727E+02  0.7816164E-02  0.1312668E+00
        -11   -1    0    0    0    0  0.00000000000E+00  0.00000000000E+00  0.45593999997E+02  0.45594000000E+02  0.51100000000E-03 0. -1.
         11   -1    0    0    0    0 -0.00000000000E+00 -0.00000000000E+00 -0.45593999997E+02  0.45594000000E+02  0.51100000000E-03 0.  1.
    9900012    2    1    2    0    0 -0.28080499875E+02  0.31611402626E+02  0.97891844567E+01  0.47787269804E+02  0.19999994345E+02 0.  0.
        -12    1    1    2    0    0  0.28080499875E+02 -0.31611402626E+02 -0.97891844567E+01  0.43400730196E+02  0.00000000000E+00 0.  1.
         11    1    3    3    0    0 -0.23746288536E+02  0.14722830736E+02  0.52386718207E+01  0.28426952824E+02  0.51100000000E-03 0. -1.
        -11    1    3    3    0    0  0.19772589224E+01  0.36435688381E+01  0.10630480555E+01  0.42796282728E+01  0.51100000000E-03 0.  1.
        -12    1    3    3    0    0 -0.63114702606E+01  0.13245003052E+02  0.34874645806E+01  0.15080688708E+02  0.00000000000E+00 0.  1.
</event>
<event>
 7    1  0.2732193E-010  0.4778727E+02  0.7816164E-02  0.1312668E+00
        -11   -1    0    0    0    0  0.00000000000E+00  0.00000000000E+00  0.45593999997E+02  0.45594000000E+02  0.51100000000E-03 0.  1.
         11   -1    0    0    0    0 -0.00000000000E+00 -0.00000000000E+00 -0.45593999997E+02  0.45594000000E+02  0.51100000000E-03 0. -1.
    9900012    2    1    2    0    0  0.22782916129E+02  0.12860037014E+02 -0.34629202497E+02  0.47787268613E+02  0.19999988912E+02 0.  0.
        -12    1    1    2    0    0 -0.22782916129E+02 -0.12860037014E+02  0.34629202497E+02  0.43400731387E+02  0.00000000000E+00 0.  1.
         11    1    3    3    0    0  0.12210060089E+02 -0.14934281762E+01 -0.67083856177E+01  0.14011364421E+02  0.51100000000E-03 0. -1.
        -11    1    3    3    0    0  0.25686179729E+01  0.90112086706E+01 -0.13153097486E+02  0.16149416514E+02  0.51100000000E-03 0.  1.
         12    1    3    3    0    0  0.80042380677E+01  0.53422565200E+01 -0.14767719394E+02  0.17626487678E+02  0.00000000000E+00 0. -1.
</event>
<event>
 7    1  0.2732193E-010  0.4778727E+02  0.7816164E-02  0.1312668E+00
        -11   -1    0    0    0    0  0.00000000000E+00  0.00000000000E+00  0.45593999997E+02  0.45594000000E+02  0.51100000000E-03 0.  1.
         11   -1    0    0    0    0 -0.00000000000E+00 -0.00000000000E+00 -0.45593999997E+02  0.45594000000E+02  0.51100000000E-03 0. -1.
    9900012    2    1    2    0    0 -0.13069066037E+02  0.24146457153E+01 -0.41315764002E+02  0.47787270097E+02  0.19999995681E+02 0.  0.
        -12    1    1    2    0    0  0.13069066037E+02 -0.24146457153E+01  0.41315764002E+02  0.43400729903E+02  0.00000000000E+00 0.  1.
         11    1    3    3    0    0  0.46606366849E+00  0.35216460516E+01 -0.20716078152E+02  0.21018446673E+02  0.51100000000E-03 0. -1.
        -11    1    3    3    0    0 -0.59096509875E+00  0.32807928444E+01 -0.29948990942E+01  0.44813237198E+01  0.51100000000E-03 0.  1.
        -12    1    3    3    0    0 -0.12944164607E+02 -0.43877931807E+01 -0.17604786756E+02  0.22287499704E+02  0.00000000000E+00 0.  1.
</event>
<event>
 7    1  0.2732193E-010  0.4778728E+02  0.7816164E-02  0.1312668E+00
        -11   -1    0    0    0    0  0.00000000000E+00  0.00000000000E+00  0.45593999997E+02  0.45594000000E+02  0.51100000000E-03 0.  1.
         11   -1    0    0    0    0 -0.00000000000E+00 -0.00000000000E+00 -0.45593999997E+02  0.45594000000E+02  0.51100000000E-03 0. -1.
    9900012    2    1    2    0    0 -0.14522495710E+02 -0.69138284830E+01 -0.40310283246E+02  0.47787276028E+02  0.20000022721E+02 0.  0.
        -12    1    1    2    0    0  0.14522495710E+02  0.69138284830E+01  0.40310283246E+02  0.43400723972E+02  0.00000000000E+00 0.  1.
         11    1    3    3    0    0 -0.57674013366E+01 -0.75068158192E+01 -0.78107245327E+01  0.12272840743E+02  0.51100000000E-03 0. -1.
        -11    1    3    3    0    0 -0.10833500198E+02  0.10404259071E+00 -0.31170025787E+02  0.32999182705E+02  0.51100000000E-03 0.  1.
        -12    1    3    3    0    0  0.20784058245E+01  0.48894474544E+00 -0.13295329262E+01  0.25152525792E+01  0.00000000000E+00 0.  1.
</event>
<event>
 7    1  0.2732193E-010  0.4778725E+02  0.7816164E-02  0.1312668E+00
        -11   -1    0    0    0    0  0.00000000000E+00  0.00000000000E+00  0.45593999997E+02  0.45594000000E+02  0.51100000000E-03 0.  1.
         11   -1    0    0    0    0 -0.00000000000E+00 -0.00000000000E+00 -0.45593999997E+02  0.45594000000E+02  0.51100000000E-03 0. -1.
    9900012    2    1    2    0    0 -0.31078317369E+02 -0.27276823063E+02 -0.13180981370E+02  0.47787249353E+02  0.19999901098E+02 0.  0.
        -12    1    1    2    0    0  0.31078317369E+02  0.27276823063E+02  0.13180981370E+02  0.43400750647E+02  0.00000000000E+00 0.  1.
         11    1    3    3    0    0 -0.23362058833E+02 -0.22968426590E+02 -0.11826159203E+02  0.34830912343E+02  0.51100000000E-03 0. -1.
        -11    1    3    3    0    0 -0.27022217916E+01  0.28995824197E+01  0.46064332341E+00  0.39902096878E+01  0.51100000000E-03 0.  1.
         12    1    3    3    0    0 -0.50140367443E+01 -0.72079788934E+01 -0.18154654910E+01  0.89661273218E+01  0.00000000000E+00 0. -1.
</event>
<event>
 7    1  0.2732193E-010  0.4778727E+02  0.7816164E-02  0.1312668E+00
        -11   -1    0    0    0    0  0.00000000000E+00  0.00000000000E+00  0.45593999997E+02  0.45594000000E+02  0.51100000000E-03 0. -1.
         11   -1    0    0    0    0 -0.00000000000E+00 -0.00000000000E+00 -0.45593999997E+02  0.45594000000E+02  0.51100000000E-03 0.  1.
    9900012    2    1    2    0    0 -0.28786952415E+02 -0.32398157993E+02  0.23009260270E+01  0.47787268080E+02  0.19999986482E+02 0.  0.
        -12    1    1    2    0    0  0.28786952415E+02  0.32398157993E+02 -0.23009260270E+01  0.43400731920E+02  0.00000000000E+00 0.  1.
         11    1    3    3    0    0 -0.99540420244E+01 -0.20391382323E+02  0.69824954934E+01  0.23741244054E+02  0.51100000000E-03 0. -1.
        -11    1    3    3    0    0 -0.88682903913E+00 -0.37040342152E+01 -0.90943038865E+00  0.39157884397E+01  0.51100000000E-03 0.  1.
         12    1    3    3    0    0 -0.17946081351E+02 -0.83027414548E+01 -0.37721390778E+01  0.20130235586E+02  0.00000000000E+00 0. -1.
</event>
<event>
 7    1  0.2732193E-010  0.4778727E+02  0.7816164E-02  0.1312668E+00
        -11   -1    0    0    0    0  0.00000000000E+00  0.00000000000E+00  0.45593999997E+02  0.45594000000E+02  0.51100000000E-03 0. -1.
         11   -1    0    0    0    0 -0.00000000000E+00 -0.00000000000E+00 -0.45593999997E+02  0.45594000000E+02  0.51100000000E-03 0.  1.
    9900012    2    1    2    0    0 -0.23010232917E+02  0.31271924258E+02  0.19396365099E+02  0.47787273684E+02  0.20000012035E+02 0.  0.
        -12    1    1    2    0    0  0.23010232917E+02 -0.31271924258E+02 -0.19396365099E+02  0.43400726316E+02  0.00000000000E+00 0.  1.
         11    1    3    3    0    0 -0.64313213688E+01  0.33843918732E+01 -0.24412775664E+01  0.76665402443E+01  0.51100000000E-03 0. -1.
        -11    1    3    3    0    0 -0.68884114223E+01  0.98286136486E+01  0.13311288378E+02  0.17923232318E+02  0.51100000000E-03 0.  1.
         12    1    3    3    0    0 -0.96905001264E+01  0.18058918736E+02  0.85263542868E+01  0.22197501122E+02  0.00000000000E+00 0. -1.
</event>
<event>
 7    1  0.2732193E-010  0.4778728E+02  0.7816164E-02  0.1312668E+00
        -11   -1    0    0    0    0  0.00000000000E+00  0.00000000000E+00  0.45593999997E+02  0.45594000000E+02  0.51100000000E-03 0.  1.
         11   -1    0    0    0    0 -0.00000000000E+00 -0.00000000000E+00 -0.45593999997E+02  0.45594000000E+02  0.51100000000E-03 0. -1.
    9900012    2    1    2    0    0  0.39949678875E+02 -0.15610025095E+02 -0.66311748403E+01  0.47787283354E+02  0.20000056123E+02 0.  0.
        -12    1    1    2    0    0 -0.39949678875E+02  0.15610025095E+02  0.66311748403E+01  0.43400716646E+02  0.00000000000E+00 0.  1.
         11    1    3    3    0    0 -0.51596763010E+00 -0.11050142662E+01  0.25744602288E+01  0.28487058210E+01  0.51100000000E-03 0.  1.
        -11    1    3    3    0    0  0.32509806378E+02 -0.14114623087E+02 -0.10276647109E+02  0.36901484682E+02  0.51100000000E-03 0. -1.
        -12    1    3    3    0    0  0.79558401264E+01 -0.39038774169E+00  0.10710120401E+01  0.80370928510E+01  0.00000000000E+00 0.  1.
</event>
<event>
 7    1  0.2732193E-010  0.4778727E+02  0.7816164E-02  0.1312668E+00
        -11   -1    0    0    0    0  0.00000000000E+00  0.00000000000E+00  0.45593999997E+02  0.45594000000E+02  0.51100000000E-03 0.  1.
         11   -1    0    0    0    0 -0.00000000000E+00 -0.00000000000E+00 -0.45593999997E+02  0.45594000000E+02  0.51100000000E-03 0. -1.
    9900012    2    1    2    0    0  0.33400062504E+02 -0.26011731687E+02 -0.95628858695E+01  0.47787272508E+02  0.20000006675E+02 0.  0.
        -12    1    1    2    0    0 -0.33400062504E+02  0.26011731687E+02  0.95628858695E+01  0.43400727492E+02  0.00000000000E+00 0.  1.
         11    1    3    3    0    0  0.83335222007E+01 -0.25210265448E+01 -0.19510663544E+01  0.89224339330E+01  0.51100000000E-03 0. -1.
        -11    1    3    3    0    0  0.17095926508E+02 -0.84304813143E+01 -0.10217565418E+02  0.21627352165E+02  0.51100000000E-03 0.  1.
        -12    1    3    3    0    0  0.79706137959E+01 -0.15060223828E+02  0.26057459029E+01  0.17237486410E+02  0.00000000000E+00 0.  1.
</event>
<event>
 7    1  0.2732193E-010  0.4778727E+02  0.7816164E-02  0.1312668E+00
        -11   -1    0    0    0    0  0.00000000000E+00  0.00000000000E+00  0.45593999997E+02  0.45594000000E+02  0.51100000000E-03 0. -1.
         11   -1    0    0    0    0 -0.00000000000E+00 -0.00000000000E+00 -0.45593999997E+02  0.45594000000E+02  0.51100000000E-03 0.  1.
    9900012    2    1    2    0    0 -0.91075248547E+01 -0.22970028935E+02  0.35679884435E+02  0.47787269689E+02  0.19999993819E+02 0.  0.
        -12    1    1    2    0    0  0.91075248547E+01  0.22970028935E+02 -0.35679884435E+02  0.43400730311E+02  0.00000000000E+00 0.  1.
         11    1    3    3    0    0  0.26338392170E+01 -0.99836803449E+01  0.54179427275E+01  0.11660406764E+02  0.51100000000E-03 0. -1.
        -11    1    3    3    0    0 -0.22908708713E+00  0.13173420933E+01  0.26367679110E+01  0.29564195172E+01  0.51100000000E-03 0.  1.
         12    1    3    3    0    0 -0.11512276985E+02 -0.14303690683E+02  0.27625173797E+02  0.33170443407E+02  0.00000000000E+00 0. -1.
</event>
<event>
 7    1  0.2732193E-010  0.4778727E+02  0.7816164E-02  0.1312668E+00
        -11   -1    0    0    0    0  0.00000000000E+00  0.00000000000E+00  0.45593999997E+02  0.45594000000E+02  0.51100000000E-03 0.  1.
         11   -1    0    0    0    0 -0.00000000000E+00 -0.00000000000E+00 -0.45593999997E+02  0.45594000000E+02  0.51100000000E-03 0. -1.
    9900012    2    1    2    0    0 -0.42550990030E+02 -0.10285365139E+01 -0.84840432806E+01  0.47787266938E+02  0.19999981279E+02 0.  0.
        -12    1    1    2    0    0  0.42550990030E+02  0.10285365139E+01  0.84840432806E+01  0.43400733062E+02  0.00000000000E+00 0.  1.
         11    1    3    3    0    0 -0.58781892018E+01 -0.42348221482E+01 -0.65743204260E+01  0.97830729448E+01  0.51100000000E-03 0. -1.
        -11    1    3    3    0    0  0.42075267859E+00  0.51038061454E+00 -0.41888394786E+00  0.78293372078E+00  0.51100000000E-03 0.  1.
         12    1    3    3    0    0 -0.37093553507E+02  0.26959050198E+01 -0.14908389068E+01  0.37221260273E+02  0.00000000000E+00 0. -1.
</event>
<event>
 7    1  0.2732193E-010  0.4778725E+02  0.7816164E-02  0.1312668E+00
        -11   -1    0    0    0    0  0.00000000000E+00  0.00000000000E+00  0.45593999997E+02  0.45594000000E+02  0.51100000000E-03 0.  1.
         11   -1    0    0    0    0 -0.00000000000E+00 -0.00000000000E+00 -0.45593999997E+02  0.45594000000E+02  0.51100000000E-03 0. -1.
    9900012    2    1    2    0    0  0.55273262458E+01 -0.38249593599E+02 -0.19749479919E+02  0.47787254581E+02  0.19999924935E+02 0.  0.
        -12    1    1    2    0    0 -0.55273262458E+01  0.38249593599E+02  0.19749479919E+02  0.43400745419E+02  0.00000000000E+00 0.  1.
         11    1    3    3    0    0  0.34460467593E+01 -0.28149013982E+01  0.26848013918E+01  0.51968323933E+01  0.51100000000E-03 0.  1.
        -11    1    3    3    0    0 -0.15457056522E+01 -0.18032103233E+01 -0.13819242588E+01  0.27478151960E+01  0.51100000000E-03 0. -1.
         12    1    3    3    0    0  0.36269851386E+01 -0.33631481877E+02 -0.21052357052E+02  0.39842606992E+02  0.00000000000E+00 0. -1.
</event>
<event>
 7    1  0.2732193E-010  0.4778727E+02  0.7816164E-02  0.1312668E+00
        -11   -1    0    0    0    0  0.00000000000E+00  0.00000000000E+00  0.45593999997E+02  0.45594000000E+02  0.51100000000E-03 0. -1.
         11   -1    0    0    0    0 -0.00000000000E+00 -0.00000000000E+00 -0.45593999997E+02  0.45594000000E+02  0.51100000000E-03 0.  1.
    9900012    2    1    2    0    0 -0.13684975323E+01 -0.12581369319E+02  0.41514572214E+02  0.47787270219E+02  0.19999996234E+02 0.  0.
        -12    1    1    2    0    0  0.13684975323E+01  0.12581369319E+02 -0.41514572214E+02  0.43400729781E+02  0.00000000000E+00 0.  1.
         11    1    3    3    0    0  0.45043470499E+01 -0.64868191473E+00  0.22192037633E+01  0.50630816878E+01  0.51100000000E-03 0. -1.
        -11    1    3    3    0    0 -0.15806586252E+01 -0.12354086945E+02  0.29495090818E+02  0.32016906917E+02  0.51100000000E-03 0.  1.
        -12    1    3    3    0    0 -0.42921859570E+01  0.42139954120E+00  0.98002776332E+01  0.10707281613E+02  0.00000000000E+00 0.  1.
</event>
<event>
 7    1  0.2732193E-010  0.4778727E+02  0.7816164E-02  0.1312668E+00
        -11   -1    0    0    0    0  0.00000000000E+00  0.00000000000E+00  0.45593999997E+02  0.45594000000E+02  0.51100000000E-03 0.  1.
         11   -1    0    0    0    0 -0.00000000000E+00 -0.00000000000E+00 -0.45593999997E+02  0.45594000000E+02  0.51100000000E-03 0. -1.
    9900012    2    1    2    0    0  0.73722482846E+00  0.43679926222E+01 -0.43174074524E+02  0.47787267622E+02  0.19999984395E+02 0.  0.
        -12    1    1    2    0    0 -0.73722482846E+00 -0.43679926222E+01  0.43174074524E+02  0.43400732378E+02  0.00000000000E+00 0.  1.
         11    1    3    3    0    0  0.56554555275E+00 -0.77657252484E+00 -0.82996739579E+01  0.83550879545E+01  0.51100000000E-03 0. -1.
        -11    1    3    3    0    0  0.75709323250E+01  0.61765000754E+01 -0.26318070607E+02  0.28073279292E+02  0.51100000000E-03 0.  1.
        -12    1    3    3    0    0 -0.73992530493E+01 -0.10319349283E+01 -0.85563299587E+01  0.11358900376E+02  0.00000000000E+00 0.  1.
</event>
<event>
 7    1  0.2732193E-010  0.4778727E+02  0.7816164E-02  0.1312668E+00
        -11   -1    0    0    0    0  0.00000000000E+00  0.00000000000E+00  0.45593999997E+02  0.45594000000E+02  0.51100000000E-03 0.  1.
         11   -1    0    0    0    0 -0.00000000000E+00 -0.00000000000E+00 -0.45593999997E+02  0.45594000000E+02  0.51100000000E-03 0. -1.
    9900012    2    1    2    0    0 -0.13585627950E+02 -0.72897519403E+01 -0.40569857605E+02  0.47787272861E+02  0.20000008281E+02 0.  0.
        -12    1    1    2    0    0  0.13585627950E+02  0.72897519403E+01  0.40569857605E+02  0.43400727139E+02  0.00000000000E+00 0.  1.
         11    1    3    3    0    0 -0.70379254793E+01 -0.61352998694E+01 -0.18240210588E+02  0.20490963425E+02  0.51100000000E-03 0. -1.
        -11    1    3    3    0    0  0.28272870823E+01  0.18281418966E+01 -0.14019862853E+02  0.14418467661E+02  0.51100000000E-03 0.  1.
        -12    1    3    3    0    0 -0.93749895529E+01 -0.29825939675E+01 -0.83097841641E+01  0.12877841774E+02  0.00000000000E+00 0.  1.
</event>
<event>
 7    1  0.2732193E-010  0.4778727E+02  0.7816164E-02  0.1312668E+00
        -11   -1    0    0    0    0  0.00000000000E+00  0.00000000000E+00  0.45593999997E+02  0.45594000000E+02  0.51100000000E-03 0.  1.
         11   -1    0    0    0    0 -0.00000000000E+00 -0.00000000000E+00 -0.45593999997E+02  0.45594000000E+02  0.51100000000E-03 0. -1.
    9900012    2    1    2    0    0  0.52702847868E+01  0.17102202546E+00 -0.43079209356E+02  0.47787269257E+02  0.19999991851E+02 0.  0.
        -12    1    1    2    0    0 -0.52702847868E+01 -0.17102202546E+00  0.43079209356E+02  0.43400730743E+02  0.00000000000E+00 0.  1.
         11    1    3    3    0    0 -0.10285120911E+01  0.36357665977E+01 -0.30824649945E+02  0.31055364760E+02  0.51100000000E-03 0. -1.
        -11    1    3    3    0    0  0.17436194901E+01 -0.54348522269E+01 -0.94262254556E+01  0.11019598643E+02  0.51100000000E-03 0.  1.
         12    1    3    3    0    0  0.45551773877E+01  0.19701076546E+01 -0.28283339552E+01  0.57123058537E+01  0.00000000000E+00 0. -1.
</event>
<event>
 7    1  0.2732193E-010  0.4778727E+02  0.7816164E-02  0.1312668E+00
        -11   -1    0    0    0    0  0.00000000000E+00  0.00000000000E+00  0.45593999997E+02  0.45594000000E+02  0.51100000000E-03 0.  1.
         11   -1    0    0    0    0 -0.00000000000E+00 -0.00000000000E+00 -0.45593999997E+02  0.45594000000E+02  0.51100000000E-03 0. -1.
    9900012    2    1    2    0    0 -0.29533113445E+02  0.29116036494E+02 -0.12793567541E+02  0.47787265660E+02  0.19999975450E+02 0.  0.
        -12    1    1    2    0    0  0.29533113445E+02 -0.29116036494E+02  0.12793567541E+02  0.43400734340E+02  0.00000000000E+00 0.  1.
         11    1    3    3    0    0 -0.16732641412E+02  0.23847341627E+02 -0.29057988969E+01  0.29276623077E+02  0.51100000000E-03 0. -1.
        -11    1    3    3    0    0 -0.12347681154E+02  0.64022370734E+01 -0.10203213840E+02  0.17249911372E+02  0.51100000000E-03 0.  1.
         12    1    3    3    0    0 -0.45279087878E+00 -0.11335422067E+01  0.31544519598E+00  0.12607312108E+01  0.00000000000E+00 0. -1.
</event>
<event>
 7    1  0.2732193E-010  0.4778729E+02  0.7816164E-02  0.1312668E+00
        -11   -1    0    0    0    0  0.00000000000E+00  0.00000000000E+00  0.45593999997E+02  0.45594000000E+02  0.51100000000E-03 0. -1.
         11   -1    0    0    0    0 -0.00000000000E+00 -0.00000000000E+00 -0.45593999997E+02  0.45594000000E+02  0.51100000000E-03 0.  1.
    9900012    2    1    2    0    0  0.33351679958E+01 -0.27017579519E+02  0.33801610078E+02  0.47787288111E+02  0.20000077811E+02 0.  0.
        -12    1    1    2    0    0 -0.33351679958E+01  0.27017579519E+02 -0.33801610078E+02  0.43400711889E+02  0.00000000000E+00 0.  1.
         11    1    3    3    0    0  0.94125370969E+01 -0.11987408255E+02  0.19807097061E+02  0.24992296923E+02  0.51100000000E-03 0. -1.
        -11    1    3    3    0    0 -0.39412962565E+01 -0.18345543740E+01  0.52730629479E+01  0.68340763126E+01  0.51100000000E-03 0.  1.
         12    1    3    3    0    0 -0.21360728447E+01 -0.13195616891E+02  0.87214500691E+01  0.15960914875E+02  0.00000000000E+00 0. -1.
</event>
<event>
 7    1  0.2732193E-010  0.4778727E+02  0.7816164E-02  0.1312668E+00
        -11   -1    0    0    0    0  0.00000000000E+00  0.00000000000E+00  0.45593999997E+02  0.45594000000E+02  0.51100000000E-03 0. -1.
         11   -1    0    0    0    0 -0.00000000000E+00 -0.00000000000E+00 -0.45593999997E+02  0.45594000000E+02  0.51100000000E-03 0.  1.
    9900012    2    1    2    0    0  0.31552605249E+01  0.35783419265E+02  0.24355994021E+02  0.47787271803E+02  0.20000003460E+02 0.  0.
        -12    1    1    2    0    0 -0.31552605249E+01 -0.35783419265E+02 -0.24355994021E+02  0.43400728197E+02  0.00000000000E+00 0.  1.
         11    1    3    3    0    0  0.32443394980E+00  0.51159252589E+01  0.14556815334E+00  0.51282686153E+01  0.51100000000E-03 0. -1.
        -11    1    3    3    0    0  0.86408800976E+01  0.84878477019E+01  0.69924146783E+01  0.13985786741E+02  0.51100000000E-03 0.  1.
        -12    1    3    3    0    0 -0.58100535225E+01  0.22179646304E+02  0.17218011189E+02  0.28673216447E+02  0.00000000000E+00 0.  1.
</event>
<event>
 7    1  0.2732193E-010  0.4778728E+02  0.7816164E-02  0.1312668E+00
        -11   -1    0    0    0    0  0.00000000000E+00  0.00000000000E+00  0.45593999997E+02  0.45594000000E+02  0.51100000000E-03 0.  1.
         11   -1    0    0    0    0 -0.00000000000E+00 -0.00000000000E+00 -0.45593999997E+02  0.45594000000E+02  0.51100000000E-03 0. -1.
    9900012    2    1    2    0    0  0.18661359934E+02  0.25876014099E+02 -0.29424621330E+02  0.47787276497E+02  0.20000024859E+02 0.  0.
        -12    1    1    2    0    0 -0.18661359934E+02 -0.25876014099E+02  0.29424621330E+02  0.43400723503E+02  0.00000000000E+00 0.  1.
         11    1    3    3    0    0 -0.13009370674E+01  0.38199311175E+01 -0.18258096244E+01  0.44292089634E+01  0.51100000000E-03 0. -1.
        -11    1    3    3    0    0  0.19786198242E+02  0.19369126822E+02 -0.29187664916E+02  0.40231536116E+02  0.51100000000E-03 0.  1.
        -12    1    3    3    0    0  0.17609875887E+00  0.26869561596E+01  0.15888532110E+01  0.31265314172E+01  0.00000000000E+00 0.  1.
</event>
<event>
 7    1  0.2732193E-010  0.4778727E+02  0.7816164E-02  0.1312668E+00
        -11   -1    0    0    0    0  0.00000000000E+00  0.00000000000E+00  0.45593999997E+02  0.45594000000E+02  0.51100000000E-03 0.  1.
         11   -1    0    0    0    0 -0.00000000000E+00 -0.00000000000E+00 -0.45593999997E+02  0.45594000000E+02  0.51100000000E-03 0. -1.
    9900012    2    1    2    0    0  0.27811348285E+02  0.38906251517E+01 -0.33091011298E+02  0.47787273207E+02  0.20000009858E+02 0.  0.
        -12    1    1    2    0    0 -0.27811348285E+02 -0.38906251517E+01  0.33091011298E+02  0.43400726793E+02  0.00000000000E+00 0.  1.
         11    1    3    3    0    0  0.23766083080E+01  0.19071733817E+01  0.19642159211E+01  0.36254271201E+01  0.51100000000E-03 0.  1.
        -11    1    3    3    0    0  0.25715955085E+02  0.26000562303E+01 -0.34960335259E+02  0.43477530749E+02  0.51100000000E-03 0. -1.
         12    1    3    3    0    0 -0.28121510798E+00 -0.61660446030E+00 -0.94891959664E-01  0.68431533772E+00  0.00000000000E+00 0. -1.
</event>
<event>
 7    1  0.2732193E-010  0.4778727E+02  0.7816164E-02  0.1312668E+00
        -11   -1    0    0    0    0  0.00000000000E+00  0.00000000000E+00  0.45593999997E+02  0.45594000000E+02  0.51100000000E-03 0. -1.
         11   -1    0    0    0    0 -0.00000000000E+00 -0.00000000000E+00 -0.45593999997E+02  0.45594000000E+02  0.51100000000E-03 0.  1.
    9900012    2    1    2    0    0  0.75755202098E+01  0.37402509540E+02  0.20670918265E+02  0.47787273183E+02  0.20000009750E+02 0.  0.
        -12    1    1    2    0    0 -0.75755202098E+01 -0.37402509540E+02 -0.20670918265E+02  0.43400726817E+02  0.00000000000E+00 0.  1.
         11    1    3    3    0    0  0.49448221125E+00  0.21187263279E+02  0.13569380988E+02  0.25164910860E+02  0.51100000000E-03 0. -1.
        -11    1    3    3    0    0  0.26964605796E+01  0.33374213818E+01 -0.33693719917E+01  0.54554513119E+01  0.51100000000E-03 0.  1.
        -12    1    3    3    0    0  0.43845774189E+01  0.12877824879E+02  0.10470909269E+02  0.17166911011E+02  0.00000000000E+00 0.  1.
</event>
<event>
 7    1  0.2732193E-010  0.4778727E+02  0.7816164E-02  0.1312668E+00
        -11   -1    0    0    0    0  0.00000000000E+00  0.00000000000E+00  0.45593999997E+02  0.45594000000E+02  0.51100000000E-03 0. -1.
         11   -1    0    0    0    0 -0.00000000000E+00 -0.00000000000E+00 -0.45593999997E+02  0.45594000000E+02  0.51100000000E-03 0.  1.
    9900012    2    1    2    0    0 -0.39649651955E+02 -0.11256678317E+02 -0.13594692135E+02  0.47787270040E+02  0.19999995418E+02 0.  0.
        -12    1    1    2    0    0  0.39649651955E+02  0.11256678317E+02  0.13594692135E+02  0.43400729960E+02  0.00000000000E+00 0.  1.
         11    1    3    3    0    0 -0.10847035052E+02 -0.10149037595E+02 -0.34104233990E+01  0.15241132555E+02  0.51100000000E-03 0.  1.
        -11    1    3    3    0    0 -0.17059551393E+02  0.46553064468E+01 -0.74162665086E+01  0.19175536003E+02  0.51100000000E-03 0. -1.
         12    1    3    3    0    0 -0.11743065510E+02 -0.57629471688E+01 -0.27680022271E+01  0.13370601481E+02  0.00000000000E+00 0. -1.
</event>
<event>
 7    1  0.2732193E-010  0.4778727E+02  0.7816164E-02  0.1312668E+00
        -11   -1    0    0    0    0  0.00000000000E+00  0.00000000000E+00  0.45593999997E+02  0.45594000000E+02  0.51100000000E-03 0.  1.
         11   -1    0    0    0    0 -0.00000000000E+00 -0.00000000000E+00 -0.45593999997E+02  0.45594000000E+02  0.51100000000E-03 0. -1.
    9900012    2    1    2    0    0 -0.40312304366E+02  0.29447921753E+01 -0.15807263390E+02  0.47787271203E+02  0.20000000722E+02 0.  0.
        -12    1    1    2    0    0  0.40312304366E+02 -0.29447921753E+01  0.15807263390E+02  0.43400728797E+02  0.00000000000E+00 0.  1.
         11    1    3    3    0    0 -0.38972748754E+02 -0.24283652820E+01 -0.14200285325E+02  0.41550213080E+02  0.51100000000E-03 0. -1.
        -11    1    3    3    0    0 -0.18920469699E+01  0.45296458328E+01 -0.17646382804E+01  0.52164625589E+01  0.51100000000E-03 0.  1.
         12    1    3    3    0    0  0.55249135837E+00  0.84351162452E+00  0.15766021505E+00  0.10205955640E+01  0.00000000000E+00 0. -1.
</event>
<event>
 7    1  0.2732193E-010  0.4778727E+02  0.7816164E-02  0.1312668E+00
        -11   -1    0    0    0    0  0.00000000000E+00  0.00000000000E+00  0.45593999997E+02  0.45594000000E+02  0.51100000000E-03 0.  1.
         11   -1    0    0    0    0 -0.00000000000E+00 -0.00000000000E+00 -0.45593999997E+02  0.45594000000E+02  0.51100000000E-03 0. -1.
    9900012    2    1    2    0    0 -0.28065799898E+02  0.61186075570E+01 -0.32534544981E+02  0.47787273054E+02  0.20000009161E+02 0.  0.
        -12    1    1    2    0    0  0.28065799898E+02 -0.61186075570E+01  0.32534544981E+02  0.43400726946E+02  0.00000000000E+00 0.  1.
         11    1    3    3    0    0 -0.20038174369E+02  0.64328653611E+01 -0.20788059281E+02  0.29581304869E+02  0.51100000000E-03 0. -1.
        -11    1    3    3    0    0 -0.15341402638E+01 -0.25321574110E+01  0.14766505906E+01  0.33084595706E+01  0.51100000000E-03 0.  1.
         12    1    3    3    0    0 -0.64934852651E+01  0.22178996068E+01 -0.13223136291E+02  0.14897508614E+02  0.00000000000E+00 0. -1.
</event>
<event>
 7    1  0.2732193E-010  0.4778727E+02  0.7816164E-02  0.1312668E+00
        -11   -1    0    0    0    0  0.00000000000E+00  0.00000000000E+00  0.45593999997E+02  0.45594000000E+02  0.51100000000E-03 0.  1.
         11   -1    0    0    0    0 -0.00000000000E+00 -0.00000000000E+00 -0.45593999997E+02  0.45594000000E+02  0.51100000000E-03 0. -1.
    9900012    2    1    2    0    0  0.36143512556E+02  0.21574301586E+02 -0.10574462965E+02  0.47787271252E+02  0.20000000948E+02 0.  0.
        -12    1    1    2    0    0 -0.36143512556E+02 -0.21574301586E+02  0.10574462965E+02  0.43400728748E+02  0.00000000000E+00 0.  1.
         11    1    3    3    0    0  0.59517392751E+01  0.19826172152E+01 -0.67138702882E+01  0.91885812794E+01  0.51100000000E-03 0. -1.
        -11    1    3    3    0    0  0.11542745034E+02  0.14117604622E+02  0.18810964413E+01  0.18332491573E+02  0.51100000000E-03 0.  1.
         12    1    3    3    0    0  0.18649028247E+02  0.54740797490E+01 -0.57416891181E+01  0.20266198400E+02  0.00000000000E+00 0. -1.
</event>
<event>
 7    1  0.2732193E-010  0.4778727E+02  0.7816164E-02  0.1312668E+00
        -11   -1    0    0    0    0  0.00000000000E+00  0.00000000000E+00  0.45593999997E+02  0.45594000000E+02  0.51100000000E-03 0.  1.
         11   -1    0    0    0    0 -0.00000000000E+00 -0.00000000000E+00 -0.45593999997E+02  0.45594000000E+02  0.51100000000E-03 0. -1.
    9900012    2    1    2    0    0  0.11696276504E+02  0.14737816524E+02 -0.39110318656E+02  0.47787272526E+02  0.20000006753E+02 0.  0.
        -12    1    1    2    0    0 -0.11696276504E+02 -0.14737816524E+02  0.39110318656E+02  0.43400727474E+02  0.00000000000E+00 0.  1.
         11    1    3    3    0    0  0.10263522791E+02  0.36721784304E+01 -0.88338341488E+01  0.14030731290E+02  0.51100000000E-03 0. -1.
        -11    1    3    3    0    0 -0.26296300605E+01  0.89149292110E+01 -0.13706137250E+02  0.16560468461E+02  0.51100000000E-03 0.  1.
         12    1    3    3    0    0  0.40623837729E+01  0.21507088830E+01 -0.16570347257E+02  0.17196072774E+02  0.00000000000E+00 0. -1.
</event>
<event>
 7    1  0.2732193E-010  0.4778727E+02  0.7816164E-02  0.1312668E+00
        -11   -1    0    0    0    0  0.00000000000E+00  0.00000000000E+00  0.45593999997E+02  0.45594000000E+02  0.51100000000E-03 0. -1.
         11   -1    0    0    0    0 -0.00000000000E+00 -0.00000000000E+00 -0.45593999997E+02  0.45594000000E+02  0.51100000000E-03 0.  1.
    9900012    2    1    2    0    0 -0.18046525924E+02 -0.24141327383E+02  0.31227274014E+02  0.47787269268E+02  0.19999991903E+02 0.  0.
        -12    1    1    2    0    0  0.18046525924E+02  0.24141327383E+02 -0.31227274014E+02  0.43400730732E+02  0.00000000000E+00 0.  1.
         11    1    3    3    0    0 -0.11449100653E+02 -0.56593421701E+01  0.54538052714E+01  0.13887190204E+02  0.51100000000E-03 0. -1.
        -11    1    3    3    0    0 -0.58863986684E+01 -0.19529700679E+02  0.22393489479E+02  0.30290712590E+02  0.51100000000E-03 0.  1.
        -12    1    3    3    0    0 -0.71102660259E+00  0.10477154668E+01  0.33799792633E+01  0.36093664748E+01  0.00000000000E+00 0.  1.
</event>
<event>
 7    1  0.2732193E-010  0.4778727E+02  0.7816164E-02  0.1312668E+00
        -11   -1    0    0    0    0  0.00000000000E+00  0.00000000000E+00  0.45593999997E+02  0.45594000000E+02  0.51100000000E-03 0.  1.
         11   -1    0    0    0    0 -0.00000000000E+00 -0.00000000000E+00 -0.45593999997E+02  0.45594000000E+02  0.51100000000E-03 0. -1.
    9900012    2    1    2    0    0  0.27492180690E+02 -0.12633054873E+02 -0.31116061872E+02  0.47787269811E+02  0.19999994374E+02 0.  0.
        -12    1    1    2    0    0 -0.27492180690E+02  0.12633054873E+02  0.31116061872E+02  0.43400730189E+02  0.00000000000E+00 0.  1.
         11    1    3    3    0    0  0.10216480853E+02 -0.54963333552E+00 -0.41827013581E+01  0.11053215312E+02  0.51100000000E-03 0. -1.
        -11    1    3    3    0    0  0.11968992708E+02 -0.65034213674E+01 -0.25487211142E+02  0.28898948216E+02  0.51100000000E-03 0.  1.
        -12    1    3    3    0    0  0.53067071287E+01 -0.55800001705E+01 -0.14461493726E+01  0.78351062827E+01  0.00000000000E+00 0.  1.
</event>
<event>
 7    1  0.2732193E-010  0.4778726E+02  0.7816164E-02  0.1312668E+00
        -11   -1    0    0    0    0  0.00000000000E+00  0.00000000000E+00  0.45593999997E+02  0.45594000000E+02  0.51100000000E-03 0.  1.
         11   -1    0    0    0    0 -0.00000000000E+00 -0.00000000000E+00 -0.45593999997E+02  0.45594000000E+02  0.51100000000E-03 0. -1.
    9900012    2    1    2    0    0 -0.27137348647E+02  0.33417188000E+02  0.55208471699E+01  0.47787263844E+02  0.19999967170E+02 0.  0.
        -12    1    1    2    0    0  0.27137348647E+02 -0.33417188000E+02 -0.55208471699E+01  0.43400736156E+02  0.00000000000E+00 0.  1.
         11    1    3    3    0    0 -0.20404099259E+02  0.15598228574E+02  0.62178800881E+01  0.26425253722E+02  0.51100000000E-03 0. -1.
        -11    1    3    3    0    0  0.10906310821E+01 -0.62743487897E+00 -0.40856263381E+00  0.13229037650E+01  0.51100000000E-03 0.  1.
         12    1    3    3    0    0 -0.78238804695E+01  0.18446394306E+02 -0.28847028437E+00  0.20039106357E+02  0.00000000000E+00 0. -1.
</event>
<event>
 7    1  0.2732193E-010  0.4778727E+02  0.7816164E-02  0.1312668E+00
        -11   -1    0    0    0    0  0.00000000000E+00  0.00000000000E+00  0.45593999997E+02  0.45594000000E+02  0.51100000000E-03 0.  1.
         11   -1    0    0    0    0 -0.00000000000E+00 -0.00000000000E+00 -0.45593999997E+02  0.45594000000E+02  0.51100000000E-03 0. -1.
    9900012    2    1    2    0    0  0.11566037450E+02  0.36924671051E+02 -0.19657529123E+02  0.47787274134E+02  0.20000014085E+02 0.  0.
        -12    1    1    2    0    0 -0.11566037450E+02 -0.36924671051E+02  0.19657529123E+02  0.43400725866E+02  0.00000000000E+00 0.  1.
         11    1    3    3    0    0  0.93127283245E+01  0.25750745929E+02 -0.18981392133E+02  0.33318479442E+02  0.51100000000E-03 0. -1.
        -11    1    3    3    0    0 -0.30930605814E+01  0.67802261650E+01 -0.11121260488E+01  0.75349396294E+01  0.51100000000E-03 0.  1.
         12    1    3    3    0    0  0.53463697067E+01  0.43936989562E+01  0.43598905885E+00  0.69338550618E+01  0.00000000000E+00 0. -1.
</event>
<event>
 7    1  0.2732193E-010  0.4778727E+02  0.7816164E-02  0.1312668E+00
        -11   -1    0    0    0    0  0.00000000000E+00  0.00000000000E+00  0.45593999997E+02  0.45594000000E+02  0.51100000000E-03 0. -1.
         11   -1    0    0    0    0 -0.00000000000E+00 -0.00000000000E+00 -0.45593999997E+02  0.45594000000E+02  0.51100000000E-03 0.  1.
    9900012    2    1    2    0    0  0.18712435868E+02  0.14488046305E+02  0.36380827955E+02  0.47787269769E+02  0.19999994187E+02 0.  0.
        -12    1    1    2    0    0 -0.18712435868E+02 -0.14488046305E+02 -0.36380827955E+02  0.43400730231E+02  0.00000000000E+00 0.  1.
         11    1    3    3    0    0 -0.53098748181E+00  0.66390758238E+01  0.22956396925E+01  0.70448021518E+01  0.51100000000E-03 0. -1.
        -11    1    3    3    0    0  0.72822365487E+01  0.11907860882E+01  0.60445214787E+01  0.95386152468E+01  0.51100000000E-03 0.  1.
         12    1    3    3    0    0  0.11961186802E+02  0.66581843931E+01  0.28040666784E+02  0.31203852371E+02  0.00000000000E+00 0. -1.
</event>
<event>
 7    1  0.2732193E-010  0.4778727E+02  0.7816164E-02  0.1312668E+00
        -11   -1    0    0    0    0  0.00000000000E+00  0.00000000000E+00  0.45593999997E+02  0.45594000000E+02  0.51100000000E-03 0. -1.
         11   -1    0    0    0    0 -0.00000000000E+00 -0.00000000000E+00 -0.45593999997E+02  0.45594000000E+02  0.51100000000E-03 0.  1.
    9900012    2    1    2    0    0 -0.19460533826E+02  0.18555240549E+02  0.34067786682E+02  0.47787269384E+02  0.19999992428E+02 0.  0.
        -12    1    1    2    0    0  0.19460533826E+02 -0.18555240549E+02 -0.34067786682E+02  0.43400730616E+02  0.00000000000E+00 0.  1.
         11    1    3    3    0    0 -0.11649269125E+02  0.37684345632E+00  0.81377168221E+01  0.14215129879E+02  0.51100000000E-03 0. -1.
        -11    1    3    3    0    0 -0.32335378233E+01  0.11812409214E+02  0.99778830166E+01  0.15797054411E+02  0.51100000000E-03 0.  1.
         12    1    3    3    0    0 -0.45777268779E+01  0.63659878788E+01  0.15952186843E+02  0.17775085094E+02  0.00000000000E+00 0. -1.
</event>
<event>
 7    1  0.2732193E-010  0.4778727E+02  0.7816164E-02  0.1312668E+00
        -11   -1    0    0    0    0  0.00000000000E+00  0.00000000000E+00  0.45593999997E+02  0.45594000000E+02  0.51100000000E-03 0. -1.
         11   -1    0    0    0    0 -0.00000000000E+00 -0.00000000000E+00 -0.45593999997E+02  0.45594000000E+02  0.51100000000E-03 0.  1.
    9900012    2    1    2    0    0 -0.24113250593E+02 -0.16641267140E+02  0.32019408265E+02  0.47787272681E+02  0.20000007460E+02 0.  0.
        -12    1    1    2    0    0  0.24113250593E+02  0.16641267140E+02 -0.32019408265E+02  0.43400727319E+02  0.00000000000E+00 0.  1.
         11    1    3    3    0    0 -0.17122502948E+02 -0.58470368061E+01  0.23568835681E+02  0.29712925844E+02  0.51100000000E-03 0. -1.
        -11    1    3    3    0    0 -0.80142337775E+01 -0.10168643047E+02  0.41293609191E+01  0.13589733858E+02  0.51100000000E-03 0.  1.
        -12    1    3    3    0    0  0.10234861316E+01 -0.62558728670E+00  0.43212116653E+01  0.44846129790E+01  0.00000000000E+00 0.  1.
</event>
<event>
 7    1  0.2732193E-010  0.4778727E+02  0.7816164E-02  0.1312668E+00
        -11   -1    0    0    0    0  0.00000000000E+00  0.00000000000E+00  0.45593999997E+02  0.45594000000E+02  0.51100000000E-03 0.  1.
         11   -1    0    0    0    0 -0.00000000000E+00 -0.00000000000E+00 -0.45593999997E+02  0.45594000000E+02  0.51100000000E-03 0. -1.
    9900012    2    1    2    0    0 -0.21494206062E+02 -0.16966010919E+02 -0.33671603670E+02  0.47787270577E+02  0.19999997869E+02 0.  0.
        -12    1    1    2    0    0  0.21494206062E+02  0.16966010919E+02  0.33671603670E+02  0.43400729423E+02  0.00000000000E+00 0.  1.
         11    1    3    3    0    0 -0.11553381345E+02 -0.12612275499E+02 -0.19097006308E+02  0.25636804870E+02  0.51100000000E-03 0. -1.
        -11    1    3    3    0    0 -0.24832960360E+01  0.35553657003E+01 -0.49821720518E+00  0.43652726272E+01  0.51100000000E-03 0.  1.
        -12    1    3    3    0    0 -0.74575286806E+01 -0.79091011204E+01 -0.14076380157E+02  0.17785193079E+02  0.00000000000E+00 0.  1.
</event>
<event>
 7    1  0.2732193E-010  0.4778728E+02  0.7816164E-02  0.1312668E+00
        -11   -1    0    0    0    0  0.00000000000E+00  0.00000000000E+00  0.45593999997E+02  0.45594000000E+02  0.51100000000E-03 0.  1.
         11   -1    0    0    0    0 -0.00000000000E+00 -0.00000000000E+00 -0.45593999997E+02  0.45594000000E+02  0.51100000000E-03 0. -1.
    9900012    2    1    2    0    0  0.19088940352E+02  0.27618749802E+02 -0.27503447192E+02  0.47787278902E+02  0.20000035825E+02 0.  0.
        -12    1    1    2    0    0 -0.19088940352E+02 -0.27618749802E+02  0.27503447192E+02  0.43400721098E+02  0.00000000000E+00 0.  1.
         11    1    3    3    0    0  0.72868372254E+01  0.10839631134E+02 -0.21083954504E+02  0.24801789001E+02  0.51100000000E-03 0. -1.
        -11    1    3    3    0    0 -0.10622431846E+00  0.33998851561E+01 -0.34223249281E+01  0.48252265082E+01  0.51100000000E-03 0.  1.
         12    1    3    3    0    0  0.11908327445E+02  0.13379233512E+02 -0.29971677603E+01  0.18160263393E+02  0.00000000000E+00 0. -1.
</event>
<event>
 7    1  0.2732193E-010  0.4778727E+02  0.7816164E-02  0.1312668E+00
        -11   -1    0    0    0    0  0.00000000000E+00  0.00000000000E+00  0.45593999997E+02  0.45594000000E+02  0.51100000000E-03 0. -1.
         11   -1    0    0    0    0 -0.00000000000E+00 -0.00000000000E+00 -0.45593999997E+02  0.45594000000E+02  0.51100000000E-03 0.  1.
    9900012    2    1    2    0    0  0.14293074967E+02 -0.29536898877E+02  0.28406037218E+02  0.47787270309E+02  0.19999996648E+02 0.  0.
        -12    1    1    2    0    0 -0.14293074967E+02  0.29536898877E+02 -0.28406037218E+02  0.43400729691E+02  0.00000000000E+00 0.  1.
         11    1    3    3    0    0  0.11644218365E+02 -0.76232615734E+01  0.62661773486E+01  0.15263253820E+02  0.51100000000E-03 0. -1.
        -11    1    3    3    0    0  0.34356655919E+01 -0.18039884114E+02  0.12807798213E+02  0.22389303523E+02  0.51100000000E-03 0.  1.
         12    1    3    3    0    0 -0.78680898999E+00 -0.38737531897E+01  0.93320616561E+01  0.10134712967E+02  0.00000000000E+00 0. -1.
</event>
<event>
 7    1  0.2732193E-010  0.4778727E+02  0.7816164E-02  0.1312668E+00
        -11   -1    0    0    0    0  0.00000000000E+00  0.00000000000E+00  0.45593999997E+02  0.45594000000E+02  0.51100000000E-03 0. -1.
         11   -1    0    0    0    0 -0.00000000000E+00 -0.00000000000E+00 -0.45593999997E+02  0.45594000000E+02  0.51100000000E-03 0.  1.
    9900012    2    1    2    0    0 -0.14806250282E+02 -0.40783349535E+02 -0.10567333512E+01  0.47787270374E+02  0.19999996945E+02 0.  0.
        -12    1    1    2    0    0  0.14806250282E+02  0.40783349535E+02  0.10567333512E+01  0.43400729626E+02  0.00000000000E+00 0.  1.
         11    1    3    3    0    0 -0.10230524187E+02 -0.26208497487E+02  0.29552391475E+01  0.28289263058E+02  0.51100000000E-03 0. -1.
        -11    1    3    3    0    0 -0.27333770190E+01  0.84098440208E+00 -0.26735212875E+01  0.39148845485E+01  0.51100000000E-03 0.  1.
        -12    1    3    3    0    0 -0.18423490754E+01 -0.15415836450E+02 -0.13384512113E+01  0.15583122768E+02  0.00000000000E+00 0.  1.
</event>
<event>
 7    1  0.2732193E-010  0.4778727E+02  0.7816164E-02  0.1312668E+00
        -11   -1    0    0    0    0  0.00000000000E+00  0.00000000000E+00  0.45593999997E+02  0.45594000000E+02  0.51100000000E-03 0.  1.
         11   -1    0    0    0    0 -0.00000000000E+00 -0.00000000000E+00 -0.45593999997E+02  0.45594000000E+02  0.51100000000E-03 0. -1.
    9900012    2    1    2    0    0  0.42250774835E+02  0.77690803286E+01  0.61754840360E+01  0.47787272053E+02  0.20000004597E+02 0.  0.
        -12    1    1    2    0    0 -0.42250774835E+02 -0.77690803286E+01 -0.61754840360E+01  0.43400727947E+02  0.00000000000E+00 0.  1.
         11    1    3    3    0    0  0.47697755065E+01 -0.25625430744E+00 -0.87858943229E+00  0.48567833290E+01  0.51100000000E-03 0.  1.
        -11    1    3    3    0    0  0.32180237270E+02 -0.55504342877E+00  0.42658382314E+01  0.32466492266E+02  0.51100000000E-03 0. -1.
        -12    1    3    3    0    0  0.53007620578E+01  0.85803780648E+01  0.27882352369E+01  0.10463996458E+02  0.00000000000E+00 0.  1.
</event>
<event>
 7    1  0.2732193E-010  0.4778727E+02  0.7816164E-02  0.1312668E+00
        -11   -1    0    0    0    0  0.00000000000E+00  0.00000000000E+00  0.45593999997E+02  0.45594000000E+02  0.51100000000E-03 0.  1.
         11   -1    0    0    0    0 -0.00000000000E+00 -0.00000000000E+00 -0.45593999997E+02  0.45594000000E+02  0.51100000000E-03 0. -1.
    9900012    2    1    2    0    0 -0.22019682982E+02  0.17942997695E+02 -0.32814715169E+02  0.47787272627E+02  0.20000007215E+02 0.  0.
        -12    1    1    2    0    0  0.22019682982E+02 -0.17942997695E+02  0.32814715169E+02  0.43400727373E+02  0.00000000000E+00 0.  1.
         11    1    3    3    0    0 -0.13183094558E+02  0.51593322042E+01 -0.50017510227E+01  0.15014333301E+02  0.51100000000E-03 0. -1.
        -11    1    3    3    0    0 -0.45971930964E+01  0.10838284883E+02 -0.24060777624E+02  0.26786631436E+02  0.51100000000E-03 0.  1.
         12    1    3    3    0    0 -0.42393953275E+01  0.19453806081E+01 -0.37521865219E+01  0.59863078895E+01  0.00000000000E+00 0. -1.
</event>
<event>
 7    1  0.2732193E-010  0.4778728E+02  0.7816164E-02  0.1312668E+00
        -11   -1    0    0    0    0  0.00000000000E+00  0.00000000000E+00  0.45593999997E+02  0.45594000000E+02  0.51100000000E-03 0. -1.
         11   -1    0    0    0    0 -0.00000000000E+00 -0.00000000000E+00 -0.45593999997E+02  0.45594000000E+02  0.51100000000E-03 0.  1.
    9900012    2    1    2    0    0  0.19479348937E+02 -0.37568574937E+02 -0.96322215074E+01  0.47787279396E+02  0.20000038079E+02 0.  0.
        -12    1    1    2    0    0 -0.19479348937E+02  0.37568574937E+02  0.96322215074E+01  0.43400720604E+02  0.00000000000E+00 0.  1.
         11    1    3    3    0    0  0.17394756053E+02 -0.15969064481E+02 -0.10029511418E+02  0.25655012339E+02  0.51100000000E-03 0. -1.
        -11    1    3    3    0    0 -0.50650403447E+00 -0.15415071317E+02  0.26778153429E+00  0.15425714805E+02  0.51100000000E-03 0.  1.
         12    1    3    3    0    0  0.25910969182E+01 -0.61844391385E+01  0.12950837626E+00  0.67065522525E+01  0.00000000000E+00 0. -1.
</event>
<event>
 7    1  0.2732193E-010  0.4778727E+02  0.7816164E-02  0.1312668E+00
        -11   -1    0    0    0    0  0.00000000000E+00  0.00000000000E+00  0.45593999997E+02  0.45594000000E+02  0.51100000000E-03 0. -1.
         11   -1    0    0    0    0 -0.00000000000E+00 -0.00000000000E+00 -0.45593999997E+02  0.45594000000E+02  0.51100000000E-03 0.  1.
    9900012    2    1    2    0    0  0.43345430474E+02 -0.16031651346E+01 -0.14923725565E+01  0.47787266628E+02  0.19999979862E+02 0.  0.
        -12    1    1    2    0    0 -0.43345430474E+02  0.16031651346E+01  0.14923725565E+01  0.43400733372E+02  0.00000000000E+00 0.  1.
         11    1    3    3    0    0  0.40385830874E+02 -0.14574899596E+01 -0.43121863658E+01  0.40641537420E+02  0.51100000000E-03 0. -1.
        -11    1    3    3    0    0 -0.13859638179E+01 -0.51079948742E+00 -0.60958261525E+00  0.15979371223E+01  0.51100000000E-03 0.  1.
        -12    1    3    3    0    0  0.43455634179E+01  0.36512431241E+00  0.34293964246E+01  0.55477920851E+01  0.00000000000E+00 0.  1.
</event>
<event>
 7    1  0.2732193E-010  0.4778728E+02  0.7816164E-02  0.1312668E+00
        -11   -1    0    0    0    0  0.00000000000E+00  0.00000000000E+00  0.45593999997E+02  0.45594000000E+02  0.51100000000E-03 0. -1.
         11   -1    0    0    0    0 -0.00000000000E+00 -0.00000000000E+00 -0.45593999997E+02  0.45594000000E+02  0.51100000000E-03 0.  1.
    9900012    2    1    2    0    0  0.15191035990E+02  0.40043121054E+02 -0.70287498947E+01  0.47787280613E+02  0.20000043628E+02 0.  0.
        -12    1    1    2    0    0 -0.15191035990E+02 -0.40043121054E+02  0.70287498947E+01  0.43400719387E+02  0.00000000000E+00 0.  1.
         11    1    3    3    0    0 -0.32451953073E+01  0.33804885796E+01 -0.24847210258E+01  0.53040394471E+01  0.51100000000E-03 0.  1.
        -11    1    3    3    0    0  0.17675267332E+02  0.34360322853E+02 -0.16053258172E+01  0.38673297416E+02  0.51100000000E-03 0. -1.
        -12    1    3    3    0    0  0.76096396580E+00  0.23023096217E+01 -0.29387030517E+01  0.38099437499E+01  0.00000000000E+00 0.  1.
</event>
<event>
 7    1  0.2732193E-010  0.4778727E+02  0.7816164E-02  0.1312668E+00
        -11   -1    0    0    0    0  0.00000000000E+00  0.00000000000E+00  0.45593999997E+02  0.45594000000E+02  0.51100000000E-03 0.  1.
         11   -1    0    0    0    0 -0.00000000000E+00 -0.00000000000E+00 -0.45593999997E+02  0.45594000000E+02  0.51100000000E-03 0. -1.
    9900012    2    1    2    0    0 -0.41741462800E+02  0.10567656373E+02  0.54404064211E+01  0.47787273049E+02  0.20000009137E+02 0.  0.
        -12    1    1    2    0    0  0.41741462800E+02 -0.10567656373E+02 -0.54404064211E+01  0.43400726951E+02  0.00000000000E+00 0.  1.
         11    1    3    3    0    0 -0.24685841943E+02  0.66126460318E+00  0.16563190800E+01  0.24750180938E+02  0.51100000000E-03 0. -1.
        -11    1    3    3    0    0 -0.13513811182E+00  0.15930226816E+01 -0.26686630128E+01  0.31109076024E+01  0.51100000000E-03 0.  1.
         12    1    3    3    0    0 -0.16920482745E+02  0.83133690882E+01  0.64527503540E+01  0.19926184508E+02  0.00000000000E+00 0. -1.
</event>
<event>
 7    1  0.2732193E-010  0.4778726E+02  0.7816164E-02  0.1312668E+00
        -11   -1    0    0    0    0  0.00000000000E+00  0.00000000000E+00  0.45593999997E+02  0.45594000000E+02  0.51100000000E-03 0.  1.
         11   -1    0    0    0    0 -0.00000000000E+00 -0.00000000000E+00 -0.45593999997E+02  0.45594000000E+02  0.51100000000E-03 0. -1.
    9900012    2    1    2    0    0 -0.26195328185E+02 -0.35371536901E+01 -0.34422625381E+02  0.47787264832E+02  0.19999971676E+02 0.  0.
        -12    1    1    2    0    0  0.26195328185E+02  0.35371536901E+01  0.34422625381E+02  0.43400735168E+02  0.00000000000E+00 0.  1.
         11    1    3    3    0    0 -0.79427099352E+01 -0.34221330785E+01 -0.33411576707E+01  0.92715139413E+01  0.51100000000E-03 0.  1.
        -11    1    3    3    0    0 -0.14312790504E+02  0.58193501620E+01 -0.23391856454E+02  0.28033903705E+02  0.51100000000E-03 0. -1.
        -12    1    3    3    0    0 -0.39398277461E+01 -0.59343707736E+01 -0.76896112569E+01  0.10481847186E+02  0.00000000000E+00 0.  1.
</event>
<event>
 7    1  0.2732193E-010  0.4778727E+02  0.7816164E-02  0.1312668E+00
        -11   -1    0    0    0    0  0.00000000000E+00  0.00000000000E+00  0.45593999997E+02  0.45594000000E+02  0.51100000000E-03 0. -1.
         11   -1    0    0    0    0 -0.00000000000E+00 -0.00000000000E+00 -0.45593999997E+02  0.45594000000E+02  0.51100000000E-03 0.  1.
    9900012    2    1    2    0    0 -0.12903245070E+02 -0.41368479058E+02  0.24038404268E+01  0.47787271415E+02  0.20000001690E+02 0.  0.
        -12    1    1    2    0    0  0.12903245070E+02  0.41368479058E+02 -0.24038404268E+01  0.43400728585E+02  0.00000000000E+00 0.  1.
         11    1    3    3    0    0 -0.10313681856E+02 -0.83504995245E+01 -0.30977741450E+01  0.13627144993E+02  0.51100000000E-03 0. -1.
        -11    1    3    3    0    0 -0.33509204224E+01 -0.25732119025E+02  0.65413803551E+01  0.26761171021E+02  0.51100000000E-03 0.  1.
        -12    1    3    3    0    0  0.76135720875E+00 -0.72858605079E+01 -0.10397657833E+01  0.73989554009E+01  0.00000000000E+00 0.  1.
</event>
<event>
 7    1  0.2732193E-010  0.4778727E+02  0.7816164E-02  0.1312668E+00
        -11   -1    0    0    0    0  0.00000000000E+00  0.00000000000E+00  0.45593999997E+02  0.45594000000E+02  0.51100000000E-03 0.  1.
         11   -1    0    0    0    0 -0.00000000000E+00 -0.00000000000E+00 -0.45593999997E+02  0.45594000000E+02  0.51100000000E-03 0. -1.
    9900012    2    1    2    0    0 -0.38400512680E+02  0.57186238215E+01 -0.19399003582E+02  0.47787269908E+02  0.19999994820E+02 0.  0.
        -12    1    1    2    0    0  0.38400512680E+02 -0.57186238215E+01  0.19399003582E+02  0.43400730092E+02  0.00000000000E+00 0.  1.
         11    1    3    3    0    0 -0.24127514910E+02  0.82531536365E+01 -0.10580497799E+02  0.27607941875E+02  0.51100000000E-03 0. -1.
        -11    1    3    3    0    0 -0.33352648797E+01 -0.46581218712E+01 -0.67387102241E+01  0.88449028785E+01  0.51100000000E-03 0.  1.
        -12    1    3    3    0    0 -0.10937732891E+02  0.21235920562E+01 -0.20797955589E+01  0.11334425154E+02  0.00000000000E+00 0.  1.
</event>
<event>
 7    1  0.2732193E-010  0.4778727E+02  0.7816164E-02  0.1312668E+00
        -11   -1    0    0    0    0  0.00000000000E+00  0.00000000000E+00  0.45593999997E+02  0.45594000000E+02  0.51100000000E-03 0.  1.
         11   -1    0    0    0    0 -0.00000000000E+00 -0.00000000000E+00 -0.45593999997E+02  0.45594000000E+02  0.51100000000E-03 0. -1.
    9900012    2    1    2    0    0 -0.12166401576E+02  0.33857241520E+02 -0.24275277116E+02  0.47787271783E+02  0.20000003369E+02 0.  0.
        -12    1    1    2    0    0  0.12166401576E+02 -0.33857241520E+02  0.24275277116E+02  0.43400728217E+02  0.00000000000E+00 0.  1.
         11    1    3    3    0    0  0.19706494166E+01  0.17460881392E+02 -0.13232819894E+02  0.21997121646E+02  0.51100000000E-03 0. -1.
        -11    1    3    3    0    0 -0.33903932033E+01 -0.14892734137E+00 -0.52909664750E+00  0.34346599467E+01  0.51100000000E-03 0.  1.
         12    1    3    3    0    0 -0.10746657789E+02  0.16545287470E+02 -0.10513360575E+02  0.22355490191E+02  0.00000000000E+00 0. -1.
</event>
<event>
 7    1  0.2732193E-010  0.4778728E+02  0.7816164E-02  0.1312668E+00
        -11   -1    0    0    0    0  0.00000000000E+00  0.00000000000E+00  0.45593999997E+02  0.45594000000E+02  0.51100000000E-03 0. -1.
         11   -1    0    0    0    0 -0.00000000000E+00 -0.00000000000E+00 -0.45593999997E+02  0.45594000000E+02  0.51100000000E-03 0.  1.
    9900012    2    1    2    0    0 -0.41269177303E+02  0.13417556346E+02 -0.66845240823E+00  0.47787278322E+02  0.20000033181E+02 0.  0.
        -12    1    1    2    0    0  0.41269177303E+02 -0.13417556346E+02  0.66845240823E+00  0.43400721678E+02  0.00000000000E+00 0.  1.
         11    1    3    3    0    0 -0.12591639523E+01  0.94742562993E+00  0.50974255026E+01  0.53354340215E+01  0.51100000000E-03 0. -1.
        -11    1    3    3    0    0 -0.27981837358E+02  0.70630915597E+01 -0.34993301293E+01  0.29070875389E+02  0.51100000000E-03 0.  1.
         12    1    3    3    0    0 -0.12028175993E+02  0.54070391567E+01 -0.22665477814E+01  0.13380968911E+02  0.00000000000E+00 0. -1.
</event>
<event>
 7    1  0.2732193E-010  0.4778728E+02  0.7816164E-02  0.1312668E+00
        -11   -1    0    0    0    0  0.00000000000E+00  0.00000000000E+00  0.45593999997E+02  0.45594000000E+02  0.51100000000E-03 0.  1.
         11   -1    0    0    0    0 -0.00000000000E+00 -0.00000000000E+00 -0.45593999997E+02  0.45594000000E+02  0.51100000000E-03 0. -1.
    9900012    2    1    2    0    0  0.22515789735E+02  0.84694854424E+01 -0.36123811481E+02  0.47787277346E+02  0.20000028730E+02 0.  0.
        -12    1    1    2    0    0 -0.22515789735E+02 -0.84694854424E+01  0.36123811481E+02  0.43400722654E+02  0.00000000000E+00 0.  1.
         11    1    3    3    0    0  0.14856112891E+02  0.10966228774E+02 -0.21524618873E+02  0.28359680564E+02  0.51100000000E-03 0. -1.
        -11    1    3    3    0    0 -0.24190257432E+01  0.50150701324E-01 -0.26023747105E+01  0.35533864178E+01  0.51100000000E-03 0.  1.
         12    1    3    3    0    0  0.10078702586E+02 -0.25468940332E+01 -0.11996817897E+02  0.15874210364E+02  0.00000000000E+00 0. -1.
</event>
<event>
 7    1  0.2732193E-010  0.4778727E+02  0.7816164E-02  0.1312668E+00
        -11   -1    0    0    0    0  0.00000000000E+00  0.00000000000E+00  0.45593999997E+02  0.45594000000E+02  0.51100000000E-03 0. -1.
         11   -1    0    0    0    0 -0.00000000000E+00 -0.00000000000E+00 -0.45593999997E+02  0.45594000000E+02  0.51100000000E-03 0.  1.
    9900012    2    1    2    0    0 -0.28598701586E+02 -0.32038162352E+02 -0.62684586322E+01  0.47787272438E+02  0.20000006354E+02 0.  0.
        -12    1    1    2    0    0  0.28598701586E+02  0.32038162352E+02  0.62684586322E+01  0.43400727562E+02  0.00000000000E+00 0.  1.
         11    1    3    3    0    0 -0.99475298940E+01 -0.49837288517E+01  0.46406484001E+01  0.12055145047E+02  0.51100000000E-03 0.  1.
        -11    1    3    3    0    0 -0.12340518913E+02 -0.12650332233E+02 -0.91711407942E+01  0.19910528280E+02  0.51100000000E-03 0. -1.
        -12    1    3    3    0    0 -0.63106527791E+01 -0.14404101267E+02 -0.17379662381E+01  0.15821599112E+02  0.00000000000E+00 0.  1.
</event>
<event>
 7    1  0.2732193E-010  0.4778726E+02  0.7816164E-02  0.1312668E+00
        -11   -1    0    0    0    0  0.00000000000E+00  0.00000000000E+00  0.45593999997E+02  0.45594000000E+02  0.51100000000E-03 0.  1.
         11   -1    0    0    0    0 -0.00000000000E+00 -0.00000000000E+00 -0.45593999997E+02  0.45594000000E+02  0.51100000000E-03 0. -1.
    9900012    2    1    2    0    0 -0.24233743619E+02 -0.65190768716E+01 -0.35409760195E+02  0.47787264867E+02  0.19999971835E+02 0.  0.
        -12    1    1    2    0    0  0.24233743619E+02  0.65190768716E+01  0.35409760195E+02  0.43400735133E+02  0.00000000000E+00 0.  1.
         11    1    3    3    0    0 -0.13623045099E+02 -0.67610273276E+01 -0.63129367551E+01  0.16466694235E+02  0.51100000000E-03 0. -1.
        -11    1    3    3    0    0 -0.51433493140E+01 -0.11775150622E+01 -0.19337493694E+02  0.20044431808E+02  0.51100000000E-03 0.  1.
        -12    1    3    3    0    0 -0.54673492064E+01  0.14194655181E+01 -0.97593297455E+01  0.11276138824E+02  0.00000000000E+00 0.  1.
</event>
<event>
 7    1  0.2732193E-010  0.4778727E+02  0.7816164E-02  0.1312668E+00
        -11   -1    0    0    0    0  0.00000000000E+00  0.00000000000E+00  0.45593999997E+02  0.45594000000E+02  0.51100000000E-03 0. -1.
         11   -1    0    0    0    0 -0.00000000000E+00 -0.00000000000E+00 -0.45593999997E+02  0.45594000000E+02  0.51100000000E-03 0.  1.
    9900012    2    1    2    0    0 -0.14872221890E+02 -0.38750509165E+02  0.12682198512E+02  0.47787273006E+02  0.20000008944E+02 0.  0.
        -12    1    1    2    0    0  0.14872221890E+02  0.38750509165E+02 -0.12682198512E+02  0.43400726994E+02  0.00000000000E+00 0.  1.
         11    1    3    3    0    0 -0.12614497713E+02 -0.35146194661E+02  0.37575713959E+01  0.37529986608E+02  0.51100000000E-03 0. -1.
        -11    1    3    3    0    0 -0.28220081762E+01 -0.26207859531E+01  0.75483087225E+01  0.84740317435E+01  0.51100000000E-03 0.  1.
         12    1    3    3    0    0  0.56428399974E+00 -0.98352855076E+00  0.13763183936E+01  0.17832546546E+01  0.00000000000E+00 0. -1.
</event>
<event>
 7    1  0.2732193E-010  0.4778727E+02  0.7816164E-02  0.1312668E+00
        -11   -1    0    0    0    0  0.00000000000E+00  0.00000000000E+00  0.45593999997E+02  0.45594000000E+02  0.51100000000E-03 0.  1.
         11   -1    0    0    0    0 -0.00000000000E+00 -0.00000000000E+00 -0.45593999997E+02  0.45594000000E+02  0.51100000000E-03 0. -1.
    9900012    2    1    2    0    0 -0.40600026544E+02 -0.10780048920E+02 -0.10911083994E+02  0.47787270006E+02  0.19999995267E+02 0.  0.
        -12    1    1    2    0    0  0.40600026544E+02  0.10780048920E+02  0.10911083994E+02  0.43400729994E+02  0.00000000000E+00 0.  1.
         11    1    3    3    0    0 -0.28393791100E+02 -0.51325799339E+01  0.11461007437E+00  0.28854183155E+02  0.51100000000E-03 0. -1.
        -11    1    3    3    0    0 -0.95849598822E+01 -0.56611271976E+01 -0.11777752159E+02  0.16206025523E+02  0.51100000000E-03 0.  1.
        -12    1    3    3    0    0 -0.26212755611E+01  0.13658211524E-01  0.75205809051E+00  0.27270613278E+01  0.00000000000E+00 0.  1.
</event>
<event>
 7    1  0.2732193E-010  0.4778727E+02  0.7816164E-02  0.1312668E+00
        -11   -1    0    0    0    0  0.00000000000E+00  0.00000000000E+00  0.45593999997E+02  0.45594000000E+02  0.51100000000E-03 0.  1.
         11   -1    0    0    0    0 -0.00000000000E+00 -0.00000000000E+00 -0.45593999997E+02  0.45594000000E+02  0.51100000000E-03 0. -1.
    9900012    2    1    2    0    0  0.96670486607E+01 -0.91284249286E+01 -0.41313959388E+02  0.47787271760E+02  0.20000003262E+02 0.  0.
        -12    1    1    2    0    0 -0.96670486607E+01  0.91284249286E+01  0.41313959388E+02  0.43400728240E+02  0.00000000000E+00 0.  1.
         11    1    3    3    0    0  0.12918434282E+02 -0.39466914841E+01 -0.13992230232E+02  0.19448517298E+02  0.51100000000E-03 0. -1.
        -11    1    3    3    0    0 -0.41478601620E+01 -0.40898089677E+01 -0.24501894552E+02  0.25184799349E+02  0.51100000000E-03 0.  1.
         12    1    3    3    0    0  0.89647454085E+00 -0.10919244768E+01 -0.28198346038E+01  0.31539551136E+01  0.00000000000E+00 0. -1.
</event>
<event>
 7    1  0.2732193E-010  0.4778727E+02  0.7816164E-02  0.1312668E+00
        -11   -1    0    0    0    0  0.00000000000E+00  0.00000000000E+00  0.45593999997E+02  0.45594000000E+02  0.51100000000E-03 0.  1.
         11   -1    0    0    0    0 -0.00000000000E+00 -0.00000000000E+00 -0.45593999997E+02  0.45594000000E+02  0.51100000000E-03 0. -1.
    9900012    2    1    2    0    0 -0.41149980949E+02 -0.13450499277E+02 -0.30637264915E+01  0.47787270940E+02  0.19999999526E+02 0.  0.
        -12    1    1    2    0    0  0.41149980949E+02  0.13450499277E+02  0.30637264915E+01  0.43400729060E+02  0.00000000000E+00 0.  1.
         11    1    3    3    0    0 -0.25232273810E+02 -0.15209621582E+02 -0.47586456407E+01  0.29843675023E+02  0.51100000000E-03 0. -1.
        -11    1    3    3    0    0 -0.87105633008E+01  0.59036384817E+00  0.48528601882E+01  0.99886282721E+01  0.51100000000E-03 0.  1.
         12    1    3    3    0    0 -0.72071438377E+01  0.11687584567E+01 -0.31579410391E+01  0.79549676450E+01  0.00000000000E+00 0. -1.
</event>
<event>
 7    1  0.2732193E-010  0.4778727E+02  0.7816164E-02  0.1312668E+00
        -11   -1    0    0    0    0  0.00000000000E+00  0.00000000000E+00  0.45593999997E+02  0.45594000000E+02  0.51100000000E-03 0.  1.
         11   -1    0    0    0    0 -0.00000000000E+00 -0.00000000000E+00 -0.45593999997E+02  0.45594000000E+02  0.51100000000E-03 0. -1.
    9900012    2    1    2    0    0 -0.14314237162E+02  0.38670238207E+02  0.13540244594E+02  0.47787274980E+02  0.20000017946E+02 0.  0.
        -12    1    1    2    0    0  0.14314237162E+02 -0.38670238207E+02 -0.13540244594E+02  0.43400725020E+02  0.00000000000E+00 0.  1.
         11    1    3    3    0    0 -0.16740383287E+01  0.79878349329E+01  0.78255967802E+00  0.81987993726E+01  0.51100000000E-03 0. -1.
        -11    1    3    3    0    0 -0.16738530188E+02  0.20307874695E+02  0.92474479695E+01  0.27894505941E+02  0.51100000000E-03 0.  1.
        -12    1    3    3    0    0  0.40983313550E+01  0.10374528580E+02  0.35102369468E+01  0.11693969667E+02  0.00000000000E+00 0.  1.
</event>
<event>
 7    1  0.2732193E-010  0.4778727E+02  0.7816164E-02  0.1312668E+00
        -11   -1    0    0    0    0  0.00000000000E+00  0.00000000000E+00  0.45593999997E+02  0.45594000000E+02  0.51100000000E-03 0.  1.
         11   -1    0    0    0    0 -0.00000000000E+00 -0.00000000000E+00 -0.45593999997E+02  0.45594000000E+02  0.51100000000E-03 0. -1.
    9900012    2    1    2    0    0 -0.32995857188E+02 -0.19595641502E+02 -0.20270850862E+02  0.47787272447E+02  0.20000006395E+02 0.  0.
        -12    1    1    2    0    0  0.32995857188E+02  0.19595641502E+02  0.20270850862E+02  0.43400727553E+02  0.00000000000E+00 0.  1.
         11    1    3    3    0    0 -0.82343039568E+01 -0.84918402188E+01 -0.11762887154E+02  0.16681745305E+02  0.51100000000E-03 0. -1.
        -11    1    3    3    0    0 -0.66395873854E+01 -0.12622713174E+01  0.31060849248E+01  0.74380920502E+01  0.51100000000E-03 0.  1.
        -12    1    3    3    0    0 -0.18121965846E+02 -0.98415299656E+01 -0.11614048633E+02  0.23667435092E+02  0.00000000000E+00 0.  1.
</event>
<event>
 7    1  0.2732193E-010  0.4778728E+02  0.7816164E-02  0.1312668E+00
        -11   -1    0    0    0    0  0.00000000000E+00  0.00000000000E+00  0.45593999997E+02  0.45594000000E+02  0.51100000000E-03 0.  1.
         11   -1    0    0    0    0 -0.00000000000E+00 -0.00000000000E+00 -0.45593999997E+02  0.45594000000E+02  0.51100000000E-03 0. -1.
    9900012    2    1    2    0    0 -0.14928444983E+02  0.23739969667E+02 -0.33123681154E+02  0.47787275552E+02  0.20000020554E+02 0.  0.
        -12    1    1    2    0    0  0.14928444983E+02 -0.23739969667E+02  0.33123681154E+02  0.43400724448E+02  0.00000000000E+00 0.  1.
         11    1    3    3    0    0 -0.43714659633E+01  0.39796958681E+01 -0.69670611638E+01  0.91371568549E+01  0.51100000000E-03 0. -1.
        -11    1    3    3    0    0 -0.27844504532E+01  0.12157602809E+02 -0.24713173407E+02  0.27682149673E+02  0.51100000000E-03 0.  1.
        -12    1    3    3    0    0 -0.77725285661E+01  0.76026709900E+01 -0.14434465830E+01  0.10967969025E+02  0.00000000000E+00 0.  1.
</event>
<event>
 7    1  0.2732193E-010  0.4778727E+02  0.7816164E-02  0.1312668E+00
        -11   -1    0    0    0    0  0.00000000000E+00  0.00000000000E+00  0.45593999997E+02  0.45594000000E+02  0.51100000000E-03 0.  1.
         11   -1    0    0    0    0 -0.00000000000E+00 -0.00000000000E+00 -0.45593999997E+02  0.45594000000E+02  0.51100000000E-03 0. -1.
    9900012    2    1    2    0    0  0.35957159710E+02  0.19823518170E+02 -0.14061801563E+02  0.47787268782E+02  0.19999989685E+02 0.  0.
        -12    1    1    2    0    0 -0.35957159710E+02 -0.19823518170E+02  0.14061801563E+02  0.43400731218E+02  0.00000000000E+00 0.  1.
         11    1    3    3    0    0  0.15354432438E+02  0.14686871228E+02 -0.29106205739E+01  0.21446083427E+02  0.51100000000E-03 0.  1.
        -11    1    3    3    0    0  0.31645830558E+01  0.46054372620E+01  0.87126700525E-01  0.55885802861E+01  0.51100000000E-03 0. -1.
         12    1    3    3    0    0  0.17438144216E+02  0.53120967949E+00 -0.11238307689E+02  0.20752605069E+02  0.00000000000E+00 0. -1.
</event>
<event>
 7    1  0.2732193E-010  0.4778727E+02  0.7816164E-02  0.1312668E+00
        -11   -1    0    0    0    0  0.00000000000E+00  0.00000000000E+00  0.45593999997E+02  0.45594000000E+02  0.51100000000E-03 0.  1.
         11   -1    0    0    0    0 -0.00000000000E+00 -0.00000000000E+00 -0.45593999997E+02  0.45594000000E+02  0.51100000000E-03 0. -1.
    9900012    2    1    2    0    0  0.19522797625E+02  0.33780374078E+02 -0.19009727258E+02  0.47787273849E+02  0.20000012788E+02 0.  0.
        -12    1    1    2    0    0 -0.19522797625E+02 -0.33780374078E+02  0.19009727258E+02  0.43400726151E+02  0.00000000000E+00 0.  1.
         11    1    3    3    0    0  0.42720653298E+01  0.97154908130E+01 -0.57436598983E+01  0.12067764217E+02  0.51100000000E-03 0. -1.
        -11    1    3    3    0    0  0.66929418667E+01  0.19341325358E+02 -0.16428511112E+01  0.20532444995E+02  0.51100000000E-03 0.  1.
        -12    1    3    3    0    0  0.85577904286E+01  0.47235579077E+01 -0.11623216249E+02  0.15187064637E+02  0.00000000000E+00 0.  1.
</event>
<event>
 7    1  0.2732193E-010  0.4778727E+02  0.7816164E-02  0.1312668E+00
        -11   -1    0    0    0    0  0.00000000000E+00  0.00000000000E+00  0.45593999997E+02  0.45594000000E+02  0.51100000000E-03 0.  1.
         11   -1    0    0    0    0 -0.00000000000E+00 -0.00000000000E+00 -0.45593999997E+02  0.45594000000E+02  0.51100000000E-03 0. -1.
    9900012    2    1    2    0    0 -0.39471280574E+02 -0.17696351158E+02 -0.35328274233E+01  0.47787266088E+02  0.19999977403E+02 0.  0.
        -12    1    1    2    0    0  0.39471280574E+02  0.17696351158E+02  0.35328274233E+01  0.43400733912E+02  0.00000000000E+00 0.  1.
         11    1    3    3    0    0 -0.22172932808E+02 -0.12378936331E+02 -0.67095116440E+01  0.26265843995E+02  0.51100000000E-03 0. -1.
        -11    1    3    3    0    0 -0.12147401002E+02 -0.71000461469E+01  0.61008211988E+01  0.15335906427E+02  0.51100000000E-03 0.  1.
        -12    1    3    3    0    0 -0.51509467646E+01  0.17826313197E+01 -0.29241369781E+01  0.61855156664E+01  0.00000000000E+00 0.  1.
</event>
<event>
 7    1  0.2732193E-010  0.4778727E+02  0.7816164E-02  0.1312668E+00
        -11   -1    0    0    0    0  0.00000000000E+00  0.00000000000E+00  0.45593999997E+02  0.45594000000E+02  0.51100000000E-03 0.  1.
         11   -1    0    0    0    0 -0.00000000000E+00 -0.00000000000E+00 -0.45593999997E+02  0.45594000000E+02  0.51100000000E-03 0. -1.
    9900012    2    1    2    0    0 -0.24972350033E+02  0.24700591656E+02 -0.25492859038E+02  0.47787270095E+02  0.19999995672E+02 0.  0.
        -12    1    1    2    0    0  0.24972350033E+02 -0.24700591656E+02  0.25492859038E+02  0.43400729905E+02  0.00000000000E+00 0.  1.
         11    1    3    3    0    0 -0.54589745450E+01  0.15284145790E+02 -0.12970389289E+02  0.20775863741E+02  0.51100000000E-03 0. -1.
        -11    1    3    3    0    0 -0.18188587262E+02  0.10485677474E+02 -0.13583199200E+02  0.25005548173E+02  0.51100000000E-03 0.  1.
        -12    1    3    3    0    0 -0.13247882263E+01 -0.10692316076E+01  0.10607294512E+01  0.20058581814E+01  0.00000000000E+00 0.  1.
</event>
<event>
 7    1  0.2732193E-010  0.4778727E+02  0.7816164E-02  0.1312668E+00
        -11   -1    0    0    0    0  0.00000000000E+00  0.00000000000E+00  0.45593999997E+02  0.45594000000E+02  0.51100000000E-03 0.  1.
         11   -1    0    0    0    0 -0.00000000000E+00 -0.00000000000E+00 -0.45593999997E+02  0.45594000000E+02  0.51100000000E-03 0. -1.
    9900012    2    1    2    0    0 -0.29557702523E+02 -0.31735627137E+02 -0.16778456143E+01  0.47787274498E+02  0.20000015745E+02 0.  0.
        -12    1    1    2    0    0  0.29557702523E+02  0.31735627137E+02  0.16778456143E+01  0.43400725502E+02  0.00000000000E+00 0.  1.
         11    1    3    3    0    0 -0.14125907104E+02 -0.64044151456E+01 -0.31331117752E+01  0.15823216314E+02  0.51100000000E-03 0. -1.
        -11    1    3    3    0    0 -0.14933194074E+02 -0.20443579357E+02  0.51268559116E+01  0.25830696351E+02  0.51100000000E-03 0.  1.
        -12    1    3    3    0    0 -0.49860134494E+00 -0.48876326340E+01 -0.36715897508E+01  0.61333618321E+01  0.00000000000E+00 0.  1.
</event>
<event>
 7    1  0.2732193E-010  0.4778727E+02  0.7816164E-02  0.1312668E+00
        -11   -1    0    0    0    0  0.00000000000E+00  0.00000000000E+00  0.45593999997E+02  0.45594000000E+02  0.51100000000E-03 0.  1.
         11   -1    0    0    0    0 -0.00000000000E+00 -0.00000000000E+00 -0.45593999997E+02  0.45594000000E+02  0.51100000000E-03 0. -1.
    9900012    2    1    2    0    0  0.36217608919E+02 -0.22293623536E+02 -0.86546461504E+01  0.47787265603E+02  0.19999975190E+02 0.  0.
        -12    1    1    2    0    0 -0.36217608919E+02  0.22293623536E+02  0.86546461504E+01  0.43400734397E+02  0.00000000000E+00 0.  1.
         11    1    3    3    0    0  0.65153478288E+01 -0.66292684231E+01 -0.91166331341E+01  0.13019598962E+02  0.51100000000E-03 0. -1.
        -11    1    3    3    0    0  0.97431138451E+01 -0.81724384125E+01  0.36059573154E+01  0.13218167249E+02  0.51100000000E-03 0.  1.
         12    1    3    3    0    0  0.19959147246E+02 -0.74919167003E+01 -0.31439703317E+01  0.21549499392E+02  0.00000000000E+00 0. -1.
</event>
<event>
 7    1  0.2732193E-010  0.4778727E+02  0.7816164E-02  0.1312668E+00
        -11   -1    0    0    0    0  0.00000000000E+00  0.00000000000E+00  0.45593999997E+02  0.45594000000E+02  0.51100000000E-03 0.  1.
         11   -1    0    0    0    0 -0.00000000000E+00 -0.00000000000E+00 -0.45593999997E+02  0.45594000000E+02  0.51100000000E-03 0. -1.
    9900012    2    1    2    0    0 -0.25330165833E+02 -0.12240700050E+02 -0.33048016999E+02  0.47787268826E+02  0.19999989886E+02 0.  0.
        -12    1    1    2    0    0  0.25330165833E+02  0.12240700050E+02  0.33048016999E+02  0.43400731174E+02  0.00000000000E+00 0.  1.
         11    1    3    3    0    0 -0.12208555794E+02 -0.86461757552E+01 -0.21964457839E+02  0.26575225270E+02  0.51100000000E-03 0. -1.
        -11    1    3    3    0    0 -0.46240845446E+01 -0.54400204089E+01 -0.19427704988E-01  0.71397729391E+01  0.51100000000E-03 0.  1.
        -12    1    3    3    0    0 -0.84975254950E+01  0.18454961145E+01 -0.11064131456E+02  0.14072270617E+02  0.00000000000E+00 0.  1.
</event>
<event>
 7    1  0.2732193E-010  0.4778727E+02  0.7816164E-02  0.1312668E+00
        -11   -1    0    0    0    0  0.00000000000E+00  0.00000000000E+00  0.45593999997E+02  0.45594000000E+02  0.51100000000E-03 0.  1.
         11   -1    0    0    0    0 -0.00000000000E+00 -0.00000000000E+00 -0.45593999997E+02  0.45594000000E+02  0.51100000000E-03 0. -1.
    9900012    2    1    2    0    0 -0.34329766348E+02  0.70434476023E+01 -0.25602343721E+02  0.47787274019E+02  0.20000013563E+02 0.  0.
        -12    1    1    2    0    0  0.34329766348E+02 -0.70434476023E+01  0.25602343721E+02  0.43400725981E+02  0.00000000000E+00 0.  1.
         11    1    3    3    0    0 -0.20774399603E+02  0.13212108651E+02 -0.16092955053E+02  0.29412900171E+02  0.51100000000E-03 0. -1.
        -11    1    3    3    0    0 -0.10189014407E+02 -0.34623956390E+01 -0.89932497662E+01  0.14024362366E+02  0.51100000000E-03 0.  1.
         12    1    3    3    0    0 -0.33663523385E+01 -0.27062654095E+01 -0.51613890231E+00  0.43500114827E+01  0.00000000000E+00 0. -1.
</event>
<event>
 7    1  0.2732193E-010  0.4778727E+02  0.7816164E-02  0.1312668E+00
        -11   -1    0    0    0    0  0.00000000000E+00  0.00000000000E+00  0.45593999997E+02  0.45594000000E+02  0.51100000000E-03 0.  1.
         11   -1    0    0    0    0 -0.00000000000E+00 -0.00000000000E+00 -0.45593999997E+02  0.45594000000E+02  0.51100000000E-03 0. -1.
    9900012    2    1    2    0    0  0.23879671832E+02 -0.21717229586E+02 -0.29012867731E+02  0.47787270954E+02  0.19999999589E+02 0.  0.
        -12    1    1    2    0    0 -0.23879671832E+02  0.21717229586E+02  0.29012867731E+02  0.43400729046E+02  0.00000000000E+00 0.  1.
         11    1    3    3    0    0  0.11002198088E+02 -0.58084165218E+00 -0.17004732439E+02  0.20261951174E+02  0.51100000000E-03 0. -1.
        -11    1    3    3    0    0  0.81309762160E+01 -0.13946990264E+02 -0.74773086486E+01  0.17791611971E+02  0.51100000000E-03 0.  1.
         12    1    3    3    0    0  0.47464975277E+01 -0.71893976705E+01 -0.45308266442E+01  0.97337078097E+01  0.00000000000E+00 0. -1.
</event>
<event>
 7    1  0.2732193E-010  0.4778727E+02  0.7816164E-02  0.1312668E+00
        -11   -1    0    0    0    0  0.00000000000E+00  0.00000000000E+00  0.45593999997E+02  0.45594000000E+02  0.51100000000E-03 0. -1.
         11   -1    0    0    0    0 -0.00000000000E+00 -0.00000000000E+00 -0.45593999997E+02  0.45594000000E+02  0.51100000000E-03 0.  1.
    9900012    2    1    2    0    0  0.14723623783E+02  0.32269402089E+02  0.25010478971E+02  0.47787268821E+02  0.19999989863E+02 0.  0.
        -12    1    1    2    0    0 -0.14723623783E+02 -0.32269402089E+02 -0.25010478971E+02  0.43400731179E+02  0.00000000000E+00 0.  1.
         11    1    3    3    0    0  0.14492636115E+02  0.20096749428E+02  0.99186083975E+01  0.26688848456E+02  0.51100000000E-03 0. -1.
        -11    1    3    3    0    0  0.27735191362E-01  0.87172774129E+01  0.42126642060E+01  0.96818507894E+01  0.51100000000E-03 0.  1.
         12    1    3    3    0    0  0.20325247664E+00  0.34553752484E+01  0.10879206368E+02  0.11416569575E+02  0.00000000000E+00 0. -1.
</event>
<event>
 7    1  0.2732193E-010  0.4778727E+02  0.7816164E-02  0.1312668E+00
        -11   -1    0    0    0    0  0.00000000000E+00  0.00000000000E+00  0.45593999997E+02  0.45594000000E+02  0.51100000000E-03 0.  1.
         11   -1    0    0    0    0 -0.00000000000E+00 -0.00000000000E+00 -0.45593999997E+02  0.45594000000E+02  0.51100000000E-03 0. -1.
    9900012    2    1    2    0    0  0.18354936694E+02 -0.17693654210E+02 -0.35123417681E+02  0.47787267633E+02  0.19999984447E+02 0.  0.
        -12    1    1    2    0    0 -0.18354936694E+02  0.17693654210E+02  0.35123417681E+02  0.43400732367E+02  0.00000000000E+00 0.  1.
         11    1    3    3    0    0  0.12184640124E+02 -0.17802620099E+02 -0.16330213529E+02  0.27056877342E+02  0.51100000000E-03 0. -1.
        -11    1    3    3    0    0  0.74281012975E+01  0.44249545167E+00 -0.16291728588E+02  0.17910692666E+02  0.51100000000E-03 0.  1.
        -12    1    3    3    0    0 -0.12578047275E+01 -0.33352956289E+00 -0.25014755639E+01  0.28196976254E+01  0.00000000000E+00 0.  1.
</event>
<event>
 7    1  0.2732193E-010  0.4778727E+02  0.7816164E-02  0.1312668E+00
        -11   -1    0    0    0    0  0.00000000000E+00  0.00000000000E+00  0.45593999997E+02  0.45594000000E+02  0.51100000000E-03 0. -1.
         11   -1    0    0    0    0 -0.00000000000E+00 -0.00000000000E+00 -0.45593999997E+02  0.45594000000E+02  0.51100000000E-03 0.  1.
    9900012    2    1    2    0    0  0.35539866529E+02  0.16657301276E+02  0.18522289559E+02  0.47787274093E+02  0.20000013901E+02 0.  0.
        -12    1    1    2    0    0 -0.35539866529E+02 -0.16657301276E+02 -0.18522289559E+02  0.43400725907E+02  0.00000000000E+00 0.  1.
         11    1    3    3    0    0  0.20002685938E+02  0.15708380712E+02  0.92479068102E+01  0.27062602424E+02  0.51100000000E-03 0. -1.
        -11    1    3    3    0    0  0.65929604058E+01  0.55327012265E+00  0.97229390612E+01  0.11760475288E+02  0.51100000000E-03 0.  1.
         12    1    3    3    0    0  0.89442201857E+01  0.39565044105E+00 -0.44855631274E+00  0.89641963816E+01  0.00000000000E+00 0. -1.
</event>
<event>
 7    1  0.2732193E-010  0.4778726E+02  0.7816164E-02  0.1312668E+00
        -11   -1    0    0    0    0  0.00000000000E+00  0.00000000000E+00  0.45593999997E+02  0.45594000000E+02  0.51100000000E-03 0. -1.
         11   -1    0    0    0    0 -0.00000000000E+00 -0.00000000000E+00 -0.45593999997E+02  0.45594000000E+02  0.51100000000E-03 0.  1.
    9900012    2    1    2    0    0 -0.41367059373E+02 -0.13120335145E+02 -0.49774969438E+00  0.47787256340E+02  0.19999932957E+02 0.  0.
        -12    1    1    2    0    0  0.41367059373E+02  0.13120335145E+02  0.49774969438E+00  0.43400743660E+02  0.00000000000E+00 0.  1.
         11    1    3    3    0    0 -0.24024929298E+02  0.23850296992E+01  0.19681952171E+01  0.24223116791E+02  0.51100000000E-03 0. -1.
        -11    1    3    3    0    0 -0.54245081794E+01 -0.35925833568E+01  0.17029967606E+00  0.65085287435E+01  0.51100000000E-03 0.  1.
         12    1    3    3    0    0 -0.11917621896E+02 -0.11912781487E+02 -0.26362445875E+01  0.17055610805E+02  0.00000000000E+00 0. -1.
</event>
<event>
 7    1  0.2732193E-010  0.4778728E+02  0.7816164E-02  0.1312668E+00
        -11   -1    0    0    0    0  0.00000000000E+00  0.00000000000E+00  0.45593999997E+02  0.45594000000E+02  0.51100000000E-03 0.  1.
         11   -1    0    0    0    0 -0.00000000000E+00 -0.00000000000E+00 -0.45593999997E+02  0.45594000000E+02  0.51100000000E-03 0. -1.
    9900012    2    1    2    0    0 -0.19240835239E+02  0.15141517850E+02 -0.35835003758E+02  0.47787276529E+02  0.20000025005E+02 0.  0.
        -12    1    1    2    0    0  0.19240835239E+02 -0.15141517850E+02  0.35835003758E+02  0.43400723471E+02  0.00000000000E+00 0.  1.
         11    1    3    3    0    0 -0.19332625662E+02  0.71726189660E+01 -0.33160673643E+02  0.39049035258E+02  0.51100000000E-03 0. -1.
        -11    1    3    3    0    0 -0.10059426422E+01  0.47321784958E+01 -0.10339494432E+01  0.49471694561E+01  0.51100000000E-03 0.  1.
         12    1    3    3    0    0  0.10977330655E+01  0.32367203886E+01 -0.16403806714E+01  0.37910718147E+01  0.00000000000E+00 0. -1.
</event>
<event>
 7    1  0.2732193E-010  0.4778727E+02  0.7816164E-02  0.1312668E+00
        -11   -1    0    0    0    0  0.00000000000E+00  0.00000000000E+00  0.45593999997E+02  0.45594000000E+02  0.51100000000E-03 0. -1.
         11   -1    0    0    0    0 -0.00000000000E+00 -0.00000000000E+00 -0.45593999997E+02  0.45594000000E+02  0.51100000000E-03 0.  1.
    9900012    2    1    2    0    0 -0.35054308603E+02 -0.53323901464E+01  0.25027676199E+02  0.47787268298E+02  0.19999987478E+02 0.  0.
        -12    1    1    2    0    0  0.35054308603E+02  0.53323901464E+01 -0.25027676199E+02  0.43400731702E+02  0.00000000000E+00 0.  1.
         11    1    3    3    0    0 -0.62992243412E+00  0.71022850968E+00  0.69805330603E+01  0.70447901939E+01  0.51100000000E-03 0. -1.
        -11    1    3    3    0    0 -0.22059097487E+02  0.95275492183E-01  0.14790056285E+02  0.26558588527E+02  0.51100000000E-03 0.  1.
         12    1    3    3    0    0 -0.12365288682E+02 -0.61378941482E+01  0.32570868542E+01  0.14183889577E+02  0.00000000000E+00 0. -1.
</event>
<event>
 7    1  0.2732193E-010  0.4778729E+02  0.7816164E-02  0.1312668E+00
        -11   -1    0    0    0    0  0.00000000000E+00  0.00000000000E+00  0.45593999997E+02  0.45594000000E+02  0.51100000000E-03 0.  1.
         11   -1    0    0    0    0 -0.00000000000E+00 -0.00000000000E+00 -0.45593999997E+02  0.45594000000E+02  0.51100000000E-03 0. -1.
    9900012    2    1    2    0    0 -0.16729831963E+02 -0.39903414798E+02 -0.33841097235E+01  0.47787285851E+02  0.20000067509E+02 0.  0.
        -12    1    1    2    0    0  0.16729831963E+02  0.39903414798E+02  0.33841097235E+01  0.43400714149E+02  0.00000000000E+00 0.  1.
         11    1    3    3    0    0 -0.23631021954E+01 -0.10675655256E+02  0.43621813525E+01  0.11772106589E+02  0.51100000000E-03 0. -1.
        -11    1    3    3    0    0 -0.10995991145E+02 -0.88543210100E+01 -0.58365889961E+01  0.15276668262E+02  0.51100000000E-03 0.  1.
        -12    1    3    3    0    0 -0.33707386227E+01 -0.20373438532E+02 -0.19097020799E+01  0.20738511000E+02  0.00000000000E+00 0.  1.
</event>
<event>
 7    1  0.2732193E-010  0.4778727E+02  0.7816164E-02  0.1312668E+00
        -11   -1    0    0    0    0  0.00000000000E+00  0.00000000000E+00  0.45593999997E+02  0.45594000000E+02  0.51100000000E-03 0. -1.
         11   -1    0    0    0    0 -0.00000000000E+00 -0.00000000000E+00 -0.45593999997E+02  0.45594000000E+02  0.51100000000E-03 0.  1.
    9900012    2    1    2    0    0 -0.42666473010E+02 -0.30074829587E+01  0.73586789588E+01  0.47787273867E+02  0.20000012868E+02 0.  0.
        -12    1    1    2    0    0  0.42666473010E+02  0.30074829587E+01 -0.73586789588E+01  0.43400726133E+02  0.00000000000E+00 0.  1.
         11    1    3    3    0    0 -0.19666367687E+02 -0.64502918929E+01  0.20948058690E+01  0.20802896322E+02  0.51100000000E-03 0. -1.
        -11    1    3    3    0    0  0.35676069895E+00  0.61294661915E+00  0.32994817745E+01  0.33748425142E+01  0.51100000000E-03 0.  1.
        -12    1    3    3    0    0 -0.23356866023E+02  0.28298623151E+01  0.19643913154E+01  0.23609535031E+02  0.00000000000E+00 0.  1.
</event>
<event>
 7    1  0.2732193E-010  0.4778728E+02  0.7816164E-02  0.1312668E+00
        -11   -1    0    0    0    0  0.00000000000E+00  0.00000000000E+00  0.45593999997E+02  0.45594000000E+02  0.51100000000E-03 0.  1.
         11   -1    0    0    0    0 -0.00000000000E+00 -0.00000000000E+00 -0.45593999997E+02  0.45594000000E+02  0.51100000000E-03 0. -1.
    9900012    2    1    2    0    0  0.17940057152E+02  0.16912585347E+01 -0.39483120177E+02  0.47787276677E+02  0.20000025681E+02 0.  0.
        -12    1    1    2    0    0 -0.17940057152E+02 -0.16912585347E+01  0.39483120177E+02  0.43400723323E+02  0.00000000000E+00 0.  1.
         11    1    3    3    0    0 -0.20658580999E+01 -0.12588805920E+00 -0.10752308516E+02  0.10949692058E+02  0.51100000000E-03 0. -1.
        -11    1    3    3    0    0  0.20490385996E+02  0.17025378873E+01 -0.29477641091E+02  0.35940031693E+02  0.51100000000E-03 0.  1.
        -12    1    3    3    0    0 -0.48447074368E+00  0.11460870659E+00  0.74682943015E+00  0.89755292593E+00  0.00000000000E+00 0.  1.
</event>
<event>
 7    1  0.2732193E-010  0.4778727E+02  0.7816164E-02  0.1312668E+00
        -11   -1    0    0    0    0  0.00000000000E+00  0.00000000000E+00  0.45593999997E+02  0.45594000000E+02  0.51100000000E-03 0.  1.
         11   -1    0    0    0    0 -0.00000000000E+00 -0.00000000000E+00 -0.45593999997E+02  0.45594000000E+02  0.51100000000E-03 0. -1.
    9900012    2    1    2    0    0 -0.40174321321E+02  0.14215412476E+02 -0.82200440834E+01  0.47787272239E+02  0.20000005444E+02 0.  0.
        -12    1    1    2    0    0  0.40174321321E+02 -0.14215412476E+02  0.82200440834E+01  0.43400727761E+02  0.00000000000E+00 0.  1.
         11    1    3    3    0    0 -0.27169028037E+02  0.33185162684E+01  0.59082800247E+00  0.27377321138E+02  0.51100000000E-03 0. -1.
        -11    1    3    3    0    0  0.31040764148E+00  0.60301351217E+00 -0.22427779873E+01  0.23430816377E+01  0.51100000000E-03 0.  1.
         12    1    3    3    0    0 -0.13315700925E+02  0.10293882696E+02 -0.65680940986E+01  0.18066869463E+02  0.00000000000E+00 0. -1.
</event>
<event>
 7    1  0.2732193E-010  0.4778727E+02  0.7816164E-02  0.1312668E+00
        -11   -1    0    0    0    0  0.00000000000E+00  0.00000000000E+00  0.45593999997E+02  0.45594000000E+02  0.51100000000E-03 0.  1.
         11   -1    0    0    0    0 -0.00000000000E+00 -0.00000000000E+00 -0.45593999997E+02  0.45594000000E+02  0.51100000000E-03 0. -1.
    9900012    2    1    2    0    0  0.19644888169E+02  0.56807884115E+01 -0.38280935178E+02  0.47787274358E+02  0.20000015108E+02 0.  0.
        -12    1    1    2    0    0 -0.19644888169E+02 -0.56807884115E+01  0.38280935178E+02  0.43400725642E+02  0.00000000000E+00 0.  1.
         11    1    3    3    0    0  0.83680504354E+01  0.43638997778E+01 -0.40983328801E+01  0.10289034066E+02  0.51100000000E-03 0.  1.
        -11    1    3    3    0    0  0.43719437168E+01 -0.37168093395E+01 -0.21146131320E+02  0.21910897599E+02  0.51100000000E-03 0. -1.
         12    1    3    3    0    0  0.69048940169E+01  0.50336979732E+01 -0.13036470978E+02  0.15587342693E+02  0.00000000000E+00 0. -1.
</event>
<event>
 7    1  0.2732193E-010  0.4778725E+02  0.7816164E-02  0.1312668E+00
        -11   -1    0    0    0    0  0.00000000000E+00  0.00000000000E+00  0.45593999997E+02  0.45594000000E+02  0.51100000000E-03 0.  1.
         11   -1    0    0    0    0 -0.00000000000E+00 -0.00000000000E+00 -0.45593999997E+02  0.45594000000E+02  0.51100000000E-03 0. -1.
    9900012    2    1    2    0    0 -0.43806194298E+01 -0.24171605986E+02 -0.35779445625E+02  0.47787250102E+02  0.19999904513E+02 0.  0.
        -12    1    1    2    0    0  0.43806194298E+01  0.24171605986E+02  0.35779445625E+02  0.43400749898E+02  0.00000000000E+00 0.  1.
         11    1    3    3    0    0  0.71041405324E+00 -0.10898838359E+02 -0.11995107758E+02  0.16222576123E+02  0.51100000000E-03 0. -1.
        -11    1    3    3    0    0 -0.50266594638E+01 -0.52723455885E+01 -0.22257967595E+02  0.23419693744E+02  0.51100000000E-03 0.  1.
        -12    1    3    3    0    0 -0.64374019284E-01 -0.80004220380E+01 -0.15263702728E+01  0.81449802339E+01  0.00000000000E+00 0.  1.
</event>
<event>
 7    1  0.2732193E-010  0.4778727E+02  0.7816164E-02  0.1312668E+00
        -11   -1    0    0    0    0  0.00000000000E+00  0.00000000000E+00  0.45593999997E+02  0.45594000000E+02  0.51100000000E-03 0. -1.
         11   -1    0    0    0    0 -0.00000000000E+00 -0.00000000000E+00 -0.45593999997E+02  0.45594000000E+02  0.51100000000E-03 0.  1.
    9900012    2    1    2    0    0 -0.26298572619E+02  0.32663030342E-01  0.34525453855E+02  0.47787274746E+02  0.20000016876E+02 0.  0.
        -12    1    1    2    0    0  0.26298572619E+02 -0.32663030342E-01 -0.34525453855E+02  0.43400725254E+02  0.00000000000E+00 0.  1.
         11    1    3    3    0    0 -0.18199186908E+02 -0.66061778106E+01  0.18787675817E+02  0.26978301508E+02  0.51100000000E-03 0. -1.
        -11    1    3    3    0    0 -0.51067573289E+01  0.84729537402E+01  0.13112585994E+02  0.16425888932E+02  0.51100000000E-03 0.  1.
        -12    1    3    3    0    0 -0.29926283820E+01 -0.18341128993E+01  0.26251920445E+01  0.43830843057E+01  0.00000000000E+00 0.  1.
</event>
<event>
 7    1  0.2732193E-010  0.4778728E+02  0.7816164E-02  0.1312668E+00
        -11   -1    0    0    0    0  0.00000000000E+00  0.00000000000E+00  0.45593999997E+02  0.45594000000E+02  0.51100000000E-03 0.  1.
         11   -1    0    0    0    0 -0.00000000000E+00 -0.00000000000E+00 -0.45593999997E+02  0.45594000000E+02  0.51100000000E-03 0. -1.
    9900012    2    1    2    0    0 -0.29309619591E+02  0.26440237442E+01 -0.31899498839E+02  0.47787277790E+02  0.20000030756E+02 0.  0.
        -12    1    1    2    0    0  0.29309619591E+02 -0.26440237442E+01  0.31899498839E+02  0.43400722210E+02  0.00000000000E+00 0.  1.
         11    1    3    3    0    0 -0.55982633441E+01 -0.71668830187E+01 -0.45996977404E+01  0.10191270001E+02  0.51100000000E-03 0. -1.
        -11    1    3    3    0    0 -0.11792144496E+02  0.59650066240E+01 -0.12282259286E+02  0.18041337790E+02  0.51100000000E-03 0.  1.
         12    1    3    3    0    0 -0.11919211751E+02  0.38459001390E+01 -0.15017541813E+02  0.19554669999E+02  0.00000000000E+00 0. -1.
</event>
<event>
 7    1  0.2732193E-010  0.4778729E+02  0.7816164E-02  0.1312668E+00
        -11   -1    0    0    0    0  0.00000000000E+00  0.00000000000E+00  0.45593999997E+02  0.45594000000E+02  0.51100000000E-03 0.  1.
         11   -1    0    0    0    0 -0.00000000000E+00 -0.00000000000E+00 -0.45593999997E+02  0.45594000000E+02  0.51100000000E-03 0. -1.
    9900012    2    1    2    0    0  0.97111919863E+01  0.15673140991E+02 -0.39289529509E+02  0.47787288861E+02  0.20000081232E+02 0.  0.
        -12    1    1    2    0    0 -0.97111919863E+01 -0.15673140991E+02  0.39289529509E+02  0.43400711139E+02  0.00000000000E+00 0.  1.
         11    1    3    3    0    0  0.15647410457E+01  0.16209800521E+02 -0.24637892768E+02  0.29533570861E+02  0.51100000000E-03 0. -1.
        -11    1    3    3    0    0  0.39014505085E+01 -0.25886717238E+01 -0.11915402059E+02  0.12802317910E+02  0.51100000000E-03 0.  1.
        -12    1    3    3    0    0  0.42450004321E+01  0.20520121939E+01 -0.27362346820E+01  0.54514000906E+01  0.00000000000E+00 0.  1.
</event>
<event>
 7    1  0.2732193E-010  0.4778727E+02  0.7816164E-02  0.1312668E+00
        -11   -1    0    0    0    0  0.00000000000E+00  0.00000000000E+00  0.45593999997E+02  0.45594000000E+02  0.51100000000E-03 0. -1.
         11   -1    0    0    0    0 -0.00000000000E+00 -0.00000000000E+00 -0.45593999997E+02  0.45594000000E+02  0.51100000000E-03 0.  1.
    9900012    2    1    2    0    0  0.33932343641E+02 -0.10746533496E+02  0.24834081550E+02  0.47787268052E+02  0.19999986357E+02 0.  0.
        -12    1    1    2    0    0 -0.33932343641E+02  0.10746533496E+02 -0.24834081550E+02  0.43400731948E+02  0.00000000000E+00 0.  1.
         11    1    3    3    0    0  0.14926794140E+02 -0.81997249173E+01  0.43667124126E+01  0.17581605432E+02  0.51100000000E-03 0. -1.
        -11    1    3    3    0    0  0.95937555805E+01 -0.61259471882E+00  0.17806111668E+02  0.20235439985E+02  0.51100000000E-03 0.  1.
        -12    1    3    3    0    0  0.94117939209E+01 -0.19342138597E+01  0.26612574700E+01  0.99702226347E+01  0.00000000000E+00 0.  1.
</event>
<event>
 7    1  0.2732193E-010  0.4778727E+02  0.7816164E-02  0.1312668E+00
        -11   -1    0    0    0    0  0.00000000000E+00  0.00000000000E+00  0.45593999997E+02  0.45594000000E+02  0.51100000000E-03 0.  1.
         11   -1    0    0    0    0 -0.00000000000E+00 -0.00000000000E+00 -0.45593999997E+02  0.45594000000E+02  0.51100000000E-03 0. -1.
    9900012    2    1    2    0    0 -0.16100682077E+01  0.38640365503E+02 -0.19696535043E+02  0.47787266613E+02  0.19999979795E+02 0.  0.
        -12    1    1    2    0    0  0.16100682077E+01 -0.38640365503E+02  0.19696535043E+02  0.43400733387E+02  0.00000000000E+00 0.  1.
         11    1    3    3    0    0  0.77755568710E+01  0.20717345716E+02 -0.83659316840E+01  0.23657060497E+02  0.51100000000E-03 0. -1.
        -11    1    3    3    0    0 -0.74032723117E+01  0.17706359049E+02 -0.10963525649E+02  0.22102544800E+02  0.51100000000E-03 0.  1.
        -12    1    3    3    0    0 -0.19823527669E+01  0.21666073815E+00 -0.36707770948E+00  0.20276613161E+01  0.00000000000E+00 0.  1.
</event>
<event>
 7    1  0.2732193E-010  0.4778727E+02  0.7816164E-02  0.1312668E+00
        -11   -1    0    0    0    0  0.00000000000E+00  0.00000000000E+00  0.45593999997E+02  0.45594000000E+02  0.51100000000E-03 0.  1.
         11   -1    0    0    0    0 -0.00000000000E+00 -0.00000000000E+00 -0.45593999997E+02  0.45594000000E+02  0.51100000000E-03 0. -1.
    9900012    2    1    2    0    0 -0.20129222496E+02  0.33901919194E+02  0.18141050233E+02  0.47787269281E+02  0.19999991962E+02 0.  0.
        -12    1    1    2    0    0  0.20129222496E+02 -0.33901919194E+02 -0.18141050233E+02  0.43400730719E+02  0.00000000000E+00 0.  1.
         11    1    3    3    0    0 -0.82232484080E+01  0.62993639007E+01 -0.29519409311E+00  0.10362959990E+02  0.51100000000E-03 0. -1.
        -11    1    3    3    0    0 -0.75548162522E+01  0.26061377089E+02  0.18442120530E+02  0.32808267774E+02  0.51100000000E-03 0.  1.
        -12    1    3    3    0    0 -0.43511578359E+01  0.15411782039E+01 -0.58762035133E-02  0.46160415184E+01  0.00000000000E+00 0.  1.
</event>
<event>
 7    1  0.2732193E-010  0.4778727E+02  0.7816164E-02  0.1312668E+00
        -11   -1    0    0    0    0  0.00000000000E+00  0.00000000000E+00  0.45593999997E+02  0.45594000000E+02  0.51100000000E-03 0.  1.
         11   -1    0    0    0    0 -0.00000000000E+00 -0.00000000000E+00 -0.45593999997E+02  0.45594000000E+02  0.51100000000E-03 0. -1.
    9900012    2    1    2    0    0  0.26550177158E+01  0.41840666018E+02 -0.11221988618E+02  0.47787268664E+02  0.19999989149E+02 0.  0.
        -12    1    1    2    0    0 -0.26550177158E+01 -0.41840666018E+02  0.11221988618E+02  0.43400731336E+02  0.00000000000E+00 0.  1.
         11    1    3    3    0    0  0.31598344089E+01  0.34979402579E+02 -0.38744651320E+01  0.35334892650E+02  0.51100000000E-03 0. -1.
        -11    1    3    3    0    0  0.14493353538E+00 -0.12306075397E+01  0.32646993528E+00  0.12813990503E+01  0.51100000000E-03 0.  1.
         12    1    3    3    0    0 -0.64975022849E+00  0.80918709789E+01 -0.76739934215E+01  0.11170976964E+02  0.00000000000E+00 0. -1.
</event>
<event>
 7    1  0.2732193E-010  0.4778726E+02  0.7816164E-02  0.1312668E+00
        -11   -1    0    0    0    0  0.00000000000E+00  0.00000000000E+00  0.45593999997E+02  0.45594000000E+02  0.51100000000E-03 0. -1.
         11   -1    0    0    0    0 -0.00000000000E+00 -0.00000000000E+00 -0.45593999997E+02  0.45594000000E+02  0.51100000000E-03 0.  1.
    9900012    2    1    2    0    0  0.31784844379E+02  0.59987548680E+01  0.28937221166E+02  0.47787260825E+02  0.19999953404E+02 0.  0.
        -12    1    1    2    0    0 -0.31784844379E+02 -0.59987548680E+01 -0.28937221166E+02  0.43400739175E+02  0.00000000000E+00 0.  1.
         11    1    3    3    0    0  0.21700080098E+02 -0.56726342816E+01  0.17338705041E+02  0.28349655178E+02  0.51100000000E-03 0. -1.
        -11    1    3    3    0    0  0.84849893886E+01  0.83189673287E+01  0.87649473800E+01  0.14765654919E+02  0.51100000000E-03 0.  1.
         12    1    3    3    0    0  0.15997748922E+01  0.33524218210E+01  0.28335687454E+01  0.46719507282E+01  0.00000000000E+00 0. -1.
</event>
<event>
 7    1  0.2732193E-010  0.4778727E+02  0.7816164E-02  0.1312668E+00
        -11   -1    0    0    0    0  0.00000000000E+00  0.00000000000E+00  0.45593999997E+02  0.45594000000E+02  0.51100000000E-03 0. -1.
         11   -1    0    0    0    0 -0.00000000000E+00 -0.00000000000E+00 -0.45593999997E+02  0.45594000000E+02  0.51100000000E-03 0.  1.
    9900012    2    1    2    0    0 -0.41689087294E+02  0.87139673931E+01  0.83492661820E+01  0.47787268752E+02  0.19999989546E+02 0.  0.
        -12    1    1    2    0    0  0.41689087294E+02 -0.87139673931E+01 -0.83492661820E+01  0.43400731248E+02  0.00000000000E+00 0.  1.
         11    1    3    3    0    0 -0.19668322572E+02  0.91114228923E+01  0.12476363464E+02  0.25010409542E+02  0.51100000000E-03 0. -1.
        -11    1    3    3    0    0 -0.11707063974E+02 -0.16027402511E+01 -0.37084477031E+01  0.12384535027E+02  0.51100000000E-03 0.  1.
         12    1    3    3    0    0 -0.10313700748E+02  0.12052847519E+01 -0.41864957893E+00  0.10392324183E+02  0.00000000000E+00 0. -1.
</event>
<event>
 7    1  0.2732193E-010  0.4778727E+02  0.7816164E-02  0.1312668E+00
        -11   -1    0    0    0    0  0.00000000000E+00  0.00000000000E+00  0.45593999997E+02  0.45594000000E+02  0.51100000000E-03 0.  1.
         11   -1    0    0    0    0 -0.00000000000E+00 -0.00000000000E+00 -0.45593999997E+02  0.45594000000E+02  0.51100000000E-03 0. -1.
    9900012    2    1    2    0    0  0.67344910582E+01  0.93438371590E+01 -0.41844501567E+02  0.47787274498E+02  0.20000015748E+02 0.  0.
        -12    1    1    2    0    0 -0.67344910582E+01 -0.93438371590E+01  0.41844501567E+02  0.43400725502E+02  0.00000000000E+00 0.  1.
         11    1    3    3    0    0 -0.21389511126E+01  0.18670488568E+01 -0.16428529699E+02  0.16672059610E+02  0.51100000000E-03 0. -1.
        -11    1    3    3    0    0  0.11670025445E+02  0.21513356045E+01 -0.18111890508E+02  0.21653136420E+02  0.51100000000E-03 0.  1.
        -12    1    3    3    0    0 -0.27965832740E+01  0.53254526976E+01 -0.73040813599E+01  0.94620784691E+01  0.00000000000E+00 0.  1.
</event>
<event>
 7    1  0.2732193E-010  0.4778727E+02  0.7816164E-02  0.1312668E+00
        -11   -1    0    0    0    0  0.00000000000E+00  0.00000000000E+00  0.45593999997E+02  0.45594000000E+02  0.51100000000E-03 0. -1.
         11   -1    0    0    0    0 -0.00000000000E+00 -0.00000000000E+00 -0.45593999997E+02  0.45594000000E+02  0.51100000000E-03 0.  1.
    9900012    2    1    2    0    0 -0.35072624411E+02 -0.21321697892E+02  0.14103890592E+02  0.47787268279E+02  0.19999987391E+02 0.  0.
        -12    1    1    2    0    0  0.35072624411E+02  0.21321697892E+02 -0.14103890592E+02  0.43400731721E+02  0.00000000000E+00 0.  1.
         11    1    3    3    0    0 -0.21533980715E+02 -0.17192466012E+02  0.17490929212E+02  0.32637797382E+02  0.51100000000E-03 0. -1.
        -11    1    3    3    0    0 -0.36437633236E+01 -0.97030811292E+00 -0.28897202277E+01  0.47506833454E+01  0.51100000000E-03 0.  1.
         12    1    3    3    0    0 -0.98948803725E+01 -0.31589237674E+01 -0.49731839195E+00  0.10398787551E+02  0.00000000000E+00 0. -1.
</event>
<event>
 7    1  0.2732193E-010  0.4778728E+02  0.7816164E-02  0.1312668E+00
        -11   -1    0    0    0    0  0.00000000000E+00  0.00000000000E+00  0.45593999997E+02  0.45594000000E+02  0.51100000000E-03 0.  1.
         11   -1    0    0    0    0 -0.00000000000E+00 -0.00000000000E+00 -0.45593999997E+02  0.45594000000E+02  0.51100000000E-03 0. -1.
    9900012    2    1    2    0    0  0.21622499463E+02  0.36299017804E+02 -0.99232586252E+01  0.47787282975E+02  0.20000054396E+02 0.  0.
        -12    1    1    2    0    0 -0.21622499463E+02 -0.36299017804E+02  0.99232586252E+01  0.43400717025E+02  0.00000000000E+00 0.  1.
         11    1    3    3    0    0  0.11254623880E+02  0.18243292975E+02 -0.85786641455E+01  0.23088477126E+02  0.51100000000E-03 0. -1.
        -11    1    3    3    0    0  0.41927667446E+01  0.15266151883E+02  0.36917007291E+01  0.16256178543E+02  0.51100000000E-03 0.  1.
        -12    1    3    3    0    0  0.61751088385E+01  0.27895729462E+01 -0.50362952088E+01  0.84426273055E+01  0.00000000000E+00 0.  1.
</event>
<event>
 7    1  0.2732193E-010  0.4778726E+02  0.7816164E-02  0.1312668E+00
        -11   -1    0    0    0    0  0.00000000000E+00  0.00000000000E+00  0.45593999997E+02  0.45594000000E+02  0.51100000000E-03 0.  1.
         11   -1    0    0    0    0 -0.00000000000E+00 -0.00000000000E+00 -0.45593999997E+02  0.45594000000E+02  0.51100000000E-03 0. -1.
    9900012    2    1    2    0    0 -0.19148594197E+02 -0.16459515883E+02 -0.35299288588E+02  0.47787261554E+02  0.19999956731E+02 0.  0.
        -12    1    1    2    0    0  0.19148594197E+02  0.16459515883E+02  0.35299288588E+02  0.43400738446E+02  0.00000000000E+00 0.  1.
         11    1    3    3    0    0 -0.11867625560E+02 -0.76752876995E+01 -0.76402950441E+01  0.16066259251E+02  0.51100000000E-03 0. -1.
        -11    1    3    3    0    0 -0.15693288387E+01 -0.41601928788E+01 -0.17305321933E+01  0.47712409001E+01  0.51100000000E-03 0.  1.
         12    1    3    3    0    0 -0.57116397980E+01 -0.46240353042E+01 -0.25928461351E+02  0.26949761403E+02  0.00000000000E+00 0. -1.
</event>
<event>
 7    1  0.2732193E-010  0.4778724E+02  0.7816164E-02  0.1312668E+00
        -11   -1    0    0    0    0  0.00000000000E+00  0.00000000000E+00  0.45593999997E+02  0.45594000000E+02  0.51100000000E-03 0.  1.
         11   -1    0    0    0    0 -0.00000000000E+00 -0.00000000000E+00 -0.45593999997E+02  0.45594000000E+02  0.51100000000E-03 0. -1.
    9900012    2    1    2    0    0 -0.17863243185E+02 -0.18223480528E+02 -0.35106056315E+02  0.47787240910E+02  0.19999862603E+02 0.  0.
        -12    1    1    2    0    0  0.17863243185E+02  0.18223480528E+02  0.35106056315E+02  0.43400759090E+02  0.00000000000E+00 0.  1.
         11    1    3    3    0    0 -0.22095937594E+01  0.38721972211E+00 -0.66671198213E+00  0.23402454622E+01  0.51100000000E-03 0. -1.
        -11    1    3    3    0    0  0.90874665254E+00  0.21738197364E+01 -0.63717536702E+01  0.67934201857E+01  0.51100000000E-03 0.  1.
        -12    1    3    3    0    0 -0.16562396078E+02 -0.20784519986E+02 -0.28067590663E+02  0.38653575262E+02  0.00000000000E+00 0.  1.
</event>
<event>
 7    1  0.2732193E-010  0.4778727E+02  0.7816164E-02  0.1312668E+00
        -11   -1    0    0    0    0  0.00000000000E+00  0.00000000000E+00  0.45593999997E+02  0.45594000000E+02  0.51100000000E-03 0. -1.
         11   -1    0    0    0    0 -0.00000000000E+00 -0.00000000000E+00 -0.45593999997E+02  0.45594000000E+02  0.51100000000E-03 0.  1.
    9900012    2    1    2    0    0  0.27121904581E+02 -0.33879313589E+02  0.46636410679E+00  0.47787273130E+02  0.20000009508E+02 0.  0.
        -12    1    1    2    0    0 -0.27121904581E+02  0.33879313589E+02 -0.46636410679E+00  0.43400726870E+02  0.00000000000E+00 0.  1.
         11    1    3    3    0    0  0.83586402299E+01 -0.20311486012E+02 -0.24673097827E+01  0.22102283781E+02  0.51100000000E-03 0.  1.
        -11    1    3    3    0    0  0.10283239052E+02 -0.79752243972E+01  0.69602993606E+01  0.14757878473E+02  0.51100000000E-03 0. -1.
         12    1    3    3    0    0  0.84800252991E+01 -0.55926031807E+01 -0.40266254711E+01  0.10927110876E+02  0.00000000000E+00 0. -1.
</event>
<event>
 7    1  0.2732193E-010  0.4778727E+02  0.7816164E-02  0.1312668E+00
        -11   -1    0    0    0    0  0.00000000000E+00  0.00000000000E+00  0.45593999997E+02  0.45594000000E+02  0.51100000000E-03 0.  1.
         11   -1    0    0    0    0 -0.00000000000E+00 -0.00000000000E+00 -0.45593999997E+02  0.45594000000E+02  0.51100000000E-03 0. -1.
    9900012    2    1    2    0    0  0.36612815128E+02 -0.10687709312E+02 -0.20709853670E+02  0.47787269581E+02  0.19999993325E+02 0.  0.
        -12    1    1    2    0    0 -0.36612815128E+02  0.10687709312E+02  0.20709853670E+02  0.43400730419E+02  0.00000000000E+00 0.  1.
         11    1    3    3    0    0  0.40634712378E+01 -0.19727885472E+01 -0.23097571667E+01  0.50733294376E+01  0.51100000000E-03 0. -1.
        -11    1    3    3    0    0  0.76568112900E+01  0.36619405160E+01  0.13752328808E+01  0.85981296344E+01  0.51100000000E-03 0.  1.
        -12    1    3    3    0    0  0.24892532600E+02 -0.12376861281E+02 -0.19775329384E+02  0.34115810508E+02  0.00000000000E+00 0.  1.
</event>
<event>
 7    1  0.2732193E-010  0.4778729E+02  0.7816164E-02  0.1312668E+00
        -11   -1    0    0    0    0  0.00000000000E+00  0.00000000000E+00  0.45593999997E+02  0.45594000000E+02  0.51100000000E-03 0.  1.
         11   -1    0    0    0    0 -0.00000000000E+00 -0.00000000000E+00 -0.45593999997E+02  0.45594000000E+02  0.51100000000E-03 0. -1.
    9900012    2    1    2    0    0  0.32876051343E+02  0.19262796464E+02 -0.20778160684E+02  0.47787285248E+02  0.20000064760E+02 0.  0.
        -12    1    1    2    0    0 -0.32876051343E+02 -0.19262796464E+02  0.20778160684E+02  0.43400714752E+02  0.00000000000E+00 0.  1.
         11    1    3    3    0    0  0.30140128255E+02  0.15057977002E+02 -0.15782936601E+02  0.37205793778E+02  0.51100000000E-03 0. -1.
        -11    1    3    3    0    0  0.53611305417E+00 -0.40235941984E-01  0.20208859440E+01  0.20911758409E+01  0.51100000000E-03 0.  1.
         12    1    3    3    0    0  0.21998100340E+01  0.42450554048E+01 -0.70161100270E+01  0.84903156294E+01  0.00000000000E+00 0. -1.
</event>
<event>
 7    1  0.2732193E-010  0.4778727E+02  0.7816164E-02  0.1312668E+00
        -11   -1    0    0    0    0  0.00000000000E+00  0.00000000000E+00  0.45593999997E+02  0.45594000000E+02  0.51100000000E-03 0. -1.
         11   -1    0    0    0    0 -0.00000000000E+00 -0.00000000000E+00 -0.45593999997E+02  0.45594000000E+02  0.51100000000E-03 0.  1.
    9900012    2    1    2    0    0 -0.17092807904E+02  0.25920539670E+02  0.30324655283E+02  0.47787272162E+02  0.20000005095E+02 0.  0.
        -12    1    1    2    0    0  0.17092807904E+02 -0.25920539670E+02 -0.30324655283E+02  0.43400727838E+02  0.00000000000E+00 0.  1.
         11    1    3    3    0    0 -0.96494351079E+01  0.17288739862E+02  0.26014233517E+02  0.32691779849E+02  0.51100000000E-03 0. -1.
        -11    1    3    3    0    0 -0.33773355600E+01  0.33224694503E+01 -0.26621124476E+01  0.54343391207E+01  0.51100000000E-03 0.  1.
        -12    1    3    3    0    0 -0.40660372357E+01  0.53093303578E+01  0.69725342133E+01  0.96611531923E+01  0.00000000000E+00 0.  1.
</event>
<event>
 7    1  0.2732193E-010  0.4778727E+02  0.7816164E-02  0.1312668E+00
        -11   -1    0    0    0    0  0.00000000000E+00  0.00000000000E+00  0.45593999997E+02  0.45594000000E+02  0.51100000000E-03 0.  1.
         11   -1    0    0    0    0 -0.00000000000E+00 -0.00000000000E+00 -0.45593999997E+02  0.45594000000E+02  0.51100000000E-03 0. -1.
    9900012    2    1    2    0    0 -0.42953324780E+02 -0.59011323052E+01 -0.19523235087E+01  0.47787273747E+02  0.20000012324E+02 0.  0.
        -12    1    1    2    0    0  0.42953324780E+02  0.59011323052E+01  0.19523235087E+01  0.43400726253E+02  0.00000000000E+00 0.  1.
         11    1    3    3    0    0 -0.12652612676E+02 -0.67520855494E+01 -0.46577220548E+01  0.15078913813E+02  0.51100000000E-03 0. -1.
        -11    1    3    3    0    0 -0.24611810040E+02  0.55353694907E+01  0.20325222518E+01  0.25308351503E+02  0.51100000000E-03 0.  1.
        -12    1    3    3    0    0 -0.56889020651E+01 -0.46844162465E+01  0.67287629435E+00  0.74000084313E+01  0.00000000000E+00 0.  1.
</event>
<event>
 7    1  0.2732193E-010  0.4778727E+02  0.7816164E-02  0.1312668E+00
        -11   -1    0    0    0    0  0.00000000000E+00  0.00000000000E+00  0.45593999997E+02  0.45594000000E+02  0.51100000000E-03 0.  1.
         11   -1    0    0    0    0 -0.00000000000E+00 -0.00000000000E+00 -0.45593999997E+02  0.45594000000E+02  0.51100000000E-03 0. -1.
    9900012    2    1    2    0    0 -0.26795786207E+02 -0.65516398829E+01 -0.33506494193E+02  0.47787270781E+02  0.19999998799E+02 0.  0.
        -12    1    1    2    0    0  0.26795786207E+02  0.65516398829E+01  0.33506494193E+02  0.43400729219E+02  0.00000000000E+00 0.  1.
         11    1    3    3    0    0 -0.12573987609E+02 -0.21436626718E+01 -0.23949847670E+02  0.27134768430E+02  0.51100000000E-03 0. -1.
        -11    1    3    3    0    0  0.67187788517E+00  0.15201854703E+01  0.49183488063E+00  0.17332875029E+01  0.51100000000E-03 0.  1.
         12    1    3    3    0    0 -0.14893676483E+02 -0.59281626814E+01 -0.10048481404E+02  0.18919214848E+02  0.00000000000E+00 0. -1.
</event>
<event>
 7    1  0.2732193E-010  0.4778727E+02  0.7816164E-02  0.1312668E+00
        -11   -1    0    0    0    0  0.00000000000E+00  0.00000000000E+00  0.45593999997E+02  0.45594000000E+02  0.51100000000E-03 0.  1.
         11   -1    0    0    0    0 -0.00000000000E+00 -0.00000000000E+00 -0.45593999997E+02  0.45594000000E+02  0.51100000000E-03 0. -1.
    9900012    2    1    2    0    0  0.36970090146E+02  0.19967250795E+02  0.10869432038E+02  0.47787271636E+02  0.20000002696E+02 0.  0.
        -12    1    1    2    0    0 -0.36970090146E+02 -0.19967250795E+02 -0.10869432038E+02  0.43400728364E+02  0.00000000000E+00 0.  1.
         11    1    3    3    0    0  0.86706717669E+01  0.15393562176E+02  0.29311933431E+01  0.17909053577E+02  0.51100000000E-03 0. -1.
        -11    1    3    3    0    0  0.13614857482E+02  0.14943581120E+01  0.50554660010E+01  0.14599835176E+02  0.51100000000E-03 0.  1.
         12    1    3    3    0    0  0.14684560897E+02  0.30793305075E+01  0.28827726944E+01  0.15278382883E+02  0.00000000000E+00 0. -1.
</event>
<event>
 7    1  0.2732193E-010  0.4778727E+02  0.7816164E-02  0.1312668E+00
        -11   -1    0    0    0    0  0.00000000000E+00  0.00000000000E+00  0.45593999997E+02  0.45594000000E+02  0.51100000000E-03 0.  1.
         11   -1    0    0    0    0 -0.00000000000E+00 -0.00000000000E+00 -0.45593999997E+02  0.45594000000E+02  0.51100000000E-03 0. -1.
    9900012    2    1    2    0    0  0.40232209860E+02  0.99005487287E+01 -0.12921747112E+02  0.47787272774E+02  0.20000007884E+02 0.  0.
        -12    1    1    2    0    0 -0.40232209860E+02 -0.99005487287E+01  0.12921747112E+02  0.43400727226E+02  0.00000000000E+00 0.  1.
         11    1    3    3    0    0  0.30548321762E+02  0.14667589610E+02 -0.98303456590E+01  0.35284186876E+02  0.51100000000E-03 0. -1.
        -11    1    3    3    0    0  0.40616808478E+01  0.49835866339E+00  0.26510407259E+00  0.41007186074E+01  0.51100000000E-03 0.  1.
         12    1    3    3    0    0  0.56222072501E+01 -0.52653995452E+01 -0.33565055252E+01  0.84023672899E+01  0.00000000000E+00 0. -1.
</event>
<event>
 7    1  0.2732193E-010  0.4778725E+02  0.7816164E-02  0.1312668E+00
        -11   -1    0    0    0    0  0.00000000000E+00  0.00000000000E+00  0.45593999997E+02  0.45594000000E+02  0.51100000000E-03 0.  1.
         11   -1    0    0    0    0 -0.00000000000E+00 -0.00000000000E+00 -0.45593999997E+02  0.45594000000E+02  0.51100000000E-03 0. -1.
    9900012    2    1    2    0    0  0.17981611094E+02 -0.10130794335E+02 -0.38179234100E+02  0.47787248303E+02  0.19999896314E+02 0.  0.
        -12    1    1    2    0    0 -0.17981611094E+02  0.10130794335E+02  0.38179234100E+02  0.43400751697E+02  0.00000000000E+00 0.  1.
         11    1    3    3    0    0  0.48278918782E+01 -0.38878009999E+01 -0.71432419684E+01  0.94577715495E+01  0.51100000000E-03 0. -1.
        -11    1    3    3    0    0  0.10751257782E+02 -0.53043640773E+01 -0.32985327295E+02  0.35096404932E+02  0.51100000000E-03 0.  1.
        -12    1    3    3    0    0  0.24024614336E+01 -0.93862925815E+00  0.19493351635E+01  0.32330718216E+01  0.00000000000E+00 0.  1.
</event>
<event>
 7    1  0.2732193E-010  0.4778727E+02  0.7816164E-02  0.1312668E+00
        -11   -1    0    0    0    0  0.00000000000E+00  0.00000000000E+00  0.45593999997E+02  0.45594000000E+02  0.51100000000E-03 0.  1.
         11   -1    0    0    0    0 -0.00000000000E+00 -0.00000000000E+00 -0.45593999997E+02  0.45594000000E+02  0.51100000000E-03 0. -1.
    9900012    2    1    2    0    0 -0.35352150275E+02 -0.10469979613E+02 -0.22896034062E+02  0.47787269846E+02  0.19999994535E+02 0.  0.
        -12    1    1    2    0    0  0.35352150275E+02  0.10469979613E+02  0.22896034062E+02  0.43400730154E+02  0.00000000000E+00 0.  1.
         11    1    3    3    0    0 -0.29962664823E+02 -0.12041138715E+02 -0.15152593860E+02  0.35670035125E+02  0.51100000000E-03 0. -1.
        -11    1    3    3    0    0  0.14717468418E+01  0.12808054997E+01 -0.36055435675E+01  0.40995665835E+01  0.51100000000E-03 0.  1.
        -12    1    3    3    0    0 -0.68612322939E+01  0.29035360293E+00 -0.41378966347E+01  0.80176681376E+01  0.00000000000E+00 0.  1.
</event>
<event>
 7    1  0.2732193E-010  0.4778727E+02  0.7816164E-02  0.1312668E+00
        -11   -1    0    0    0    0  0.00000000000E+00  0.00000000000E+00  0.45593999997E+02  0.45594000000E+02  0.51100000000E-03 0.  1.
         11   -1    0    0    0    0 -0.00000000000E+00 -0.00000000000E+00 -0.45593999997E+02  0.45594000000E+02  0.51100000000E-03 0. -1.
    9900012    2    1    2    0    0 -0.23913157027E+02  0.28102593048E+02 -0.22847943390E+02  0.47787270373E+02  0.19999996939E+02 0.  0.
        -12    1    1    2    0    0  0.23913157027E+02 -0.28102593048E+02  0.22847943390E+02  0.43400729627E+02  0.00000000000E+00 0.  1.
         11    1    3    3    0    0 -0.18179324067E+02  0.16128571762E+02 -0.10633960319E+02  0.26527339915E+02  0.51100000000E-03 0. -1.
        -11    1    3    3    0    0 -0.32696625955E+01  0.12715249967E+02 -0.13092018763E+02  0.18541014826E+02  0.51100000000E-03 0.  1.
        -12    1    3    3    0    0 -0.24641703644E+01 -0.74122868089E+00  0.87803569221E+00  0.27189156329E+01  0.00000000000E+00 0.  1.
</event>
<event>
 7    1  0.2732193E-010  0.4778728E+02  0.7816164E-02  0.1312668E+00
        -11   -1    0    0    0    0  0.00000000000E+00  0.00000000000E+00  0.45593999997E+02  0.45594000000E+02  0.51100000000E-03 0.  1.
         11   -1    0    0    0    0 -0.00000000000E+00 -0.00000000000E+00 -0.45593999997E+02  0.45594000000E+02  0.51100000000E-03 0. -1.
    9900012    2    1    2    0    0 -0.33003056976E+02  0.17153411475E+02 -0.22364725056E+02  0.47787283165E+02  0.20000055261E+02 0.  0.
        -12    1    1    2    0    0  0.33003056976E+02 -0.17153411475E+02  0.22364725056E+02  0.43400716835E+02  0.00000000000E+00 0.  1.
         11    1    3    3    0    0 -0.13767054935E+01  0.82366850898E+01 -0.10982216129E+01  0.84228492956E+01  0.51100000000E-03 0. -1.
        -11    1    3    3    0    0 -0.23149414886E+02  0.52489615816E+01 -0.13573256590E+02  0.27343743379E+02  0.51100000000E-03 0.  1.
         12    1    3    3    0    0 -0.84769365959E+01  0.36677648039E+01 -0.76932468534E+01  0.12020690490E+02  0.00000000000E+00 0. -1.
</event>
<event>
 7    1  0.2732193E-010  0.4778727E+02  0.7816164E-02  0.1312668E+00
        -11   -1    0    0    0    0  0.00000000000E+00  0.00000000000E+00  0.45593999997E+02  0.45594000000E+02  0.51100000000E-03 0.  1.
         11   -1    0    0    0    0 -0.00000000000E+00 -0.00000000000E+00 -0.45593999997E+02  0.45594000000E+02  0.51100000000E-03 0. -1.
    9900012    2    1    2    0    0  0.39795925899E+02  0.54125970096E+01 -0.16450283535E+02  0.47787265525E+02  0.19999974835E+02 0.  0.
        -12    1    1    2    0    0 -0.39795925899E+02 -0.54125970096E+01  0.16450283535E+02  0.43400734475E+02  0.00000000000E+00 0.  1.
         11    1    3    3    0    0  0.27284106417E+01  0.46998167642E+01 -0.53062796557E+01  0.75953345082E+01  0.51100000000E-03 0. -1.
        -11    1    3    3    0    0  0.34500020275E+02  0.26930044737E+01 -0.12335037417E+02  0.36737675762E+02  0.51100000000E-03 0.  1.
        -12    1    3    3    0    0  0.25674949827E+01 -0.19802242283E+01  0.11910335369E+01  0.34542552550E+01  0.00000000000E+00 0.  1.
</event>
<event>
 7    1  0.2732193E-010  0.4778726E+02  0.7816164E-02  0.1312668E+00
        -11   -1    0    0    0    0  0.00000000000E+00  0.00000000000E+00  0.45593999997E+02  0.45594000000E+02  0.51100000000E-03 0. -1.
         11   -1    0    0    0    0 -0.00000000000E+00 -0.00000000000E+00 -0.45593999997E+02  0.45594000000E+02  0.51100000000E-03 0.  1.
    9900012    2    1    2    0    0  0.17672561508E+02 -0.39594190029E+02 -0.18985648153E+01  0.47787264261E+02  0.19999969072E+02 0.  0.
        -12    1    1    2    0    0 -0.17672561508E+02  0.39594190029E+02  0.18985648153E+01  0.43400735739E+02  0.00000000000E+00 0.  1.
         11    1    3    3    0    0  0.14558363788E+02 -0.34253632769E+02 -0.30884022382E+01  0.37346961626E+02  0.51100000000E-03 0. -1.
        -11    1    3    3    0    0  0.56397102879E+01 -0.28018650790E+01 -0.79290447954E+00  0.63470841988E+01  0.51100000000E-03 0.  1.
         12    1    3    3    0    0 -0.25255125672E+01 -0.25386921812E+01  0.19827419024E+01  0.40932184365E+01  0.00000000000E+00 0. -1.
</event>
<event>
 7    1  0.2732193E-010  0.4778727E+02  0.7816164E-02  0.1312668E+00
        -11   -1    0    0    0    0  0.00000000000E+00  0.00000000000E+00  0.45593999997E+02  0.45594000000E+02  0.51100000000E-03 0. -1.
         11   -1    0    0    0    0 -0.00000000000E+00 -0.00000000000E+00 -0.45593999997E+02  0.45594000000E+02  0.51100000000E-03 0.  1.
    9900012    2    1    2    0    0 -0.32563210264E+02 -0.26494426119E+02  0.11013899929E+02  0.47787271093E+02  0.20000000220E+02 0.  0.
        -12    1    1    2    0    0  0.32563210264E+02  0.26494426119E+02 -0.11013899929E+02  0.43400728907E+02  0.00000000000E+00 0.  1.
         11    1    3    3    0    0 -0.75437969265E+01 -0.45185069709E+01 -0.83680057574E+00  0.88332334272E+01  0.51100000000E-03 0. -1.
        -11    1    3    3    0    0 -0.19591109509E+02 -0.19751703029E+02  0.25216680856E+01  0.27933853199E+02  0.51100000000E-03 0.  1.
        -12    1    3    3    0    0 -0.54283038280E+01 -0.22242161188E+01  0.93290324195E+01  0.11020184467E+02  0.00000000000E+00 0.  1.
</event>
<event>
 7    1  0.2732193E-010  0.4778727E+02  0.7816164E-02  0.1312668E+00
        -11   -1    0    0    0    0  0.00000000000E+00  0.00000000000E+00  0.45593999997E+02  0.45594000000E+02  0.51100000000E-03 0.  1.
         11   -1    0    0    0    0 -0.00000000000E+00 -0.00000000000E+00 -0.45593999997E+02  0.45594000000E+02  0.51100000000E-03 0. -1.
    9900012    2    1    2    0    0  0.32815774260E+02 -0.28178714251E+01 -0.28263185149E+02  0.47787273343E+02  0.20000010479E+02 0.  0.
        -12    1    1    2    0    0 -0.32815774260E+02  0.28178714251E+01  0.28263185149E+02  0.43400726657E+02  0.00000000000E+00 0.  1.
         11    1    3    3    0    0 -0.13192946232E+01  0.16569235418E+01 -0.69217391123E+00  0.22282367268E+01  0.51100000000E-03 0. -1.
        -11    1    3    3    0    0  0.29329787473E+02 -0.24222104514E+00 -0.25391834912E+02  0.38794849977E+02  0.51100000000E-03 0.  1.
         12    1    3    3    0    0  0.48052814102E+01 -0.42325739218E+01 -0.21791763252E+01  0.67641866393E+01  0.00000000000E+00 0. -1.
</event>
<event>
 7    1  0.2732193E-010  0.4778727E+02  0.7816164E-02  0.1312668E+00
        -11   -1    0    0    0    0  0.00000000000E+00  0.00000000000E+00  0.45593999997E+02  0.45594000000E+02  0.51100000000E-03 0.  1.
         11   -1    0    0    0    0 -0.00000000000E+00 -0.00000000000E+00 -0.45593999997E+02  0.45594000000E+02  0.51100000000E-03 0. -1.
    9900012    2    1    2    0    0 -0.33913671100E+02 -0.53258032948E+01 -0.26554138271E+02  0.47787268122E+02  0.19999986676E+02 0.  0.
        -12    1    1    2    0    0  0.33913671100E+02  0.53258032948E+01  0.26554138271E+02  0.43400731878E+02  0.00000000000E+00 0.  1.
         11    1    3    3    0    0 -0.17855389003E+02 -0.61364445529E+01 -0.10135034948E+02  0.21428714424E+02  0.51100000000E-03 0. -1.
        -11    1    3    3    0    0 -0.85658655007E+01  0.34300774530E+01 -0.15926303843E+02  0.18406157597E+02  0.51100000000E-03 0.  1.
        -12    1    3    3    0    0 -0.74924165961E+01 -0.26194361949E+01 -0.49279948018E+00  0.79523961015E+01  0.00000000000E+00 0.  1.
</event>
<event>
 7    1  0.2732193E-010  0.4778727E+02  0.7816164E-02  0.1312668E+00
        -11   -1    0    0    0    0  0.00000000000E+00  0.00000000000E+00  0.45593999997E+02  0.45594000000E+02  0.51100000000E-03 0.  1.
         11   -1    0    0    0    0 -0.00000000000E+00 -0.00000000000E+00 -0.45593999997E+02  0.45594000000E+02  0.51100000000E-03 0. -1.
    9900012    2    1    2    0    0 -0.30682631953E+02  0.19309533240E+01 -0.30634469919E+02  0.47787271533E+02  0.20000002226E+02 0.  0.
        -12    1    1    2    0    0  0.30682631953E+02 -0.19309533240E+01  0.30634469919E+02  0.43400728467E+02  0.00000000000E+00 0.  1.
         11    1    3    3    0    0 -0.13626895286E+02  0.68415006589E+01 -0.21438104251E+02  0.26307617158E+02  0.51100000000E-03 0. -1.
        -11    1    3    3    0    0 -0.13472998467E+01 -0.20357257709E+01 -0.40001179486E+01  0.46861860991E+01  0.51100000000E-03 0.  1.
         12    1    3    3    0    0 -0.15708436820E+02 -0.28748215640E+01 -0.51962477193E+01  0.16793468275E+02  0.00000000000E+00 0. -1.
</event>
<event>
 7    1  0.2732193E-010  0.4778727E+02  0.7816164E-02  0.1312668E+00
        -11   -1    0    0    0    0  0.00000000000E+00  0.00000000000E+00  0.45593999997E+02  0.45594000000E+02  0.51100000000E-03 0.  1.
         11   -1    0    0    0    0 -0.00000000000E+00 -0.00000000000E+00 -0.45593999997E+02  0.45594000000E+02  0.51100000000E-03 0. -1.
    9900012    2    1    2    0    0  0.18597839937E+02  0.12794613426E+02 -0.37068066953E+02  0.47787269930E+02  0.19999994917E+02 0.  0.
        -12    1    1    2    0    0 -0.18597839937E+02 -0.12794613426E+02  0.37068066953E+02  0.43400730070E+02  0.00000000000E+00 0.  1.
         11    1    3    3    0    0  0.14544785415E+02  0.99035609476E+00 -0.15421231632E+02  0.21221356537E+02  0.51100000000E-03 0. -1.
        -11    1    3    3    0    0  0.10780413772E+01  0.41733739477E+01 -0.11024519290E+01  0.44491149496E+01  0.51100000000E-03 0.  1.
         12    1    3    3    0    0  0.29750131447E+01  0.76308833833E+01 -0.20544383392E+02  0.22116798443E+02  0.00000000000E+00 0. -1.
</event>
<event>
 7    1  0.2732193E-010  0.4778726E+02  0.7816164E-02  0.1312668E+00
        -11   -1    0    0    0    0  0.00000000000E+00  0.00000000000E+00  0.45593999997E+02  0.45594000000E+02  0.51100000000E-03 0. -1.
         11   -1    0    0    0    0 -0.00000000000E+00 -0.00000000000E+00 -0.45593999997E+02  0.45594000000E+02  0.51100000000E-03 0.  1.
    9900012    2    1    2    0    0  0.39066803795E+02  0.14355775970E+02 -0.12301242907E+02  0.47787262223E+02  0.19999959782E+02 0.  0.
        -12    1    1    2    0    0 -0.39066803795E+02 -0.14355775970E+02  0.12301242907E+02  0.43400737777E+02  0.00000000000E+00 0.  1.
         11    1    3    3    0    0  0.17684993988E+02  0.58222533509E+01 -0.59593459672E+01  0.19549205894E+02  0.51100000000E-03 0. -1.
        -11    1    3    3    0    0  0.13452286176E+02  0.44780628620E+01 -0.11222477824E+02  0.18082064570E+02  0.51100000000E-03 0.  1.
        -12    1    3    3    0    0  0.79295236310E+01  0.40554597575E+01  0.48805808839E+01  0.10155991760E+02  0.00000000000E+00 0.  1.
</event>
<event>
 7    1  0.2732193E-010  0.4778727E+02  0.7816164E-02  0.1312668E+00
        -11   -1    0    0    0    0  0.00000000000E+00  0.00000000000E+00  0.45593999997E+02  0.45594000000E+02  0.51100000000E-03 0.  1.
         11   -1    0    0    0    0 -0.00000000000E+00 -0.00000000000E+00 -0.45593999997E+02  0.45594000000E+02  0.51100000000E-03 0. -1.
    9900012    2    1    2    0    0  0.25617250134E+02  0.23686492554E+02 -0.25813370543E+02  0.47787268062E+02  0.19999986404E+02 0.  0.
        -12    1    1    2    0    0 -0.25617250134E+02 -0.23686492554E+02  0.25813370543E+02  0.43400731938E+02  0.00000000000E+00 0.  1.
         11    1    3    3    0    0  0.13404527599E+02  0.68580427972E+01 -0.37566174341E+01  0.15518578735E+02  0.51100000000E-03 0. -1.
        -11    1    3    3    0    0  0.11606786652E+02  0.97738430591E+01 -0.96463229854E+01  0.17980463062E+02  0.51100000000E-03 0.  1.
         12    1    3    3    0    0  0.60593588321E+00  0.70546066974E+01 -0.12410430123E+02  0.14288226265E+02  0.00000000000E+00 0. -1.
</event>
<event>
 7    1  0.2732193E-010  0.4778727E+02  0.7816164E-02  0.1312668E+00
        -11   -1    0    0    0    0  0.00000000000E+00  0.00000000000E+00  0.45593999997E+02  0.45594000000E+02  0.51100000000E-03 0.  1.
         11   -1    0    0    0    0 -0.00000000000E+00 -0.00000000000E+00 -0.45593999997E+02  0.45594000000E+02  0.51100000000E-03 0. -1.
    9900012    2    1    2    0    0  0.69400495172E+01 -0.59854024115E+01 -0.42422095969E+02  0.47787267797E+02  0.19999985196E+02 0.  0.
        -12    1    1    2    0    0 -0.69400495172E+01  0.59854024115E+01  0.42422095969E+02  0.43400732203E+02  0.00000000000E+00 0.  1.
         11    1    3    3    0    0  0.36286048593E+01 -0.65856010630E+01 -0.55789315230E+01  0.93627662464E+01  0.51100000000E-03 0. -1.
        -11    1    3    3    0    0  0.70887755394E+01  0.18015924210E+00 -0.25023517531E+02  0.26008837458E+02  0.51100000000E-03 0.  1.
        -12    1    3    3    0    0 -0.37773308815E+01  0.42003940939E+00 -0.11819646915E+02  0.12415664093E+02  0.00000000000E+00 0.  1.
</event>
<event>
 7    1  0.2732193E-010  0.4778727E+02  0.7816164E-02  0.1312668E+00
        -11   -1    0    0    0    0  0.00000000000E+00  0.00000000000E+00  0.45593999997E+02  0.45594000000E+02  0.51100000000E-03 0.  1.
         11   -1    0    0    0    0 -0.00000000000E+00 -0.00000000000E+00 -0.45593999997E+02  0.45594000000E+02  0.51100000000E-03 0. -1.
    9900012    2    1    2    0    0  0.20405868431E+01  0.42310080465E+02  0.94507382371E+01  0.47787270089E+02  0.19999995644E+02 0.  0.
        -12    1    1    2    0    0 -0.20405868431E+01 -0.42310080465E+02 -0.94507382371E+01  0.43400729911E+02  0.00000000000E+00 0.  1.
         11    1    3    3    0    0  0.22744393099E+01  0.34430898364E+02  0.87355340753E+01  0.35594513513E+02  0.51100000000E-03 0. -1.
        -11    1    3    3    0    0 -0.15498210200E+01  0.14035911894E+01  0.42223925150E+01  0.47117525649E+01  0.51100000000E-03 0.  1.
         12    1    3    3    0    0  0.13159685531E+01  0.64755909107E+01 -0.35071883532E+01  0.74810040115E+01  0.00000000000E+00 0. -1.
</event>
<event>
 7    1  0.2732193E-010  0.4778727E+02  0.7816164E-02  0.1312668E+00
        -11   -1    0    0    0    0  0.00000000000E+00  0.00000000000E+00  0.45593999997E+02  0.45594000000E+02  0.51100000000E-03 0.  1.
         11   -1    0    0    0    0 -0.00000000000E+00 -0.00000000000E+00 -0.45593999997E+02  0.45594000000E+02  0.51100000000E-03 0. -1.
    9900012    2    1    2    0    0  0.31681021784E+02  0.27174412521E+02  0.11894839889E+02  0.47787273587E+02  0.20000011592E+02 0.  0.
        -12    1    1    2    0    0 -0.31681021784E+02 -0.27174412521E+02 -0.11894839889E+02  0.43400726413E+02  0.00000000000E+00 0.  1.
         11    1    3    3    0    0  0.25000839721E+02  0.18972513009E+02  0.11573990042E+02  0.33450791955E+02  0.51100000000E-03 0. -1.
        -11    1    3    3    0    0  0.68468709988E+01  0.50784531564E+01 -0.36571331422E+01  0.92760418292E+01  0.51100000000E-03 0.  1.
         12    1    3    3    0    0 -0.16668893546E+00  0.31234463559E+01  0.39779829889E+01  0.50604398030E+01  0.00000000000E+00 0. -1.
</event>
<event>
 7    1  0.2732193E-010  0.4778727E+02  0.7816164E-02  0.1312668E+00
        -11   -1    0    0    0    0  0.00000000000E+00  0.00000000000E+00  0.45593999997E+02  0.45594000000E+02  0.51100000000E-03 0.  1.
         11   -1    0    0    0    0 -0.00000000000E+00 -0.00000000000E+00 -0.45593999997E+02  0.45594000000E+02  0.51100000000E-03 0. -1.
    9900012    2    1    2    0    0 -0.16453832639E+02  0.15084791735E+02 -0.37220205637E+02  0.47787271229E+02  0.20000000841E+02 0.  0.
        -12    1    1    2    0    0  0.16453832639E+02 -0.15084791735E+02  0.37220205637E+02  0.43400728771E+02  0.00000000000E+00 0.  1.
         11    1    3    3    0    0 -0.13257476348E+02  0.63427980350E+00 -0.18944685410E+02  0.23131452517E+02  0.51100000000E-03 0. -1.
        -11    1    3    3    0    0 -0.20143204031E+01  0.14633346006E+02 -0.14513794232E+02  0.20708513353E+02  0.51100000000E-03 0.  1.
        -12    1    3    3    0    0 -0.11820358882E+01 -0.18283407436E+00 -0.37617259952E+01  0.39473053597E+01  0.00000000000E+00 0.  1.
</event>
<event>
 7    1  0.2732193E-010  0.4778727E+02  0.7816164E-02  0.1312668E+00
        -11   -1    0    0    0    0  0.00000000000E+00  0.00000000000E+00  0.45593999997E+02  0.45594000000E+02  0.51100000000E-03 0. -1.
         11   -1    0    0    0    0 -0.00000000000E+00 -0.00000000000E+00 -0.45593999997E+02  0.45594000000E+02  0.51100000000E-03 0.  1.
    9900012    2    1    2    0    0  0.66789103254E+01 -0.42093722525E+01  0.42676655261E+02  0.47787267724E+02  0.19999984859E+02 0.  0.
        -12    1    1    2    0    0 -0.66789103254E+01  0.42093722525E+01 -0.42676655261E+02  0.43400732276E+02  0.00000000000E+00 0.  1.
         11    1    3    3    0    0 -0.58916357818E+01  0.21232763958E+00  0.65459523044E+01  0.88094237635E+01  0.51100000000E-03 0. -1.
        -11    1    3    3    0    0  0.12073893537E+02 -0.23518969167E+01  0.32738441214E+02  0.34973073322E+02  0.51100000000E-03 0.  1.
         12    1    3    3    0    0  0.49665257053E+00 -0.20698029754E+01  0.33922617425E+01  0.40047706379E+01  0.00000000000E+00 0. -1.
</event>
<event>
 7    1  0.2732193E-010  0.4778727E+02  0.7816164E-02  0.1312668E+00
        -11   -1    0    0    0    0  0.00000000000E+00  0.00000000000E+00  0.45593999997E+02  0.45594000000E+02  0.51100000000E-03 0.  1.
         11   -1    0    0    0    0 -0.00000000000E+00 -0.00000000000E+00 -0.45593999997E+02  0.45594000000E+02  0.51100000000E-03 0. -1.
    9900012    2    1    2    0    0  0.36341980827E+02  0.84030453536E+01 -0.22187215077E+02  0.47787271268E+02  0.20000001019E+02 0.  0.
        -12    1    1    2    0    0 -0.36341980827E+02 -0.84030453536E+01  0.22187215077E+02  0.43400728732E+02  0.00000000000E+00 0.  1.
         11    1    3    3    0    0  0.15151318328E+02  0.18399636447E+01 -0.37360330096E+01  0.15713238247E+02  0.51100000000E-03 0. -1.
        -11    1    3    3    0    0  0.75699492735E+01  0.44039922810E+01 -0.15750088356E+02  0.18021225360E+02  0.51100000000E-03 0.  1.
        -12    1    3    3    0    0  0.13620713225E+02  0.21590894279E+01 -0.27010937115E+01  0.14052807661E+02  0.00000000000E+00 0.  1.
</event>
<event>
 7    1  0.2732193E-010  0.4778727E+02  0.7816164E-02  0.1312668E+00
        -11   -1    0    0    0    0  0.00000000000E+00  0.00000000000E+00  0.45593999997E+02  0.45594000000E+02  0.51100000000E-03 0.  1.
         11   -1    0    0    0    0 -0.00000000000E+00 -0.00000000000E+00 -0.45593999997E+02  0.45594000000E+02  0.51100000000E-03 0. -1.
    9900012    2    1    2    0    0  0.84606873640E+01 -0.14681055432E+02 -0.39956309256E+02  0.47787271105E+02  0.20000000278E+02 0.  0.
        -12    1    1    2    0    0 -0.84606873640E+01  0.14681055432E+02  0.39956309256E+02  0.43400728895E+02  0.00000000000E+00 0.  1.
         11    1    3    3    0    0  0.10517859672E+02 -0.10359054386E+02 -0.22982684439E+02  0.27315548029E+02  0.51100000000E-03 0. -1.
        -11    1    3    3    0    0 -0.60460295741E+01 -0.15076456390E+01 -0.11889046099E+02  0.13422998413E+02  0.51100000000E-03 0.  1.
         12    1    3    3    0    0  0.39888572665E+01 -0.28143554063E+01 -0.50845787176E+01  0.70487246634E+01  0.00000000000E+00 0. -1.
</event>
<event>
 7    1  0.2732193E-010  0.4778727E+02  0.7816164E-02  0.1312668E+00
        -11   -1    0    0    0    0  0.00000000000E+00  0.00000000000E+00  0.45593999997E+02  0.45594000000E+02  0.51100000000E-03 0.  1.
         11   -1    0    0    0    0 -0.00000000000E+00 -0.00000000000E+00 -0.45593999997E+02  0.45594000000E+02  0.51100000000E-03 0. -1.
    9900012    2    1    2    0    0 -0.29596093951E+02  0.31152461886E+02 -0.61007032220E+01  0.47787271452E+02  0.20000001858E+02 0.  0.
        -12    1    1    2    0    0  0.29596093951E+02 -0.31152461886E+02  0.61007032220E+01  0.43400728548E+02  0.00000000000E+00 0.  1.
         11    1    3    3    0    0 -0.17115278971E+02  0.26194105496E+02 -0.36292993652E+01  0.31499773827E+02  0.51100000000E-03 0.  1.
        -11    1    3    3    0    0  0.16826126222E+00  0.15855129800E+01 -0.27665770037E+01  0.31931351115E+01  0.51100000000E-03 0. -1.
         12    1    3    3    0    0 -0.12649076242E+02  0.33728434094E+01  0.29517314687E+00  0.13094362513E+02  0.00000000000E+00 0. -1.
</event>
<event>
 7    1  0.2732193E-010  0.4778726E+02  0.7816164E-02  0.1312668E+00
        -11   -1    0    0    0    0  0.00000000000E+00  0.00000000000E+00  0.45593999997E+02  0.45594000000E+02  0.51100000000E-03 0. -1.
         11   -1    0    0    0    0 -0.00000000000E+00 -0.00000000000E+00 -0.45593999997E+02  0.45594000000E+02  0.51100000000E-03 0.  1.
    9900012    2    1    2    0    0 -0.18161787003E+01 -0.14665379095E+02  0.40807503958E+02  0.47787260049E+02  0.19999949866E+02 0.  0.
        -12    1    1    2    0    0  0.18161787003E+01  0.14665379095E+02 -0.40807503958E+02  0.43400739951E+02  0.00000000000E+00 0.  1.
         11    1    3    3    0    0  0.11960397718E+01 -0.16267006412E+02  0.31366593218E+02  0.35354054635E+02  0.51100000000E-03 0. -1.
        -11    1    3    3    0    0 -0.17355650167E+00  0.40484080487E+01  0.32417321995E+01  0.51892733116E+01  0.51100000000E-03 0.  1.
         12    1    3    3    0    0 -0.28386619705E+01 -0.24467807313E+01  0.61991785401E+01  0.72439321022E+01  0.00000000000E+00 0. -1.
</event>
<event>
 7    1  0.2732193E-010  0.4778727E+02  0.7816164E-02  0.1312668E+00
        -11   -1    0    0    0    0  0.00000000000E+00  0.00000000000E+00  0.45593999997E+02  0.45594000000E+02  0.51100000000E-03 0.  1.
         11   -1    0    0    0    0 -0.00000000000E+00 -0.00000000000E+00 -0.45593999997E+02  0.45594000000E+02  0.51100000000E-03 0. -1.
    9900012    2    1    2    0    0 -0.41808391127E+02 -0.49209401170E+00 -0.11637863324E+02  0.47787267427E+02  0.19999983506E+02 0.  0.
        -12    1    1    2    0    0  0.41808391127E+02  0.49209401170E+00  0.11637863324E+02  0.43400732573E+02  0.00000000000E+00 0.  1.
         11    1    3    3    0    0 -0.21537469353E+02  0.82951940531E+01 -0.46437983826E+01  0.23542253379E+02  0.51100000000E-03 0. -1.
        -11    1    3    3    0    0 -0.15728823572E+02 -0.94758033186E+01 -0.69982911313E+01  0.19651025889E+02  0.51100000000E-03 0.  1.
        -12    1    3    3    0    0 -0.45420982026E+01  0.68851525390E+00  0.42261902978E-02  0.45939881582E+01  0.00000000000E+00 0.  1.
</event>
<event>
 7    1  0.2732193E-010  0.4778727E+02  0.7816164E-02  0.1312668E+00
        -11   -1    0    0    0    0  0.00000000000E+00  0.00000000000E+00  0.45593999997E+02  0.45594000000E+02  0.51100000000E-03 0.  1.
         11   -1    0    0    0    0 -0.00000000000E+00 -0.00000000000E+00 -0.45593999997E+02  0.45594000000E+02  0.51100000000E-03 0. -1.
    9900012    2    1    2    0    0  0.32052608486E+01  0.25886561740E+02 -0.34687684738E+02  0.47787271338E+02  0.20000001340E+02 0.  0.
        -12    1    1    2    0    0 -0.32052608486E+01 -0.25886561740E+02  0.34687684738E+02  0.43400728662E+02  0.00000000000E+00 0.  1.
         11    1    3    3    0    0  0.46406078045E+00  0.22903484784E+02 -0.27778119442E+02  0.36005678547E+02  0.51100000000E-03 0. -1.
        -11    1    3    3    0    0  0.48373773065E+01  0.16743499675E+01 -0.78695784908E+00  0.51790896822E+01  0.51100000000E-03 0.  1.
        -12    1    3    3    0    0 -0.20961772383E+01  0.13087269885E+01 -0.61226074476E+01  0.66025031089E+01  0.00000000000E+00 0.  1.
</event>
<event>
 7    1  0.2732193E-010  0.4778727E+02  0.7816164E-02  0.1312668E+00
        -11   -1    0    0    0    0  0.00000000000E+00  0.00000000000E+00  0.45593999997E+02  0.45594000000E+02  0.51100000000E-03 0.  1.
         11   -1    0    0    0    0 -0.00000000000E+00 -0.00000000000E+00 -0.45593999997E+02  0.45594000000E+02  0.51100000000E-03 0. -1.
    9900012    2    1    2    0    0  0.15610738214E+01  0.36955586508E+01 -0.43214918178E+02  0.47787271223E+02  0.20000000816E+02 0.  0.
        -12    1    1    2    0    0 -0.15610738214E+01 -0.36955586508E+01  0.43214918178E+02  0.43400728777E+02  0.00000000000E+00 0.  1.
         11    1    3    3    0    0  0.11203424237E-01  0.19871692515E+01 -0.12224614105E+02  0.12385078014E+02  0.51100000000E-03 0.  1.
        -11    1    3    3    0    0  0.78599437108E+01  0.20060373988E+01 -0.26332310188E+02  0.27553465504E+02  0.51100000000E-03 0. -1.
        -12    1    3    3    0    0 -0.63100733136E+01 -0.29764799949E+00 -0.46579938853E+01  0.78487277052E+01  0.00000000000E+00 0.  1.
</event>
<event>
 7    1  0.2732193E-010  0.4778727E+02  0.7816164E-02  0.1312668E+00
        -11   -1    0    0    0    0  0.00000000000E+00  0.00000000000E+00  0.45593999997E+02  0.45594000000E+02  0.51100000000E-03 0.  1.
         11   -1    0    0    0    0 -0.00000000000E+00 -0.00000000000E+00 -0.45593999997E+02  0.45594000000E+02  0.51100000000E-03 0. -1.
    9900012    2    1    2    0    0  0.26619312400E+02  0.28228067798E+02 -0.19447665402E+02  0.47787270814E+02  0.19999998949E+02 0.  0.
        -12    1    1    2    0    0 -0.26619312400E+02 -0.28228067798E+02  0.19447665402E+02  0.43400729186E+02  0.00000000000E+00 0.  1.
         11    1    3    3    0    0  0.24867386855E+01 -0.78310209117E+00 -0.11074634312E+01  0.28325948683E+01  0.51100000000E-03 0.  1.
        -11    1    3    3    0    0  0.18687597429E+02  0.13297769996E+02 -0.16433776210E+02  0.28215704586E+02  0.51100000000E-03 0. -1.
        -12    1    3    3    0    0  0.54449762860E+01  0.15713399894E+02 -0.19064257607E+01  0.16738971359E+02  0.00000000000E+00 0.  1.
</event>
<event>
 7    1  0.2732193E-010  0.4778727E+02  0.7816164E-02  0.1312668E+00
        -11   -1    0    0    0    0  0.00000000000E+00  0.00000000000E+00  0.45593999997E+02  0.45594000000E+02  0.51100000000E-03 0. -1.
         11   -1    0    0    0    0 -0.00000000000E+00 -0.00000000000E+00 -0.45593999997E+02  0.45594000000E+02  0.51100000000E-03 0.  1.
    9900012    2    1    2    0    0 -0.39357723342E+02  0.20835192766E+01  0.18172823291E+02  0.47787274826E+02  0.20000017243E+02 0.  0.
        -12    1    1    2    0    0  0.39357723342E+02 -0.20835192766E+01 -0.18172823291E+02  0.43400725174E+02  0.00000000000E+00 0.  1.
         11    1    3    3    0    0 -0.32022031831E+02  0.19201638289E+01  0.13234227815E+02  0.34702195000E+02  0.51100000000E-03 0. -1.
        -11    1    3    3    0    0 -0.40869686841E+01  0.33949138822E+01 -0.11783378648E+01  0.54421717794E+01  0.51100000000E-03 0.  1.
         12    1    3    3    0    0 -0.32487228275E+01 -0.32315584345E+01  0.61169333406E+01  0.76429080473E+01  0.00000000000E+00 0. -1.
</event>
<event>
 7    1  0.2732193E-010  0.4778727E+02  0.7816164E-02  0.1312668E+00
        -11   -1    0    0    0    0  0.00000000000E+00  0.00000000000E+00  0.45593999997E+02  0.45594000000E+02  0.51100000000E-03 0. -1.
         11   -1    0    0    0    0 -0.00000000000E+00 -0.00000000000E+00 -0.45593999997E+02  0.45594000000E+02  0.51100000000E-03 0.  1.
    9900012    2    1    2    0    0 -0.32777293674E+02  0.19055541818E+02  0.21122462082E+02  0.47787273521E+02  0.20000011290E+02 0.  0.
        -12    1    1    2    0    0  0.32777293674E+02 -0.19055541818E+02 -0.21122462082E+02  0.43400726479E+02  0.00000000000E+00 0.  1.
         11    1    3    3    0    0 -0.19094299965E+01 -0.27749841738E+01  0.12820886637E+01  0.36041936240E+01  0.51100000000E-03 0. -1.
        -11    1    3    3    0    0 -0.92502096037E+01  0.75059202685E+00  0.49014320449E+01  0.10495418165E+02  0.51100000000E-03 0.  1.
         12    1    3    3    0    0 -0.21617654073E+02  0.21079933965E+02  0.14938941373E+02  0.33687661732E+02  0.00000000000E+00 0. -1.
</event>
<event>
 7    1  0.2732193E-010  0.4778728E+02  0.7816164E-02  0.1312668E+00
        -11   -1    0    0    0    0  0.00000000000E+00  0.00000000000E+00  0.45593999997E+02  0.45594000000E+02  0.51100000000E-03 0. -1.
         11   -1    0    0    0    0 -0.00000000000E+00 -0.00000000000E+00 -0.45593999997E+02  0.45594000000E+02  0.51100000000E-03 0.  1.
    9900012    2    1    2    0    0  0.96008665100E+01  0.42151144529E+02  0.38375490719E+01  0.47787281046E+02  0.20000045601E+02 0.  0.
        -12    1    1    2    0    0 -0.96008665100E+01 -0.42151144529E+02 -0.38375490719E+01  0.43400718954E+02  0.00000000000E+00 0.  1.
         11    1    3    3    0    0  0.10474180151E+02  0.98846986690E+01  0.10211251003E+01  0.14438089013E+02  0.51100000000E-03 0. -1.
        -11    1    3    3    0    0 -0.12535641937E+01  0.23836123297E+02 -0.14108411499E+01  0.23910722909E+02  0.51100000000E-03 0.  1.
         12    1    3    3    0    0  0.38025055245E+00  0.84303225633E+01  0.42272651215E+01  0.94384691243E+01  0.00000000000E+00 0. -1.
</event>
<event>
 7    1  0.3812307E-010  0.4778727E+02  0.7816164E-02  0.1312668E+00
        -11   -1    0    0    0    0  0.00000000000E+00  0.00000000000E+00  0.45593999997E+02  0.45594000000E+02  0.51100000000E-03 0. -1.
         11   -1    0    0    0    0 -0.00000000000E+00 -0.00000000000E+00 -0.45593999997E+02  0.45594000000E+02  0.51100000000E-03 0.  1.
    9900012    2    1    2    0    0 -0.18559583830E+02 -0.12926095824E+01  0.39210895886E+02  0.47787270194E+02  0.19999996124E+02 0.  0.
        -12    1    1    2    0    0  0.18559583830E+02  0.12926095824E+01 -0.39210895886E+02  0.43400729806E+02  0.00000000000E+00 0.  1.
         11    1    3    3    0    0 -0.16597437124E+02 -0.40245592083E+01  0.25052991583E+02  0.30320362521E+02  0.51100000000E-03 0. -1.
        -11    1    3    3    0    0  0.84508560598E+00 -0.35603334720E-01 -0.12796811124E+01  0.15339560911E+01  0.51100000000E-03 0.  1.
        -12    1    3    3    0    0 -0.28072323121E+01  0.27675529606E+01  0.15437585416E+02  0.15932951582E+02  0.00000000000E+00 0.  1.
</event>
<event>
 7    1  0.2732193E-010  0.4778727E+02  0.7816164E-02  0.1312668E+00
        -11   -1    0    0    0    0  0.00000000000E+00  0.00000000000E+00  0.45593999997E+02  0.45594000000E+02  0.51100000000E-03 0.  1.
         11   -1    0    0    0    0 -0.00000000000E+00 -0.00000000000E+00 -0.45593999997E+02  0.45594000000E+02  0.51100000000E-03 0. -1.
    9900012    2    1    2    0    0 -0.34354338329E+02  0.17425180526E+02 -0.19994148391E+02  0.47787269035E+02  0.19999990839E+02 0.  0.
        -12    1    1    2    0    0  0.34354338329E+02 -0.17425180526E+02  0.19994148391E+02  0.43400730965E+02  0.00000000000E+00 0.  1.
         11    1    3    3    0    0 -0.37259526325E+01  0.72188743004E+00 -0.28201104561E+00  0.38057029538E+01  0.51100000000E-03 0. -1.
        -11    1    3    3    0    0 -0.18833634514E+02  0.17375308284E+02 -0.68644059908E+01  0.26527856996E+02  0.51100000000E-03 0.  1.
        -12    1    3    3    0    0 -0.11794751183E+02 -0.67201518773E+00 -0.12847731354E+02  0.17453709085E+02  0.00000000000E+00 0.  1.
</event>
<event>
 7    1  0.2732193E-010  0.4778727E+02  0.7816164E-02  0.1312668E+00
        -11   -1    0    0    0    0  0.00000000000E+00  0.00000000000E+00  0.45593999997E+02  0.45594000000E+02  0.51100000000E-03 0.  1.
         11   -1    0    0    0    0 -0.00000000000E+00 -0.00000000000E+00 -0.45593999997E+02  0.45594000000E+02  0.51100000000E-03 0. -1.
    9900012    2    1    2    0    0 -0.36017196068E+02 -0.13380765980E+02 -0.20182666168E+02  0.47787270462E+02  0.19999997343E+02 0.  0.
        -12    1    1    2    0    0  0.36017196068E+02  0.13380765980E+02  0.20182666168E+02  0.43400729538E+02  0.00000000000E+00 0.  1.
         11    1    3    3    0    0 -0.12961353722E+02  0.79380656703E+00 -0.37611237237E+01  0.13519351727E+02  0.51100000000E-03 0. -1.
        -11    1    3    3    0    0 -0.65687256183E+01 -0.11089460215E+02 -0.99768688493E+01  0.16299147107E+02  0.51100000000E-03 0.  1.
        -12    1    3    3    0    0 -0.16487116727E+02 -0.30851123313E+01 -0.64446735952E+01  0.17968771628E+02  0.00000000000E+00 0.  1.
</event>
<event>
 7    1  0.2732193E-010  0.4778727E+02  0.7816164E-02  0.1312668E+00
        -11   -1    0    0    0    0  0.00000000000E+00  0.00000000000E+00  0.45593999997E+02  0.45594000000E+02  0.51100000000E-03 0. -1.
         11   -1    0    0    0    0 -0.00000000000E+00 -0.00000000000E+00 -0.45593999997E+02  0.45594000000E+02  0.51100000000E-03 0.  1.
    9900012    2    1    2    0    0  0.23192681816E+02 -0.34370518483E+02  0.12821486743E+02  0.47787267830E+02  0.19999985342E+02 0.  0.
        -12    1    1    2    0    0 -0.23192681816E+02  0.34370518483E+02 -0.12821486743E+02  0.43400732170E+02  0.00000000000E+00 0.  1.
         11    1    3    3    0    0  0.21805954367E+02 -0.26982933328E+02  0.89357740239E+01  0.35824940956E+02  0.51100000000E-03 0. -1.
        -11    1    3    3    0    0 -0.10520559273E+01  0.94349693111E+00  0.28998083557E+01  0.32258172444E+01  0.51100000000E-03 0.  1.
        -12    1    3    3    0    0  0.24387833764E+01 -0.83310820863E+01  0.98590436303E+00  0.87365096290E+01  0.00000000000E+00 0.  1.
</event>
<event>
 7    1  0.2732193E-010  0.4778727E+02  0.7816164E-02  0.1312668E+00
        -11   -1    0    0    0    0  0.00000000000E+00  0.00000000000E+00  0.45593999997E+02  0.45594000000E+02  0.51100000000E-03 0.  1.
         11   -1    0    0    0    0 -0.00000000000E+00 -0.00000000000E+00 -0.45593999997E+02  0.45594000000E+02  0.51100000000E-03 0. -1.
    9900012    2    1    2    0    0 -0.19543004714E+02  0.33722411630E+02 -0.19091710152E+02  0.47787268717E+02  0.19999989387E+02 0.  0.
        -12    1    1    2    0    0  0.19543004714E+02 -0.33722411630E+02  0.19091710152E+02  0.43400731283E+02  0.00000000000E+00 0.  1.
         11    1    3    3    0    0 -0.16854627673E+01  0.95053752526E+01  0.14715684822E+01  0.97651655128E+01  0.51100000000E-03 0. -1.
        -11    1    3    3    0    0 -0.19160147074E+01  0.96771772424E+00  0.11538878087E+01  0.24370160626E+01  0.51100000000E-03 0.  1.
         12    1    3    3    0    0 -0.15941527239E+02  0.23249318653E+02 -0.21717166443E+02  0.35585087141E+02  0.00000000000E+00 0. -1.
</event>
<event>
 7    1  0.2732193E-010  0.4778727E+02  0.7816164E-02  0.1312668E+00
        -11   -1    0    0    0    0  0.00000000000E+00  0.00000000000E+00  0.45593999997E+02  0.45594000000E+02  0.51100000000E-03 0. -1.
         11   -1    0    0    0    0 -0.00000000000E+00 -0.00000000000E+00 -0.45593999997E+02  0.45594000000E+02  0.51100000000E-03 0.  1.
    9900012    2    1    2    0    0 -0.36228206032E+02  0.21255052657E+02  0.10925338839E+02  0.47787271844E+02  0.20000003645E+02 0.  0.
        -12    1    1    2    0    0  0.36228206032E+02 -0.21255052657E+02 -0.10925338839E+02  0.43400728156E+02  0.00000000000E+00 0.  1.
         11    1    3    3    0    0 -0.23301477247E+01  0.44303135379E+01 -0.35325377988E+01  0.61266703864E+01  0.51100000000E-03 0. -1.
        -11    1    3    3    0    0 -0.12038062846E+02  0.10240635741E+01  0.39023283976E+01  0.12696134470E+02  0.51100000000E-03 0.  1.
         12    1    3    3    0    0 -0.21859995461E+02  0.15800675545E+02  0.10555548240E+02  0.28964466988E+02  0.00000000000E+00 0. -1.
</event>
<event>
 7    1  0.2732193E-010  0.4778727E+02  0.7816164E-02  0.1312668E+00
        -11   -1    0    0    0    0  0.00000000000E+00  0.00000000000E+00  0.45593999997E+02  0.45594000000E+02  0.51100000000E-03 0.  1.
         11   -1    0    0    0    0 -0.00000000000E+00 -0.00000000000E+00 -0.45593999997E+02  0.45594000000E+02  0.51100000000E-03 0. -1.
    9900012    2    1    2    0    0 -0.23654577397E+02 -0.20451857707E+02 -0.30096606315E+02  0.47787271582E+02  0.20000002452E+02 0.  0.
        -12    1    1    2    0    0  0.23654577397E+02  0.20451857707E+02  0.30096606315E+02  0.43400728418E+02  0.00000000000E+00 0.  1.
         11    1    3    3    0    0 -0.83631521433E+00 -0.49598266469E+01 -0.34200926235E+01  0.60824614524E+01  0.51100000000E-03 0. -1.
        -11    1    3    3    0    0 -0.11234834165E+02 -0.83344732647E+01 -0.24072156104E+02  0.27841581188E+02  0.51100000000E-03 0.  1.
        -12    1    3    3    0    0 -0.11583428018E+02 -0.71575577954E+01 -0.26043575879E+01  0.13863228942E+02  0.00000000000E+00 0.  1.
</event>
<event>
 7    1  0.2732193E-010  0.4778727E+02  0.7816164E-02  0.1312668E+00
        -11   -1    0    0    0    0  0.00000000000E+00  0.00000000000E+00  0.45593999997E+02  0.45594000000E+02  0.51100000000E-03 0. -1.
         11   -1    0    0    0    0 -0.00000000000E+00 -0.00000000000E+00 -0.45593999997E+02  0.45594000000E+02  0.51100000000E-03 0.  1.
    9900012    2    1    2    0    0  0.10906445592E+02  0.13538528308E+02  0.39766584811E+02  0.47787267613E+02  0.19999984356E+02 0.  0.
        -12    1    1    2    0    0 -0.10906445592E+02 -0.13538528308E+02 -0.39766584811E+02  0.43400732387E+02  0.00000000000E+00 0.  1.
         11    1    3    3    0    0  0.43838794578E+01  0.10461537511E+02  0.23929750651E+02  0.26481977507E+02  0.51100000000E-03 0. -1.
        -11    1    3    3    0    0 -0.17425905801E+00  0.37663781217E+00 -0.20103423783E+01  0.20527296460E+01  0.51100000000E-03 0.  1.
         12    1    3    3    0    0  0.66968251921E+01  0.27003529839E+01  0.17847176538E+02  0.19252560460E+02  0.00000000000E+00 0. -1.
</event>
<event>
 7    1  0.2732193E-010  0.4778727E+02  0.7816164E-02  0.1312668E+00
        -11   -1    0    0    0    0  0.00000000000E+00  0.00000000000E+00  0.45593999997E+02  0.45594000000E+02  0.51100000000E-03 0. -1.
         11   -1    0    0    0    0 -0.00000000000E+00 -0.00000000000E+00 -0.45593999997E+02  0.45594000000E+02  0.51100000000E-03 0.  1.
    9900012    2    1    2    0    0 -0.92380841882E+00  0.78052078026E+01  0.42683117230E+02  0.47787272041E+02  0.20000004545E+02 0.  0.
        -12    1    1    2    0    0  0.92380841882E+00 -0.78052078026E+01 -0.42683117230E+02  0.43400727959E+02  0.00000000000E+00 0.  1.
         11    1    3    3    0    0  0.61857055072E+01  0.18648800867E+01  0.52358630027E+01  0.83159480520E+01  0.51100000000E-03 0. -1.
        -11    1    3    3    0    0  0.24379859986E+00  0.34614237291E+01  0.48521728797E+01  0.59652723245E+01  0.51100000000E-03 0.  1.
         12    1    3    3    0    0 -0.73533125259E+01  0.24789039868E+01  0.32595081348E+02  0.33506051665E+02  0.00000000000E+00 0. -1.
</event>
<event>
 7    1  0.2732193E-010  0.4778727E+02  0.7816164E-02  0.1312668E+00
        -11   -1    0    0    0    0  0.00000000000E+00  0.00000000000E+00  0.45593999997E+02  0.45594000000E+02  0.51100000000E-03 0. -1.
         11   -1    0    0    0    0 -0.00000000000E+00 -0.00000000000E+00 -0.45593999997E+02  0.45594000000E+02  0.51100000000E-03 0.  1.
    9900012    2    1    2    0    0 -0.37328753376E+02 -0.92134079629E+00  0.22120999459E+02  0.47787270576E+02  0.19999997863E+02 0.  0.
        -12    1    1    2    0    0  0.37328753376E+02  0.92134079629E+00 -0.22120999459E+02  0.43400729424E+02  0.00000000000E+00 0.  1.
         11    1    3    3    0    0 -0.14752254296E+02  0.48896993069E+01  0.14706763917E+02  0.21396893963E+02  0.51100000000E-03 0. -1.
        -11    1    3    3    0    0 -0.23216077654E+02 -0.49551172149E+01  0.81432846819E+01  0.25096863029E+02  0.51100000000E-03 0.  1.
         12    1    3    3    0    0  0.63957857352E+00 -0.85592288824E+00 -0.72904913924E+00  0.12935135831E+01  0.00000000000E+00 0. -1.
</event>
<event>
 7    1  0.2732193E-010  0.4778727E+02  0.7816164E-02  0.1312668E+00
        -11   -1    0    0    0    0  0.00000000000E+00  0.00000000000E+00  0.45593999997E+02  0.45594000000E+02  0.51100000000E-03 0.  1.
         11   -1    0    0    0    0 -0.00000000000E+00 -0.00000000000E+00 -0.45593999997E+02  0.45594000000E+02  0.51100000000E-03 0. -1.
    9900012    2    1    2    0    0 -0.11919490473E+02  0.15346401998E+02 -0.38807692112E+02  0.47787271038E+02  0.19999999970E+02 0.  0.
        -12    1    1    2    0    0  0.11919490473E+02 -0.15346401998E+02  0.38807692112E+02  0.43400728962E+02  0.00000000000E+00 0.  1.
         11    1    3    3    0    0 -0.49458962029E+01  0.66253073185E+01 -0.31515201231E+02  0.32581658877E+02  0.51100000000E-03 0. -1.
        -11    1    3    3    0    0 -0.57912620433E+01  0.44511968016E+01 -0.80346022266E+00  0.73482935169E+01  0.51100000000E-03 0.  1.
        -12    1    3    3    0    0 -0.11823322268E+01  0.42698978781E+01 -0.64890306579E+01  0.78573186434E+01  0.00000000000E+00 0.  1.
</event>
<event>
 7    1  0.2732193E-010  0.4778727E+02  0.7816164E-02  0.1312668E+00
        -11   -1    0    0    0    0  0.00000000000E+00  0.00000000000E+00  0.45593999997E+02  0.45594000000E+02  0.51100000000E-03 0.  1.
         11   -1    0    0    0    0 -0.00000000000E+00 -0.00000000000E+00 -0.45593999997E+02  0.45594000000E+02  0.51100000000E-03 0. -1.
    9900012    2    1    2    0    0 -0.57404405966E+01  0.23151911948E+02 -0.36258235679E+02  0.47787270286E+02  0.19999996544E+02 0.  0.
        -12    1    1    2    0    0  0.57404405966E+01 -0.23151911948E+02  0.36258235679E+02  0.43400729714E+02  0.00000000000E+00 0.  1.
         11    1    3    3    0    0 -0.30804141787E+00  0.24742283758E+01 -0.11551591575E+02  0.11817612438E+02  0.51100000000E-03 0. -1.
        -11    1    3    3    0    0  0.45393039478E+01  0.28788995860E+01 -0.29014144212E+01  0.61083180223E+01  0.51100000000E-03 0.  1.
        -12    1    3    3    0    0 -0.99717031265E+01  0.17798783987E+02 -0.21805229683E+02  0.29861339826E+02  0.00000000000E+00 0.  1.
</event>
<event>
 7    1  0.2732193E-010  0.4778727E+02  0.7816164E-02  0.1312668E+00
        -11   -1    0    0    0    0  0.00000000000E+00  0.00000000000E+00  0.45593999997E+02  0.45594000000E+02  0.51100000000E-03 0.  1.
         11   -1    0    0    0    0 -0.00000000000E+00 -0.00000000000E+00 -0.45593999997E+02  0.45594000000E+02  0.51100000000E-03 0. -1.
    9900012    2    1    2    0    0 -0.31525468593E+02 -0.29319102526E+02 -0.54916693387E+01  0.47787269879E+02  0.19999994686E+02 0.  0.
        -12    1    1    2    0    0  0.31525468593E+02  0.29319102526E+02  0.54916693387E+01  0.43400730121E+02  0.00000000000E+00 0.  1.
         11    1    3    3    0    0  0.19816894681E+01 -0.16083073571E+01  0.16895475665E+01  0.30607706453E+01  0.51100000000E-03 0. -1.
        -11    1    3    3    0    0 -0.27273364082E+02 -0.25156921511E+02 -0.41368969301E+01  0.37333912261E+02  0.51100000000E-03 0.  1.
        -12    1    3    3    0    0 -0.62337939790E+01 -0.25538736580E+01 -0.30443199750E+01  0.73925869724E+01  0.00000000000E+00 0.  1.
</event>
<event>
 7    1  0.2732193E-010  0.4778727E+02  0.7816164E-02  0.1312668E+00
        -11   -1    0    0    0    0  0.00000000000E+00  0.00000000000E+00  0.45593999997E+02  0.45594000000E+02  0.51100000000E-03 0.  1.
         11   -1    0    0    0    0 -0.00000000000E+00 -0.00000000000E+00 -0.45593999997E+02  0.45594000000E+02  0.51100000000E-03 0. -1.
    9900012    2    1    2    0    0  0.41976222772E+02  0.40882208737E+01 -0.10242385033E+02  0.47787270982E+02  0.19999999714E+02 0.  0.
        -12    1    1    2    0    0 -0.41976222772E+02 -0.40882208737E+01  0.10242385033E+02  0.43400729018E+02  0.00000000000E+00 0.  1.
         11    1    3    3    0    0  0.94016809374E+01  0.58035800160E+01  0.14997112168E+01  0.11149990110E+02  0.51100000000E-03 0. -1.
        -11    1    3    3    0    0  0.23160937642E+02 -0.25783267385E+01 -0.13630338586E+02  0.26997461574E+02  0.51100000000E-03 0.  1.
        -12    1    3    3    0    0  0.94136041931E+01  0.86296759616E+00  0.18882423362E+01  0.96398192979E+01  0.00000000000E+00 0.  1.
</event>
<event>
 7    1  0.2732193E-010  0.4778727E+02  0.7816164E-02  0.1312668E+00
        -11   -1    0    0    0    0  0.00000000000E+00  0.00000000000E+00  0.45593999997E+02  0.45594000000E+02  0.51100000000E-03 0. -1.
         11   -1    0    0    0    0 -0.00000000000E+00 -0.00000000000E+00 -0.45593999997E+02  0.45594000000E+02  0.51100000000E-03 0.  1.
    9900012    2    1    2    0    0  0.17695603728E+02 -0.18148486470E+02  0.35229554070E+02  0.47787269218E+02  0.19999991673E+02 0.  0.
        -12    1    1    2    0    0 -0.17695603728E+02  0.18148486470E+02 -0.35229554070E+02  0.43400730782E+02  0.00000000000E+00 0.  1.
         11    1    3    3    0    0  0.51896490302E+01 -0.12311651570E+02  0.72175786758E+01  0.15185607121E+02  0.51100000000E-03 0. -1.
        -11    1    3    3    0    0  0.59046051245E+01 -0.49574552635E+01  0.65056701056E+01  0.10087837635E+02  0.51100000000E-03 0.  1.
         12    1    3    3    0    0  0.66013495729E+01 -0.87937963610E+00  0.21506305289E+02  0.22513824462E+02  0.00000000000E+00 0. -1.
</event>
<event>
 7    1  0.2732193E-010  0.4778728E+02  0.7816164E-02  0.1312668E+00
        -11   -1    0    0    0    0  0.00000000000E+00  0.00000000000E+00  0.45593999997E+02  0.45594000000E+02  0.51100000000E-03 0. -1.
         11   -1    0    0    0    0 -0.00000000000E+00 -0.00000000000E+00 -0.45593999997E+02  0.45594000000E+02  0.51100000000E-03 0.  1.
    9900012    2    1    2    0    0  0.30188039587E+02 -0.18672970276E+00  0.31181247844E+02  0.47787276283E+02  0.20000023883E+02 0.  0.
        -12    1    1    2    0    0 -0.30188039587E+02  0.18672970276E+00 -0.31181247844E+02  0.43400723717E+02  0.00000000000E+00 0.  1.
         11    1    3    3    0    0  0.72427347295E+01 -0.75105266208E+00  0.18693057304E+02  0.20061198321E+02  0.51100000000E-03 0. -1.
        -11    1    3    3    0    0  0.59170628789E+01 -0.39216841041E+01  0.28290272980E+01  0.76416382431E+01  0.51100000000E-03 0.  1.
         12    1    3    3    0    0  0.17028241979E+02  0.44860070634E+01  0.96591632419E+01  0.20084439718E+02  0.00000000000E+00 0. -1.
</event>
<event>
 7    1  0.2732193E-010  0.4778727E+02  0.7816164E-02  0.1312668E+00
        -11   -1    0    0    0    0  0.00000000000E+00  0.00000000000E+00  0.45593999997E+02  0.45594000000E+02  0.51100000000E-03 0.  1.
         11   -1    0    0    0    0 -0.00000000000E+00 -0.00000000000E+00 -0.45593999997E+02  0.45594000000E+02  0.51100000000E-03 0. -1.
    9900012    2    1    2    0    0 -0.88476231173E+01  0.39370154285E+01 -0.42306535742E+02  0.47787268534E+02  0.19999988554E+02 0.  0.
        -12    1    1    2    0    0  0.88476231173E+01 -0.39370154285E+01  0.42306535742E+02  0.43400731466E+02  0.00000000000E+00 0.  1.
         11    1    3    3    0    0 -0.10214741220E+02  0.40140866502E+01 -0.31587927467E+02  0.33440260043E+02  0.51100000000E-03 0. -1.
        -11    1    3    3    0    0  0.20806137486E+01 -0.37213774924E+01 -0.95426200714E+01  0.10451755934E+02  0.51100000000E-03 0.  1.
        -12    1    3    3    0    0 -0.71349564616E+00  0.36443062707E+01 -0.11759882038E+01  0.38952525576E+01  0.00000000000E+00 0.  1.
</event>
<event>
 7    1  0.2732193E-010  0.4778727E+02  0.7816164E-02  0.1312668E+00
        -11   -1    0    0    0    0  0.00000000000E+00  0.00000000000E+00  0.45593999997E+02  0.45594000000E+02  0.51100000000E-03 0.  1.
         11   -1    0    0    0    0 -0.00000000000E+00 -0.00000000000E+00 -0.45593999997E+02  0.45594000000E+02  0.51100000000E-03 0. -1.
    9900012    2    1    2    0    0  0.35947732057E+02 -0.47083242958E+01 -0.23858234278E+02  0.47787273041E+02  0.20000009103E+02 0.  0.
        -12    1    1    2    0    0 -0.35947732057E+02  0.47083242958E+01  0.23858234278E+02  0.43400726959E+02  0.00000000000E+00 0.  1.
         11    1    3    3    0    0  0.19459182176E+02 -0.79370359561E+01 -0.19033027803E+02  0.28353350037E+02  0.51100000000E-03 0. -1.
        -11    1    3    3    0    0  0.75080473627E+01  0.48153444874E+01 -0.51667589182E+01  0.10307944301E+02  0.51100000000E-03 0.  1.
         12    1    3    3    0    0  0.89805025181E+01 -0.15866328271E+01  0.34155244313E+00  0.91259787024E+01  0.00000000000E+00 0. -1.
</event>
<event>
 7    1  0.2732193E-010  0.4778728E+02  0.7816164E-02  0.1312668E+00
        -11   -1    0    0    0    0  0.00000000000E+00  0.00000000000E+00  0.45593999997E+02  0.45594000000E+02  0.51100000000E-03 0.  1.
         11   -1    0    0    0    0 -0.00000000000E+00 -0.00000000000E+00 -0.45593999997E+02  0.45594000000E+02  0.51100000000E-03 0. -1.
    9900012    2    1    2    0    0  0.32421151997E+02  0.28839382559E+02 -0.88416981465E+00  0.47787276050E+02  0.20000022821E+02 0.  0.
        -12    1    1    2    0    0 -0.32421151997E+02 -0.28839382559E+02  0.88416981465E+00  0.43400723950E+02  0.00000000000E+00 0.  1.
         11    1    3    3    0    0  0.15368462930E+02  0.11906040870E+02 -0.91033144784E+01  0.21466573941E+02  0.51100000000E-03 0. -1.
        -11    1    3    3    0    0  0.38606311850E+01  0.82880071228E+01  0.40931146692E+01  0.10017440949E+02  0.51100000000E-03 0.  1.
         12    1    3    3    0    0  0.13192057882E+02  0.86453345661E+01  0.41260299946E+01  0.16303261159E+02  0.00000000000E+00 0. -1.
</event>
<event>
 7    1  0.2732193E-010  0.4778727E+02  0.7816164E-02  0.1312668E+00
        -11   -1    0    0    0    0  0.00000000000E+00  0.00000000000E+00  0.45593999997E+02  0.45594000000E+02  0.51100000000E-03 0.  1.
         11   -1    0    0    0    0 -0.00000000000E+00 -0.00000000000E+00 -0.45593999997E+02  0.45594000000E+02  0.51100000000E-03 0. -1.
    9900012    2    1    2    0    0 -0.32967574279E+02 -0.35344155669E+01 -0.28004824564E+02  0.47787271364E+02  0.20000001458E+02 0.  0.
        -12    1    1    2    0    0  0.32967574279E+02  0.35344155669E+01  0.28004824564E+02  0.43400728636E+02  0.00000000000E+00 0.  1.
         11    1    3    3    0    0 -0.29352978825E+02 -0.45514545836E+01 -0.20926523383E+02  0.36335003590E+02  0.51100000000E-03 0. -1.
        -11    1    3    3    0    0 -0.12191434741E+01  0.20575860682E+01 -0.82500823680E+01  0.85897514852E+01  0.51100000000E-03 0.  1.
         12    1    3    3    0    0 -0.23954519795E+01 -0.10405470515E+01  0.11717811869E+01  0.28625162885E+01  0.00000000000E+00 0. -1.
</event>
<event>
 7    1  0.2732193E-010  0.4778727E+02  0.7816164E-02  0.1312668E+00
        -11   -1    0    0    0    0  0.00000000000E+00  0.00000000000E+00  0.45593999997E+02  0.45594000000E+02  0.51100000000E-03 0.  1.
         11   -1    0    0    0    0 -0.00000000000E+00 -0.00000000000E+00 -0.45593999997E+02  0.45594000000E+02  0.51100000000E-03 0. -1.
    9900012    2    1    2    0    0 -0.36847458238E+02  0.12689694925E+01 -0.22897115894E+02  0.47787269840E+02  0.19999994508E+02 0.  0.
        -12    1    1    2    0    0  0.36847458238E+02 -0.12689694925E+01  0.22897115894E+02  0.43400730160E+02  0.00000000000E+00 0.  1.
         11    1    3    3    0    0 -0.74640837037E+01 -0.38003247517E+01 -0.11563883547E+02  0.14278599956E+02  0.51100000000E-03 0. -1.
        -11    1    3    3    0    0 -0.65959575493E+01  0.57149469790E+01 -0.27619426686E+01  0.91539938023E+01  0.51100000000E-03 0.  1.
         12    1    3    3    0    0 -0.22787416985E+02 -0.64565273481E+00 -0.85712896787E+01  0.24354676082E+02  0.00000000000E+00 0. -1.
</event>
<event>
 7    1  0.2732193E-010  0.4778727E+02  0.7816164E-02  0.1312668E+00
        -11   -1    0    0    0    0  0.00000000000E+00  0.00000000000E+00  0.45593999997E+02  0.45594000000E+02  0.51100000000E-03 0. -1.
         11   -1    0    0    0    0 -0.00000000000E+00 -0.00000000000E+00 -0.45593999997E+02  0.45594000000E+02  0.51100000000E-03 0.  1.
    9900012    2    1    2    0    0 -0.38291009200E+02  0.16581522543E+02  0.11936284234E+02  0.47787272394E+02  0.20000006155E+02 0.  0.
        -12    1    1    2    0    0  0.38291009200E+02 -0.16581522543E+02 -0.11936284234E+02  0.43400727606E+02  0.00000000000E+00 0.  1.
         11    1    3    3    0    0 -0.97867992428E+01  0.13566896614E-02  0.10963372122E+00  0.97874134006E+01  0.51100000000E-03 0. -1.
        -11    1    3    3    0    0 -0.18272722624E+02  0.13973063773E+02  0.14391982485E+02  0.27134259957E+02  0.51100000000E-03 0.  1.
        -12    1    3    3    0    0 -0.10231487333E+02  0.26071020799E+01 -0.25653319727E+01  0.10865599037E+02  0.00000000000E+00 0.  1.
</event>
<event>
 7    1  0.2732193E-010  0.4778727E+02  0.7816164E-02  0.1312668E+00
        -11   -1    0    0    0    0  0.00000000000E+00  0.00000000000E+00  0.45593999997E+02  0.45594000000E+02  0.51100000000E-03 0.  1.
         11   -1    0    0    0    0 -0.00000000000E+00 -0.00000000000E+00 -0.45593999997E+02  0.45594000000E+02  0.51100000000E-03 0. -1.
    9900012    2    1    2    0    0 -0.41813275965E+02  0.11189065710E+02  0.31746093392E+01  0.47787269789E+02  0.19999994276E+02 0.  0.
        -12    1    1    2    0    0  0.41813275965E+02 -0.11189065710E+02 -0.31746093392E+01  0.43400730211E+02  0.00000000000E+00 0.  1.
         11    1    3    3    0    0 -0.91690303907E+01 -0.33492043788E+01 -0.28056250187E+01  0.10156762293E+02  0.51100000000E-03 0. -1.
        -11    1    3    3    0    0 -0.52361485282E+01  0.49386074280E+01 -0.20797305431E+01  0.74921541716E+01  0.51100000000E-03 0.  1.
         12    1    3    3    0    0 -0.27408097046E+02  0.95996626609E+01  0.80599649011E+01  0.30138353324E+02  0.00000000000E+00 0. -1.
</event>
<event>
 7    1  0.2732193E-010  0.4778727E+02  0.7816164E-02  0.1312668E+00
        -11   -1    0    0    0    0  0.00000000000E+00  0.00000000000E+00  0.45593999997E+02  0.45594000000E+02  0.51100000000E-03 0. -1.
         11   -1    0    0    0    0 -0.00000000000E+00 -0.00000000000E+00 -0.45593999997E+02  0.45594000000E+02  0.51100000000E-03 0.  1.
    9900012    2    1    2    0    0  0.87871802669E+01 -0.42416005140E+02  0.27002303047E+01  0.47787271057E+02  0.20000000059E+02 0.  0.
        -12    1    1    2    0    0 -0.87871802669E+01  0.42416005140E+02 -0.27002303047E+01  0.43400728943E+02  0.00000000000E+00 0.  1.
         11    1    3    3    0    0  0.50277978994E+01 -0.40632819632E+02  0.21809453110E+01  0.41000747623E+02  0.51100000000E-03 0. -1.
        -11    1    3    3    0    0  0.13394829552E+01  0.74000226624E+00 -0.19701881555E+01  0.24946862670E+01  0.51100000000E-03 0.  1.
        -12    1    3    3    0    0  0.24198994123E+01 -0.25231877740E+01  0.24894731493E+01  0.42918371672E+01  0.00000000000E+00 0.  1.
</event>
<event>
 7    1  0.2732193E-010  0.4778725E+02  0.7816164E-02  0.1312668E+00
        -11   -1    0    0    0    0  0.00000000000E+00  0.00000000000E+00  0.45593999997E+02  0.45594000000E+02  0.51100000000E-03 0. -1.
         11   -1    0    0    0    0 -0.00000000000E+00 -0.00000000000E+00 -0.45593999997E+02  0.45594000000E+02  0.51100000000E-03 0.  1.
    9900012    2    1    2    0    0 -0.35292661634E+01  0.30489109301E+02  0.30685228925E+02  0.47787253696E+02  0.19999920899E+02 0.  0.
        -12    1    1    2    0    0  0.35292661634E+01 -0.30489109301E+02 -0.30685228925E+02  0.43400746304E+02  0.00000000000E+00 0.  1.
         11    1    3    3    0    0 -0.11198005576E+01  0.10394915057E+02  0.16451594508E+01  0.10583702670E+02  0.51100000000E-03 0. -1.
        -11    1    3    3    0    0 -0.56851044550E+01  0.43101794235E+01  0.89376676664E+01  0.11435906737E+02  0.51100000000E-03 0.  1.
         12    1    3    3    0    0  0.32756388492E+01  0.15784014820E+02  0.20102401807E+02  0.25767644288E+02  0.00000000000E+00 0. -1.
</event>
<event>
 7    1  0.2732193E-010  0.4778726E+02  0.7816164E-02  0.1312668E+00
        -11   -1    0    0    0    0  0.00000000000E+00  0.00000000000E+00  0.45593999997E+02  0.45594000000E+02  0.51100000000E-03 0.  1.
         11   -1    0    0    0    0 -0.00000000000E+00 -0.00000000000E+00 -0.45593999997E+02  0.45594000000E+02  0.51100000000E-03 0. -1.
    9900012    2    1    2    0    0  0.25105489835E+02 -0.33897848897E+02  0.10211477007E+02  0.47787262191E+02  0.19999959636E+02 0.  0.
        -12    1    1    2    0    0 -0.25105489835E+02  0.33897848897E+02 -0.10211477007E+02  0.43400737809E+02  0.00000000000E+00 0.  1.
         11    1    3    3    0    0  0.16900550594E+02 -0.11435898833E+02  0.11569186201E+02  0.23457503322E+02  0.51100000000E-03 0. -1.
        -11    1    3    3    0    0  0.26265011917E+01 -0.75738488818E+01 -0.24803311662E+01  0.83912894331E+01  0.51100000000E-03 0.  1.
         12    1    3    3    0    0  0.55784380492E+01 -0.14888101182E+02  0.11226219719E+01  0.15938469436E+02  0.00000000000E+00 0. -1.
</event>
<event>
 7    1  0.2732193E-010  0.4778726E+02  0.7816164E-02  0.1312668E+00
        -11   -1    0    0    0    0  0.00000000000E+00  0.00000000000E+00  0.45593999997E+02  0.45594000000E+02  0.51100000000E-03 0.  1.
         11   -1    0    0    0    0 -0.00000000000E+00 -0.00000000000E+00 -0.45593999997E+02  0.45594000000E+02  0.51100000000E-03 0. -1.
    9900012    2    1    2    0    0  0.23740692234E+01  0.32070008707E+02 -0.29146230381E+02  0.47787257972E+02  0.19999940399E+02 0.  0.
        -12    1    1    2    0    0 -0.23740692234E+01 -0.32070008707E+02  0.29146230381E+02  0.43400742028E+02  0.00000000000E+00 0.  1.
         11    1    3    3    0    0 -0.32827978303E+01  0.21802125198E+02 -0.11804645442E+02  0.25009179895E+02  0.51100000000E-03 0. -1.
        -11    1    3    3    0    0  0.67356692514E+01  0.40434543701E+01 -0.63546107277E+01  0.10104446609E+02  0.51100000000E-03 0.  1.
        -12    1    3    3    0    0 -0.10788021977E+01  0.62244291382E+01 -0.10986974211E+02  0.12673631468E+02  0.00000000000E+00 0.  1.
</event>
<event>
 7    1  0.2732193E-010  0.4778727E+02  0.7816164E-02  0.1312668E+00
        -11   -1    0    0    0    0  0.00000000000E+00  0.00000000000E+00  0.45593999997E+02  0.45594000000E+02  0.51100000000E-03 0.  1.
         11   -1    0    0    0    0 -0.00000000000E+00 -0.00000000000E+00 -0.45593999997E+02  0.45594000000E+02  0.51100000000E-03 0. -1.
    9900012    2    1    2    0    0 -0.23843855636E+02 -0.21547478872E+02 -0.29168476522E+02  0.47787270514E+02  0.19999997583E+02 0.  0.
        -12    1    1    2    0    0  0.23843855636E+02  0.21547478872E+02  0.29168476522E+02  0.43400729486E+02  0.00000000000E+00 0.  1.
         11    1    3    3    0    0 -0.11110970688E+02 -0.21133617273E+02 -0.20329275570E+02  0.31358617542E+02  0.51100000000E-03 0. -1.
        -11    1    3    3    0    0 -0.19973619860E+01  0.16666145364E+01 -0.43613359552E+00  0.26376640594E+01  0.51100000000E-03 0.  1.
         12    1    3    3    0    0 -0.10735522962E+02 -0.20804761355E+01 -0.84030673558E+01  0.13790988913E+02  0.00000000000E+00 0. -1.
</event>
<event>
 7    1  0.2732193E-010  0.4778727E+02  0.7816164E-02  0.1312668E+00
        -11   -1    0    0    0    0  0.00000000000E+00  0.00000000000E+00  0.45593999997E+02  0.45594000000E+02  0.51100000000E-03 0.  1.
         11   -1    0    0    0    0 -0.00000000000E+00 -0.00000000000E+00 -0.45593999997E+02  0.45594000000E+02  0.51100000000E-03 0. -1.
    9900012    2    1    2    0    0 -0.23033749015E+02 -0.11805480534E+02 -0.34838200381E+02  0.47787272240E+02  0.20000005450E+02 0.  0.
        -12    1    1    2    0    0  0.23033749015E+02  0.11805480534E+02  0.34838200381E+02  0.43400727760E+02  0.00000000000E+00 0.  1.
         11    1    3    3    0    0  0.25972628647E+01 -0.26058094070E+01 -0.48789622416E+01  0.61106701654E+01  0.51100000000E-03 0.  1.
        -11    1    3    3    0    0 -0.20420744694E+02 -0.30482003352E+01 -0.18901241485E+02  0.27992057250E+02  0.51100000000E-03 0. -1.
         12    1    3    3    0    0 -0.52102671858E+01 -0.61514707916E+01 -0.11057996655E+02  0.13684544825E+02  0.00000000000E+00 0. -1.
</event>
<event>
 7    1  0.2732193E-010  0.4778727E+02  0.7816164E-02  0.1312668E+00
        -11   -1    0    0    0    0  0.00000000000E+00  0.00000000000E+00  0.45593999997E+02  0.45594000000E+02  0.51100000000E-03 0.  1.
         11   -1    0    0    0    0 -0.00000000000E+00 -0.00000000000E+00 -0.45593999997E+02  0.45594000000E+02  0.51100000000E-03 0. -1.
    9900012    2    1    2    0    0 -0.35513523722E+01 -0.17930171453E+02 -0.39363943468E+02  0.47787271927E+02  0.20000004022E+02 0.  0.
        -12    1    1    2    0    0  0.35513523722E+01  0.17930171453E+02  0.39363943468E+02  0.43400728073E+02  0.00000000000E+00 0.  1.
         11    1    3    3    0    0 -0.10214656206E+01 -0.14118711232E+02 -0.22793021794E+02  0.26831012684E+02  0.51100000000E-03 0. -1.
        -11    1    3    3    0    0 -0.49776208994E+01  0.75884720000E+00 -0.14541748968E+02  0.15388795346E+02  0.51100000000E-03 0.  1.
        -12    1    3    3    0    0  0.24477341478E+01 -0.45703074206E+01 -0.20291727060E+01  0.55674638973E+01  0.00000000000E+00 0.  1.
</event>
<event>
 7    1  0.2732193E-010  0.4778727E+02  0.7816164E-02  0.1312668E+00
        -11   -1    0    0    0    0  0.00000000000E+00  0.00000000000E+00  0.45593999997E+02  0.45594000000E+02  0.51100000000E-03 0.  1.
         11   -1    0    0    0    0 -0.00000000000E+00 -0.00000000000E+00 -0.45593999997E+02  0.45594000000E+02  0.51100000000E-03 0. -1.
    9900012    2    1    2    0    0 -0.69094208536E+01  0.12209419804E+02 -0.41070834686E+02  0.47787268551E+02  0.19999988632E+02 0.  0.
        -12    1    1    2    0    0  0.69094208536E+01 -0.12209419804E+02  0.41070834686E+02  0.43400731449E+02  0.00000000000E+00 0.  1.
         11    1    3    3    0    0 -0.99278279742E+01  0.94738279955E+01 -0.20276968016E+02  0.24484089065E+02  0.51100000000E-03 0. -1.
        -11    1    3    3    0    0  0.41950910160E+01  0.47047509572E+01 -0.74289726298E+01  0.97428489056E+01  0.51100000000E-03 0.  1.
         12    1    3    3    0    0 -0.11766838953E+01 -0.19691591486E+01 -0.13364894040E+02  0.13560330580E+02  0.00000000000E+00 0. -1.
</event>
<event>
 7    1  0.2732193E-010  0.4778727E+02  0.7816164E-02  0.1312668E+00
        -11   -1    0    0    0    0  0.00000000000E+00  0.00000000000E+00  0.45593999997E+02  0.45594000000E+02  0.51100000000E-03 0.  1.
         11   -1    0    0    0    0 -0.00000000000E+00 -0.00000000000E+00 -0.45593999997E+02  0.45594000000E+02  0.51100000000E-03 0. -1.
    9900012    2    1    2    0    0 -0.38954111460E+01 -0.40493190691E+02 -0.15124500908E+02  0.47787271342E+02  0.20000001359E+02 0.  0.
        -12    1    1    2    0    0  0.38954111460E+01  0.40493190691E+02  0.15124500908E+02  0.43400728658E+02  0.00000000000E+00 0.  1.
         11    1    3    3    0    0 -0.39882713242E+01 -0.34483292332E+01 -0.19619265461E+01  0.56255167487E+01  0.51100000000E-03 0. -1.
        -11    1    3    3    0    0  0.63062273662E+01 -0.11963882475E+02 -0.83031586794E+01  0.15869638679E+02  0.51100000000E-03 0.  1.
        -12    1    3    3    0    0 -0.62133671880E+01 -0.25080978982E+02 -0.48594156823E+01  0.26292115915E+02  0.00000000000E+00 0.  1.
</event>
<event>
 7    1  0.2732193E-010  0.4778727E+02  0.7816164E-02  0.1312668E+00
        -11   -1    0    0    0    0  0.00000000000E+00  0.00000000000E+00  0.45593999997E+02  0.45594000000E+02  0.51100000000E-03 0.  1.
         11   -1    0    0    0    0 -0.00000000000E+00 -0.00000000000E+00 -0.45593999997E+02  0.45594000000E+02  0.51100000000E-03 0. -1.
    9900012    2    1    2    0    0 -0.40534825249E+02  0.66224990191E+00 -0.15495562229E+02  0.47787273259E+02  0.20000010096E+02 0.  0.
        -12    1    1    2    0    0  0.40534825249E+02 -0.66224990191E+00  0.15495562229E+02  0.43400726741E+02  0.00000000000E+00 0.  1.
         11    1    3    3    0    0 -0.27460593646E+02  0.98483360634E+00 -0.14811040901E+02  0.31215717731E+02  0.51100000000E-03 0. -1.
        -11    1    3    3    0    0 -0.11793053110E+01 -0.31541097053E+01  0.21822934683E+01  0.40126766743E+01  0.51100000000E-03 0.  1.
        -12    1    3    3    0    0 -0.11894926292E+02  0.28315260009E+01 -0.28668147958E+01  0.12558878853E+02  0.00000000000E+00 0.  1.
</event>
<event>
 7    1  0.2732193E-010  0.4778727E+02  0.7816164E-02  0.1312668E+00
        -11   -1    0    0    0    0  0.00000000000E+00  0.00000000000E+00  0.45593999997E+02  0.45594000000E+02  0.51100000000E-03 0.  1.
         11   -1    0    0    0    0 -0.00000000000E+00 -0.00000000000E+00 -0.45593999997E+02  0.45594000000E+02  0.51100000000E-03 0. -1.
    9900012    2    1    2    0    0  0.29190887378E+02  0.20795192849E+02 -0.24476017579E+02  0.47787269729E+02  0.19999994001E+02 0.  0.
        -12    1    1    2    0    0 -0.29190887378E+02 -0.20795192849E+02  0.24476017579E+02  0.43400730271E+02  0.00000000000E+00 0.  1.
         11    1    3    3    0    0  0.22421588389E+02  0.15352833574E+02 -0.14787535533E+02  0.30937167486E+02  0.51100000000E-03 0. -1.
        -11    1    3    3    0    0 -0.13799919775E+00 -0.92833656016E+00 -0.70192504459E+01  0.70817179858E+01  0.51100000000E-03 0.  1.
        -12    1    3    3    0    0  0.69072981862E+01  0.63706958348E+01 -0.26692316009E+01  0.97683842570E+01  0.00000000000E+00 0.  1.
</event>
<event>
 7    1  0.2732193E-010  0.4778727E+02  0.7816164E-02  0.1312668E+00
        -11   -1    0    0    0    0  0.00000000000E+00  0.00000000000E+00  0.45593999997E+02  0.45594000000E+02  0.51100000000E-03 0.  1.
         11   -1    0    0    0    0 -0.00000000000E+00 -0.00000000000E+00 -0.45593999997E+02  0.45594000000E+02  0.51100000000E-03 0. -1.
    9900012    2    1    2    0    0 -0.19854161269E+02 -0.16235618219E+02 -0.35012001161E+02  0.47787271389E+02  0.20000001569E+02 0.  0.
        -12    1    1    2    0    0  0.19854161269E+02  0.16235618219E+02  0.35012001161E+02  0.43400728611E+02  0.00000000000E+00 0.  1.
         11    1    3    3    0    0  0.34942309081E+00 -0.19932983465E+01 -0.13784226528E+02  0.13931986076E+02  0.51100000000E-03 0. -1.
        -11    1    3    3    0    0 -0.11643395178E+02 -0.78855795068E+01 -0.60545025528E+01  0.15310389180E+02  0.51100000000E-03 0.  1.
         12    1    3    3    0    0 -0.85601891823E+01 -0.63567403660E+01 -0.15173272081E+02  0.18544896132E+02  0.00000000000E+00 0. -1.
</event>
<event>
 7    1  0.2732193E-010  0.4778727E+02  0.7816164E-02  0.1312668E+00
        -11   -1    0    0    0    0  0.00000000000E+00  0.00000000000E+00  0.45593999997E+02  0.45594000000E+02  0.51100000000E-03 0. -1.
         11   -1    0    0    0    0 -0.00000000000E+00 -0.00000000000E+00 -0.45593999997E+02  0.45594000000E+02  0.51100000000E-03 0.  1.
    9900012    2    1    2    0    0  0.32947174655E+02  0.74201938701E+01 -0.27258898603E+02  0.47787272496E+02  0.20000006618E+02 0.  0.
        -12    1    1    2    0    0 -0.32947174655E+02 -0.74201938701E+01  0.27258898603E+02  0.43400727504E+02  0.00000000000E+00 0.  1.
         11    1    3    3    0    0  0.20830457234E+02 -0.12556711281E+01 -0.23710669689E+02  0.31586081047E+02  0.51100000000E-03 0. -1.
        -11    1    3    3    0    0  0.69691386586E+01  0.46115047345E+01  0.70135607007E+00  0.83861057802E+01  0.51100000000E-03 0.  1.
         12    1    3    3    0    0  0.51475787623E+01  0.40643602637E+01 -0.42495849844E+01  0.78150856686E+01  0.00000000000E+00 0. -1.
</event>
<event>
 7    1  0.2732193E-010  0.4778730E+02  0.7816164E-02  0.1312668E+00
        -11   -1    0    0    0    0  0.00000000000E+00  0.00000000000E+00  0.45593999997E+02  0.45594000000E+02  0.51100000000E-03 0.  1.
         11   -1    0    0    0    0 -0.00000000000E+00 -0.00000000000E+00 -0.45593999997E+02  0.45594000000E+02  0.51100000000E-03 0. -1.
    9900012    2    1    2    0    0  0.11347032751E+02 -0.22545666616E+02 -0.35306641627E+02  0.47787295186E+02  0.20000110070E+02 0.  0.
        -12    1    1    2    0    0 -0.11347032751E+02  0.22545666616E+02  0.35306641627E+02  0.43400704814E+02  0.00000000000E+00 0.  1.
         11    1    3    3    0    0  0.12008609931E+02 -0.12612142187E+02 -0.14008788286E+02  0.22349921533E+02  0.51100000000E-03 0. -1.
        -11    1    3    3    0    0 -0.48551645900E+01 -0.46042678085E+01 -0.74208769043E+01  0.99920628269E+01  0.51100000000E-03 0.  1.
         12    1    3    3    0    0  0.41935874092E+01 -0.53292566204E+01 -0.13876976437E+02  0.15445310826E+02  0.00000000000E+00 0. -1.
</event>
<event>
 7    1  0.2732193E-010  0.4778727E+02  0.7816164E-02  0.1312668E+00
        -11   -1    0    0    0    0  0.00000000000E+00  0.00000000000E+00  0.45593999997E+02  0.45594000000E+02  0.51100000000E-03 0.  1.
         11   -1    0    0    0    0 -0.00000000000E+00 -0.00000000000E+00 -0.45593999997E+02  0.45594000000E+02  0.51100000000E-03 0. -1.
    9900012    2    1    2    0    0  0.22120147086E+02 -0.27539818148E+01 -0.37238929460E+02  0.47787272008E+02  0.20000004392E+02 0.  0.
        -12    1    1    2    0    0 -0.22120147086E+02  0.27539818148E+01  0.37238929460E+02  0.43400727992E+02  0.00000000000E+00 0.  1.
         11    1    3    3    0    0  0.51702712397E+01  0.80206651108E+00 -0.15279870021E+02  0.16150834143E+02  0.51100000000E-03 0. -1.
        -11    1    3    3    0    0 -0.53078405837E+00  0.24665543806E+01  0.47284292028E+00  0.25669442762E+01  0.51100000000E-03 0.  1.
        -12    1    3    3    0    0  0.17480659904E+02 -0.60226027065E+01 -0.22431902360E+02  0.29069493589E+02  0.00000000000E+00 0.  1.
</event>
<event>
 7    1  0.2732193E-010  0.4778727E+02  0.7816164E-02  0.1312668E+00
        -11   -1    0    0    0    0  0.00000000000E+00  0.00000000000E+00  0.45593999997E+02  0.45594000000E+02  0.51100000000E-03 0.  1.
         11   -1    0    0    0    0 -0.00000000000E+00 -0.00000000000E+00 -0.45593999997E+02  0.45594000000E+02  0.51100000000E-03 0. -1.
    9900012    2    1    2    0    0  0.14164795938E+02 -0.40823697781E+02 -0.40506119216E+01  0.47787271879E+02  0.20000003805E+02 0.  0.
        -12    1    1    2    0    0 -0.14164795938E+02  0.40823697781E+02  0.40506119216E+01  0.43400728121E+02  0.00000000000E+00 0.  1.
         11    1    3    3    0    0  0.22182712527E+01 -0.47300053932E+01 -0.37931497175E+01  0.64561337820E+01  0.51100000000E-03 0. -1.
        -11    1    3    3    0    0  0.11915730026E+01 -0.25617489215E+02 -0.37456232593E+01  0.25917277900E+02  0.51100000000E-03 0.  1.
        -12    1    3    3    0    0  0.10754951683E+02 -0.10476203173E+02  0.34881610552E+01  0.15413860197E+02  0.00000000000E+00 0.  1.
</event>
<event>
 7    1  0.2732193E-010  0.4778727E+02  0.7816164E-02  0.1312668E+00
        -11   -1    0    0    0    0  0.00000000000E+00  0.00000000000E+00  0.45593999997E+02  0.45594000000E+02  0.51100000000E-03 0.  1.
         11   -1    0    0    0    0 -0.00000000000E+00 -0.00000000000E+00 -0.45593999997E+02  0.45594000000E+02  0.51100000000E-03 0. -1.
    9900012    2    1    2    0    0  0.33264138853E+02  0.12401139399E+02 -0.24966624294E+02  0.47787268201E+02  0.19999987038E+02 0.  0.
        -12    1    1    2    0    0 -0.33264138853E+02 -0.12401139399E+02  0.24966624294E+02  0.43400731799E+02  0.00000000000E+00 0.  1.
         11    1    3    3    0    0  0.98098228929E+01  0.11790612516E+02 -0.16381651568E+02  0.22441249454E+02  0.51100000000E-03 0. -1.
        -11    1    3    3    0    0  0.18818240662E+02  0.21756463047E+01 -0.65079225437E+01  0.20030293920E+02  0.51100000000E-03 0.  1.
         12    1    3    3    0    0  0.46360752986E+01 -0.15651194220E+01 -0.20770501817E+01  0.53157248270E+01  0.00000000000E+00 0. -1.
</event>
<event>
 7    1  0.2732193E-010  0.4778726E+02  0.7816164E-02  0.1312668E+00
        -11   -1    0    0    0    0  0.00000000000E+00  0.00000000000E+00  0.45593999997E+02  0.45594000000E+02  0.51100000000E-03 0. -1.
         11   -1    0    0    0    0 -0.00000000000E+00 -0.00000000000E+00 -0.45593999997E+02  0.45594000000E+02  0.51100000000E-03 0.  1.
    9900012    2    1    2    0    0  0.23009246057E+02  0.36785607648E+02  0.10089771530E+01  0.47787258428E+02  0.19999942475E+02 0.  0.
        -12    1    1    2    0    0 -0.23009246057E+02 -0.36785607648E+02 -0.10089771530E+01  0.43400741572E+02  0.00000000000E+00 0.  1.
         11    1    3    3    0    0  0.14530811544E+02  0.18290363902E+02 -0.84156257858E+01  0.24829511744E+02  0.51100000000E-03 0. -1.
        -11    1    3    3    0    0  0.86558324645E+01  0.14823195266E+02  0.85589211258E+01  0.19180867671E+02  0.51100000000E-03 0.  1.
         12    1    3    3    0    0 -0.17739795169E+00  0.36720484801E+01  0.86568181304E+00  0.37768790125E+01  0.00000000000E+00 0. -1.
</event>
<event>
 7    1  0.2732193E-010  0.4778730E+02  0.7816164E-02  0.1312668E+00
        -11   -1    0    0    0    0  0.00000000000E+00  0.00000000000E+00  0.45593999997E+02  0.45594000000E+02  0.51100000000E-03 0.  1.
         11   -1    0    0    0    0 -0.00000000000E+00 -0.00000000000E+00 -0.45593999997E+02  0.45594000000E+02  0.51100000000E-03 0. -1.
    9900012    2    1    2    0    0 -0.29756366236E+02 -0.79402906009E+01 -0.30579911766E+02  0.47787302425E+02  0.20000143076E+02 0.  0.
        -12    1    1    2    0    0  0.29756366236E+02  0.79402906009E+01  0.30579911766E+02  0.43400697575E+02  0.00000000000E+00 0.  1.
         11    1    3    3    0    0  0.57810258100E+00 -0.43785235139E+01 -0.38481182862E+01  0.58577884360E+01  0.51100000000E-03 0. -1.
        -11    1    3    3    0    0 -0.23469614015E+02 -0.38620874847E+00 -0.14631135017E+02  0.27659393546E+02  0.51100000000E-03 0.  1.
         12    1    3    3    0    0 -0.68648548023E+01 -0.31755583386E+01 -0.12100658462E+02  0.14270120442E+02  0.00000000000E+00 0. -1.
</event>
<event>
 7    1  0.2732193E-010  0.4778730E+02  0.7816164E-02  0.1312668E+00
        -11   -1    0    0    0    0  0.00000000000E+00  0.00000000000E+00  0.45593999997E+02  0.45594000000E+02  0.51100000000E-03 0.  1.
         11   -1    0    0    0    0 -0.00000000000E+00 -0.00000000000E+00 -0.45593999997E+02  0.45594000000E+02  0.51100000000E-03 0. -1.
    9900012    2    1    2    0    0 -0.30476966529E+02  0.15732752786E+02 -0.26594285084E+02  0.47787297262E+02  0.20000119537E+02 0.  0.
        -12    1    1    2    0    0  0.30476966529E+02 -0.15732752786E+02  0.26594285084E+02  0.43400702738E+02  0.00000000000E+00 0.  1.
         11    1    3    3    0    0 -0.16460112230E+02  0.20412411463E+01 -0.15648346552E+02  0.22802910124E+02  0.51100000000E-03 0. -1.
        -11    1    3    3    0    0 -0.69997559451E+00  0.77193393241E+01 -0.26203201603E+01  0.81819461888E+01  0.51100000000E-03 0.  1.
         12    1    3    3    0    0 -0.13316878704E+02  0.59721723160E+01 -0.83256183708E+01  0.16802440949E+02  0.00000000000E+00 0. -1.
</event>
<event>
 7    1  0.2732193E-010  0.4778727E+02  0.7816164E-02  0.1312668E+00
        -11   -1    0    0    0    0  0.00000000000E+00  0.00000000000E+00  0.45593999997E+02  0.45594000000E+02  0.51100000000E-03 0.  1.
         11   -1    0    0    0    0 -0.00000000000E+00 -0.00000000000E+00 -0.45593999997E+02  0.45594000000E+02  0.51100000000E-03 0. -1.
    9900012    2    1    2    0    0  0.39239092135E+02  0.14245629002E+02  0.11873461720E+02  0.47787269701E+02  0.19999993877E+02 0.  0.
        -12    1    1    2    0    0 -0.39239092135E+02 -0.14245629002E+02 -0.11873461720E+02  0.43400730299E+02  0.00000000000E+00 0.  1.
         11    1    3    3    0    0  0.20577051516E+02  0.41878389524E+00  0.30403506532E+01  0.20804666817E+02  0.51100000000E-03 0. -1.
        -11    1    3    3    0    0  0.58567658739E+01  0.94107008701E+00 -0.14516205941E+01  0.61069241047E+01  0.51100000000E-03 0.  1.
         12    1    3    3    0    0  0.12805274746E+02  0.12885775019E+02  0.10284731661E+02  0.20875678779E+02  0.00000000000E+00 0. -1.
</event>
<event>
 7    1  0.2732193E-010  0.4778727E+02  0.7816164E-02  0.1312668E+00
        -11   -1    0    0    0    0  0.00000000000E+00  0.00000000000E+00  0.45593999997E+02  0.45594000000E+02  0.51100000000E-03 0.  1.
         11   -1    0    0    0    0 -0.00000000000E+00 -0.00000000000E+00 -0.45593999997E+02  0.45594000000E+02  0.51100000000E-03 0. -1.
    9900012    2    1    2    0    0  0.21312842478E+02 -0.74309061979E+01 -0.37069766017E+02  0.47787272195E+02  0.20000005246E+02 0.  0.
        -12    1    1    2    0    0 -0.21312842478E+02  0.74309061979E+01  0.37069766017E+02  0.43400727805E+02  0.00000000000E+00 0.  1.
         11    1    3    3    0    0  0.48987264927E+01 -0.85144009292E+00 -0.52505984796E+01  0.72312693310E+01  0.51100000000E-03 0. -1.
        -11    1    3    3    0    0 -0.23305593466E+01  0.32234472673E+01 -0.55646840061E+01  0.68401628271E+01  0.51100000000E-03 0.  1.
        -12    1    3    3    0    0  0.18744675332E+02 -0.98029133723E+01 -0.26254483532E+02  0.33715840037E+02  0.00000000000E+00 0.  1.
</event>
<event>
 7    1  0.2732193E-010  0.4778727E+02  0.7816164E-02  0.1312668E+00
        -11   -1    0    0    0    0  0.00000000000E+00  0.00000000000E+00  0.45593999997E+02  0.45594000000E+02  0.51100000000E-03 0.  1.
         11   -1    0    0    0    0 -0.00000000000E+00 -0.00000000000E+00 -0.45593999997E+02  0.45594000000E+02  0.51100000000E-03 0. -1.
    9900012    2    1    2    0    0 -0.24335347071E+02 -0.34143279366E+02 -0.11209406275E+02  0.47787269223E+02  0.19999991694E+02 0.  0.
        -12    1    1    2    0    0  0.24335347071E+02  0.34143279366E+02  0.11209406275E+02  0.43400730777E+02  0.00000000000E+00 0.  1.
         11    1    3    3    0    0 -0.12473692697E+02 -0.15162208195E+02 -0.11600830318E+02  0.22804929975E+02  0.51100000000E-03 0. -1.
        -11    1    3    3    0    0 -0.42379172204E+01 -0.50221460386E+00  0.23928896089E+01  0.48926560085E+01  0.51100000000E-03 0.  1.
         12    1    3    3    0    0 -0.76237371538E+01 -0.18478856567E+02 -0.20014655656E+01  0.20089683239E+02  0.00000000000E+00 0. -1.
</event>
<event>
 7    1  0.2732193E-010  0.4778727E+02  0.7816164E-02  0.1312668E+00
        -11   -1    0    0    0    0  0.00000000000E+00  0.00000000000E+00  0.45593999997E+02  0.45594000000E+02  0.51100000000E-03 0.  1.
         11   -1    0    0    0    0 -0.00000000000E+00 -0.00000000000E+00 -0.45593999997E+02  0.45594000000E+02  0.51100000000E-03 0. -1.
    9900012    2    1    2    0    0  0.21948290934E+02 -0.27373004899E+02 -0.25546319438E+02  0.47787270641E+02  0.19999998159E+02 0.  0.
        -12    1    1    2    0    0 -0.21948290934E+02  0.27373004899E+02  0.25546319438E+02  0.43400729359E+02  0.00000000000E+00 0.  1.
         11    1    3    3    0    0  0.13582960432E+02 -0.12168944401E+02 -0.18551676659E+02  0.26014317770E+02  0.51100000000E-03 0. -1.
        -11    1    3    3    0    0  0.18508963606E+01 -0.45796048618E+01  0.30161542672E+01  0.57875543067E+01  0.51100000000E-03 0.  1.
         12    1    3    3    0    0  0.65144341416E+01 -0.10624455637E+02 -0.10010797046E+02  0.15985398564E+02  0.00000000000E+00 0. -1.
</event>
<event>
 7    1  0.2732193E-010  0.4778727E+02  0.7816164E-02  0.1312668E+00
        -11   -1    0    0    0    0  0.00000000000E+00  0.00000000000E+00  0.45593999997E+02  0.45594000000E+02  0.51100000000E-03 0.  1.
         11   -1    0    0    0    0 -0.00000000000E+00 -0.00000000000E+00 -0.45593999997E+02  0.45594000000E+02  0.51100000000E-03 0. -1.
    9900012    2    1    2    0    0  0.22004784254E+02  0.37204188321E+02  0.39065362286E+01  0.47787272080E+02  0.20000004721E+02 0.  0.
        -12    1    1    2    0    0 -0.22004784254E+02 -0.37204188321E+02 -0.39065362286E+01  0.43400727920E+02  0.00000000000E+00 0.  1.
         11    1    3    3    0    0  0.19446175584E+02  0.23166122938E+02 -0.29357063437E+01  0.30388178109E+02  0.51100000000E-03 0. -1.
        -11    1    3    3    0    0 -0.19200682860E+01  0.82854482436E+01  0.50509028142E+01  0.98917609312E+01  0.51100000000E-03 0.  1.
        -12    1    3    3    0    0  0.44786769559E+01  0.57526171397E+01  0.17913397581E+01  0.75073330391E+01  0.00000000000E+00 0.  1.
</event>
<event>
 7    1  0.2732193E-010  0.4778727E+02  0.7816164E-02  0.1312668E+00
        -11   -1    0    0    0    0  0.00000000000E+00  0.00000000000E+00  0.45593999997E+02  0.45594000000E+02  0.51100000000E-03 0.  1.
         11   -1    0    0    0    0 -0.00000000000E+00 -0.00000000000E+00 -0.45593999997E+02  0.45594000000E+02  0.51100000000E-03 0. -1.
    9900012    2    1    2    0    0 -0.26873819423E+02 -0.16944653717E+02 -0.29568559578E+02  0.47787272178E+02  0.20000005169E+02 0.  0.
        -12    1    1    2    0    0  0.26873819423E+02  0.16944653717E+02  0.29568559578E+02  0.43400727822E+02  0.00000000000E+00 0.  1.
         11    1    3    3    0    0 -0.60489863860E+01 -0.82565717194E+01 -0.16170889728E+02  0.19137891412E+02  0.51100000000E-03 0.  1.
        -11    1    3    3    0    0 -0.84401697576E+01 -0.94547768660E+01 -0.87413386907E+01  0.15396112285E+02  0.51100000000E-03 0. -1.
         12    1    3    3    0    0 -0.12384663279E+02  0.76669486887E+00 -0.46563311591E+01  0.13253268481E+02  0.00000000000E+00 0. -1.
</event>
<event>
 7    1  0.2732193E-010  0.4778727E+02  0.7816164E-02  0.1312668E+00
        -11   -1    0    0    0    0  0.00000000000E+00  0.00000000000E+00  0.45593999997E+02  0.45594000000E+02  0.51100000000E-03 0. -1.
         11   -1    0    0    0    0 -0.00000000000E+00 -0.00000000000E+00 -0.45593999997E+02  0.45594000000E+02  0.51100000000E-03 0.  1.
    9900012    2    1    2    0    0 -0.31259658892E+02  0.16857042239E+02  0.24945879875E+02  0.47787273395E+02  0.20000010716E+02 0.  0.
        -12    1    1    2    0    0  0.31259658892E+02 -0.16857042239E+02 -0.24945879875E+02  0.43400726605E+02  0.00000000000E+00 0.  1.
         11    1    3    3    0    0 -0.16463905522E+02  0.92800029566E+01  0.24076440430E+02  0.30608064688E+02  0.51100000000E-03 0. -1.
        -11    1    3    3    0    0 -0.11225623854E+02  0.42954420659E+01  0.20386578203E+01  0.12191045051E+02  0.51100000000E-03 0.  1.
         12    1    3    3    0    0 -0.35701295164E+01  0.32815972165E+01 -0.11692183747E+01  0.49881636563E+01  0.00000000000E+00 0. -1.
</event>
<event>
 7    1  0.2732193E-010  0.4778727E+02  0.7816164E-02  0.1312668E+00
        -11   -1    0    0    0    0  0.00000000000E+00  0.00000000000E+00  0.45593999997E+02  0.45594000000E+02  0.51100000000E-03 0. -1.
         11   -1    0    0    0    0 -0.00000000000E+00 -0.00000000000E+00 -0.45593999997E+02  0.45594000000E+02  0.51100000000E-03 0.  1.
    9900012    2    1    2    0    0  0.12653910304E+02  0.30851554488E+02 -0.27779189045E+02  0.47787271846E+02  0.20000003656E+02 0.  0.
        -12    1    1    2    0    0 -0.12653910304E+02 -0.30851554488E+02  0.27779189045E+02  0.43400728154E+02  0.00000000000E+00 0.  1.
         11    1    3    3    0    0  0.63049874508E+01  0.23789086885E+02 -0.12907367665E+02  0.27789812196E+02  0.51100000000E-03 0. -1.
        -11    1    3    3    0    0  0.91550124230E-01 -0.20073368817E+01 -0.42092032882E+01  0.46642443509E+01  0.51100000000E-03 0.  1.
        -12    1    3    3    0    0  0.62573727289E+01  0.90698044844E+01 -0.10662618092E+02  0.15333215299E+02  0.00000000000E+00 0.  1.
</event>
<event>
 7    1  0.2732193E-010  0.4778728E+02  0.7816164E-02  0.1312668E+00
        -11   -1    0    0    0    0  0.00000000000E+00  0.00000000000E+00  0.45593999997E+02  0.45594000000E+02  0.51100000000E-03 0.  1.
         11   -1    0    0    0    0 -0.00000000000E+00 -0.00000000000E+00 -0.45593999997E+02  0.45594000000E+02  0.51100000000E-03 0. -1.
    9900012    2    1    2    0    0 -0.21079305972E+02  0.23023783265E+02 -0.30152791749E+02  0.47787278965E+02  0.20000036113E+02 0.  0.
        -12    1    1    2    0    0  0.21079305972E+02 -0.23023783265E+02  0.30152791749E+02  0.43400721035E+02  0.00000000000E+00 0.  1.
         11    1    3    3    0    0 -0.20477792124E+00 -0.14553118157E+00 -0.23493104144E+01  0.23627045957E+01  0.51100000000E-03 0.  1.
        -11    1    3    3    0    0 -0.14916913376E+02  0.23174532021E+02 -0.28228892209E+02  0.39451788232E+02  0.51100000000E-03 0. -1.
        -12    1    3    3    0    0 -0.59576146741E+01 -0.52175744232E-02  0.42541087471E+00  0.59727861371E+01  0.00000000000E+00 0.  1.
</event>
<event>
 7    1  0.2732193E-010  0.4778726E+02  0.7816164E-02  0.1312668E+00
        -11   -1    0    0    0    0  0.00000000000E+00  0.00000000000E+00  0.45593999997E+02  0.45594000000E+02  0.51100000000E-03 0. -1.
         11   -1    0    0    0    0 -0.00000000000E+00 -0.00000000000E+00 -0.45593999997E+02  0.45594000000E+02  0.51100000000E-03 0.  1.
    9900012    2    1    2    0    0  0.40533873782E+01 -0.62316930581E+01  0.42759326609E+02  0.47787263143E+02  0.19999963976E+02 0.  0.
        -12    1    1    2    0    0 -0.40533873782E+01  0.62316930581E+01 -0.42759326609E+02  0.43400736857E+02  0.00000000000E+00 0.  1.
         11    1    3    3    0    0 -0.14790540265E+01 -0.72044170159E+01  0.60312048687E+01  0.95113962057E+01  0.51100000000E-03 0. -1.
        -11    1    3    3    0    0  0.80449121513E+00  0.23643710365E+01  0.19995436759E+01  0.31993173782E+01  0.51100000000E-03 0.  1.
         12    1    3    3    0    0  0.47279501896E+01 -0.13916470788E+01  0.34728578065E+02  0.35076549559E+02  0.00000000000E+00 0. -1.
</event>
<event>
 7    1  0.2732193E-010  0.4778727E+02  0.7816164E-02  0.1312668E+00
        -11   -1    0    0    0    0  0.00000000000E+00  0.00000000000E+00  0.45593999997E+02  0.45594000000E+02  0.51100000000E-03 0. -1.
         11   -1    0    0    0    0 -0.00000000000E+00 -0.00000000000E+00 -0.45593999997E+02  0.45594000000E+02  0.51100000000E-03 0.  1.
    9900012    2    1    2    0    0 -0.34991716512E+02 -0.17970946892E+02  0.18337066498E+02  0.47787272305E+02  0.20000005749E+02 0.  0.
        -12    1    1    2    0    0  0.34991716512E+02  0.17970946892E+02 -0.18337066498E+02  0.43400727695E+02  0.00000000000E+00 0.  1.
         11    1    3    3    0    0 -0.49545726799E+01  0.14814565437E+01  0.21575003112E+01  0.56033304191E+01  0.51100000000E-03 0. -1.
        -11    1    3    3    0    0 -0.30955163908E+02 -0.20815791858E+02  0.15694638918E+02  0.40470249002E+02  0.51100000000E-03 0.  1.
        -12    1    3    3    0    0  0.91802007560E+00  0.13633884215E+01  0.48492726902E+00  0.17136928847E+01  0.00000000000E+00 0.  1.
</event>
<event>
 7    1  0.2732193E-010  0.4778727E+02  0.7816164E-02  0.1312668E+00
        -11   -1    0    0    0    0  0.00000000000E+00  0.00000000000E+00  0.45593999997E+02  0.45594000000E+02  0.51100000000E-03 0.  1.
         11   -1    0    0    0    0 -0.00000000000E+00 -0.00000000000E+00 -0.45593999997E+02  0.45594000000E+02  0.51100000000E-03 0. -1.
    9900012    2    1    2    0    0 -0.16461203057E+02 -0.29116378964E+02 -0.27656617538E+02  0.47787271623E+02  0.20000002636E+02 0.  0.
        -12    1    1    2    0    0  0.16461203057E+02  0.29116378964E+02  0.27656617538E+02  0.43400728377E+02  0.00000000000E+00 0.  1.
         11    1    3    3    0    0  0.27367066057E+00 -0.94168995728E+01 -0.95402290426E+00  0.94690576700E+01  0.51100000000E-03 0. -1.
        -11    1    3    3    0    0 -0.23904279935E+01  0.54769645290E+00 -0.39669822385E+01  0.46638037843E+01  0.51100000000E-03 0.  1.
         12    1    3    3    0    0 -0.14344445724E+02 -0.20247175844E+02 -0.22735612395E+02  0.33654410168E+02  0.00000000000E+00 0. -1.
</event>
<event>
 7    1  0.2732193E-010  0.4778727E+02  0.7816164E-02  0.1312668E+00
        -11   -1    0    0    0    0  0.00000000000E+00  0.00000000000E+00  0.45593999997E+02  0.45594000000E+02  0.51100000000E-03 0.  1.
         11   -1    0    0    0    0 -0.00000000000E+00 -0.00000000000E+00 -0.45593999997E+02  0.45594000000E+02  0.51100000000E-03 0. -1.
    9900012    2    1    2    0    0  0.42364960768E+02 -0.57931466136E+01  0.74345714601E+01  0.47787270728E+02  0.19999998557E+02 0.  0.
        -12    1    1    2    0    0 -0.42364960768E+02  0.57931466136E+01 -0.74345714601E+01  0.43400729272E+02  0.00000000000E+00 0.  1.
         11    1    3    3    0    0  0.10017823732E+02 -0.34887125311E+00  0.72999788025E+01  0.12400330409E+02  0.51100000000E-03 0.  1.
        -11    1    3    3    0    0  0.27103796363E+02 -0.20254317460E+01 -0.45643860606E+01  0.27559966825E+02  0.51100000000E-03 0. -1.
        -12    1    3    3    0    0  0.52433406730E+01 -0.34188436146E+01  0.46989787183E+01  0.78269734936E+01  0.00000000000E+00 0.  1.
</event>
<event>
 7    1  0.2732193E-010  0.4778727E+02  0.7816164E-02  0.1312668E+00
        -11   -1    0    0    0    0  0.00000000000E+00  0.00000000000E+00  0.45593999997E+02  0.45594000000E+02  0.51100000000E-03 0. -1.
         11   -1    0    0    0    0 -0.00000000000E+00 -0.00000000000E+00 -0.45593999997E+02  0.45594000000E+02  0.51100000000E-03 0.  1.
    9900012    2    1    2    0    0  0.20178086399E+02  0.35816227498E+02  0.13916393365E+02  0.47787270430E+02  0.19999997199E+02 0.  0.
        -12    1    1    2    0    0 -0.20178086399E+02 -0.35816227498E+02 -0.13916393365E+02  0.43400729570E+02  0.00000000000E+00 0.  1.
         11    1    3    3    0    0  0.46319964581E+01  0.71214450442E+01  0.67491744592E+01  0.10849964371E+02  0.51100000000E-03 0. -1.
        -11    1    3    3    0    0  0.85503672558E+01  0.22165679046E+02 -0.17966198748E+01  0.23825489524E+02  0.51100000000E-03 0.  1.
        -12    1    3    3    0    0  0.69957226852E+01  0.65291034072E+01  0.89638387803E+01  0.13111816536E+02  0.00000000000E+00 0.  1.
</event>
<event>
 7    1  0.2732193E-010  0.4778727E+02  0.7816164E-02  0.1312668E+00
        -11   -1    0    0    0    0  0.00000000000E+00  0.00000000000E+00  0.45593999997E+02  0.45594000000E+02  0.51100000000E-03 0.  1.
         11   -1    0    0    0    0 -0.00000000000E+00 -0.00000000000E+00 -0.45593999997E+02  0.45594000000E+02  0.51100000000E-03 0. -1.
    9900012    2    1    2    0    0 -0.42690694078E+02 -0.53224836152E+01 -0.57270537929E+01  0.47787270308E+02  0.19999996640E+02 0.  0.
        -12    1    1    2    0    0  0.42690694078E+02  0.53224836152E+01  0.57270537929E+01  0.43400729692E+02  0.00000000000E+00 0.  1.
         11    1    3    3    0    0 -0.22525827064E+02  0.52355772974E+01 -0.63892371873E+01  0.23992634425E+02  0.51100000000E-03 0. -1.
        -11    1    3    3    0    0 -0.42845260403E+01 -0.54229723080E+01 -0.11510638442E+01  0.70064784505E+01  0.51100000000E-03 0.  1.
         12    1    3    3    0    0 -0.15880340974E+02 -0.51350886046E+01  0.18132472386E+01  0.16788157432E+02  0.00000000000E+00 0. -1.
</event>
<event>
 7    1  0.2732193E-010  0.4778727E+02  0.7816164E-02  0.1312668E+00
        -11   -1    0    0    0    0  0.00000000000E+00  0.00000000000E+00  0.45593999997E+02  0.45594000000E+02  0.51100000000E-03 0.  1.
         11   -1    0    0    0    0 -0.00000000000E+00 -0.00000000000E+00 -0.45593999997E+02  0.45594000000E+02  0.51100000000E-03 0. -1.
    9900012    2    1    2    0    0  0.94605016075E+01  0.16556542465E+02 -0.38987217912E+02  0.47787270172E+02  0.19999996021E+02 0.  0.
        -12    1    1    2    0    0 -0.94605016075E+01 -0.16556542465E+02  0.38987217912E+02  0.43400729828E+02  0.00000000000E+00 0.  1.
         11    1    3    3    0    0  0.22081640339E+01  0.21803608269E+01 -0.94581307006E+01  0.99542050585E+01  0.51100000000E-03 0. -1.
        -11    1    3    3    0    0 -0.23012788179E+01 -0.11049303187E+01  0.61431006707E+00  0.26256679772E+01  0.51100000000E-03 0.  1.
        -12    1    3    3    0    0  0.95536163915E+01  0.15481111957E+02 -0.30143397279E+02  0.35207397136E+02  0.00000000000E+00 0.  1.
</event>
<event>
 7    1  0.2732193E-010  0.4778727E+02  0.7816164E-02  0.1312668E+00
        -11   -1    0    0    0    0  0.00000000000E+00  0.00000000000E+00  0.45593999997E+02  0.45594000000E+02  0.51100000000E-03 0.  1.
         11   -1    0    0    0    0 -0.00000000000E+00 -0.00000000000E+00 -0.45593999997E+02  0.45594000000E+02  0.51100000000E-03 0. -1.
    9900012    2    1    2    0    0  0.14210002766E+02  0.12354428692E+02 -0.39103290664E+02  0.47787269272E+02  0.19999991921E+02 0.  0.
        -12    1    1    2    0    0 -0.14210002766E+02 -0.12354428692E+02  0.39103290664E+02  0.43400730728E+02  0.00000000000E+00 0.  1.
         11    1    3    3    0    0 -0.21098699373E+00  0.79237713068E+01 -0.22054981441E+02  0.23436144603E+02  0.51100000000E-03 0. -1.
        -11    1    3    3    0    0  0.13817423486E+02  0.58563584850E+01 -0.12450214936E+02  0.19499384060E+02  0.51100000000E-03 0.  1.
        -12    1    3    3    0    0  0.60356627430E+00 -0.14257010992E+01 -0.45980942874E+01  0.48517406101E+01  0.00000000000E+00 0.  1.
</event>
<event>
 7    1  0.2732193E-010  0.4778728E+02  0.7816164E-02  0.1312668E+00
        -11   -1    0    0    0    0  0.00000000000E+00  0.00000000000E+00  0.45593999997E+02  0.45594000000E+02  0.51100000000E-03 0.  1.
         11   -1    0    0    0    0 -0.00000000000E+00 -0.00000000000E+00 -0.45593999997E+02  0.45594000000E+02  0.51100000000E-03 0. -1.
    9900012    2    1    2    0    0  0.42362314012E+02  0.35510240701E+01 -0.87434104529E+01  0.47787278270E+02  0.20000032943E+02 0.  0.
        -12    1    1    2    0    0 -0.42362314012E+02 -0.35510240701E+01  0.87434104529E+01  0.43400721730E+02  0.00000000000E+00 0.  1.
         11    1    3    3    0    0  0.15274362090E+02 -0.16076929991E+01  0.33855491647E+01  0.15727452350E+02  0.51100000000E-03 0. -1.
        -11    1    3    3    0    0  0.20180030678E+02  0.32917166038E+01 -0.13855052703E+02  0.24698816207E+02  0.51100000000E-03 0.  1.
        -12    1    3    3    0    0  0.69079212438E+01  0.18670004654E+01  0.17260930849E+01  0.73610097124E+01  0.00000000000E+00 0.  1.
</event>
<event>
 7    1  0.2732193E-010  0.4778727E+02  0.7816164E-02  0.1312668E+00
        -11   -1    0    0    0    0  0.00000000000E+00  0.00000000000E+00  0.45593999997E+02  0.45594000000E+02  0.51100000000E-03 0.  1.
         11   -1    0    0    0    0 -0.00000000000E+00 -0.00000000000E+00 -0.45593999997E+02  0.45594000000E+02  0.51100000000E-03 0. -1.
    9900012    2    1    2    0    0  0.26154927729E+02  0.33717236976E+02 -0.79177479408E+01  0.47787273667E+02  0.20000011958E+02 0.  0.
        -12    1    1    2    0    0 -0.26154927729E+02 -0.33717236976E+02  0.79177479408E+01  0.43400726333E+02  0.00000000000E+00 0.  1.
         11    1    3    3    0    0  0.10560588152E+02  0.24617507191E+02 -0.36892750971E+01  0.27039941446E+02  0.51100000000E-03 0. -1.
        -11    1    3    3    0    0 -0.11315958746E+01  0.16080690697E+01 -0.67490839427E+00  0.20789172562E+01  0.51100000000E-03 0.  1.
         12    1    3    3    0    0  0.16725935451E+02  0.74916607151E+01 -0.35535644494E+01  0.18668414965E+02  0.00000000000E+00 0. -1.
</event>
<event>
 7    1  0.2732193E-010  0.4778727E+02  0.7816164E-02  0.1312668E+00
        -11   -1    0    0    0    0  0.00000000000E+00  0.00000000000E+00  0.45593999997E+02  0.45594000000E+02  0.51100000000E-03 0.  1.
         11   -1    0    0    0    0 -0.00000000000E+00 -0.00000000000E+00 -0.45593999997E+02  0.45594000000E+02  0.51100000000E-03 0. -1.
    9900012    2    1    2    0    0 -0.22348768877E+02 -0.25686177414E+02 -0.26914234064E+02  0.47787272176E+02  0.20000005157E+02 0.  0.
        -12    1    1    2    0    0  0.22348768877E+02  0.25686177414E+02  0.26914234064E+02  0.43400727824E+02  0.00000000000E+00 0.  1.
         11    1    3    3    0    0  0.20449379007E+01 -0.75120922497E+01 -0.62386703412E+01  0.99766882718E+01  0.51100000000E-03 0. -1.
        -11    1    3    3    0    0 -0.24795025664E+02 -0.16296784913E+02 -0.19968570556E+02  0.35764819397E+02  0.51100000000E-03 0.  1.
        -12    1    3    3    0    0  0.40131888594E+00 -0.18773002508E+01 -0.70699316620E+00  0.20457645067E+01  0.00000000000E+00 0.  1.
</event>
<event>
 7    1  0.2732193E-010  0.4778727E+02  0.7816164E-02  0.1312668E+00
        -11   -1    0    0    0    0  0.00000000000E+00  0.00000000000E+00  0.45593999997E+02  0.45594000000E+02  0.51100000000E-03 0.  1.
         11   -1    0    0    0    0 -0.00000000000E+00 -0.00000000000E+00 -0.45593999997E+02  0.45594000000E+02  0.51100000000E-03 0. -1.
    9900012    2    1    2    0    0 -0.42434539131E+02 -0.74827309725E+01 -0.51905620195E+01  0.47787270650E+02  0.19999998200E+02 0.  0.
        -12    1    1    2    0    0  0.42434539131E+02  0.74827309725E+01  0.51905620195E+01  0.43400729350E+02  0.00000000000E+00 0.  1.
         11    1    3    3    0    0 -0.83552744899E+01  0.14058205674E+00 -0.29695843002E+01  0.88684162223E+01  0.51100000000E-03 0. -1.
        -11    1    3    3    0    0 -0.17327497758E+02 -0.49972438080E+01 -0.95962380679E+01  0.20427981044E+02  0.51100000000E-03 0.  1.
        -12    1    3    3    0    0 -0.16751766883E+02 -0.26260692213E+01  0.73752603486E+01  0.18490873383E+02  0.00000000000E+00 0.  1.
</event>
<event>
 7    1  0.2732193E-010  0.4778727E+02  0.7816164E-02  0.1312668E+00
        -11   -1    0    0    0    0  0.00000000000E+00  0.00000000000E+00  0.45593999997E+02  0.45594000000E+02  0.51100000000E-03 0. -1.
         11   -1    0    0    0    0 -0.00000000000E+00 -0.00000000000E+00 -0.45593999997E+02  0.45594000000E+02  0.51100000000E-03 0.  1.
    9900012    2    1    2    0    0  0.33237169638E+02 -0.95562537307E+01  0.26221971506E+02  0.47787271659E+02  0.20000002802E+02 0.  0.
        -12    1    1    2    0    0 -0.33237169638E+02  0.95562537307E+01 -0.26221971506E+02  0.43400728341E+02  0.00000000000E+00 0.  1.
         11    1    3    3    0    0  0.20218077710E+02  0.10382792151E+01  0.22845049990E+02  0.30524498347E+02  0.51100000000E-03 0. -1.
        -11    1    3    3    0    0  0.12138104817E+02 -0.92439147962E+01  0.34724095983E+01  0.15647401637E+02  0.51100000000E-03 0.  1.
         12    1    3    3    0    0  0.88098711049E+00 -0.13506181496E+01 -0.95488082674E-01  0.16153716751E+01  0.00000000000E+00 0. -1.
</event>
<event>
 7    1  0.2732193E-010  0.4778727E+02  0.7816164E-02  0.1312668E+00
        -11   -1    0    0    0    0  0.00000000000E+00  0.00000000000E+00  0.45593999997E+02  0.45594000000E+02  0.51100000000E-03 0.  1.
         11   -1    0    0    0    0 -0.00000000000E+00 -0.00000000000E+00 -0.45593999997E+02  0.45594000000E+02  0.51100000000E-03 0. -1.
    9900012    2    1    2    0    0 -0.41935405838E+02  0.60947361249E+01 -0.93754570211E+01  0.47787271140E+02  0.20000000437E+02 0.  0.
        -12    1    1    2    0    0  0.41935405838E+02 -0.60947361249E+01  0.93754570211E+01  0.43400728860E+02  0.00000000000E+00 0.  1.
         11    1    3    3    0    0  0.32986775130E+00 -0.12959240000E+01  0.19857492571E+01  0.23940409604E+01  0.51100000000E-03 0. -1.
        -11    1    3    3    0    0 -0.72481489466E+01  0.24646359839E+01  0.14316179377E+01  0.77884288445E+01  0.51100000000E-03 0.  1.
         12    1    3    3    0    0 -0.35017124642E+02  0.49260241410E+01 -0.12792824216E+02  0.37604801335E+02  0.00000000000E+00 0. -1.
</event>
<event>
 7    1  0.2732193E-010  0.4778727E+02  0.7816164E-02  0.1312668E+00
        -11   -1    0    0    0    0  0.00000000000E+00  0.00000000000E+00  0.45593999997E+02  0.45594000000E+02  0.51100000000E-03 0. -1.
         11   -1    0    0    0    0 -0.00000000000E+00 -0.00000000000E+00 -0.45593999997E+02  0.45594000000E+02  0.51100000000E-03 0.  1.
    9900012    2    1    2    0    0 -0.18407174137E+02 -0.37603928061E+02  0.11434327434E+02  0.47787270638E+02  0.19999998145E+02 0.  0.
        -12    1    1    2    0    0  0.18407174137E+02  0.37603928061E+02 -0.11434327434E+02  0.43400729362E+02  0.00000000000E+00 0.  1.
         11    1    3    3    0    0 -0.10040718273E+02 -0.28008807967E+02  0.14544336500E+02  0.33118681611E+02  0.51100000000E-03 0. -1.
        -11    1    3    3    0    0 -0.63544003302E+01 -0.10258528332E+02 -0.18626263072E+01  0.12210044394E+02  0.51100000000E-03 0.  1.
         12    1    3    3    0    0 -0.20120555334E+01  0.66340823791E+00 -0.12473827592E+01  0.24585446320E+01  0.00000000000E+00 0. -1.
</event>
<event>
 7    1  0.2773965E-010  0.4778727E+02  0.7816164E-02  0.1312668E+00
        -11   -1    0    0    0    0  0.00000000000E+00  0.00000000000E+00  0.45593999997E+02  0.45594000000E+02  0.51100000000E-03 0. -1.
         11   -1    0    0    0    0 -0.00000000000E+00 -0.00000000000E+00 -0.45593999997E+02  0.45594000000E+02  0.51100000000E-03 0.  1.
    9900012    2    1    2    0    0  0.21025250886E+02  0.94509012173E+01  0.36772850769E+02  0.47787271177E+02  0.20000000606E+02 0.  0.
        -12    1    1    2    0    0 -0.21025250886E+02 -0.94509012173E+01 -0.36772850769E+02  0.43400728823E+02  0.00000000000E+00 0.  1.
         11    1    3    3    0    0  0.19957989055E+02  0.10668180293E+02  0.27778884404E+02  0.35830124433E+02  0.51100000000E-03 0. -1.
        -11    1    3    3    0    0 -0.26811863323E+01  0.16390316922E+01  0.40608986148E+01  0.51347914133E+01  0.51100000000E-03 0.  1.
        -12    1    3    3    0    0  0.37484481634E+01 -0.28563107677E+01  0.49330677502E+01  0.68223553311E+01  0.00000000000E+00 0.  1.
</event>
<event>
 7    1  0.2732193E-010  0.4778727E+02  0.7816164E-02  0.1312668E+00
        -11   -1    0    0    0    0  0.00000000000E+00  0.00000000000E+00  0.45593999997E+02  0.45594000000E+02  0.51100000000E-03 0.  1.
         11   -1    0    0    0    0 -0.00000000000E+00 -0.00000000000E+00 -0.45593999997E+02  0.45594000000E+02  0.51100000000E-03 0. -1.
    9900012    2    1    2    0    0  0.16995127953E+02  0.13308867720E+02 -0.37651865283E+02  0.47787270819E+02  0.19999998973E+02 0.  0.
        -12    1    1    2    0    0 -0.16995127953E+02 -0.13308867720E+02  0.37651865283E+02  0.43400729181E+02  0.00000000000E+00 0.  1.
         11    1    3    3    0    0  0.10687440909E+02  0.10379763912E+02 -0.33186585500E+02  0.36377332907E+02  0.51100000000E-03 0. -1.
        -11    1    3    3    0    0  0.23200408734E+01 -0.11207678834E+01  0.16513443323E+01  0.30603347313E+01  0.51100000000E-03 0.  1.
         12    1    3    3    0    0  0.39876461711E+01  0.40498716913E+01 -0.61166241157E+01  0.83496031807E+01  0.00000000000E+00 0. -1.
</event>
<event>
 7    1  0.2732193E-010  0.4778727E+02  0.7816164E-02  0.1312668E+00
        -11   -1    0    0    0    0  0.00000000000E+00  0.00000000000E+00  0.45593999997E+02  0.45594000000E+02  0.51100000000E-03 0.  1.
         11   -1    0    0    0    0 -0.00000000000E+00 -0.00000000000E+00 -0.45593999997E+02  0.45594000000E+02  0.51100000000E-03 0. -1.
    9900012    2    1    2    0    0  0.28143492922E+02  0.31439706837E+02 -0.10154396695E+02  0.47787272678E+02  0.20000007447E+02 0.  0.
        -12    1    1    2    0    0 -0.28143492922E+02 -0.31439706837E+02  0.10154396695E+02  0.43400727322E+02  0.00000000000E+00 0.  1.
         11    1    3    3    0    0  0.96825523651E+01  0.20903227816E+02  0.10875859998E+00  0.23037113147E+02  0.51100000000E-03 0. -1.
        -11    1    3    3    0    0  0.55491269732E+01  0.38255572171E+01 -0.72325837791E+01  0.98862513912E+01  0.51100000000E-03 0.  1.
         12    1    3    3    0    0  0.12911813583E+02  0.67109218042E+01 -0.30305715163E+01  0.14863908140E+02  0.00000000000E+00 0. -1.
</event>
<event>
 7    1  0.2732193E-010  0.4778727E+02  0.7816164E-02  0.1312668E+00
        -11   -1    0    0    0    0  0.00000000000E+00  0.00000000000E+00  0.45593999997E+02  0.45594000000E+02  0.51100000000E-03 0.  1.
         11   -1    0    0    0    0 -0.00000000000E+00 -0.00000000000E+00 -0.45593999997E+02  0.45594000000E+02  0.51100000000E-03 0. -1.
    9900012    2    1    2    0    0  0.27375536396E+02 -0.96533839166E+01 -0.32264768080E+02  0.47787273355E+02  0.20000010536E+02 0.  0.
        -12    1    1    2    0    0 -0.27375536396E+02  0.96533839166E+01  0.32264768080E+02  0.43400726645E+02  0.00000000000E+00 0.  1.
         11    1    3    3    0    0  0.58778202263E+01  0.19691738923E+01 -0.10298043114E+01  0.62838613616E+01  0.51100000000E-03 0.  1.
        -11    1    3    3    0    0  0.18144670052E+02 -0.14106164959E+02 -0.27994616776E+02  0.36220319018E+02  0.51100000000E-03 0. -1.
         12    1    3    3    0    0  0.33530461187E+01  0.24836071498E+01 -0.32403469930E+01  0.52830929751E+01  0.00000000000E+00 0. -1.
</event>
<event>
 7    1  0.2732193E-010  0.4778727E+02  0.7816164E-02  0.1312668E+00
        -11   -1    0    0    0    0  0.00000000000E+00  0.00000000000E+00  0.45593999997E+02  0.45594000000E+02  0.51100000000E-03 0.  1.
         11   -1    0    0    0    0 -0.00000000000E+00 -0.00000000000E+00 -0.45593999997E+02  0.45594000000E+02  0.51100000000E-03 0. -1.
    9900012    2    1    2    0    0 -0.96281316669E+01 -0.33214805761E+02 -0.26224019865E+02  0.47787268911E+02  0.19999990274E+02 0.  0.
        -12    1    1    2    0    0  0.96281316669E+01  0.33214805761E+02  0.26224019865E+02  0.43400731089E+02  0.00000000000E+00 0.  1.
         11    1    3    3    0    0 -0.46871521897E+01 -0.78465130554E+01 -0.53631718675E+01  0.10597206024E+02  0.51100000000E-03 0. -1.
        -11    1    3    3    0    0 -0.96440694097E+01 -0.22529623426E+02 -0.13419080821E+02  0.27940360357E+02  0.51100000000E-03 0.  1.
        -12    1    3    3    0    0  0.47030899324E+01 -0.28386692796E+01 -0.74417671764E+01  0.92497025303E+01  0.00000000000E+00 0.  1.
</event>
<event>
 7    1  0.2732193E-010  0.4778727E+02  0.7816164E-02  0.1312668E+00
        -11   -1    0    0    0    0  0.00000000000E+00  0.00000000000E+00  0.45593999997E+02  0.45594000000E+02  0.51100000000E-03 0.  1.
         11   -1    0    0    0    0 -0.00000000000E+00 -0.00000000000E+00 -0.45593999997E+02  0.45594000000E+02  0.51100000000E-03 0. -1.
    9900012    2    1    2    0    0 -0.10312321391E+02  0.38709178137E+02 -0.16699672208E+02  0.47787268481E+02  0.19999988312E+02 0.  0.
        -12    1    1    2    0    0  0.10312321391E+02 -0.38709178137E+02  0.16699672208E+02  0.43400731519E+02  0.00000000000E+00 0.  1.
         11    1    3    3    0    0  0.42135050396E+00  0.13150306096E+02  0.24238128127E+01  0.13378451162E+02  0.51100000000E-03 0. -1.
        -11    1    3    3    0    0 -0.70011977468E+01  0.92249847387E+01 -0.10165372639E+02  0.15409474828E+02  0.51100000000E-03 0.  1.
        -12    1    3    3    0    0 -0.37324741483E+01  0.16333887302E+02 -0.89581123819E+01  0.18999342492E+02  0.00000000000E+00 0.  1.
</event>
<event>
 7    1  0.2732193E-010  0.4778728E+02  0.7816164E-02  0.1312668E+00
        -11   -1    0    0    0    0  0.00000000000E+00  0.00000000000E+00  0.45593999997E+02  0.45594000000E+02  0.51100000000E-03 0.  1.
         11   -1    0    0    0    0 -0.00000000000E+00 -0.00000000000E+00 -0.45593999997E+02  0.45594000000E+02  0.51100000000E-03 0. -1.
    9900012    2    1    2    0    0  0.19939590267E+02  0.43783699458E+01 -0.38299677876E+02  0.47787277554E+02  0.20000029682E+02 0.  0.
        -12    1    1    2    0    0 -0.19939590267E+02 -0.43783699458E+01  0.38299677876E+02  0.43400722446E+02  0.00000000000E+00 0.  1.
         11    1    3    3    0    0  0.16501854818E+02  0.36403576204E+01 -0.25080882834E+02  0.30242587522E+02  0.51100000000E-03 0.  1.
        -11    1    3    3    0    0 -0.60106169768E+00 -0.43305114693E+01 -0.25489537769E+01  0.50608072842E+01  0.51100000000E-03 0. -1.
         12    1    3    3    0    0  0.40387971466E+01  0.50685237947E+01 -0.10669841265E+02  0.12483882748E+02  0.00000000000E+00 0. -1.
</event>
<event>
 7    1  0.2732193E-010  0.4778727E+02  0.7816164E-02  0.1312668E+00
        -11   -1    0    0    0    0  0.00000000000E+00  0.00000000000E+00  0.45593999997E+02  0.45594000000E+02  0.51100000000E-03 0. -1.
         11   -1    0    0    0    0 -0.00000000000E+00 -0.00000000000E+00 -0.45593999997E+02  0.45594000000E+02  0.51100000000E-03 0.  1.
    9900012    2    1    2    0    0  0.43133361996E+02 -0.48010010755E+01 -0.29440076540E+00  0.47787271893E+02  0.20000003868E+02 0.  0.
        -12    1    1    2    0    0 -0.43133361996E+02  0.48010010755E+01  0.29440076540E+00  0.43400728107E+02  0.00000000000E+00 0.  1.
         11    1    3    3    0    0  0.31255058188E+02  0.11919392966E+01 -0.41014806639E+01  0.31545546842E+02  0.51100000000E-03 0. -1.
        -11    1    3    3    0    0 -0.32073567455E+00 -0.15913224715E+01  0.27965764611E+01  0.32335767727E+01  0.51100000000E-03 0.  1.
         12    1    3    3    0    0  0.12199039482E+02 -0.44016179006E+01  0.10105034374E+01  0.13008148278E+02  0.00000000000E+00 0. -1.
</event>
<event>
 7    1  0.2732193E-010  0.4778727E+02  0.7816164E-02  0.1312668E+00
        -11   -1    0    0    0    0  0.00000000000E+00  0.00000000000E+00  0.45593999997E+02  0.45594000000E+02  0.51100000000E-03 0.  1.
         11   -1    0    0    0    0 -0.00000000000E+00 -0.00000000000E+00 -0.45593999997E+02  0.45594000000E+02  0.51100000000E-03 0. -1.
    9900012    2    1    2    0    0  0.26784252946E+02  0.30106533324E+02  0.16119055080E+02  0.47787268539E+02  0.19999988577E+02 0.  0.
        -12    1    1    2    0    0 -0.26784252946E+02 -0.30106533324E+02 -0.16119055080E+02  0.43400731461E+02  0.00000000000E+00 0.  1.
         11    1    3    3    0    0  0.46349975344E+01  0.39595308169E+01  0.12494580159E+00  0.60972697290E+01  0.51100000000E-03 0. -1.
        -11    1    3    3    0    0  0.27817856528E+01  0.11869356320E+02 -0.10007315277E+01  0.12231983270E+02  0.51100000000E-03 0.  1.
        -12    1    3    3    0    0  0.19367469759E+02  0.14277646187E+02  0.16994840806E+02  0.29458015540E+02  0.00000000000E+00 0.  1.
</event>
<event>
 7    1  0.2732193E-010  0.4778728E+02  0.7816164E-02  0.1312668E+00
        -11   -1    0    0    0    0  0.00000000000E+00  0.00000000000E+00  0.45593999997E+02  0.45594000000E+02  0.51100000000E-03 0.  1.
         11   -1    0    0    0    0 -0.00000000000E+00 -0.00000000000E+00 -0.45593999997E+02  0.45594000000E+02  0.51100000000E-03 0. -1.
    9900012    2    1    2    0    0 -0.13708371499E+02 -0.33151316363E+02 -0.24427308870E+02  0.47787278296E+02  0.20000033065E+02 0.  0.
        -12    1    1    2    0    0  0.13708371499E+02  0.33151316363E+02  0.24427308870E+02  0.43400721704E+02  0.00000000000E+00 0.  1.
         11    1    3    3    0    0 -0.92230465786E+01 -0.28831174192E+02 -0.11938803286E+02  0.32539763639E+02  0.51100000000E-03 0. -1.
        -11    1    3    3    0    0 -0.34384995574E+01 -0.36984532958E-01 -0.22756426844E+01  0.41234932945E+01  0.51100000000E-03 0.  1.
         12    1    3    3    0    0 -0.10468253632E+01 -0.42831576379E+01 -0.10212862899E+02  0.11124021363E+02  0.00000000000E+00 0. -1.
</event>
<event>
 7    1  0.2732193E-010  0.4778727E+02  0.7816164E-02  0.1312668E+00
        -11   -1    0    0    0    0  0.00000000000E+00  0.00000000000E+00  0.45593999997E+02  0.45594000000E+02  0.51100000000E-03 0.  1.
         11   -1    0    0    0    0 -0.00000000000E+00 -0.00000000000E+00 -0.45593999997E+02  0.45594000000E+02  0.51100000000E-03 0. -1.
    9900012    2    1    2    0    0  0.40266763474E+02  0.11398446331E+02 -0.11501588230E+02  0.47787270153E+02  0.19999995937E+02 0.  0.
        -12    1    1    2    0    0 -0.40266763474E+02 -0.11398446331E+02  0.11501588230E+02  0.43400729847E+02  0.00000000000E+00 0.  1.
         11    1    3    3    0    0  0.29199342087E+02  0.46318843984E+01 -0.12541741361E+02  0.32114657214E+02  0.51100000000E-03 0. -1.
        -11    1    3    3    0    0  0.12556851743E+02  0.64333187789E+01  0.84937679556E+00  0.14134481151E+02  0.51100000000E-03 0.  1.
         12    1    3    3    0    0 -0.14894303563E+01  0.33324315344E+00  0.19077633542E+00  0.15381317875E+01  0.00000000000E+00 0. -1.
</event>
<event>
 7    1  0.2732193E-010  0.4778727E+02  0.7816164E-02  0.1312668E+00
        -11   -1    0    0    0    0  0.00000000000E+00  0.00000000000E+00  0.45593999997E+02  0.45594000000E+02  0.51100000000E-03 0.  1.
         11   -1    0    0    0    0 -0.00000000000E+00 -0.00000000000E+00 -0.45593999997E+02  0.45594000000E+02  0.51100000000E-03 0. -1.
    9900012    2    1    2    0    0  0.10448054261E+02  0.28884061714E+01 -0.42025213903E+02  0.47787270379E+02  0.19999996964E+02 0.  0.
        -12    1    1    2    0    0 -0.10448054261E+02 -0.28884061714E+01  0.42025213903E+02  0.43400729621E+02  0.00000000000E+00 0.  1.
         11    1    3    3    0    0  0.14986422421E+01 -0.10849691706E+01 -0.16983474252E+01  0.25114678793E+01  0.51100000000E-03 0. -1.
        -11    1    3    3    0    0  0.30814139933E+01 -0.58206056857E+01 -0.53577109495E+01  0.84899722983E+01  0.51100000000E-03 0.  1.
        -12    1    3    3    0    0  0.58679980257E+01  0.97939810277E+01 -0.34969155529E+02  0.36785830201E+02  0.00000000000E+00 0.  1.
</event>
<event>
 7    1  0.2732193E-010  0.4778727E+02  0.7816164E-02  0.1312668E+00
        -11   -1    0    0    0    0  0.00000000000E+00  0.00000000000E+00  0.45593999997E+02  0.45594000000E+02  0.51100000000E-03 0.  1.
         11   -1    0    0    0    0 -0.00000000000E+00 -0.00000000000E+00 -0.45593999997E+02  0.45594000000E+02  0.51100000000E-03 0. -1.
    9900012    2    1    2    0    0  0.22975904446E+02  0.36557370658E+02 -0.43919847109E+01  0.47787273460E+02  0.20000011013E+02 0.  0.
        -12    1    1    2    0    0 -0.22975904446E+02 -0.36557370658E+02  0.43919847109E+01  0.43400726540E+02  0.00000000000E+00 0.  1.
         11    1    3    3    0    0 -0.87112214744E+00  0.22750014676E+01 -0.16806133093E+01  0.29595517954E+01  0.51100000000E-03 0.  1.
        -11    1    3    3    0    0  0.16265319609E+02  0.31077029821E+02 -0.66523825988E+01  0.35701492952E+02  0.51100000000E-03 0. -1.
        -12    1    3    3    0    0  0.75817069840E+01  0.32053393693E+01  0.39410111972E+01  0.91262287129E+01  0.00000000000E+00 0.  1.
</event>
<event>
 7    1  0.2732193E-010  0.4778727E+02  0.7816164E-02  0.1312668E+00
        -11   -1    0    0    0    0  0.00000000000E+00  0.00000000000E+00  0.45593999997E+02  0.45594000000E+02  0.51100000000E-03 0.  1.
         11   -1    0    0    0    0 -0.00000000000E+00 -0.00000000000E+00 -0.45593999997E+02  0.45594000000E+02  0.51100000000E-03 0. -1.
    9900012    2    1    2    0    0  0.21815177746E+02  0.30797644245E+02 -0.21429568671E+02  0.47787270921E+02  0.19999999439E+02 0.  0.
        -12    1    1    2    0    0 -0.21815177746E+02 -0.30797644245E+02  0.21429568671E+02  0.43400729079E+02  0.00000000000E+00 0.  1.
         11    1    3    3    0    0  0.72796847026E+01  0.11550703496E+02 -0.10367573207E+02  0.17143486667E+02  0.51100000000E-03 0. -1.
        -11    1    3    3    0    0  0.16757467336E+02  0.16183627063E+02 -0.12685065442E+02  0.26526088704E+02  0.51100000000E-03 0.  1.
        -12    1    3    3    0    0 -0.22219742922E+01  0.30633136859E+01  0.16230699781E+01  0.41176955506E+01  0.00000000000E+00 0.  1.
</event>
<event>
 7    1  0.2732193E-010  0.4778725E+02  0.7816164E-02  0.1312668E+00
        -11   -1    0    0    0    0  0.00000000000E+00  0.00000000000E+00  0.45593999997E+02  0.45594000000E+02  0.51100000000E-03 0. -1.
         11   -1    0    0    0    0 -0.00000000000E+00 -0.00000000000E+00 -0.45593999997E+02  0.45594000000E+02  0.51100000000E-03 0.  1.
    9900012    2    1    2    0    0 -0.13356671172E+02 -0.30255030756E+02  0.28104402455E+02  0.47787251295E+02  0.19999909954E+02 0.  0.
        -12    1    1    2    0    0  0.13356671172E+02  0.30255030756E+02 -0.28104402455E+02  0.43400748705E+02  0.00000000000E+00 0.  1.
         11    1    3    3    0    0 -0.10556004953E-02 -0.63293146817E+01  0.50752522128E+01  0.81128546603E+01  0.51100000000E-03 0. -1.
        -11    1    3    3    0    0 -0.32604920386E+01 -0.29567297290E+01  0.14060860900E+02  0.14733664464E+02  0.51100000000E-03 0.  1.
        -12    1    3    3    0    0 -0.10095123533E+02 -0.20968986345E+02  0.89682893416E+01  0.24940732170E+02  0.00000000000E+00 0.  1.
</event>
<event>
 7    1  0.2732193E-010  0.4778727E+02  0.7816164E-02  0.1312668E+00
        -11   -1    0    0    0    0  0.00000000000E+00  0.00000000000E+00  0.45593999997E+02  0.45594000000E+02  0.51100000000E-03 0. -1.
         11   -1    0    0    0    0 -0.00000000000E+00 -0.00000000000E+00 -0.45593999997E+02  0.45594000000E+02  0.51100000000E-03 0.  1.
    9900012    2    1    2    0    0  0.90651856147E+01 -0.33675925505E+01  0.42309629883E+02  0.47787273616E+02  0.20000011723E+02 0.  0.
        -12    1    1    2    0    0 -0.90651856147E+01  0.33675925505E+01 -0.42309629883E+02  0.43400726384E+02  0.00000000000E+00 0.  1.
         11    1    3    3    0    0  0.12878869263E+02 -0.78854060973E+01  0.23931470419E+02  0.28297706259E+02  0.51100000000E-03 0. -1.
        -11    1    3    3    0    0 -0.17677551327E+01  0.26985536317E+01  0.13649292498E+02  0.14025346194E+02  0.51100000000E-03 0.  1.
         12    1    3    3    0    0 -0.20459285157E+01  0.18192599151E+01  0.47288669665E+01  0.54642211629E+01  0.00000000000E+00 0. -1.
</event>
<event>
 7    1  0.2732193E-010  0.4778727E+02  0.7816164E-02  0.1312668E+00
        -11   -1    0    0    0    0  0.00000000000E+00  0.00000000000E+00  0.45593999997E+02  0.45594000000E+02  0.51100000000E-03 0.  1.
         11   -1    0    0    0    0 -0.00000000000E+00 -0.00000000000E+00 -0.45593999997E+02  0.45594000000E+02  0.51100000000E-03 0. -1.
    9900012    2    1    2    0    0 -0.34177241150E+02  0.19731744501E+02 -0.18060945841E+02  0.47787270532E+02  0.19999997665E+02 0.  0.
        -12    1    1    2    0    0  0.34177241150E+02 -0.19731744501E+02  0.18060945841E+02  0.43400729468E+02  0.00000000000E+00 0.  1.
         11    1    3    3    0    0  0.17491785994E+01  0.32762314903E+01 -0.42056718056E+01  0.56107926488E+01  0.51100000000E-03 0.  1.
        -11    1    3    3    0    0 -0.17765080182E+02  0.60340541198E+01 -0.82816756945E+01  0.20508389395E+02  0.51100000000E-03 0. -1.
         12    1    3    3    0    0 -0.18161339567E+02  0.10421458891E+02 -0.55735983409E+01  0.21668088489E+02  0.00000000000E+00 0. -1.
</event>
<event>
 7    1  0.2967339E-010  0.4778727E+02  0.7816164E-02  0.1312668E+00
        -11   -1    0    0    0    0  0.00000000000E+00  0.00000000000E+00  0.45593999997E+02  0.45594000000E+02  0.51100000000E-03 0. -1.
         11   -1    0    0    0    0 -0.00000000000E+00 -0.00000000000E+00 -0.45593999997E+02  0.45594000000E+02  0.51100000000E-03 0.  1.
    9900012    2    1    2    0    0  0.62860652240E+01  0.89290106241E+01  0.42004540584E+02  0.47787271016E+02  0.19999999869E+02 0.  0.
        -12    1    1    2    0    0 -0.62860652240E+01 -0.89290106241E+01 -0.42004540584E+02  0.43400728984E+02  0.00000000000E+00 0.  1.
         11    1    3    3    0    0  0.21490309135E+01  0.35818069122E+01  0.25620237455E+02  0.25958510014E+02  0.51100000000E-03 0. -1.
        -11    1    3    3    0    0  0.99030300427E+00  0.83933761691E+01  0.54667897299E+01  0.10065547862E+02  0.51100000000E-03 0.  1.
        -12    1    3    3    0    0  0.31467313063E+01 -0.30461724571E+01  0.10917513398E+02  0.11763213139E+02  0.00000000000E+00 0.  1.
</event>
<event>
 7    1  0.2732193E-010  0.4778727E+02  0.7816164E-02  0.1312668E+00
        -11   -1    0    0    0    0  0.00000000000E+00  0.00000000000E+00  0.45593999997E+02  0.45594000000E+02  0.51100000000E-03 0.  1.
         11   -1    0    0    0    0 -0.00000000000E+00 -0.00000000000E+00 -0.45593999997E+02  0.45594000000E+02  0.51100000000E-03 0. -1.
    9900012    2    1    2    0    0 -0.57924022417E+01  0.20351617478E+02 -0.37893045353E+02  0.47787272543E+02  0.20000006830E+02 0.  0.
        -12    1    1    2    0    0  0.57924022417E+01 -0.20351617478E+02  0.37893045353E+02  0.43400727457E+02  0.00000000000E+00 0.  1.
         11    1    3    3    0    0 -0.51542991067E+01  0.16281644969E+02 -0.30766239604E+02  0.35188354065E+02  0.51100000000E-03 0. -1.
        -11    1    3    3    0    0  0.34263325296E+01  0.29981785547E+00  0.15980235489E+00  0.34431355483E+01  0.51100000000E-03 0.  1.
        -12    1    3    3    0    0 -0.40644356647E+01  0.37701546533E+01 -0.72866081037E+01  0.91557829288E+01  0.00000000000E+00 0.  1.
</event>
<event>
 7    1  0.2732193E-010  0.4778724E+02  0.7816164E-02  0.1312668E+00
        -11   -1    0    0    0    0  0.00000000000E+00  0.00000000000E+00  0.45593999997E+02  0.45594000000E+02  0.51100000000E-03 0. -1.
         11   -1    0    0    0    0 -0.00000000000E+00 -0.00000000000E+00 -0.45593999997E+02  0.45594000000E+02  0.51100000000E-03 0.  1.
    9900012    2    1    2    0    0 -0.36781783090E+02  0.16098885464E+02  0.16478848418E+02  0.47787238190E+02  0.19999850204E+02 0.  0.
        -12    1    1    2    0    0  0.36781783090E+02 -0.16098885464E+02 -0.16478848418E+02  0.43400761810E+02  0.00000000000E+00 0.  1.
         11    1    3    3    0    0 -0.25044497769E+02  0.61263443542E+01  0.71859895897E+01  0.26765601251E+02  0.51100000000E-03 0. -1.
        -11    1    3    3    0    0  0.85192830809E+00  0.22275646005E+01 -0.14119544584E+01  0.27715413663E+01  0.51100000000E-03 0.  1.
        -12    1    3    3    0    0 -0.12589213629E+02  0.77449765091E+01  0.10704813287E+02  0.18250095573E+02  0.00000000000E+00 0.  1.
</event>
<event>
 7    1  0.2732193E-010  0.4778729E+02  0.7816164E-02  0.1312668E+00
        -11   -1    0    0    0    0  0.00000000000E+00  0.00000000000E+00  0.45593999997E+02  0.45594000000E+02  0.51100000000E-03 0. -1.
         11   -1    0    0    0    0 -0.00000000000E+00 -0.00000000000E+00 -0.45593999997E+02  0.45594000000E+02  0.51100000000E-03 0.  1.
    9900012    2    1    2    0    0  0.13639772791E+02 -0.35956669406E+02  0.20117067072E+02  0.47787287286E+02  0.20000074050E+02 0.  0.
        -12    1    1    2    0    0 -0.13639772791E+02  0.35956669406E+02 -0.20117067072E+02  0.43400712714E+02  0.00000000000E+00 0.  1.
         11    1    3    3    0    0  0.12812793789E+02 -0.25226498565E+02  0.80208323792E+01  0.29408802541E+02  0.51100000000E-03 0. -1.
        -11    1    3    3    0    0 -0.41486781895E+00  0.11111376160E+01  0.34939655144E+01  0.36897882576E+01  0.51100000000E-03 0.  1.
         12    1    3    3    0    0  0.12418468204E+01 -0.11841308457E+02  0.86022691779E+01  0.14688696487E+02  0.00000000000E+00 0. -1.
</event>
<event>
 7    1  0.2732193E-010  0.4778727E+02  0.7816164E-02  0.1312668E+00
        -11   -1    0    0    0    0  0.00000000000E+00  0.00000000000E+00  0.45593999997E+02  0.45594000000E+02  0.51100000000E-03 0. -1.
         11   -1    0    0    0    0 -0.00000000000E+00 -0.00000000000E+00 -0.45593999997E+02  0.45594000000E+02  0.51100000000E-03 0.  1.
    9900012    2    1    2    0    0  0.23609693417E+02 -0.36403068550E+02  0.10111141176E+01  0.47787269881E+02  0.19999994696E+02 0.  0.
        -12    1    1    2    0    0 -0.23609693417E+02  0.36403068550E+02 -0.10111141176E+01  0.43400730119E+02  0.00000000000E+00 0.  1.
         11    1    3    3    0    0  0.86778942620E+01 -0.21157238357E+02  0.80642866711E+01  0.24248037106E+02  0.51100000000E-03 0. -1.
        -11    1    3    3    0    0  0.71790616851E+01 -0.37436080232E+01 -0.50028733979E+01  0.95174718390E+01  0.51100000000E-03 0.  1.
        -12    1    3    3    0    0  0.77527374700E+01 -0.11502222170E+02 -0.20502991556E+01  0.14021760936E+02  0.00000000000E+00 0.  1.
</event>
<event>
 7    1  0.2732193E-010  0.4778727E+02  0.7816164E-02  0.1312668E+00
        -11   -1    0    0    0    0  0.00000000000E+00  0.00000000000E+00  0.45593999997E+02  0.45594000000E+02  0.51100000000E-03 0.  1.
         11   -1    0    0    0    0 -0.00000000000E+00 -0.00000000000E+00 -0.45593999997E+02  0.45594000000E+02  0.51100000000E-03 0. -1.
    9900012    2    1    2    0    0  0.28918893211E+01  0.39734023389E+02 -0.17218242698E+02  0.47787268207E+02  0.19999987063E+02 0.  0.
        -12    1    1    2    0    0 -0.28918893211E+01 -0.39734023389E+02  0.17218242698E+02  0.43400731793E+02  0.00000000000E+00 0.  1.
         11    1    3    3    0    0  0.12433376693E+01  0.10438320719E+02 -0.11235793404E+02  0.15386600718E+02  0.51100000000E-03 0. -1.
        -11    1    3    3    0    0 -0.46925806804E+01  0.18818581252E+02 -0.54343087292E+01  0.20141773144E+02  0.51100000000E-03 0.  1.
        -12    1    3    3    0    0  0.63411323322E+01  0.10477121418E+02 -0.54814056536E+00  0.12258894344E+02  0.00000000000E+00 0.  1.
</event>
<event>
 7    1  0.2732193E-010  0.4778726E+02  0.7816164E-02  0.1312668E+00
        -11   -1    0    0    0    0  0.00000000000E+00  0.00000000000E+00  0.45593999997E+02  0.45594000000E+02  0.51100000000E-03 0.  1.
         11   -1    0    0    0    0 -0.00000000000E+00 -0.00000000000E+00 -0.45593999997E+02  0.45594000000E+02  0.51100000000E-03 0. -1.
    9900012    2    1    2    0    0 -0.21188736316E+02  0.17199712353E+02 -0.33746574472E+02  0.47787263367E+02  0.19999964996E+02 0.  0.
        -12    1    1    2    0    0  0.21188736316E+02 -0.17199712353E+02  0.33746574472E+02  0.43400736633E+02  0.00000000000E+00 0.  1.
         11    1    3    3    0    0 -0.70797419247E+01 -0.21016176953E+01 -0.72221444178E+01  0.10329516586E+02  0.51100000000E-03 0.  1.
        -11    1    3    3    0    0 -0.68259369042E+01  0.17676701767E+02 -0.18111558004E+02  0.26212358413E+02  0.51100000000E-03 0. -1.
         12    1    3    3    0    0 -0.72830574869E+01  0.16246282821E+01 -0.84128720498E+01  0.11245388368E+02  0.00000000000E+00 0. -1.
</event>
<event>
 7    1  0.2732193E-010  0.4778727E+02  0.7816164E-02  0.1312668E+00
        -11   -1    0    0    0    0  0.00000000000E+00  0.00000000000E+00  0.45593999997E+02  0.45594000000E+02  0.51100000000E-03 0. -1.
         11   -1    0    0    0    0 -0.00000000000E+00 -0.00000000000E+00 -0.45593999997E+02  0.45594000000E+02  0.51100000000E-03 0.  1.
    9900012    2    1    2    0    0 -0.17235872399E+01  0.38350726387E+02  0.20245348380E+02  0.47787273066E+02  0.20000009217E+02 0.  0.
        -12    1    1    2    0    0  0.17235872399E+01 -0.38350726387E+02 -0.20245348380E+02  0.43400726934E+02  0.00000000000E+00 0.  1.
         11    1    3    3    0    0  0.58063741156E+01  0.18737754563E+02  0.13092752841E+02  0.23584690026E+02  0.51100000000E-03 0. -1.
        -11    1    3    3    0    0 -0.59998193389E+01  0.11225168066E+02 -0.51120584346E+00  0.12738271542E+02  0.51100000000E-03 0.  1.
        -12    1    3    3    0    0 -0.15301420167E+01  0.83878037580E+01  0.76638013824E+01  0.11464311497E+02  0.00000000000E+00 0.  1.
</event>
<event>
 7    1  0.2732193E-010  0.4778727E+02  0.7816164E-02  0.1312668E+00
        -11   -1    0    0    0    0  0.00000000000E+00  0.00000000000E+00  0.45593999997E+02  0.45594000000E+02  0.51100000000E-03 0. -1.
         11   -1    0    0    0    0 -0.00000000000E+00 -0.00000000000E+00 -0.45593999997E+02  0.45594000000E+02  0.51100000000E-03 0.  1.
    9900012    2    1    2    0    0  0.35360166818E+02  0.21167498071E+02  0.13609515734E+02  0.47787270853E+02  0.19999999126E+02 0.  0.
        -12    1    1    2    0    0 -0.35360166818E+02 -0.21167498071E+02 -0.13609515734E+02  0.43400729147E+02  0.00000000000E+00 0.  1.
         11    1    3    3    0    0  0.23993898530E+02  0.17308556854E+02  0.10593087014E+02  0.31424620917E+02  0.51100000000E-03 0. -1.
        -11    1    3    3    0    0  0.87184721551E+01  0.25659071429E+01 -0.30763207706E+01  0.95947582528E+01  0.51100000000E-03 0.  1.
         12    1    3    3    0    0  0.26477961329E+01  0.12930340747E+01  0.60927494902E+01  0.67678916827E+01  0.00000000000E+00 0. -1.
</event>
<event>
 7    1  0.2732193E-010  0.4778727E+02  0.7816164E-02  0.1312668E+00
        -11   -1    0    0    0    0  0.00000000000E+00  0.00000000000E+00  0.45593999997E+02  0.45594000000E+02  0.51100000000E-03 0. -1.
         11   -1    0    0    0    0 -0.00000000000E+00 -0.00000000000E+00 -0.45593999997E+02  0.45594000000E+02  0.51100000000E-03 0.  1.
    9900012    2    1    2    0    0 -0.17493020415E+02 -0.37999853344E+02  0.11559777972E+02  0.47787273230E+02  0.20000009963E+02 0.  0.
        -12    1    1    2    0    0  0.17493020415E+02  0.37999853344E+02 -0.11559777972E+02  0.43400726770E+02  0.00000000000E+00 0.  1.
         11    1    3    3    0    0 -0.15092471424E+01  0.20351440648E+01  0.40602710564E+00  0.25660273913E+01  0.51100000000E-03 0. -1.
        -11    1    3    3    0    0 -0.48647148119E+00  0.14906584127E+00  0.76235171123E+00  0.91654542701E+00  0.51100000000E-03 0.  1.
         12    1    3    3    0    0 -0.15497301792E+02 -0.40184063250E+02  0.10391399156E+02  0.44304700411E+02  0.00000000000E+00 0. -1.
</event>
<event>
 7    1  0.2732193E-010  0.4778727E+02  0.7816164E-02  0.1312668E+00
        -11   -1    0    0    0    0  0.00000000000E+00  0.00000000000E+00  0.45593999997E+02  0.45594000000E+02  0.51100000000E-03 0.  1.
         11   -1    0    0    0    0 -0.00000000000E+00 -0.00000000000E+00 -0.45593999997E+02  0.45594000000E+02  0.51100000000E-03 0. -1.
    9900012    2    1    2    0    0 -0.13878263133E+02 -0.27409958124E+02 -0.30654713041E+02  0.47787269320E+02  0.19999992138E+02 0.  0.
        -12    1    1    2    0    0  0.13878263133E+02  0.27409958124E+02  0.30654713041E+02  0.43400730680E+02  0.00000000000E+00 0.  1.
         11    1    3    3    0    0 -0.76837134530E+01 -0.29173836743E+01 -0.13517960489E+02  0.15820424646E+02  0.51100000000E-03 0. -1.
        -11    1    3    3    0    0 -0.39880416167E+01 -0.34395678893E+01 -0.62176514282E+01  0.81482693098E+01  0.51100000000E-03 0.  1.
         12    1    3    3    0    0 -0.22065080631E+01 -0.21053006560E+02 -0.10919101124E+02  0.23818575365E+02  0.00000000000E+00 0. -1.
</event>
<event>
 7    1  0.2732193E-010  0.4778727E+02  0.7816164E-02  0.1312668E+00
        -11   -1    0    0    0    0  0.00000000000E+00  0.00000000000E+00  0.45593999997E+02  0.45594000000E+02  0.51100000000E-03 0. -1.
         11   -1    0    0    0    0 -0.00000000000E+00 -0.00000000000E+00 -0.45593999997E+02  0.45594000000E+02  0.51100000000E-03 0.  1.
    9900012    2    1    2    0    0 -0.96192542682E+01 -0.32224758922E+02  0.27434612393E+02  0.47787273077E+02  0.20000009268E+02 0.  0.
        -12    1    1    2    0    0  0.96192542682E+01  0.32224758922E+02 -0.27434612393E+02  0.43400726923E+02  0.00000000000E+00 0.  1.
         11    1    3    3    0    0 -0.97241544568E+01 -0.18549837766E+02  0.16804747740E+02  0.26852471169E+02  0.51100000000E-03 0. -1.
        -11    1    3    3    0    0  0.32510314808E+01 -0.96989335949E+01  0.11915607588E+02  0.15704146682E+02  0.51100000000E-03 0.  1.
         12    1    3    3    0    0 -0.31461312923E+01 -0.39759875618E+01 -0.12857429343E+01  0.52306552260E+01  0.00000000000E+00 0. -1.
</event>
<event>
 7    1  0.2732193E-010  0.4778727E+02  0.7816164E-02  0.1312668E+00
        -11   -1    0    0    0    0  0.00000000000E+00  0.00000000000E+00  0.45593999997E+02  0.45594000000E+02  0.51100000000E-03 0.  1.
         11   -1    0    0    0    0 -0.00000000000E+00 -0.00000000000E+00 -0.45593999997E+02  0.45594000000E+02  0.51100000000E-03 0. -1.
    9900012    2    1    2    0    0 -0.22835381478E+02  0.28998043267E+02 -0.22831611127E+02  0.47787266974E+02  0.19999981442E+02 0.  0.
        -12    1    1    2    0    0  0.22835381478E+02 -0.28998043267E+02  0.22831611127E+02  0.43400733026E+02  0.00000000000E+00 0.  1.
         11    1    3    3    0    0 -0.11808217836E+02  0.92918956750E+01 -0.50833250459E+01  0.15862330455E+02  0.51100000000E-03 0. -1.
        -11    1    3    3    0    0 -0.66143442656E+01  0.14691780894E+02 -0.19225237059E+02  0.25084013158E+02  0.51100000000E-03 0.  1.
        -12    1    3    3    0    0 -0.44128193762E+01  0.50143666982E+01  0.14769509781E+01  0.68409233604E+01  0.00000000000E+00 0.  1.
</event>
<event>
 7    1  0.2732193E-010  0.4778727E+02  0.7816164E-02  0.1312668E+00
        -11   -1    0    0    0    0  0.00000000000E+00  0.00000000000E+00  0.45593999997E+02  0.45594000000E+02  0.51100000000E-03 0. -1.
         11   -1    0    0    0    0 -0.00000000000E+00 -0.00000000000E+00 -0.45593999997E+02  0.45594000000E+02  0.51100000000E-03 0.  1.
    9900012    2    1    2    0    0  0.31810955325E+02 -0.25689011280E+02  0.14552002832E+02  0.47787274595E+02  0.20000016190E+02 0.  0.
        -12    1    1    2    0    0 -0.31810955325E+02  0.25689011280E+02 -0.14552002832E+02  0.43400725405E+02  0.00000000000E+00 0.  1.
         11    1    3    3    0    0  0.14669020063E+02 -0.17705665413E+02  0.82250623843E+01  0.24419713119E+02  0.51100000000E-03 0. -1.
        -11    1    3    3    0    0  0.34681974152E+01 -0.63363430812E+01 -0.17079143856E+01  0.74225742679E+01  0.51100000000E-03 0.  1.
         12    1    3    3    0    0  0.13673737846E+02 -0.16470027857E+01  0.80348548337E+01  0.15944987208E+02  0.00000000000E+00 0. -1.
</event>
<event>
 7    1  0.2732193E-010  0.4778727E+02  0.7816164E-02  0.1312668E+00
        -11   -1    0    0    0    0  0.00000000000E+00  0.00000000000E+00  0.45593999997E+02  0.45594000000E+02  0.51100000000E-03 0.  1.
         11   -1    0    0    0    0 -0.00000000000E+00 -0.00000000000E+00 -0.45593999997E+02  0.45594000000E+02  0.51100000000E-03 0. -1.
    9900012    2    1    2    0    0  0.38141815772E+02 -0.82916390549E+01 -0.18975621617E+02  0.47787267238E+02  0.19999982643E+02 0.  0.
        -12    1    1    2    0    0 -0.38141815772E+02  0.82916390549E+01  0.18975621617E+02  0.43400732762E+02  0.00000000000E+00 0.  1.
         11    1    3    3    0    0  0.64789842549E+01 -0.85802877352E+01 -0.75119646510E+01  0.13115951653E+02  0.51100000000E-03 0. -1.
        -11    1    3    3    0    0  0.27059772568E+02  0.23777769727E+01 -0.73145525008E+01  0.28131615548E+02  0.51100000000E-03 0.  1.
        -12    1    3    3    0    0  0.46030589486E+01 -0.20891282924E+01 -0.41491044651E+01  0.65397000366E+01  0.00000000000E+00 0.  1.
</event>
<event>
 7    1  0.2732193E-010  0.4778727E+02  0.7816164E-02  0.1312668E+00
        -11   -1    0    0    0    0  0.00000000000E+00  0.00000000000E+00  0.45593999997E+02  0.45594000000E+02  0.51100000000E-03 0. -1.
         11   -1    0    0    0    0 -0.00000000000E+00 -0.00000000000E+00 -0.45593999997E+02  0.45594000000E+02  0.51100000000E-03 0.  1.
    9900012    2    1    2    0    0 -0.14692273820E+00 -0.17126906492E+02  0.39878197271E+02  0.47787272703E+02  0.20000007563E+02 0.  0.
        -12    1    1    2    0    0  0.14692273820E+00  0.17126906492E+02 -0.39878197271E+02  0.43400727297E+02  0.00000000000E+00 0.  1.
         11    1    3    3    0    0  0.31771637512E+01 -0.35414826297E+01  0.26913906992E+02  0.27331206680E+02  0.51100000000E-03 0. -1.
        -11    1    3    3    0    0  0.17059203552E+01 -0.54367287828E+01  0.23589708246E+01  0.61670842161E+01  0.51100000000E-03 0.  1.
         12    1    3    3    0    0 -0.50300068446E+01 -0.81486950796E+01  0.10605319455E+02  0.14288981807E+02  0.00000000000E+00 0. -1.
</event>
<event>
 7    1  0.2732193E-010  0.4778727E+02  0.7816164E-02  0.1312668E+00
        -11   -1    0    0    0    0  0.00000000000E+00  0.00000000000E+00  0.45593999997E+02  0.45594000000E+02  0.51100000000E-03 0.  1.
         11   -1    0    0    0    0 -0.00000000000E+00 -0.00000000000E+00 -0.45593999997E+02  0.45594000000E+02  0.51100000000E-03 0. -1.
    9900012    2    1    2    0    0 -0.80070527922E+01  0.40549775110E+02 -0.13237288664E+02  0.47787274579E+02  0.20000016115E+02 0.  0.
        -12    1    1    2    0    0  0.80070527922E+01 -0.40549775110E+02  0.13237288664E+02  0.43400725421E+02  0.00000000000E+00 0.  1.
         11    1    3    3    0    0  0.81932772798E+00  0.24450038575E+02 -0.10521547588E+02  0.26630408336E+02  0.51100000000E-03 0. -1.
        -11    1    3    3    0    0 -0.11134847712E+02  0.13655465921E+02 -0.22797390239E+01  0.17766648344E+02  0.51100000000E-03 0.  1.
        -12    1    3    3    0    0  0.23084671919E+01  0.24442706148E+01 -0.43600205120E+00  0.33902178990E+01  0.00000000000E+00 0.  1.
</event>
<event>
 7    1  0.2732193E-010  0.4778727E+02  0.7816164E-02  0.1312668E+00
        -11   -1    0    0    0    0  0.00000000000E+00  0.00000000000E+00  0.45593999997E+02  0.45594000000E+02  0.51100000000E-03 0.  1.
         11   -1    0    0    0    0 -0.00000000000E+00 -0.00000000000E+00 -0.45593999997E+02  0.45594000000E+02  0.51100000000E-03 0. -1.
    9900012    2    1    2    0    0  0.36753999670E+02  0.21622997047E+02  0.80754532920E+01  0.47787269144E+02  0.19999991333E+02 0.  0.
        -12    1    1    2    0    0 -0.36753999670E+02 -0.21622997047E+02 -0.80754532920E+01  0.43400730856E+02  0.00000000000E+00 0.  1.
         11    1    3    3    0    0 -0.16307449814E+01 -0.51073883588E+00  0.17339589032E+01  0.24345014052E+01  0.51100000000E-03 0.  1.
        -11    1    3    3    0    0  0.22094995760E+02  0.16166236319E+02  0.58594959247E+01  0.27997673602E+02  0.51100000000E-03 0. -1.
        -12    1    3    3    0    0  0.16289748891E+02  0.59674995642E+01  0.48199846411E+00  0.17355094137E+02  0.00000000000E+00 0.  1.
</event>
<event>
 7    1  0.2732193E-010  0.4778727E+02  0.7816164E-02  0.1312668E+00
        -11   -1    0    0    0    0  0.00000000000E+00  0.00000000000E+00  0.45593999997E+02  0.45594000000E+02  0.51100000000E-03 0.  1.
         11   -1    0    0    0    0 -0.00000000000E+00 -0.00000000000E+00 -0.45593999997E+02  0.45594000000E+02  0.51100000000E-03 0. -1.
    9900012    2    1    2    0    0 -0.19356112005E+02  0.17182606409E+02 -0.34838516109E+02  0.47787271439E+02  0.20000001800E+02 0.  0.
        -12    1    1    2    0    0  0.19356112005E+02 -0.17182606409E+02  0.34838516109E+02  0.43400728561E+02  0.00000000000E+00 0.  1.
         11    1    3    3    0    0 -0.16850110531E+02  0.19668091898E+02 -0.22130436841E+02  0.34066351417E+02  0.51100000000E-03 0. -1.
        -11    1    3    3    0    0 -0.17609946092E+01 -0.24223262740E+00 -0.98636470770E+01  0.10022540226E+02  0.51100000000E-03 0.  1.
         12    1    3    3    0    0 -0.74500686392E+00 -0.22432528616E+01 -0.28444321908E+01  0.36983797962E+01  0.00000000000E+00 0. -1.
</event>
<event>
 7    1  0.2732193E-010  0.4778726E+02  0.7816164E-02  0.1312668E+00
        -11   -1    0    0    0    0  0.00000000000E+00  0.00000000000E+00  0.45593999997E+02  0.45594000000E+02  0.51100000000E-03 0.  1.
         11   -1    0    0    0    0 -0.00000000000E+00 -0.00000000000E+00 -0.45593999997E+02  0.45594000000E+02  0.51100000000E-03 0. -1.
    9900012    2    1    2    0    0 -0.33682226113E+02 -0.20286986189E+02 -0.18373072321E+02  0.47787263243E+02  0.19999964428E+02 0.  0.
        -12    1    1    2    0    0  0.33682226113E+02  0.20286986189E+02  0.18373072321E+02  0.43400736757E+02  0.00000000000E+00 0.  1.
         11    1    3    3    0    0 -0.59866758940E+01 -0.38394148420E+01 -0.10902661162E+02  0.13017273726E+02  0.51100000000E-03 0. -1.
        -11    1    3    3    0    0 -0.18378869607E+02 -0.84461071616E+01  0.31495081706E+00  0.20229156396E+02  0.51100000000E-03 0.  1.
         12    1    3    3    0    0 -0.93166806126E+01 -0.80014641856E+01 -0.77853619761E+01  0.14540833121E+02  0.00000000000E+00 0. -1.
</event>
<event>
 7    1  0.2732193E-010  0.4778727E+02  0.7816164E-02  0.1312668E+00
        -11   -1    0    0    0    0  0.00000000000E+00  0.00000000000E+00  0.45593999997E+02  0.45594000000E+02  0.51100000000E-03 0. -1.
         11   -1    0    0    0    0 -0.00000000000E+00 -0.00000000000E+00 -0.45593999997E+02  0.45594000000E+02  0.51100000000E-03 0.  1.
    9900012    2    1    2    0    0  0.29886268417E+02  0.18636594666E+01  0.31415938399E+02  0.47787268993E+02  0.19999990646E+02 0.  0.
        -12    1    1    2    0    0 -0.29886268417E+02 -0.18636594666E+01 -0.31415938399E+02  0.43400731007E+02  0.00000000000E+00 0.  1.
         11    1    3    3    0    0  0.74191031799E+01  0.89231603005E+00  0.12007610934E+02  0.14142914852E+02  0.51100000000E-03 0. -1.
        -11    1    3    3    0    0  0.13165942728E+02  0.79995506938E+01  0.13904027053E+02  0.20752272834E+02  0.51100000000E-03 0.  1.
        -12    1    3    3    0    0  0.93012225093E+01 -0.70282072572E+01  0.55043004109E+01  0.12892081307E+02  0.00000000000E+00 0.  1.
</event>
<event>
 7    1  0.2732193E-010  0.4778727E+02  0.7816164E-02  0.1312668E+00
        -11   -1    0    0    0    0  0.00000000000E+00  0.00000000000E+00  0.45593999997E+02  0.45594000000E+02  0.51100000000E-03 0.  1.
         11   -1    0    0    0    0 -0.00000000000E+00 -0.00000000000E+00 -0.45593999997E+02  0.45594000000E+02  0.51100000000E-03 0. -1.
    9900012    2    1    2    0    0  0.33693799036E+02 -0.13330230834E+02 -0.23888418804E+02  0.47787266129E+02  0.19999977589E+02 0.  0.
        -12    1    1    2    0    0 -0.33693799036E+02  0.13330230834E+02  0.23888418804E+02  0.43400733871E+02  0.00000000000E+00 0.  1.
         11    1    3    3    0    0  0.24828094937E+02 -0.81375154866E+01 -0.72440264412E+01  0.27113269369E+02  0.51100000000E-03 0. -1.
        -11    1    3    3    0    0 -0.95721427894E+00 -0.11156012952E+01 -0.32789567480E+01  0.35933804477E+01  0.51100000000E-03 0.  1.
         12    1    3    3    0    0  0.98229183778E+01 -0.40771140518E+01 -0.13365435615E+02  0.17080616313E+02  0.00000000000E+00 0. -1.
</event>
<event>
 7    1  0.2732193E-010  0.4778727E+02  0.7816164E-02  0.1312668E+00
        -11   -1    0    0    0    0  0.00000000000E+00  0.00000000000E+00  0.45593999997E+02  0.45594000000E+02  0.51100000000E-03 0. -1.
         11   -1    0    0    0    0 -0.00000000000E+00 -0.00000000000E+00 -0.45593999997E+02  0.45594000000E+02  0.51100000000E-03 0.  1.
    9900012    2    1    2    0    0  0.39170463068E+02  0.67256553716E+01  0.17437420608E+02  0.47787271267E+02  0.20000001013E+02 0.  0.
        -12    1    1    2    0    0 -0.39170463068E+02 -0.67256553716E+01 -0.17437420608E+02  0.43400728733E+02  0.00000000000E+00 0.  1.
         11    1    3    3    0    0  0.21840385495E+02  0.17029188142E+01  0.79946694064E+00  0.21921257234E+02  0.51100000000E-03 0. -1.
        -11    1    3    3    0    0  0.86782276045E+01  0.60462226542E+01  0.12001217177E+02  0.15996801453E+02  0.51100000000E-03 0.  1.
         12    1    3    3    0    0  0.86518499685E+01 -0.10234860968E+01  0.46367364907E+01  0.98692125801E+01  0.00000000000E+00 0. -1.
</event>
<event>
 7    1  0.2732193E-010  0.4778728E+02  0.7816164E-02  0.1312668E+00
        -11   -1    0    0    0    0  0.00000000000E+00  0.00000000000E+00  0.45593999997E+02  0.45594000000E+02  0.51100000000E-03 0. -1.
         11   -1    0    0    0    0 -0.00000000000E+00 -0.00000000000E+00 -0.45593999997E+02  0.45594000000E+02  0.51100000000E-03 0.  1.
    9900012    2    1    2    0    0  0.13708515150E+02 -0.39725920796E+02  0.10842081189E+02  0.47787275406E+02  0.20000019888E+02 0.  0.
        -12    1    1    2    0    0 -0.13708515150E+02  0.39725920796E+02 -0.10842081189E+02  0.43400724594E+02  0.00000000000E+00 0.  1.
         11    1    3    3    0    0  0.52884854769E+01 -0.24153816510E+02  0.99857437473E+01  0.26666271001E+02  0.51100000000E-03 0. -1.
        -11    1    3    3    0    0  0.59417806623E+01 -0.66054754243E+00 -0.37595507433E-01  0.59785026702E+01  0.51100000000E-03 0.  1.
        -12    1    3    3    0    0  0.24782490104E+01 -0.14911556744E+02  0.89393294913E+00  0.15142501736E+02  0.00000000000E+00 0.  1.
</event>
<event>
 7    1 -0.2732193E-010  0.4778727E+02  0.7816164E-02  0.1312668E+00
        -11   -1    0    0    0    0  0.00000000000E+00  0.00000000000E+00  0.45593999997E+02  0.45594000000E+02  0.51100000000E-03 0.  1.
         11   -1    0    0    0    0 -0.00000000000E+00 -0.00000000000E+00 -0.45593999997E+02  0.45594000000E+02  0.51100000000E-03 0. -1.
    9900012    2    1    2    0    0 -0.66912560796E+01  0.11448036565E+02 -0.41325449278E+02  0.47787271814E+02  0.20000003508E+02 0.  0.
        -12    1    1    2    0    0  0.66912560796E+01 -0.11448036565E+02  0.41325449278E+02  0.43400728186E+02  0.00000000000E+00 0.  1.
         11    1    3    3    0    0 -0.64285074776E+01  0.60554886921E+01 -0.18359428303E+02  0.20373101373E+02  0.51100000000E-03 0. -1.
        -11    1    3    3    0    0  0.34603203077E+01  0.18225571124E+01 -0.21770932464E+02  0.22119426568E+02  0.51100000000E-03 0.  1.
        -12    1    3    3    0    0 -0.37230689097E+01  0.35699907600E+01 -0.11950885105E+01  0.52947438730E+01  0.00000000000E+00 0.  1.
</event>
<event>
 7    1  0.2732193E-010  0.4778727E+02  0.7816164E-02  0.1312668E+00
        -11   -1    0    0    0    0  0.00000000000E+00  0.00000000000E+00  0.45593999997E+02  0.45594000000E+02  0.51100000000E-03 0.  1.
         11   -1    0    0    0    0 -0.00000000000E+00 -0.00000000000E+00 -0.45593999997E+02  0.45594000000E+02  0.51100000000E-03 0. -1.
    9900012    2    1    2    0    0 -0.36630568328E+02 -0.11918517237E+02 -0.19994348206E+02  0.47787267871E+02  0.19999985529E+02 0.  0.
        -12    1    1    2    0    0  0.36630568328E+02  0.11918517237E+02  0.19994348206E+02  0.43400732129E+02  0.00000000000E+00 0.  1.
         11    1    3    3    0    0 -0.29686789226E+02 -0.12939972919E+02 -0.77474591057E+01  0.33298220321E+02  0.51100000000E-03 0. -1.
        -11    1    3    3    0    0 -0.52590410200E+01  0.53237231671E+00 -0.59802930722E+01  0.79815310702E+01  0.51100000000E-03 0.  1.
         12    1    3    3    0    0 -0.16847380823E+01  0.48908336561E+00 -0.62665960283E+01  0.65075164792E+01  0.00000000000E+00 0. -1.
</event>
<event>
 7    1  0.2732193E-010  0.4778727E+02  0.7816164E-02  0.1312668E+00
        -11   -1    0    0    0    0  0.00000000000E+00  0.00000000000E+00  0.45593999997E+02  0.45594000000E+02  0.51100000000E-03 0.  1.
         11   -1    0    0    0    0 -0.00000000000E+00 -0.00000000000E+00 -0.45593999997E+02  0.45594000000E+02  0.51100000000E-03 0. -1.
    9900012    2    1    2    0    0  0.21095416197E+02 -0.32111865795E+01 -0.37792795353E+02  0.47787266315E+02  0.19999978438E+02 0.  0.
        -12    1    1    2    0    0 -0.21095416197E+02  0.32111865795E+01  0.37792795353E+02  0.43400733685E+02  0.00000000000E+00 0.  1.
         11    1    3    3    0    0  0.14647559039E+00  0.18042557724E+01 -0.41653899506E+00  0.18574980447E+01  0.51100000000E-03 0.  1.
        -11    1    3    3    0    0  0.15649012118E+02 -0.56600087581E+00 -0.12288887450E+02  0.19905494022E+02  0.51100000000E-03 0. -1.
         12    1    3    3    0    0  0.52999284891E+01 -0.44494414761E+01 -0.25087368908E+02  0.26024274248E+02  0.00000000000E+00 0. -1.
</event>
<event>
 7    1  0.2732193E-010  0.4778727E+02  0.7816164E-02  0.1312668E+00
        -11   -1    0    0    0    0  0.00000000000E+00  0.00000000000E+00  0.45593999997E+02  0.45594000000E+02  0.51100000000E-03 0.  1.
         11   -1    0    0    0    0 -0.00000000000E+00 -0.00000000000E+00 -0.45593999997E+02  0.45594000000E+02  0.51100000000E-03 0. -1.
    9900012    2    1    2    0    0  0.25970564363E+02  0.31306364109E+02 -0.15134875059E+02  0.47787273161E+02  0.20000009652E+02 0.  0.
        -12    1    1    2    0    0 -0.25970564363E+02 -0.31306364109E+02  0.15134875059E+02  0.43400726839E+02  0.00000000000E+00 0.  1.
         11    1    3    3    0    0  0.66078719665E+01  0.20357249760E+02 -0.10130296597E+02  0.23679199715E+02  0.51100000000E-03 0. -1.
        -11    1    3    3    0    0  0.11792505693E+02  0.94039640068E+01 -0.34799206793E+00  0.15087041734E+02  0.51100000000E-03 0.  1.
         12    1    3    3    0    0  0.75701867034E+01  0.15451503423E+01 -0.46565863946E+01  0.90210317123E+01  0.00000000000E+00 0. -1.
</event>
<event>
 7    1  0.2732193E-010  0.4778727E+02  0.7816164E-02  0.1312668E+00
        -11   -1    0    0    0    0  0.00000000000E+00  0.00000000000E+00  0.45593999997E+02  0.45594000000E+02  0.51100000000E-03 0.  1.
         11   -1    0    0    0    0 -0.00000000000E+00 -0.00000000000E+00 -0.45593999997E+02  0.45594000000E+02  0.51100000000E-03 0. -1.
    9900012    2    1    2    0    0 -0.54101296505E+01 -0.10600616371E+02 -0.41737043226E+02  0.47787270196E+02  0.19999996130E+02 0.  0.
        -12    1    1    2    0    0  0.54101296505E+01  0.10600616371E+02  0.41737043226E+02  0.43400729804E+02  0.00000000000E+00 0.  1.
         11    1    3    3    0    0 -0.47146978341E+01 -0.12302570446E+01 -0.19393756599E+02  0.19996492276E+02  0.51100000000E-03 0. -1.
        -11    1    3    3    0    0  0.61299144176E+01 -0.36011758668E+01 -0.66695325869E+01  0.97481784750E+01  0.51100000000E-03 0.  1.
        -12    1    3    3    0    0 -0.68253462339E+01 -0.57691834591E+01 -0.15673754041E+02  0.18042599445E+02  0.00000000000E+00 0.  1.
</event>
<event>
 7    1  0.2732193E-010  0.4778727E+02  0.7816164E-02  0.1312668E+00
        -11   -1    0    0    0    0  0.00000000000E+00  0.00000000000E+00  0.45593999997E+02  0.45594000000E+02  0.51100000000E-03 0.  1.
         11   -1    0    0    0    0 -0.00000000000E+00 -0.00000000000E+00 -0.45593999997E+02  0.45594000000E+02  0.51100000000E-03 0. -1.
    9900012    2    1    2    0    0  0.24792517149E+02  0.19257883980E+02 -0.29968125654E+02  0.47787267781E+02  0.19999985119E+02 0.  0.
        -12    1    1    2    0    0 -0.24792517149E+02 -0.19257883980E+02  0.29968125654E+02  0.43400732219E+02  0.00000000000E+00 0.  1.
         11    1    3    3    0    0  0.31360111186E+01  0.49506149915E+01 -0.14661870619E+01  0.60409319886E+01  0.51100000000E-03 0. -1.
        -11    1    3    3    0    0 -0.14993640263E+01 -0.17047186001E+01 -0.29860821238E+01  0.37511124617E+01  0.51100000000E-03 0.  1.
        -12    1    3    3    0    0  0.23155870056E+02  0.16011987589E+02 -0.25515856469E+02  0.37995223330E+02  0.00000000000E+00 0.  1.
</event>
<event>
 7    1  0.2732193E-010  0.4778727E+02  0.7816164E-02  0.1312668E+00
        -11   -1    0    0    0    0  0.00000000000E+00  0.00000000000E+00  0.45593999997E+02  0.45594000000E+02  0.51100000000E-03 0. -1.
         11   -1    0    0    0    0 -0.00000000000E+00 -0.00000000000E+00 -0.45593999997E+02  0.45594000000E+02  0.51100000000E-03 0.  1.
    9900012    2    1    2    0    0 -0.40489160707E+02 -0.12261302181E+02 -0.96908159576E+01  0.47787267519E+02  0.19999983927E+02 0.  0.
        -12    1    1    2    0    0  0.40489160707E+02  0.12261302181E+02  0.96908159576E+01  0.43400732481E+02  0.00000000000E+00 0.  1.
         11    1    3    3    0    0 -0.25860688362E+01  0.11174967491E+01  0.33394771472E+01  0.43690569792E+01  0.51100000000E-03 0. -1.
        -11    1    3    3    0    0 -0.29317001658E+02 -0.56542666021E+01 -0.98244364580E+01  0.31432099341E+02  0.51100000000E-03 0.  1.
        -12    1    3    3    0    0 -0.85860902133E+01 -0.77245323279E+01 -0.32058566468E+01  0.11986111199E+02  0.00000000000E+00 0.  1.
</event>
<event>
 7    1  0.2732193E-010  0.4778727E+02  0.7816164E-02  0.1312668E+00
        -11   -1    0    0    0    0  0.00000000000E+00  0.00000000000E+00  0.45593999997E+02  0.45594000000E+02  0.51100000000E-03 0.  1.
         11   -1    0    0    0    0 -0.00000000000E+00 -0.00000000000E+00 -0.45593999997E+02  0.45594000000E+02  0.51100000000E-03 0. -1.
    9900012    2    1    2    0    0 -0.15394886791E+02 -0.40559913694E+02 -0.12306576072E+01  0.47787266638E+02  0.19999979911E+02 0.  0.
        -12    1    1    2    0    0  0.15394886791E+02  0.40559913694E+02  0.12306576072E+01  0.43400733362E+02  0.00000000000E+00 0.  1.
         11    1    3    3    0    0 -0.10246702377E+02 -0.99186290149E+01  0.50452050066E+01  0.15127068617E+02  0.51100000000E-03 0. -1.
        -11    1    3    3    0    0 -0.40758387756E+01 -0.28531967743E+02 -0.77839368989E+01  0.29854234522E+02  0.51100000000E-03 0.  1.
        -12    1    3    3    0    0 -0.10723456385E+01 -0.21093169364E+01  0.15080742851E+01  0.28059634987E+01  0.00000000000E+00 0.  1.
</event>
<event>
 7    1  0.2732193E-010  0.4778727E+02  0.7816164E-02  0.1312668E+00
        -11   -1    0    0    0    0  0.00000000000E+00  0.00000000000E+00  0.45593999997E+02  0.45594000000E+02  0.51100000000E-03 0.  1.
         11   -1    0    0    0    0 -0.00000000000E+00 -0.00000000000E+00 -0.45593999997E+02  0.45594000000E+02  0.51100000000E-03 0. -1.
    9900012    2    1    2    0    0 -0.33974025490E+02  0.44415603885E+00 -0.27003542051E+02  0.47787274593E+02  0.20000016179E+02 0.  0.
        -12    1    1    2    0    0  0.33974025490E+02 -0.44415603885E+00  0.27003542051E+02  0.43400725407E+02  0.00000000000E+00 0.  1.
         11    1    3    3    0    0 -0.77162266483E+01  0.22242025824E+01 -0.12349638394E+02  0.14730947001E+02  0.51100000000E-03 0. -1.
        -11    1    3    3    0    0 -0.34852631658E+01  0.74399422215E+00  0.25687996859E+01  0.43930990001E+01  0.51100000000E-03 0.  1.
        -12    1    3    3    0    0 -0.22772535676E+02 -0.25240407657E+01 -0.17222703342E+02  0.28663228592E+02  0.00000000000E+00 0.  1.
</event>
<event>
 7    1  0.2732193E-010  0.4778727E+02  0.7816164E-02  0.1312668E+00
        -11   -1    0    0    0    0  0.00000000000E+00  0.00000000000E+00  0.45593999997E+02  0.45594000000E+02  0.51100000000E-03 0. -1.
         11   -1    0    0    0    0 -0.00000000000E+00 -0.00000000000E+00 -0.45593999997E+02  0.45594000000E+02  0.51100000000E-03 0.  1.
    9900012    2    1    2    0    0  0.31452115579E+02  0.25341181801E+02  0.15881189550E+02  0.47787271308E+02  0.20000001203E+02 0.  0.
        -12    1    1    2    0    0 -0.31452115579E+02 -0.25341181801E+02 -0.15881189550E+02  0.43400728692E+02  0.00000000000E+00 0.  1.
         11    1    3    3    0    0  0.11916217512E+02  0.68300347948E+01  0.10843935059E+02  0.17499615508E+02  0.51100000000E-03 0. -1.
        -11    1    3    3    0    0  0.44153902213E+01  0.44448553843E+01 -0.43249347101E+01  0.76129804086E+01  0.51100000000E-03 0.  1.
        -12    1    3    3    0    0  0.15120507845E+02  0.14066291622E+02  0.93621892013E+01  0.22674675392E+02  0.00000000000E+00 0.  1.
</event>
<event>
 7    1  0.2732193E-010  0.4778727E+02  0.7816164E-02  0.1312668E+00
        -11   -1    0    0    0    0  0.00000000000E+00  0.00000000000E+00  0.45593999997E+02  0.45594000000E+02  0.51100000000E-03 0.  1.
         11   -1    0    0    0    0 -0.00000000000E+00 -0.00000000000E+00 -0.45593999997E+02  0.45594000000E+02  0.51100000000E-03 0. -1.
    9900012    2    1    2    0    0 -0.34642618443E+02  0.14396335577E+02 -0.21823327467E+02  0.47787272905E+02  0.20000008484E+02 0.  0.
        -12    1    1    2    0    0  0.34642618443E+02 -0.14396335577E+02  0.21823327467E+02  0.43400727095E+02  0.00000000000E+00 0.  1.
         11    1    3    3    0    0 -0.28551314158E+02  0.11005077235E+02 -0.14641044561E+02  0.33921224199E+02  0.51100000000E-03 0. -1.
        -11    1    3    3    0    0 -0.70260644585E+01  0.37241902808E+01 -0.14931440683E+01  0.80910230807E+01  0.51100000000E-03 0.  1.
         12    1    3    3    0    0  0.93476017300E+00 -0.33293193952E+00 -0.56891388375E+01  0.57750256250E+01  0.00000000000E+00 0. -1.
</event>
<event>
 7    1  0.2732193E-010  0.4778725E+02  0.7816164E-02  0.1312668E+00
        -11   -1    0    0    0    0  0.00000000000E+00  0.00000000000E+00  0.45593999997E+02  0.45594000000E+02  0.51100000000E-03 0. -1.
         11   -1    0    0    0    0 -0.00000000000E+00 -0.00000000000E+00 -0.45593999997E+02  0.45594000000E+02  0.51100000000E-03 0.  1.
    9900012    2    1    2    0    0 -0.82629322808E+00 -0.41927919002E+02 -0.11179968296E+02  0.47787252962E+02  0.19999917553E+02 0.  0.
        -12    1    1    2    0    0  0.82629322808E+00  0.41927919002E+02  0.11179968296E+02  0.43400747038E+02  0.00000000000E+00 0.  1.
         11    1    3    3    0    0  0.60149400917E+01 -0.24586524597E+02 -0.42799732128E+01  0.25670895329E+02  0.51100000000E-03 0. -1.
        -11    1    3    3    0    0  0.19190522051E+01 -0.18081261791E+01 -0.27435141624E+01  0.38051217938E+01  0.51100000000E-03 0.  1.
         12    1    3    3    0    0 -0.87602855249E+01 -0.15533268227E+02 -0.41564809212E+01  0.18311235838E+02  0.00000000000E+00 0. -1.
</event>
<event>
 7    1  0.2732193E-010  0.4778727E+02  0.7816164E-02  0.1312668E+00
        -11   -1    0    0    0    0  0.00000000000E+00  0.00000000000E+00  0.45593999997E+02  0.45594000000E+02  0.51100000000E-03 0.  1.
         11   -1    0    0    0    0 -0.00000000000E+00 -0.00000000000E+00 -0.45593999997E+02  0.45594000000E+02  0.51100000000E-03 0. -1.
    9900012    2    1    2    0    0 -0.36615291922E+02 -0.68573714730E+01 -0.22269264864E+02  0.47787270702E+02  0.19999998439E+02 0.  0.
        -12    1    1    2    0    0  0.36615291922E+02  0.68573714730E+01  0.22269264864E+02  0.43400729298E+02  0.00000000000E+00 0.  1.
         11    1    3    3    0    0 -0.22220713515E+02 -0.16323674413E+01 -0.23192429537E+02  0.32160745026E+02  0.51100000000E-03 0. -1.
        -11    1    3    3    0    0 -0.47271451429E+01 -0.11230809569E+01  0.15669335151E+01  0.51051437727E+01  0.51100000000E-03 0.  1.
         12    1    3    3    0    0 -0.96674332640E+01 -0.41019230748E+01 -0.64376884190E+00  0.10521381903E+02  0.00000000000E+00 0. -1.
</event>
<event>
 7    1  0.2732193E-010  0.4778727E+02  0.7816164E-02  0.1312668E+00
        -11   -1    0    0    0    0  0.00000000000E+00  0.00000000000E+00  0.45593999997E+02  0.45594000000E+02  0.51100000000E-03 0.  1.
         11   -1    0    0    0    0 -0.00000000000E+00 -0.00000000000E+00 -0.45593999997E+02  0.45594000000E+02  0.51100000000E-03 0. -1.
    9900012    2    1    2    0    0  0.32767228953E+02  0.88832943253E+01 -0.27037358680E+02  0.47787274480E+02  0.20000015663E+02 0.  0.
        -12    1    1    2    0    0 -0.32767228953E+02 -0.88832943253E+01  0.27037358680E+02  0.43400725520E+02  0.00000000000E+00 0.  1.
         11    1    3    3    0    0  0.24898913145E+02  0.16939244859E+01 -0.23714684964E+02  0.34426901388E+02  0.51100000000E-03 0. -1.
        -11    1    3    3    0    0 -0.10044082530E+01  0.23549779695E+01  0.40170558321E+00  0.25915487285E+01  0.51100000000E-03 0.  1.
        -12    1    3    3    0    0  0.88727240605E+01  0.48343918699E+01 -0.37243792986E+01  0.10768824363E+02  0.00000000000E+00 0.  1.
</event>
<event>
 7    1  0.2732193E-010  0.4778728E+02  0.7816164E-02  0.1312668E+00
        -11   -1    0    0    0    0  0.00000000000E+00  0.00000000000E+00  0.45593999997E+02  0.45594000000E+02  0.51100000000E-03 0.  1.
         11   -1    0    0    0    0 -0.00000000000E+00 -0.00000000000E+00 -0.45593999997E+02  0.45594000000E+02  0.51100000000E-03 0. -1.
    9900012    2    1    2    0    0  0.21694668632E+02 -0.94223728373E+00 -0.37577600702E+02  0.47787279583E+02  0.20000038931E+02 0.  0.
        -12    1    1    2    0    0 -0.21694668632E+02  0.94223728373E+00  0.37577600702E+02  0.43400720417E+02  0.00000000000E+00 0.  1.
         11    1    3    3    0    0  0.19905945960E+02  0.20615804967E+01 -0.26339354441E+02  0.33079576650E+02  0.51100000000E-03 0. -1.
        -11    1    3    3    0    0  0.27117073825E+01 -0.55772314246E+01 -0.98547086568E+01  0.11643631318E+02  0.51100000000E-03 0.  1.
         12    1    3    3    0    0 -0.92298471031E+00  0.25734136441E+01 -0.13835376040E+01  0.30640716148E+01  0.00000000000E+00 0. -1.
</event>
<event>
 7    1  0.2732193E-010  0.4778727E+02  0.7816164E-02  0.1312668E+00
        -11   -1    0    0    0    0  0.00000000000E+00  0.00000000000E+00  0.45593999997E+02  0.45594000000E+02  0.51100000000E-03 0.  1.
         11   -1    0    0    0    0 -0.00000000000E+00 -0.00000000000E+00 -0.45593999997E+02  0.45594000000E+02  0.51100000000E-03 0. -1.
    9900012    2    1    2    0    0  0.31653758958E+02 -0.53132105404E+01 -0.29213563837E+02  0.47787274494E+02  0.20000015726E+02 0.  0.
        -12    1    1    2    0    0 -0.31653758958E+02  0.53132105404E+01  0.29213563837E+02  0.43400725506E+02  0.00000000000E+00 0.  1.
         11    1    3    3    0    0  0.21708880621E+02 -0.86355685810E+01 -0.21185549464E+02  0.31538485203E+02  0.51100000000E-03 0. -1.
        -11    1    3    3    0    0  0.99408836831E+01  0.24954727174E+01 -0.23557417405E+01  0.10516561790E+02  0.51100000000E-03 0.  1.
        -12    1    3    3    0    0  0.39946536957E-02  0.82688532320E+00 -0.56722726330E+01  0.57322275006E+01  0.00000000000E+00 0.  1.
</event>
<event>
 7    1  0.2732193E-010  0.4778727E+02  0.7816164E-02  0.1312668E+00
        -11   -1    0    0    0    0  0.00000000000E+00  0.00000000000E+00  0.45593999997E+02  0.45594000000E+02  0.51100000000E-03 0.  1.
         11   -1    0    0    0    0 -0.00000000000E+00 -0.00000000000E+00 -0.45593999997E+02  0.45594000000E+02  0.51100000000E-03 0. -1.
    9900012    2    1    2    0    0  0.35434370698E+02 -0.22301231950E+02  0.11431714331E+02  0.47787266529E+02  0.19999979413E+02 0.  0.
        -12    1    1    2    0    0 -0.35434370698E+02  0.22301231950E+02 -0.11431714331E+02  0.43400733471E+02  0.00000000000E+00 0.  1.
         11    1    3    3    0    0  0.26163747956E+02 -0.19075917784E+02  0.96791954742E+01  0.33795253686E+02  0.51100000000E-03 0. -1.
        -11    1    3    3    0    0  0.29538469540E+01 -0.40736434503E+01  0.47761474460E+01  0.69376773833E+01  0.51100000000E-03 0.  1.
         12    1    3    3    0    0  0.63167757885E+01  0.84832928454E+00 -0.30236285893E+01  0.70543354601E+01  0.00000000000E+00 0. -1.
</event>
<event>
 7    1  0.2732193E-010  0.4778727E+02  0.7816164E-02  0.1312668E+00
        -11   -1    0    0    0    0  0.00000000000E+00  0.00000000000E+00  0.45593999997E+02  0.45594000000E+02  0.51100000000E-03 0.  1.
         11   -1    0    0    0    0 -0.00000000000E+00 -0.00000000000E+00 -0.45593999997E+02  0.45594000000E+02  0.51100000000E-03 0. -1.
    9900012    2    1    2    0    0  0.24455506453E+02  0.35068822724E+02  0.74652039444E+01  0.47787269671E+02  0.19999993739E+02 0.  0.
        -12    1    1    2    0    0 -0.24455506453E+02 -0.35068822724E+02 -0.74652039444E+01  0.43400730329E+02  0.00000000000E+00 0.  1.
         11    1    3    3    0    0  0.12579154990E+02  0.20990971898E+02 -0.43710500422E+01  0.24858843903E+02  0.51100000000E-03 0. -1.
        -11    1    3    3    0    0  0.10966742993E+02  0.14826353275E+02  0.10885095023E+02  0.21414375948E+02  0.51100000000E-03 0.  1.
         12    1    3    3    0    0  0.90960847000E+00 -0.74850244841E+00  0.95115896373E+00  0.15140498203E+01  0.00000000000E+00 0. -1.
</event>
<event>
 7    1  0.2732193E-010  0.4778727E+02  0.7816164E-02  0.1312668E+00
        -11   -1    0    0    0    0  0.00000000000E+00  0.00000000000E+00  0.45593999997E+02  0.45594000000E+02  0.51100000000E-03 0.  1.
         11   -1    0    0    0    0 -0.00000000000E+00 -0.00000000000E+00 -0.45593999997E+02  0.45594000000E+02  0.51100000000E-03 0. -1.
    9900012    2    1    2    0    0 -0.43030134669E+02 -0.49540577343E+01 -0.27364005964E+01  0.47787273440E+02  0.20000010924E+02 0.  0.
        -12    1    1    2    0    0  0.43030134669E+02  0.49540577343E+01  0.27364005964E+01  0.43400726560E+02  0.00000000000E+00 0.  1.
         11    1    3    3    0    0 -0.10255643067E+02  0.27334620616E+01  0.33236439096E+01  0.11121899058E+02  0.51100000000E-03 0. -1.
        -11    1    3    3    0    0 -0.71945273648E+00  0.23835860199E+01 -0.10154212955E+01  0.26888985148E+01  0.51100000000E-03 0.  1.
         12    1    3    3    0    0 -0.32055038865E+02 -0.10071105816E+02 -0.50446232105E+01  0.33976475867E+02  0.00000000000E+00 0. -1.
</event>
<event>
 7    1  0.2732193E-010  0.4778728E+02  0.7816164E-02  0.1312668E+00
        -11   -1    0    0    0    0  0.00000000000E+00  0.00000000000E+00  0.45593999997E+02  0.45594000000E+02  0.51100000000E-03 0. -1.
         11   -1    0    0    0    0 -0.00000000000E+00 -0.00000000000E+00 -0.45593999997E+02  0.45594000000E+02  0.51100000000E-03 0.  1.
    9900012    2    1    2    0    0  0.17931856946E+02 -0.37701725646E+02 -0.11859631240E+02  0.47787280382E+02  0.20000042572E+02 0.  0.
        -12    1    1    2    0    0 -0.17931856946E+02  0.37701725646E+02  0.11859631240E+02  0.43400719618E+02  0.00000000000E+00 0.  1.
         11    1    3    3    0    0  0.37059975367E+01 -0.11371751192E+02  0.38673195418E+01  0.12570095609E+02  0.51100000000E-03 0. -1.
        -11    1    3    3    0    0  0.14274914258E+02 -0.27157073875E+02 -0.15254261627E+02  0.34263279712E+02  0.51100000000E-03 0.  1.
        -12    1    3    3    0    0 -0.49054848673E-01  0.82709942051E+00 -0.47268915441E+00  0.95390506146E+00  0.00000000000E+00 0.  1.
</event>
<event>
 7    1  0.2732193E-010  0.4778727E+02  0.7816164E-02  0.1312668E+00
        -11   -1    0    0    0    0  0.00000000000E+00  0.00000000000E+00  0.45593999997E+02  0.45594000000E+02  0.51100000000E-03 0.  1.
         11   -1    0    0    0    0 -0.00000000000E+00 -0.00000000000E+00 -0.45593999997E+02  0.45594000000E+02  0.51100000000E-03 0. -1.
    9900012    2    1    2    0    0 -0.31444176518E+02  0.29844626258E+02  0.20459284577E+01  0.47787265252E+02  0.19999973592E+02 0.  0.
        -12    1    1    2    0    0  0.31444176518E+02 -0.29844626258E+02 -0.20459284577E+01  0.43400734748E+02  0.00000000000E+00 0.  1.
         11    1    3    3    0    0 -0.23195328630E+02  0.13542666685E+02 -0.33194907700E+01  0.27063741619E+02  0.51100000000E-03 0. -1.
        -11    1    3    3    0    0 -0.96418133577E+01  0.15763532681E+02  0.53215807995E+01  0.19229476069E+02  0.51100000000E-03 0.  1.
        -12    1    3    3    0    0  0.13929654695E+01  0.53842689160E+00  0.43838428202E-01  0.14940475644E+01  0.00000000000E+00 0.  1.
</event>
<event>
 7    1  0.2732193E-010  0.4778727E+02  0.7816164E-02  0.1312668E+00
        -11   -1    0    0    0    0  0.00000000000E+00  0.00000000000E+00  0.45593999997E+02  0.45594000000E+02  0.51100000000E-03 0.  1.
         11   -1    0    0    0    0 -0.00000000000E+00 -0.00000000000E+00 -0.45593999997E+02  0.45594000000E+02  0.51100000000E-03 0. -1.
    9900012    2    1    2    0    0  0.12982086814E+02  0.33671441416E+02 -0.24110645481E+02  0.47787265322E+02  0.19999973909E+02 0.  0.
        -12    1    1    2    0    0 -0.12982086814E+02 -0.33671441416E+02  0.24110645481E+02  0.43400734678E+02  0.00000000000E+00 0.  1.
         11    1    3    3    0    0 -0.39074674094E+01  0.18424394404E+01 -0.30170408740E+00  0.43305785138E+01  0.51100000000E-03 0. -1.
        -11    1    3    3    0    0  0.11759589023E+02  0.21987157352E+02 -0.19059843578E+02  0.31384720166E+02  0.51100000000E-03 0.  1.
         12    1    3    3    0    0  0.51299652004E+01  0.98418446239E+01 -0.47490978155E+01  0.12071966643E+02  0.00000000000E+00 0. -1.
</event>
<event>
 7    1  0.2732193E-010  0.4778727E+02  0.7816164E-02  0.1312668E+00
        -11   -1    0    0    0    0  0.00000000000E+00  0.00000000000E+00  0.45593999997E+02  0.45594000000E+02  0.51100000000E-03 0.  1.
         11   -1    0    0    0    0 -0.00000000000E+00 -0.00000000000E+00 -0.45593999997E+02  0.45594000000E+02  0.51100000000E-03 0. -1.
    9900012    2    1    2    0    0 -0.11299688266E+02 -0.31518385229E+02 -0.27613980685E+02  0.47787268536E+02  0.19999988563E+02 0.  0.
        -12    1    1    2    0    0  0.11299688266E+02  0.31518385229E+02  0.27613980685E+02  0.43400731464E+02  0.00000000000E+00 0.  1.
         11    1    3    3    0    0 -0.94178275259E+01 -0.58221293627E+01 -0.41143855663E+01  0.11811893772E+02  0.51100000000E-03 0. -1.
        -11    1    3    3    0    0  0.84357645891E+00 -0.47142670427E+01 -0.64817531610E+00  0.48328114482E+01  0.51100000000E-03 0.  1.
         12    1    3    3    0    0 -0.27254371989E+01 -0.20981988823E+02 -0.22851419803E+02  0.31142563316E+02  0.00000000000E+00 0. -1.
</event>
<event>
 7    1  0.2732193E-010  0.4778727E+02  0.7816164E-02  0.1312668E+00
        -11   -1    0    0    0    0  0.00000000000E+00  0.00000000000E+00  0.45593999997E+02  0.45594000000E+02  0.51100000000E-03 0.  1.
         11   -1    0    0    0    0 -0.00000000000E+00 -0.00000000000E+00 -0.45593999997E+02  0.45594000000E+02  0.51100000000E-03 0. -1.
    9900012    2    1    2    0    0  0.14202277848E+02 -0.38592376068E+02 -0.13876127236E+02  0.47787273120E+02  0.20000009463E+02 0.  0.
        -12    1    1    2    0    0 -0.14202277848E+02  0.38592376068E+02  0.13876127236E+02  0.43400726880E+02  0.00000000000E+00 0.  1.
         11    1    3    3    0    0  0.65422376968E+01 -0.39886742800E+01  0.24308532593E+01  0.80386220475E+01  0.51100000000E-03 0. -1.
        -11    1    3    3    0    0  0.39931582851E+01 -0.10831643468E+02 -0.18680263389E+01  0.11694414734E+02  0.51100000000E-03 0.  1.
         12    1    3    3    0    0  0.36668818657E+01 -0.23772058320E+02 -0.14438954157E+02  0.28054236339E+02  0.00000000000E+00 0. -1.
</event>
<event>
 7    1  0.2732193E-010  0.4778727E+02  0.7816164E-02  0.1312668E+00
        -11   -1    0    0    0    0  0.00000000000E+00  0.00000000000E+00  0.45593999997E+02  0.45594000000E+02  0.51100000000E-03 0. -1.
         11   -1    0    0    0    0 -0.00000000000E+00 -0.00000000000E+00 -0.45593999997E+02  0.45594000000E+02  0.51100000000E-03 0.  1.
    9900012    2    1    2    0    0 -0.97053192741E+00 -0.42529039252E+02  0.86001222921E+01  0.47787271719E+02  0.20000003075E+02 0.  0.
        -12    1    1    2    0    0  0.97053192741E+00  0.42529039252E+02 -0.86001222921E+01  0.43400728281E+02  0.00000000000E+00 0.  1.
         11    1    3    3    0    0 -0.28804751796E+01 -0.32154683674E+02  0.64651357259E+01  0.32924440764E+02  0.51100000000E-03 0. -1.
        -11    1    3    3    0    0 -0.36632526588E+01 -0.10008783189E+01  0.36597513656E+00  0.38151167103E+01  0.51100000000E-03 0.  1.
         12    1    3    3    0    0  0.55731959110E+01 -0.93734772588E+01  0.17690114296E+01  0.11047714244E+02  0.00000000000E+00 0. -1.
</event>
<event>
 7    1  0.2732193E-010  0.4778727E+02  0.7816164E-02  0.1312668E+00
        -11   -1    0    0    0    0  0.00000000000E+00  0.00000000000E+00  0.45593999997E+02  0.45594000000E+02  0.51100000000E-03 0. -1.
         11   -1    0    0    0    0 -0.00000000000E+00 -0.00000000000E+00 -0.45593999997E+02  0.45594000000E+02  0.51100000000E-03 0.  1.
    9900012    2    1    2    0    0  0.16927234576E+02  0.37518508296E+02 -0.13764220673E+02  0.47787268372E+02  0.19999987815E+02 0.  0.
        -12    1    1    2    0    0 -0.16927234576E+02 -0.37518508296E+02  0.13764220673E+02  0.43400731628E+02  0.00000000000E+00 0.  1.
         11    1    3    3    0    0  0.10802818128E+02  0.98236388858E+01 -0.53199924989E+01  0.15540498091E+02  0.51100000000E-03 0. -1.
        -11    1    3    3    0    0 -0.32083150056E+01  0.61485113021E+01  0.86296156199E+00  0.69887180030E+01  0.51100000000E-03 0.  1.
        -12    1    3    3    0    0  0.93327314533E+01  0.21546358108E+02 -0.93071897359E+01  0.25258052278E+02  0.00000000000E+00 0.  1.
</event>
<event>
 7    1  0.2732193E-010  0.4778726E+02  0.7816164E-02  0.1312668E+00
        -11   -1    0    0    0    0  0.00000000000E+00  0.00000000000E+00  0.45593999997E+02  0.45594000000E+02  0.51100000000E-03 0.  1.
         11   -1    0    0    0    0 -0.00000000000E+00 -0.00000000000E+00 -0.45593999997E+02  0.45594000000E+02  0.51100000000E-03 0. -1.
    9900012    2    1    2    0    0  0.31966940593E+02  0.12832897097E+02 -0.26401811174E+02  0.47787260697E+02  0.19999952822E+02 0.  0.
        -12    1    1    2    0    0 -0.31966940593E+02 -0.12832897097E+02  0.26401811174E+02  0.43400739303E+02  0.00000000000E+00 0.  1.
         11    1    3    3    0    0  0.15160777038E+01  0.21059565218E+01 -0.70647091254E+01  0.75261982278E+01  0.51100000000E-03 0. -1.
        -11    1    3    3    0    0  0.30264285775E+02  0.12358066810E+02 -0.20178335088E+02  0.38416324862E+02  0.51100000000E-03 0.  1.
        -12    1    3    3    0    0  0.18657711372E+00 -0.16311262346E+01  0.84123303870E+00  0.18447376068E+01  0.00000000000E+00 0.  1.
</event>
<event>
 7    1  0.2732193E-010  0.4778727E+02  0.7816164E-02  0.1312668E+00
        -11   -1    0    0    0    0  0.00000000000E+00  0.00000000000E+00  0.45593999997E+02  0.45594000000E+02  0.51100000000E-03 0.  1.
         11   -1    0    0    0    0 -0.00000000000E+00 -0.00000000000E+00 -0.45593999997E+02  0.45594000000E+02  0.51100000000E-03 0. -1.
    9900012    2    1    2    0    0  0.35257837104E+02 -0.61331151161E+01 -0.24553880896E+02  0.47787271373E+02  0.20000001499E+02 0.  0.
        -12    1    1    2    0    0 -0.35257837104E+02  0.61331151161E+01  0.24553880896E+02  0.43400728627E+02  0.00000000000E+00 0.  1.
         11    1    3    3    0    0  0.14127330205E+02 -0.11727375938E+01 -0.19658556585E+02  0.24236658586E+02  0.51100000000E-03 0. -1.
        -11    1    3    3    0    0  0.15983585742E+01 -0.24471593413E+01  0.83651826827E+00  0.30402470373E+01  0.51100000000E-03 0.  1.
         12    1    3    3    0    0  0.19532148325E+02 -0.25132181811E+01 -0.57318425792E+01  0.20510365750E+02  0.00000000000E+00 0. -1.
</event>
<event>
 7    1  0.2732193E-010  0.4778727E+02  0.7816164E-02  0.1312668E+00
        -11   -1    0    0    0    0  0.00000000000E+00  0.00000000000E+00  0.45593999997E+02  0.45594000000E+02  0.51100000000E-03 0.  1.
         11   -1    0    0    0    0 -0.00000000000E+00 -0.00000000000E+00 -0.45593999997E+02  0.45594000000E+02  0.51100000000E-03 0. -1.
    9900012    2    1    2    0    0 -0.42760286223E+02  0.73015209209E+00 -0.73924345422E+01  0.47787270877E+02  0.19999999236E+02 0.  0.
        -12    1    1    2    0    0  0.42760286223E+02 -0.73015209209E+00  0.73924345422E+01  0.43400729123E+02  0.00000000000E+00 0.  1.
         11    1    3    3    0    0 -0.50329051471E+01  0.47331537286E+01  0.89422850523E+00  0.69665287855E+01  0.51100000000E-03 0. -1.
        -11    1    3    3    0    0 -0.25017125352E+02 -0.76614261520E+01 -0.87443206702E+01  0.27586539395E+02  0.51100000000E-03 0.  1.
        -12    1    3    3    0    0 -0.12710255724E+02  0.36584245155E+01  0.45765762272E+00  0.13234202696E+02  0.00000000000E+00 0.  1.
</event>
<event>
 7    1  0.2732193E-010  0.4778727E+02  0.7816164E-02  0.1312668E+00
        -11   -1    0    0    0    0  0.00000000000E+00  0.00000000000E+00  0.45593999997E+02  0.45594000000E+02  0.51100000000E-03 0. -1.
         11   -1    0    0    0    0 -0.00000000000E+00 -0.00000000000E+00 -0.45593999997E+02  0.45594000000E+02  0.51100000000E-03 0.  1.
    9900012    2    1    2    0    0  0.90551718171E+01 -0.30365955917E+02  0.29656964936E+02  0.47787274377E+02  0.20000015195E+02 0.  0.
        -12    1    1    2    0    0 -0.90551718171E+01  0.30365955917E+02 -0.29656964936E+02  0.43400725623E+02  0.00000000000E+00 0.  1.
         11    1    3    3    0    0  0.63241103455E+01 -0.17187409668E+02  0.83879463448E+01  0.20143462138E+02  0.51100000000E-03 0. -1.
        -11    1    3    3    0    0  0.30540397044E+01 -0.13341124953E+02  0.22513913083E+02  0.26347467736E+02  0.51100000000E-03 0.  1.
        -12    1    3    3    0    0 -0.32297823286E+00  0.16257870427E+00 -0.12448944920E+01  0.12963445029E+01  0.00000000000E+00 0.  1.
</event>
<event>
 7    1  0.2732193E-010  0.4778722E+02  0.7816164E-02  0.1312668E+00
        -11   -1    0    0    0    0  0.00000000000E+00  0.00000000000E+00  0.45593999997E+02  0.45594000000E+02  0.51100000000E-03 0.  1.
         11   -1    0    0    0    0 -0.00000000000E+00 -0.00000000000E+00 -0.45593999997E+02  0.45594000000E+02  0.51100000000E-03 0. -1.
    9900012    2    1    2    0    0 -0.26729708413E+02 -0.22303845568E+02 -0.25916954008E+02  0.47787224154E+02  0.19999786208E+02 0.  0.
        -12    1    1    2    0    0  0.26729708413E+02  0.22303845568E+02  0.25916954008E+02  0.43400775846E+02  0.00000000000E+00 0.  1.
         11    1    3    3    0    0 -0.19518759547E+02 -0.15760851112E+02 -0.22057411674E+02  0.33405326103E+02  0.51100000000E-03 0. -1.
        -11    1    3    3    0    0  0.75816102737E-01  0.23340588400E+01 -0.27862397881E+00  0.23518525321E+01  0.51100000000E-03 0.  1.
        -12    1    3    3    0    0 -0.72867649687E+01 -0.88770532963E+01 -0.35809183548E+01  0.12030045519E+02  0.00000000000E+00 0.  1.
</event>
<event>
 7    1  0.2732193E-010  0.4778727E+02  0.7816164E-02  0.1312668E+00
        -11   -1    0    0    0    0  0.00000000000E+00  0.00000000000E+00  0.45593999997E+02  0.45594000000E+02  0.51100000000E-03 0.  1.
         11   -1    0    0    0    0 -0.00000000000E+00 -0.00000000000E+00 -0.45593999997E+02  0.45594000000E+02  0.51100000000E-03 0. -1.
    9900012    2    1    2    0    0  0.32990615415E+02 -0.27932885521E+02  0.38725363489E+01  0.47787270320E+02  0.19999996697E+02 0.  0.
        -12    1    1    2    0    0 -0.32990615415E+02  0.27932885521E+02 -0.38725363489E+01  0.43400729680E+02  0.00000000000E+00 0.  1.
         11    1    3    3    0    0  0.19201964001E+01 -0.74495930311E+01  0.60339393117E+01  0.97771168768E+01  0.51100000000E-03 0.  1.
        -11    1    3    3    0    0  0.19363541946E+02 -0.13815197419E+02 -0.48390547414E+01  0.24273913724E+02  0.51100000000E-03 0. -1.
         12    1    3    3    0    0  0.11706877069E+02 -0.66680950706E+01  0.26776517785E+01  0.13736239719E+02  0.00000000000E+00 0. -1.
</event>
<event>
 7    1  0.2732193E-010  0.4778727E+02  0.7816164E-02  0.1312668E+00
        -11   -1    0    0    0    0  0.00000000000E+00  0.00000000000E+00  0.45593999997E+02  0.45594000000E+02  0.51100000000E-03 0.  1.
         11   -1    0    0    0    0 -0.00000000000E+00 -0.00000000000E+00 -0.45593999997E+02  0.45594000000E+02  0.51100000000E-03 0. -1.
    9900012    2    1    2    0    0  0.52194162802E+01 -0.22429913017E+02 -0.36786953674E+02  0.47787271148E+02  0.20000000474E+02 0.  0.
        -12    1    1    2    0    0 -0.52194162802E+01  0.22429913017E+02  0.36786953674E+02  0.43400728852E+02  0.00000000000E+00 0.  1.
         11    1    3    3    0    0 -0.11854607503E+00 -0.79506597558E+01 -0.16380923825E+02  0.18208836024E+02  0.51100000000E-03 0. -1.
        -11    1    3    3    0    0 -0.14725150048E+01 -0.10756242596E+02 -0.42576592525E+01  0.11661591563E+02  0.51100000000E-03 0.  1.
        -12    1    3    3    0    0  0.68104773600E+01 -0.37230106655E+01 -0.16148370596E+02  0.17916843561E+02  0.00000000000E+00 0.  1.
</event>
<event>
 7    1  0.2732193E-010  0.4778727E+02  0.7816164E-02  0.1312668E+00
        -11   -1    0    0    0    0  0.00000000000E+00  0.00000000000E+00  0.45593999997E+02  0.45594000000E+02  0.51100000000E-03 0. -1.
         11   -1    0    0    0    0 -0.00000000000E+00 -0.00000000000E+00 -0.45593999997E+02  0.45594000000E+02  0.51100000000E-03 0.  1.
    9900012    2    1    2    0    0 -0.26121666687E+01 -0.43194725261E+02 -0.33189895822E+01  0.47787269627E+02  0.19999993536E+02 0.  0.
        -12    1    1    2    0    0  0.26121666687E+01  0.43194725261E+02  0.33189895822E+01  0.43400730373E+02  0.00000000000E+00 0.  1.
         11    1    3    3    0    0  0.52132568412E+00 -0.17525137126E+02 -0.32449525492E+01  0.17830645783E+02  0.51100000000E-03 0. -1.
        -11    1    3    3    0    0  0.47763013393E+01 -0.58776493335E+01  0.35031047152E+01  0.83445526589E+01  0.51100000000E-03 0.  1.
        -12    1    3    3    0    0 -0.79097936922E+01 -0.19791938802E+02 -0.35771417483E+01  0.21612071184E+02  0.00000000000E+00 0.  1.
</event>
<event>
 7    1  0.2732193E-010  0.4778727E+02  0.7816164E-02  0.1312668E+00
        -11   -1    0    0    0    0  0.00000000000E+00  0.00000000000E+00  0.45593999997E+02  0.45594000000E+02  0.51100000000E-03 0.  1.
         11   -1    0    0    0    0 -0.00000000000E+00 -0.00000000000E+00 -0.45593999997E+02  0.45594000000E+02  0.51100000000E-03 0. -1.
    9900012    2    1    2    0    0  0.28087723489E+02 -0.10665345692E+02 -0.31320174997E+02  0.47787272226E+02  0.20000005386E+02 0.  0.
        -12    1    1    2    0    0 -0.28087723489E+02  0.10665345692E+02  0.31320174997E+02  0.43400727774E+02  0.00000000000E+00 0.  1.
         11    1    3    3    0    0  0.24394568971E+02 -0.35579142593E+01 -0.20413276602E+02  0.32007118131E+02  0.51100000000E-03 0. -1.
        -11    1    3    3    0    0  0.55971989812E+00  0.18375717112E+01 -0.16629386268E+01  0.25407324329E+01  0.51100000000E-03 0.  1.
         12    1    3    3    0    0  0.31334346200E+01 -0.89450031434E+01 -0.92439597680E+01  0.13239421662E+02  0.00000000000E+00 0. -1.
</event>
<event>
 7    1  0.2732193E-010  0.4778727E+02  0.7816164E-02  0.1312668E+00
        -11   -1    0    0    0    0  0.00000000000E+00  0.00000000000E+00  0.45593999997E+02  0.45594000000E+02  0.51100000000E-03 0.  1.
         11   -1    0    0    0    0 -0.00000000000E+00 -0.00000000000E+00 -0.45593999997E+02  0.45594000000E+02  0.51100000000E-03 0. -1.
    9900012    2    1    2    0    0  0.18230986236E+01  0.26577656151E+02 -0.34262632723E+02  0.47787268483E+02  0.19999988323E+02 0.  0.
        -12    1    1    2    0    0 -0.18230986236E+01 -0.26577656151E+02  0.34262632723E+02  0.43400731517E+02  0.00000000000E+00 0.  1.
         11    1    3    3    0    0  0.86599569515E+01  0.16170232658E+02 -0.14887108632E+02  0.23624082676E+02  0.51100000000E-03 0. -1.
        -11    1    3    3    0    0 -0.11184608721E+00  0.73209603101E+00  0.61221127880E+00  0.96087307010E+00  0.51100000000E-03 0.  1.
         12    1    3    3    0    0 -0.67250122406E+01  0.96753274617E+01 -0.19987735370E+02  0.23202312737E+02  0.00000000000E+00 0. -1.
</event>
<event>
 7    1  0.2732193E-010  0.4778727E+02  0.7816164E-02  0.1312668E+00
        -11   -1    0    0    0    0  0.00000000000E+00  0.00000000000E+00  0.45593999997E+02  0.45594000000E+02  0.51100000000E-03 0.  1.
         11   -1    0    0    0    0 -0.00000000000E+00 -0.00000000000E+00 -0.45593999997E+02  0.45594000000E+02  0.51100000000E-03 0. -1.
    9900012    2    1    2    0    0  0.20721706386E+02 -0.36214593230E+02 -0.11947279108E+02  0.47787270093E+02  0.19999995663E+02 0.  0.
        -12    1    1    2    0    0 -0.20721706386E+02  0.36214593230E+02  0.11947279108E+02  0.43400729907E+02  0.00000000000E+00 0.  1.
         11    1    3    3    0    0  0.15118871833E+02 -0.93386182471E+01 -0.20037325904E+01  0.17883093156E+02  0.51100000000E-03 0. -1.
        -11    1    3    3    0    0  0.22472955325E+01 -0.10501162603E+02 -0.72905391245E+01  0.12979858020E+02  0.51100000000E-03 0.  1.
         12    1    3    3    0    0  0.33555390205E+01 -0.16374812379E+02 -0.26530073935E+01  0.16924318917E+02  0.00000000000E+00 0. -1.
</event>
<event>
 7    1 -0.2732193E-010  0.4778726E+02  0.7816164E-02  0.1312668E+00
        -11   -1    0    0    0    0  0.00000000000E+00  0.00000000000E+00  0.45593999997E+02  0.45594000000E+02  0.51100000000E-03 0.  1.
         11   -1    0    0    0    0 -0.00000000000E+00 -0.00000000000E+00 -0.45593999997E+02  0.45594000000E+02  0.51100000000E-03 0. -1.
    9900012    2    1    2    0    0 -0.15071393719E+02  0.31280320324E+00 -0.40698641560E+02  0.47787260613E+02  0.19999952440E+02 0.  0.
        -12    1    1    2    0    0  0.15071393719E+02 -0.31280320324E+00  0.40698641560E+02  0.43400739387E+02  0.00000000000E+00 0.  1.
         11    1    3    3    0    0 -0.11391262544E+02 -0.73603603264E+01 -0.22770634196E+02  0.26503538413E+02  0.51100000000E-03 0. -1.
        -11    1    3    3    0    0  0.11619932964E+01  0.20930478935E+00 -0.74280151730E+01  0.75212662888E+01  0.51100000000E-03 0.  1.
         12    1    3    3    0    0 -0.48421244720E+01  0.74638587403E+01 -0.10499992191E+02  0.13762455911E+02  0.00000000000E+00 0. -1.
</event>
<event>
 7    1  0.2732193E-010  0.4778726E+02  0.7816164E-02  0.1312668E+00
        -11   -1    0    0    0    0  0.00000000000E+00  0.00000000000E+00  0.45593999997E+02  0.45594000000E+02  0.51100000000E-03 0.  1.
         11   -1    0    0    0    0 -0.00000000000E+00 -0.00000000000E+00 -0.45593999997E+02  0.45594000000E+02  0.51100000000E-03 0. -1.
    9900012    2    1    2    0    0  0.27580419828E+02 -0.80316276401E+01 -0.32533642687E+02  0.47787256839E+02  0.19999935232E+02 0.  0.
        -12    1    1    2    0    0 -0.27580419828E+02  0.80316276401E+01  0.32533642687E+02  0.43400743161E+02  0.00000000000E+00 0.  1.
         11    1    3    3    0    0  0.25716936706E+02 -0.66477350268E+01 -0.15951099427E+02  0.30983718107E+02  0.51100000000E-03 0. -1.
        -11    1    3    3    0    0  0.52276081559E+00 -0.12581163373E+01 -0.89536029296E+01  0.90566628109E+01  0.51100000000E-03 0.  1.
         12    1    3    3    0    0  0.13407223059E+01 -0.12577627598E+00 -0.76289403303E+01  0.77468759211E+01  0.00000000000E+00 0. -1.
</event>
<event>
 7    1  0.2732193E-010  0.4778727E+02  0.7816164E-02  0.1312668E+00
        -11   -1    0    0    0    0  0.00000000000E+00  0.00000000000E+00  0.45593999997E+02  0.45594000000E+02  0.51100000000E-03 0.  1.
         11   -1    0    0    0    0 -0.00000000000E+00 -0.00000000000E+00 -0.45593999997E+02  0.45594000000E+02  0.51100000000E-03 0. -1.
    9900012    2    1    2    0    0 -0.11693936665E+02 -0.31048911868E+02 -0.27979279264E+02  0.47787272459E+02  0.20000006452E+02 0.  0.
        -12    1    1    2    0    0  0.11693936665E+02  0.31048911868E+02  0.27979279264E+02  0.43400727541E+02  0.00000000000E+00 0.  1.
         11    1    3    3    0    0 -0.48789773267E+00 -0.11993693351E+02 -0.16715594956E+02  0.20579063132E+02  0.51100000000E-03 0. -1.
        -11    1    3    3    0    0 -0.12952488569E+02 -0.15179602530E+02 -0.11349416760E+02  0.22956405515E+02  0.51100000000E-03 0.  1.
        -12    1    3    3    0    0  0.17464496374E+01 -0.38756159866E+01  0.85732450865E-01  0.42518038130E+01  0.00000000000E+00 0.  1.
</event>
<event>
 7    1  0.2732193E-010  0.4778724E+02  0.7816164E-02  0.1312668E+00
        -11   -1    0    0    0    0  0.00000000000E+00  0.00000000000E+00  0.45593999997E+02  0.45594000000E+02  0.51100000000E-03 0.  1.
         11   -1    0    0    0    0 -0.00000000000E+00 -0.00000000000E+00 -0.45593999997E+02  0.45594000000E+02  0.51100000000E-03 0. -1.
    9900012    2    1    2    0    0  0.13215202677E+01  0.25304579165E+02 -0.35235746085E+02  0.47787240275E+02  0.19999859709E+02 0.  0.
        -12    1    1    2    0    0 -0.13215202677E+01 -0.25304579165E+02  0.35235746085E+02  0.43400759725E+02  0.00000000000E+00 0.  1.
         11    1    3    3    0    0  0.76508069589E+01  0.25308923150E+01 -0.11732476809E+02  0.14233456199E+02  0.51100000000E-03 0. -1.
        -11    1    3    3    0    0 -0.37796756647E+01  0.10673230982E+02 -0.13698904868E+02  0.17772557570E+02  0.51100000000E-03 0.  1.
         12    1    3    3    0    0 -0.25496110265E+01  0.12100455868E+02 -0.98043644083E+01  0.15781226506E+02  0.00000000000E+00 0. -1.
</event>
<event>
 7    1  0.2732193E-010  0.4778727E+02  0.7816164E-02  0.1312668E+00
        -11   -1    0    0    0    0  0.00000000000E+00  0.00000000000E+00  0.45593999997E+02  0.45594000000E+02  0.51100000000E-03 0.  1.
         11   -1    0    0    0    0 -0.00000000000E+00 -0.00000000000E+00 -0.45593999997E+02  0.45594000000E+02  0.51100000000E-03 0. -1.
    9900012    2    1    2    0    0  0.16616393515E+01 -0.37586246891E+02 -0.21636460669E+02  0.47787269234E+02  0.19999991746E+02 0.  0.
        -12    1    1    2    0    0 -0.16616393515E+01  0.37586246891E+02  0.21636460669E+02  0.43400730766E+02  0.00000000000E+00 0.  1.
         11    1    3    3    0    0  0.66769372737E+00 -0.43441335829E+01 -0.96998601524E+01  0.10649159532E+02  0.51100000000E-03 0. -1.
        -11    1    3    3    0    0  0.16623579099E+01 -0.10263242623E+02  0.15093849794E+01  0.10505990017E+02  0.51100000000E-03 0.  1.
         12    1    3    3    0    0 -0.66841228575E+00 -0.22978870685E+02 -0.13445985496E+02  0.26632119685E+02  0.00000000000E+00 0. -1.
</event>
<event>
 7    1  0.2732193E-010  0.4778727E+02  0.7816164E-02  0.1312668E+00
        -11   -1    0    0    0    0  0.00000000000E+00  0.00000000000E+00  0.45593999997E+02  0.45594000000E+02  0.51100000000E-03 0. -1.
         11   -1    0    0    0    0 -0.00000000000E+00 -0.00000000000E+00 -0.45593999997E+02  0.45594000000E+02  0.51100000000E-03 0.  1.
    9900012    2    1    2    0    0  0.54199737221E+01  0.40723346440E+02  0.13994873470E+02  0.47787267934E+02  0.19999985820E+02 0.  0.
        -12    1    1    2    0    0 -0.54199737221E+01 -0.40723346440E+02 -0.13994873470E+02  0.43400732066E+02  0.00000000000E+00 0.  1.
         11    1    3    3    0    0  0.59396059479E+01  0.12952378528E+02  0.89898497140E+01  0.16848157956E+02  0.51100000000E-03 0. -1.
        -11    1    3    3    0    0 -0.39520602193E+01  0.18580047600E+01  0.27837904862E+00  0.43758949737E+01  0.51100000000E-03 0.  1.
        -12    1    3    3    0    0  0.34324279935E+01  0.25912963151E+02  0.47266447075E+01  0.26563215005E+02  0.00000000000E+00 0.  1.
</event>
<event>
 7    1  0.2732193E-010  0.4778726E+02  0.7816164E-02  0.1312668E+00
        -11   -1    0    0    0    0  0.00000000000E+00  0.00000000000E+00  0.45593999997E+02  0.45594000000E+02  0.51100000000E-03 0. -1.
         11   -1    0    0    0    0 -0.00000000000E+00 -0.00000000000E+00 -0.45593999997E+02  0.45594000000E+02  0.51100000000E-03 0.  1.
    9900012    2    1    2    0    0  0.10362904135E+02 -0.42006696147E+02  0.34164212477E+01  0.47787259944E+02  0.19999949388E+02 0.  0.
        -12    1    1    2    0    0 -0.10362904135E+02  0.42006696147E+02 -0.34164212477E+01  0.43400740056E+02  0.00000000000E+00 0.  1.
         11    1    3    3    0    0  0.13242963078E+02 -0.19980445653E+02  0.52896332344E+01  0.24547392928E+02  0.51100000000E-03 0. -1.
        -11    1    3    3    0    0 -0.33260905668E+01 -0.12904166906E+02  0.16976368851E+01  0.13433628447E+02  0.51100000000E-03 0.  1.
        -12    1    3    3    0    0  0.44603162417E+00 -0.91220835875E+01 -0.35708488718E+01  0.98062385679E+01  0.00000000000E+00 0.  1.
</event>
<event>
 7    1  0.2732193E-010  0.4778727E+02  0.7816164E-02  0.1312668E+00
        -11   -1    0    0    0    0  0.00000000000E+00  0.00000000000E+00  0.45593999997E+02  0.45594000000E+02  0.51100000000E-03 0.  1.
         11   -1    0    0    0    0 -0.00000000000E+00 -0.00000000000E+00 -0.45593999997E+02  0.45594000000E+02  0.51100000000E-03 0. -1.
    9900012    2    1    2    0    0  0.15634247730E+02 -0.32400454253E+02 -0.24277648577E+02  0.47787270072E+02  0.19999995567E+02 0.  0.
        -12    1    1    2    0    0 -0.15634247730E+02  0.32400454253E+02  0.24277648577E+02  0.43400729928E+02  0.00000000000E+00 0.  1.
         11    1    3    3    0    0  0.38261175948E+01 -0.18724567821E+02 -0.44323439230E+01  0.19618722916E+02  0.51100000000E-03 0.  1.
        -11    1    3    3    0    0  0.13123515119E+02 -0.12803594765E+02 -0.17530431874E+02  0.25366803700E+02  0.51100000000E-03 0. -1.
         12    1    3    3    0    0 -0.13153849841E+01 -0.87229166567E+00 -0.23148727800E+01  0.28017434562E+01  0.00000000000E+00 0. -1.
</event>
<event>
 7    1  0.2732193E-010  0.4778727E+02  0.7816164E-02  0.1312668E+00
        -11   -1    0    0    0    0  0.00000000000E+00  0.00000000000E+00  0.45593999997E+02  0.45594000000E+02  0.51100000000E-03 0.  1.
         11   -1    0    0    0    0 -0.00000000000E+00 -0.00000000000E+00 -0.45593999997E+02  0.45594000000E+02  0.51100000000E-03 0. -1.
    9900012    2    1    2    0    0  0.91963394397E+01  0.14441936995E+02 -0.39880836983E+02  0.47787270032E+02  0.19999995385E+02 0.  0.
        -12    1    1    2    0    0 -0.91963394397E+01 -0.14441936995E+02  0.39880836983E+02  0.43400729968E+02  0.00000000000E+00 0.  1.
         11    1    3    3    0    0  0.69672623563E+01 -0.84208447236E+00 -0.21783477293E+02  0.22886059823E+02  0.51100000000E-03 0. -1.
        -11    1    3    3    0    0  0.34769438784E+01  0.12532892149E+02 -0.17529100441E+02  0.21827319737E+02  0.51100000000E-03 0.  1.
         12    1    3    3    0    0 -0.12478667950E+01  0.27511293177E+01 -0.56825924942E+00  0.30738904723E+01  0.00000000000E+00 0. -1.
</event>
<event>
 7    1  0.2732193E-010  0.4778727E+02  0.7816164E-02  0.1312668E+00
        -11   -1    0    0    0    0  0.00000000000E+00  0.00000000000E+00  0.45593999997E+02  0.45594000000E+02  0.51100000000E-03 0.  1.
         11   -1    0    0    0    0 -0.00000000000E+00 -0.00000000000E+00 -0.45593999997E+02  0.45594000000E+02  0.51100000000E-03 0. -1.
    9900012    2    1    2    0    0  0.21102276431E+02  0.29635894513E+02 -0.23664972919E+02  0.47787271234E+02  0.20000000864E+02 0.  0.
        -12    1    1    2    0    0 -0.21102276431E+02 -0.29635894513E+02  0.23664972919E+02  0.43400728766E+02  0.00000000000E+00 0.  1.
         11    1    3    3    0    0  0.21363390200E+01  0.17826266192E+02 -0.91252218246E+01  0.20139746383E+02  0.51100000000E-03 0. -1.
        -11    1    3    3    0    0  0.14671786411E+01  0.24961707938E+01  0.26323596656E+00  0.29073656860E+01  0.51100000000E-03 0.  1.
         12    1    3    3    0    0  0.17498758770E+02  0.93134575276E+01 -0.14802987061E+02  0.24740159165E+02  0.00000000000E+00 0. -1.
</event>
<event>
 7    1  0.2732193E-010  0.4778727E+02  0.7816164E-02  0.1312668E+00
        -11   -1    0    0    0    0  0.00000000000E+00  0.00000000000E+00  0.45593999997E+02  0.45594000000E+02  0.51100000000E-03 0. -1.
         11   -1    0    0    0    0 -0.00000000000E+00 -0.00000000000E+00 -0.45593999997E+02  0.45594000000E+02  0.51100000000E-03 0.  1.
    9900012    2    1    2    0    0  0.25662086951E+02 -0.34535139866E+02 -0.56925366190E+01  0.47787267686E+02  0.19999984686E+02 0.  0.
        -12    1    1    2    0    0 -0.25662086951E+02  0.34535139866E+02  0.56925366190E+01  0.43400732314E+02  0.00000000000E+00 0.  1.
         11    1    3    3    0    0  0.13159903350E+02 -0.22088828938E+02 -0.12191115064E+02  0.28455626980E+02  0.51100000000E-03 0. -1.
        -11    1    3    3    0    0  0.11046910596E+02 -0.90273425635E+01  0.63423003691E+01  0.15612556540E+02  0.51100000000E-03 0.  1.
        -12    1    3    3    0    0  0.14552730051E+01 -0.34189683644E+01  0.15627807589E+00  0.37190841659E+01  0.00000000000E+00 0.  1.
</event>
<event>
 7    1  0.2732193E-010  0.4778726E+02  0.7816164E-02  0.1312668E+00
        -11   -1    0    0    0    0  0.00000000000E+00  0.00000000000E+00  0.45593999997E+02  0.45594000000E+02  0.51100000000E-03 0.  1.
         11   -1    0    0    0    0 -0.00000000000E+00 -0.00000000000E+00 -0.45593999997E+02  0.45594000000E+02  0.51100000000E-03 0. -1.
    9900012    2    1    2    0    0 -0.23127533098E+02 -0.32103419965E+02 -0.17835696650E+02  0.47787257660E+02  0.19999938975E+02 0.  0.
        -12    1    1    2    0    0  0.23127533098E+02  0.32103419965E+02  0.17835696650E+02  0.43400742340E+02  0.00000000000E+00 0.  1.
         11    1    3    3    0    0 -0.25858688796E+01 -0.79110113933E+01 -0.52373372482E+01  0.98336422978E+01  0.51100000000E-03 0. -1.
        -11    1    3    3    0    0 -0.15016314034E+02 -0.22486946618E+02 -0.15826519732E+02  0.31330993959E+02  0.51100000000E-03 0.  1.
        -12    1    3    3    0    0 -0.55253501838E+01 -0.17054619546E+01  0.32281603303E+01  0.66226214032E+01  0.00000000000E+00 0.  1.
</event>
<event>
 7    1  0.2732193E-010  0.4778727E+02  0.7816164E-02  0.1312668E+00
        -11   -1    0    0    0    0  0.00000000000E+00  0.00000000000E+00  0.45593999997E+02  0.45594000000E+02  0.51100000000E-03 0. -1.
         11   -1    0    0    0    0 -0.00000000000E+00 -0.00000000000E+00 -0.45593999997E+02  0.45594000000E+02  0.51100000000E-03 0.  1.
    9900012    2    1    2    0    0  0.42849256579E+02  0.68501591398E+01  0.79990082147E+00  0.47787270618E+02  0.19999998055E+02 0.  0.
        -12    1    1    2    0    0 -0.42849256579E+02 -0.68501591398E+01 -0.79990082147E+00  0.43400729382E+02  0.00000000000E+00 0.  1.
         11    1    3    3    0    0  0.10785541605E+02  0.26635028977E+01  0.78562754077E+00  0.11137296184E+02  0.51100000000E-03 0. -1.
        -11    1    3    3    0    0  0.24210274668E+02 -0.28975383710E+01  0.51055743308E+01  0.24911844926E+02  0.51100000000E-03 0.  1.
        -12    1    3    3    0    0  0.78534403049E+01  0.70841946131E+01 -0.50913010501E+01  0.11738129507E+02  0.00000000000E+00 0.  1.
</event>
<event>
 7    1  0.2732193E-010  0.4778726E+02  0.7816164E-02  0.1312668E+00
        -11   -1    0    0    0    0  0.00000000000E+00  0.00000000000E+00  0.45593999997E+02  0.45594000000E+02  0.51100000000E-03 0.  1.
         11   -1    0    0    0    0 -0.00000000000E+00 -0.00000000000E+00 -0.45593999997E+02  0.45594000000E+02  0.51100000000E-03 0. -1.
    9900012    2    1    2    0    0  0.42891683951E+01 -0.27281799094E+02 -0.33480297398E+02  0.47787264508E+02  0.19999970199E+02 0.  0.
        -12    1    1    2    0    0 -0.42891683951E+01  0.27281799094E+02  0.33480297398E+02  0.43400735492E+02  0.00000000000E+00 0.  1.
         11    1    3    3    0    0  0.99993157285E+01 -0.16054892946E+02 -0.22432731573E+02  0.29342347361E+02  0.51100000000E-03 0. -1.
        -11    1    3    3    0    0 -0.12968905510E+01 -0.15279127428E+01  0.10998837522E+01  0.22860855147E+01  0.51100000000E-03 0.  1.
         12    1    3    3    0    0 -0.44132567824E+01 -0.96989934049E+01 -0.12147449577E+02  0.16158831633E+02  0.00000000000E+00 0. -1.
</event>
<event>
 7    1  0.2732193E-010  0.4778727E+02  0.7816164E-02  0.1312668E+00
        -11   -1    0    0    0    0  0.00000000000E+00  0.00000000000E+00  0.45593999997E+02  0.45594000000E+02  0.51100000000E-03 0.  1.
         11   -1    0    0    0    0 -0.00000000000E+00 -0.00000000000E+00 -0.45593999997E+02  0.45594000000E+02  0.51100000000E-03 0. -1.
    9900012    2    1    2    0    0  0.26833749857E+02 -0.25626343749E+02 -0.22513636559E+02  0.47787268941E+02  0.19999990408E+02 0.  0.
        -12    1    1    2    0    0 -0.26833749857E+02  0.25626343749E+02  0.22513636559E+02  0.43400731059E+02  0.00000000000E+00 0.  1.
         11    1    3    3    0    0  0.16748264079E+02 -0.17170394053E+02 -0.18969518906E+02  0.30580540044E+02  0.51100000000E-03 0. -1.
        -11    1    3    3    0    0  0.45710591580E+01 -0.66617646409E+01  0.28569788477E+01  0.85694818019E+01  0.51100000000E-03 0.  1.
        -12    1    3    3    0    0  0.55144266204E+01 -0.17941850555E+01 -0.64010965007E+01  0.86372470948E+01  0.00000000000E+00 0.  1.
</event>
<event>
 7    1  0.2732193E-010  0.4778727E+02  0.7816164E-02  0.1312668E+00
        -11   -1    0    0    0    0  0.00000000000E+00  0.00000000000E+00  0.45593999997E+02  0.45594000000E+02  0.51100000000E-03 0. -1.
         11   -1    0    0    0    0 -0.00000000000E+00 -0.00000000000E+00 -0.45593999997E+02  0.45594000000E+02  0.51100000000E-03 0.  1.
    9900012    2    1    2    0    0 -0.40176565665E+02  0.12980599869E+02 -0.10048422125E+02  0.47787272024E+02  0.20000004467E+02 0.  0.
        -12    1    1    2    0    0  0.40176565665E+02 -0.12980599869E+02  0.10048422125E+02  0.43400727976E+02  0.00000000000E+00 0.  1.
         11    1    3    3    0    0 -0.22126200020E+02  0.79985193645E+01 -0.10242596109E+01  0.23549822661E+02  0.51100000000E-03 0. -1.
        -11    1    3    3    0    0 -0.78594708261E+00  0.51616184678E+01 -0.23766166364E+01  0.57365778058E+01  0.51100000000E-03 0.  1.
        -12    1    3    3    0    0 -0.17264418563E+02 -0.17953796308E+00 -0.66475458774E+01  0.18500871558E+02  0.00000000000E+00 0.  1.
</event>
<event>
 7    1  0.2732193E-010  0.4778727E+02  0.7816164E-02  0.1312668E+00
        -11   -1    0    0    0    0  0.00000000000E+00  0.00000000000E+00  0.45593999997E+02  0.45594000000E+02  0.51100000000E-03 0.  1.
         11   -1    0    0    0    0 -0.00000000000E+00 -0.00000000000E+00 -0.45593999997E+02  0.45594000000E+02  0.51100000000E-03 0. -1.
    9900012    2    1    2    0    0  0.15042602433E+02  0.40270655713E+02  0.59680635241E+01  0.47787269802E+02  0.19999994335E+02 0.  0.
        -12    1    1    2    0    0 -0.15042602433E+02 -0.40270655713E+02 -0.59680635241E+01  0.43400730198E+02  0.00000000000E+00 0.  1.
         11    1    3    3    0    0  0.12861129802E+02  0.21696000152E+02 -0.13633523026E+01  0.25258341437E+02  0.51100000000E-03 0. -1.
        -11    1    3    3    0    0 -0.24953217162E+01  0.61051687671E+00 -0.47266239924E-02  0.25689266097E+01  0.51100000000E-03 0.  1.
         12    1    3    3    0    0  0.46767943481E+01  0.17964138683E+02  0.73361424507E+01  0.19960001755E+02  0.00000000000E+00 0. -1.
</event>
<event>
 7    1  0.2732193E-010  0.4778727E+02  0.7816164E-02  0.1312668E+00
        -11   -1    0    0    0    0  0.00000000000E+00  0.00000000000E+00  0.45593999997E+02  0.45594000000E+02  0.51100000000E-03 0. -1.
         11   -1    0    0    0    0 -0.00000000000E+00 -0.00000000000E+00 -0.45593999997E+02  0.45594000000E+02  0.51100000000E-03 0.  1.
    9900012    2    1    2    0    0  0.13276695161E+02  0.72545967239E+00  0.41313753626E+02  0.47787272301E+02  0.20000005730E+02 0.  0.
        -12    1    1    2    0    0 -0.13276695161E+02 -0.72545967239E+00 -0.41313753626E+02  0.43400727699E+02  0.00000000000E+00 0.  1.
         11    1    3    3    0    0  0.83517282740E+00 -0.12971107664E+01  0.75249206637E+00  0.17164657186E+01  0.51100000000E-03 0. -1.
        -11    1    3    3    0    0  0.77618807810E+01  0.99524536682E+01  0.24375751856E+02  0.27449506482E+02  0.51100000000E-03 0.  1.
        -12    1    3    3    0    0  0.46796415521E+01 -0.79298832294E+01  0.16185509703E+02  0.18621300101E+02  0.00000000000E+00 0.  1.
</event>
<event>
 7    1  0.2732193E-010  0.4778727E+02  0.7816164E-02  0.1312668E+00
        -11   -1    0    0    0    0  0.00000000000E+00  0.00000000000E+00  0.45593999997E+02  0.45594000000E+02  0.51100000000E-03 0.  1.
         11   -1    0    0    0    0 -0.00000000000E+00 -0.00000000000E+00 -0.45593999997E+02  0.45594000000E+02  0.51100000000E-03 0. -1.
    9900012    2    1    2    0    0  0.23896405057E+02 -0.10686731923E+01 -0.36213851706E+02  0.47787270831E+02  0.19999999025E+02 0.  0.
        -12    1    1    2    0    0 -0.23896405057E+02  0.10686731923E+01  0.36213851706E+02  0.43400729169E+02  0.00000000000E+00 0.  1.
         11    1    3    3    0    0  0.56335295543E+01  0.29415045299E+01 -0.28270135983E+00  0.63615268968E+01  0.51100000000E-03 0.  1.
        -11    1    3    3    0    0  0.43024417868E+01 -0.48592817064E+01 -0.13723586190E+02  0.15180923628E+02  0.51100000000E-03 0. -1.
         12    1    3    3    0    0  0.13960433716E+02  0.84910398416E+00 -0.22207564156E+02  0.26244820306E+02  0.00000000000E+00 0. -1.
</event>
<event>
 7    1  0.2732193E-010  0.4778727E+02  0.7816164E-02  0.1312668E+00
        -11   -1    0    0    0    0  0.00000000000E+00  0.00000000000E+00  0.45593999997E+02  0.45594000000E+02  0.51100000000E-03 0.  1.
         11   -1    0    0    0    0 -0.00000000000E+00 -0.00000000000E+00 -0.45593999997E+02  0.45594000000E+02  0.51100000000E-03 0. -1.
    9900012    2    1    2    0    0  0.35740830210E+02  0.22062532752E+02 -0.10929817833E+02  0.47787271741E+02  0.20000003175E+02 0.  0.
        -12    1    1    2    0    0 -0.35740830210E+02 -0.22062532752E+02  0.10929817833E+02  0.43400728259E+02  0.00000000000E+00 0.  1.
         11    1    3    3    0    0  0.27580061849E+02  0.13114628869E+02 -0.12148859530E+02  0.32867127804E+02  0.51100000000E-03 0. -1.
        -11    1    3    3    0    0  0.27579215773E+01 -0.63665737155E+00 -0.19891070974E+01  0.34594813688E+01  0.51100000000E-03 0.  1.
         12    1    3    3    0    0  0.54028467843E+01  0.95845612543E+01  0.32081487938E+01  0.11460662568E+02  0.00000000000E+00 0. -1.
</event>
<event>
 7    1  0.2732193E-010  0.4778727E+02  0.7816164E-02  0.1312668E+00
        -11   -1    0    0    0    0  0.00000000000E+00  0.00000000000E+00  0.45593999997E+02  0.45594000000E+02  0.51100000000E-03 0. -1.
         11   -1    0    0    0    0 -0.00000000000E+00 -0.00000000000E+00 -0.45593999997E+02  0.45594000000E+02  0.51100000000E-03 0.  1.
    9900012    2    1    2    0    0 -0.14152986871E+02 -0.29707050932E+02  0.28298537116E+02  0.47787272871E+02  0.20000008327E+02 0.  0.
        -12    1    1    2    0    0  0.14152986871E+02  0.29707050932E+02 -0.28298537116E+02  0.43400727129E+02  0.00000000000E+00 0.  1.
         11    1    3    3    0    0 -0.36039402169E+01 -0.30999644526E+01  0.73933047281E+01  0.87897167052E+01  0.51100000000E-03 0. -1.
        -11    1    3    3    0    0 -0.58780025193E+01 -0.36556592751E-01  0.28283457487E+01  0.65231733027E+01  0.51100000000E-03 0.  1.
        -12    1    3    3    0    0 -0.46710441344E+01 -0.26570529886E+02  0.18076886639E+02  0.32474382863E+02  0.00000000000E+00 0.  1.
</event>
<event>
 7    1  0.2732193E-010  0.4778727E+02  0.7816164E-02  0.1312668E+00
        -11   -1    0    0    0    0  0.00000000000E+00  0.00000000000E+00  0.45593999997E+02  0.45594000000E+02  0.51100000000E-03 0.  1.
         11   -1    0    0    0    0 -0.00000000000E+00 -0.00000000000E+00 -0.45593999997E+02  0.45594000000E+02  0.51100000000E-03 0. -1.
    9900012    2    1    2    0    0  0.12625246563E+01 -0.18164787088E+02 -0.39396319193E+02  0.47787269310E+02  0.19999992093E+02 0.  0.
        -12    1    1    2    0    0 -0.12625246563E+01  0.18164787088E+02  0.39396319193E+02  0.43400730690E+02  0.00000000000E+00 0.  1.
         11    1    3    3    0    0 -0.11629185100E+01 -0.44941512333E+01 -0.64213981856E+01  0.79236437128E+01  0.51100000000E-03 0. -1.
        -11    1    3    3    0    0  0.95914661696E+01 -0.11131603092E+02 -0.23499956347E+02  0.27715641058E+02  0.51100000000E-03 0.  1.
        -12    1    3    3    0    0 -0.71660230032E+01 -0.25390327625E+01 -0.94749646604E+01  0.12147984539E+02  0.00000000000E+00 0.  1.
</event>
<event>
 7    1  0.2732193E-010  0.4778725E+02  0.7816164E-02  0.1312668E+00
        -11   -1    0    0    0    0  0.00000000000E+00  0.00000000000E+00  0.45593999997E+02  0.45594000000E+02  0.51100000000E-03 0. -1.
         11   -1    0    0    0    0 -0.00000000000E+00 -0.00000000000E+00 -0.45593999997E+02  0.45594000000E+02  0.51100000000E-03 0.  1.
    9900012    2    1    2    0    0 -0.36247016307E+02  0.17271916308E+02  0.16476035369E+02  0.47787250863E+02  0.19999907986E+02 0.  0.
        -12    1    1    2    0    0  0.36247016307E+02 -0.17271916308E+02 -0.16476035369E+02  0.43400749137E+02  0.00000000000E+00 0.  1.
         11    1    3    3    0    0 -0.30531967407E+02  0.18436041884E+02  0.17851795922E+02  0.39884524468E+02  0.51100000000E-03 0. -1.
        -11    1    3    3    0    0 -0.55154026035E+01 -0.26536535411E+01 -0.44884679585E+00  0.61370193663E+01  0.51100000000E-03 0.  1.
         12    1    3    3    0    0 -0.19964629676E+00  0.14895279648E+01 -0.92691375681E+00  0.17657070296E+01  0.00000000000E+00 0. -1.
</event>
<event>
 7    1  0.2732193E-010  0.4778726E+02  0.7816164E-02  0.1312668E+00
        -11   -1    0    0    0    0  0.00000000000E+00  0.00000000000E+00  0.45593999997E+02  0.45594000000E+02  0.51100000000E-03 0.  1.
         11   -1    0    0    0    0 -0.00000000000E+00 -0.00000000000E+00 -0.45593999997E+02  0.45594000000E+02  0.51100000000E-03 0. -1.
    9900012    2    1    2    0    0 -0.40457429108E+02 -0.11039162129E+02 -0.11178433054E+02  0.47787262263E+02  0.19999959964E+02 0.  0.
        -12    1    1    2    0    0  0.40457429108E+02  0.11039162129E+02  0.11178433054E+02  0.43400737737E+02  0.00000000000E+00 0.  1.
         11    1    3    3    0    0 -0.24391517271E+02 -0.15344270628E+02 -0.36606374206E+01  0.29048115644E+02  0.51100000000E-03 0. -1.
        -11    1    3    3    0    0 -0.67355162056E+01  0.34811710274E+01 -0.48480185885E+01  0.89993896889E+01  0.51100000000E-03 0.  1.
         12    1    3    3    0    0 -0.93303956311E+01  0.82393747180E+00 -0.26697770453E+01  0.97397569304E+01  0.00000000000E+00 0. -1.
</event>
<event>
 7    1  0.2732193E-010  0.4778727E+02  0.7816164E-02  0.1312668E+00
        -11   -1    0    0    0    0  0.00000000000E+00  0.00000000000E+00  0.45593999997E+02  0.45594000000E+02  0.51100000000E-03 0.  1.
         11   -1    0    0    0    0 -0.00000000000E+00 -0.00000000000E+00 -0.45593999997E+02  0.45594000000E+02  0.51100000000E-03 0. -1.
    9900012    2    1    2    0    0  0.36212049929E+02 -0.21603884851E+02 -0.10275350853E+02  0.47787271482E+02  0.20000001995E+02 0.  0.
        -12    1    1    2    0    0 -0.36212049929E+02  0.21603884851E+02  0.10275350853E+02  0.43400728518E+02  0.00000000000E+00 0.  1.
         11    1    3    3    0    0  0.13358579932E+02 -0.17522397374E+01 -0.98808859295E+01  0.16707899596E+02  0.51100000000E-03 0. -1.
        -11    1    3    3    0    0  0.82680463246E+01 -0.11791076610E+02  0.23449254126E+00  0.14402953332E+02  0.51100000000E-03 0.  1.
         12    1    3    3    0    0  0.14585423673E+02 -0.80605685036E+01 -0.62895746462E+00  0.16676418555E+02  0.00000000000E+00 0. -1.
</event>
<event>
 7    1  0.2732193E-010  0.4778727E+02  0.7816164E-02  0.1312668E+00
        -11   -1    0    0    0    0  0.00000000000E+00  0.00000000000E+00  0.45593999997E+02  0.45594000000E+02  0.51100000000E-03 0.  1.
         11   -1    0    0    0    0 -0.00000000000E+00 -0.00000000000E+00 -0.45593999997E+02  0.45594000000E+02  0.51100000000E-03 0. -1.
    9900012    2    1    2    0    0 -0.75699296350E+01  0.24890427889E+02 -0.34738824589E+02  0.47787272253E+02  0.20000005508E+02 0.  0.
        -12    1    1    2    0    0  0.75699296350E+01 -0.24890427889E+02  0.34738824589E+02  0.43400727747E+02  0.00000000000E+00 0.  1.
         11    1    3    3    0    0 -0.62514248553E+01  0.75171314023E+01 -0.23072979217E+02  0.25058929495E+02  0.51100000000E-03 0. -1.
        -11    1    3    3    0    0 -0.41300792346E+00  0.12481885684E+02 -0.12516783056E+02  0.17681569616E+02  0.51100000000E-03 0.  1.
         12    1    3    3    0    0 -0.90549685634E+00  0.48914108028E+01  0.85093768332E+00  0.50467731412E+01  0.00000000000E+00 0. -1.
</event>
<event>
 7    1  0.2732193E-010  0.4778728E+02  0.7816164E-02  0.1312668E+00
        -11   -1    0    0    0    0  0.00000000000E+00  0.00000000000E+00  0.45593999997E+02  0.45594000000E+02  0.51100000000E-03 0. -1.
         11   -1    0    0    0    0 -0.00000000000E+00 -0.00000000000E+00 -0.45593999997E+02  0.45594000000E+02  0.51100000000E-03 0.  1.
    9900012    2    1    2    0    0 -0.96433702687E+01 -0.29838973990E+02  0.30004387497E+02  0.47787283094E+02  0.20000054937E+02 0.  0.
        -12    1    1    2    0    0  0.96433702687E+01  0.29838973990E+02 -0.30004387497E+02  0.43400716906E+02  0.00000000000E+00 0.  1.
         11    1    3    3    0    0 -0.89845908739E+01 -0.20655490815E+02  0.13977228133E+02  0.26509150883E+02  0.51100000000E-03 0. -1.
        -11    1    3    3    0    0 -0.14097409100E+01 -0.11908664235E+01  0.12281681591E+02  0.12419550525E+02  0.51100000000E-03 0.  1.
        -12    1    3    3    0    0  0.75096151524E+00 -0.79926167515E+01  0.37454777728E+01  0.88585816856E+01  0.00000000000E+00 0.  1.
</event>
<event>
 7    1  0.2732193E-010  0.4778727E+02  0.7816164E-02  0.1312668E+00
        -11   -1    0    0    0    0  0.00000000000E+00  0.00000000000E+00  0.45593999997E+02  0.45594000000E+02  0.51100000000E-03 0. -1.
         11   -1    0    0    0    0 -0.00000000000E+00 -0.00000000000E+00 -0.45593999997E+02  0.45594000000E+02  0.51100000000E-03 0.  1.
    9900012    2    1    2    0    0  0.29382600189E+02  0.32471362304E+01  0.31776441425E+02  0.47787270545E+02  0.19999997725E+02 0.  0.
        -12    1    1    2    0    0 -0.29382600189E+02 -0.32471362304E+01 -0.31776441425E+02  0.43400729455E+02  0.00000000000E+00 0.  1.
         11    1    3    3    0    0  0.76294258476E+01  0.70593640786E+00  0.14119071766E+02  0.16064080203E+02  0.51100000000E-03 0. -1.
        -11    1    3    3    0    0 -0.38699253832E+00  0.36603189595E+01  0.55044874754E+00  0.37216518100E+01  0.51100000000E-03 0.  1.
        -12    1    3    3    0    0  0.22140166880E+02 -0.11191191370E+01  0.17106920911E+02  0.28001538532E+02  0.00000000000E+00 0.  1.
</event>
<event>
 7    1  0.2732193E-010  0.4778727E+02  0.7816164E-02  0.1312668E+00
        -11   -1    0    0    0    0  0.00000000000E+00  0.00000000000E+00  0.45593999997E+02  0.45594000000E+02  0.51100000000E-03 0. -1.
         11   -1    0    0    0    0 -0.00000000000E+00 -0.00000000000E+00 -0.45593999997E+02  0.45594000000E+02  0.51100000000E-03 0.  1.
    9900012    2    1    2    0    0  0.37106936873E+02  0.10266769796E+02  0.20032272226E+02  0.47787271243E+02  0.20000000903E+02 0.  0.
        -12    1    1    2    0    0 -0.37106936873E+02 -0.10266769796E+02 -0.20032272226E+02  0.43400728757E+02  0.00000000000E+00 0.  1.
         11    1    3    3    0    0 -0.58475999900E+00  0.34196774215E+01  0.20469015689E+01  0.40281440165E+01  0.51100000000E-03 0. -1.
        -11    1    3    3    0    0  0.19215639518E+02  0.34167354131E+01  0.15251705295E+02  0.24769525584E+02  0.51100000000E-03 0.  1.
         12    1    3    3    0    0  0.18476057354E+02  0.34303569614E+01  0.27336653623E+01  0.18989601642E+02  0.00000000000E+00 0. -1.
</event>
<event>
 7    1  0.2732193E-010  0.4778727E+02  0.7816164E-02  0.1312668E+00
        -11   -1    0    0    0    0  0.00000000000E+00  0.00000000000E+00  0.45593999997E+02  0.45594000000E+02  0.51100000000E-03 0.  1.
         11   -1    0    0    0    0 -0.00000000000E+00 -0.00000000000E+00 -0.45593999997E+02  0.45594000000E+02  0.51100000000E-03 0. -1.
    9900012    2    1    2    0    0 -0.10169314982E+02 -0.13805692913E+02 -0.39869928528E+02  0.47787270457E+02  0.19999997321E+02 0.  0.
        -12    1    1    2    0    0  0.10169314982E+02  0.13805692913E+02  0.39869928528E+02  0.43400729543E+02  0.00000000000E+00 0.  1.
         11    1    3    3    0    0  0.16361190053E-01 -0.78124958523E+01 -0.52196905827E+01  0.93957718773E+01  0.51100000000E-03 0. -1.
        -11    1    3    3    0    0 -0.73310314833E+01 -0.14186219503E+01 -0.30983817255E+02  0.31870887073E+02  0.51100000000E-03 0.  1.
        -12    1    3    3    0    0 -0.28546446886E+01 -0.45745751108E+01 -0.36664206908E+01  0.65206115069E+01  0.00000000000E+00 0.  1.
</event>
<event>
 7    1  0.2732193E-010  0.4778727E+02  0.7816164E-02  0.1312668E+00
        -11   -1    0    0    0    0  0.00000000000E+00  0.00000000000E+00  0.45593999997E+02  0.45594000000E+02  0.51100000000E-03 0. -1.
         11   -1    0    0    0    0 -0.00000000000E+00 -0.00000000000E+00 -0.45593999997E+02  0.45594000000E+02  0.51100000000E-03 0.  1.
    9900012    2    1    2    0    0 -0.40454783062E+02  0.18637009393E+01  0.15606422654E+02  0.47787270953E+02  0.19999999583E+02 0.  0.
        -12    1    1    2    0    0  0.40454783062E+02 -0.18637009393E+01 -0.15606422654E+02  0.43400729047E+02  0.00000000000E+00 0.  1.
         11    1    3    3    0    0 -0.24254343431E+02  0.88726893806E+01  0.90072140229E+01  0.27351923092E+02  0.51100000000E-03 0. -1.
        -11    1    3    3    0    0 -0.10636735765E+01 -0.99524020878E+00 -0.16306920289E+01  0.21865638122E+01  0.51100000000E-03 0.  1.
         12    1    3    3    0    0 -0.15136766054E+02 -0.60137482325E+01  0.82299006603E+01  0.18248784049E+02  0.00000000000E+00 0. -1.
</event>
<event>
 7    1  0.2732193E-010  0.4778727E+02  0.7816164E-02  0.1312668E+00
        -11   -1    0    0    0    0  0.00000000000E+00  0.00000000000E+00  0.45593999997E+02  0.45594000000E+02  0.51100000000E-03 0.  1.
         11   -1    0    0    0    0 -0.00000000000E+00 -0.00000000000E+00 -0.45593999997E+02  0.45594000000E+02  0.51100000000E-03 0. -1.
    9900012    2    1    2    0    0  0.81796034386E+01  0.39225159961E+01 -0.42442094305E+02  0.47787269440E+02  0.19999992682E+02 0.  0.
        -12    1    1    2    0    0 -0.81796034386E+01 -0.39225159961E+01  0.42442094305E+02  0.43400730560E+02  0.00000000000E+00 0.  1.
         11    1    3    3    0    0  0.99768501631E+01  0.37354401635E+01 -0.31102880887E+02  0.32876743332E+02  0.51100000000E-03 0. -1.
        -11    1    3    3    0    0  0.24571406780E+00  0.18751855564E+01  0.11028923330E+01  0.21893076608E+01  0.51100000000E-03 0.  1.
         12    1    3    3    0    0 -0.20429607922E+01 -0.16881097238E+01 -0.12442105751E+02  0.12721218447E+02  0.00000000000E+00 0. -1.
</event>
<event>
 7    1  0.2732193E-010  0.4778727E+02  0.7816164E-02  0.1312668E+00
        -11   -1    0    0    0    0  0.00000000000E+00  0.00000000000E+00  0.45593999997E+02  0.45594000000E+02  0.51100000000E-03 0. -1.
         11   -1    0    0    0    0 -0.00000000000E+00 -0.00000000000E+00 -0.45593999997E+02  0.45594000000E+02  0.51100000000E-03 0.  1.
    9900012    2    1    2    0    0  0.14832982856E+02  0.39412455104E+01  0.40596461144E+02  0.47787268969E+02  0.19999990539E+02 0.  0.
        -12    1    1    2    0    0 -0.14832982856E+02 -0.39412455104E+01 -0.40596461144E+02  0.43400731031E+02  0.00000000000E+00 0.  1.
         11    1    3    3    0    0  0.27163770116E+01 -0.20280462573E+01  0.10970935172E+02  0.11482730272E+02  0.51100000000E-03 0. -1.
        -11    1    3    3    0    0 -0.31106480595E+01 -0.18746349362E+01  0.33624736185E+01  0.49494056805E+01  0.51100000000E-03 0.  1.
        -12    1    3    3    0    0  0.15227253904E+02  0.78439267039E+01  0.26263052353E+02  0.31355133017E+02  0.00000000000E+00 0.  1.
</event>
<event>
 7    1  0.2732193E-010  0.4778727E+02  0.7816164E-02  0.1312668E+00
        -11   -1    0    0    0    0  0.00000000000E+00  0.00000000000E+00  0.45593999997E+02  0.45594000000E+02  0.51100000000E-03 0. -1.
         11   -1    0    0    0    0 -0.00000000000E+00 -0.00000000000E+00 -0.45593999997E+02  0.45594000000E+02  0.51100000000E-03 0.  1.
    9900012    2    1    2    0    0  0.22389788889E+02  0.37175409498E+02  0.55609501328E+00  0.47787274666E+02  0.20000016514E+02 0.  0.
        -12    1    1    2    0    0 -0.22389788889E+02 -0.37175409498E+02 -0.55609501328E+00  0.43400725334E+02  0.00000000000E+00 0.  1.
         11    1    3    3    0    0  0.27170467142E+01  0.47713639014E+01 -0.13381101814E+01  0.56514418908E+01  0.51100000000E-03 0. -1.
        -11    1    3    3    0    0  0.12711954446E+02  0.12222614482E+02 -0.70472785047E+01  0.18990793170E+02  0.51100000000E-03 0.  1.
        -12    1    3    3    0    0  0.69607877281E+01  0.20181431114E+02  0.89414836993E+01  0.23145039606E+02  0.00000000000E+00 0.  1.
</event>
<event>
 7    1  0.2732193E-010  0.4778731E+02  0.7816164E-02  0.1312668E+00
        -11   -1    0    0    0    0  0.00000000000E+00  0.00000000000E+00  0.45593999997E+02  0.45594000000E+02  0.51100000000E-03 0. -1.
         11   -1    0    0    0    0 -0.00000000000E+00 -0.00000000000E+00 -0.45593999997E+02  0.45594000000E+02  0.51100000000E-03 0.  1.
    9900012    2    1    2    0    0 -0.28790712856E+02 -0.32475967586E+02  0.16090041997E+00  0.47787314448E+02  0.20000197893E+02 0.  0.
        -12    1    1    2    0    0  0.28790712856E+02  0.32475967586E+02 -0.16090041997E+00  0.43400685552E+02  0.00000000000E+00 0.  1.
         11    1    3    3    0    0 -0.10808928260E+02 -0.22388468614E+02  0.22649702621E+01  0.24964105182E+02  0.51100000000E-03 0. -1.
        -11    1    3    3    0    0  0.11084217395E+01 -0.12528994762E+01 -0.39303781215E+00  0.17183814574E+01  0.51100000000E-03 0.  1.
         12    1    3    3    0    0 -0.19090206336E+02 -0.88345994959E+01 -0.17110320300E+01  0.21104827808E+02  0.00000000000E+00 0. -1.
</event>
<event>
 7    1  0.2732193E-010  0.4778727E+02  0.7816164E-02  0.1312668E+00
        -11   -1    0    0    0    0  0.00000000000E+00  0.00000000000E+00  0.45593999997E+02  0.45594000000E+02  0.51100000000E-03 0.  1.
         11   -1    0    0    0    0 -0.00000000000E+00 -0.00000000000E+00 -0.45593999997E+02  0.45594000000E+02  0.51100000000E-03 0. -1.
    9900012    2    1    2    0    0 -0.10313161929E+02  0.40229502281E+02 -0.12603541304E+02  0.47787269405E+02  0.19999992525E+02 0.  0.
        -12    1    1    2    0    0  0.10313161929E+02 -0.40229502281E+02  0.12603541304E+02  0.43400730595E+02  0.00000000000E+00 0.  1.
         11    1    3    3    0    0  0.16606440491E+01  0.17291908538E+02 -0.89533109973E+01  0.19543019664E+02  0.51100000000E-03 0. -1.
        -11    1    3    3    0    0 -0.12756241175E+02  0.20718115030E+02 -0.53000498875E+00  0.24336040863E+02  0.51100000000E-03 0.  1.
        -12    1    3    3    0    0  0.78243519666E+00  0.22194787134E+01 -0.31202253180E+01  0.39082088776E+01  0.00000000000E+00 0.  1.
</event>
<event>
 7    1  0.2732193E-010  0.4778727E+02  0.7816164E-02  0.1312668E+00
        -11   -1    0    0    0    0  0.00000000000E+00  0.00000000000E+00  0.45593999997E+02  0.45594000000E+02  0.51100000000E-03 0.  1.
         11   -1    0    0    0    0 -0.00000000000E+00 -0.00000000000E+00 -0.45593999997E+02  0.45594000000E+02  0.51100000000E-03 0. -1.
    9900012    2    1    2    0    0  0.17765097512E+02  0.96213768629E+01 -0.38411637917E+02  0.47787268326E+02  0.19999987607E+02 0.  0.
        -12    1    1    2    0    0 -0.17765097512E+02 -0.96213768629E+01  0.38411637917E+02  0.43400731674E+02  0.00000000000E+00 0.  1.
         11    1    3    3    0    0  0.50318976102E+01  0.57227431875E+01 -0.26903309597E+02  0.27961721168E+02  0.51100000000E-03 0. -1.
        -11    1    3    3    0    0  0.62939812573E+01  0.58079371546E+01 -0.32012041030E+01  0.91429777441E+01  0.51100000000E-03 0.  1.
         12    1    3    3    0    0  0.64392186444E+01 -0.19093034792E+01 -0.83071242170E+01  0.10682569414E+02  0.00000000000E+00 0. -1.
</event>
<event>
 7    1  0.2732193E-010  0.4778727E+02  0.7816164E-02  0.1312668E+00
        -11   -1    0    0    0    0  0.00000000000E+00  0.00000000000E+00  0.45593999997E+02  0.45594000000E+02  0.51100000000E-03 0.  1.
         11   -1    0    0    0    0 -0.00000000000E+00 -0.00000000000E+00 -0.45593999997E+02  0.45594000000E+02  0.51100000000E-03 0. -1.
    9900012    2    1    2    0    0 -0.66543510664E+01 -0.21526703305E+01 -0.42833503378E+02  0.47787269715E+02  0.19999993939E+02 0.  0.
        -12    1    1    2    0    0  0.66543510664E+01  0.21526703305E+01  0.42833503378E+02  0.43400730285E+02  0.00000000000E+00 0.  1.
         11    1    3    3    0    0 -0.11528651979E+02 -0.47315342314E+01 -0.31862972771E+02  0.34213246948E+02  0.51100000000E-03 0. -1.
        -11    1    3    3    0    0  0.28375916938E+01  0.34830641358E+01 -0.10315470791E+02  0.11251337711E+02  0.51100000000E-03 0.  1.
         12    1    3    3    0    0  0.20367092189E+01 -0.90420023487E+00 -0.65505981582E+00  0.23226850560E+01  0.00000000000E+00 0. -1.
</event>
<event>
 7    1  0.2732193E-010  0.4778727E+02  0.7816164E-02  0.1312668E+00
        -11   -1    0    0    0    0  0.00000000000E+00  0.00000000000E+00  0.45593999997E+02  0.45594000000E+02  0.51100000000E-03 0.  1.
         11   -1    0    0    0    0 -0.00000000000E+00 -0.00000000000E+00 -0.45593999997E+02  0.45594000000E+02  0.51100000000E-03 0. -1.
    9900012    2    1    2    0    0  0.12853027139E+01  0.30986951549E+02  0.30360832663E+02  0.47787270405E+02  0.19999997086E+02 0.  0.
        -12    1    1    2    0    0 -0.12853027139E+01 -0.30986951549E+02 -0.30360832663E+02  0.43400729595E+02  0.00000000000E+00 0.  1.
         11    1    3    3    0    0  0.28385288324E+01  0.11191916901E+02  0.19588261144E+01  0.11711244591E+02  0.51100000000E-03 0. -1.
        -11    1    3    3    0    0  0.49434778763E+00  0.17623286824E+02  0.27966254883E+02  0.33059583038E+02  0.51100000000E-03 0.  1.
         12    1    3    3    0    0 -0.20475739062E+01  0.21717478241E+01  0.43575166638E+00  0.30164427771E+01  0.00000000000E+00 0. -1.
</event>
<event>
 7    1  0.2732193E-010  0.4778728E+02  0.7816164E-02  0.1312668E+00
        -11   -1    0    0    0    0  0.00000000000E+00  0.00000000000E+00  0.45593999997E+02  0.45594000000E+02  0.51100000000E-03 0.  1.
         11   -1    0    0    0    0 -0.00000000000E+00 -0.00000000000E+00 -0.45593999997E+02  0.45594000000E+02  0.51100000000E-03 0. -1.
    9900012    2    1    2    0    0  0.38940146806E+02  0.40022473953E+01 -0.18742188320E+02  0.47787278341E+02  0.20000033267E+02 0.  0.
        -12    1    1    2    0    0 -0.38940146806E+02 -0.40022473953E+01  0.18742188320E+02  0.43400721659E+02  0.00000000000E+00 0.  1.
         11    1    3    3    0    0  0.18608140573E+02  0.61372291583E+01 -0.99769810782E+01  0.21987920070E+02  0.51100000000E-03 0. -1.
        -11    1    3    3    0    0  0.11489106857E+02 -0.43459038010E+01  0.11424140642E+01  0.12336594602E+02  0.51100000000E-03 0.  1.
        -12    1    3    3    0    0  0.88428993761E+01  0.22109220380E+01 -0.99076213064E+01  0.13462763668E+02  0.00000000000E+00 0.  1.
</event>
<event>
 7    1  0.2732193E-010  0.4778727E+02  0.7816164E-02  0.1312668E+00
        -11   -1    0    0    0    0  0.00000000000E+00  0.00000000000E+00  0.45593999997E+02  0.45594000000E+02  0.51100000000E-03 0.  1.
         11   -1    0    0    0    0 -0.00000000000E+00 -0.00000000000E+00 -0.45593999997E+02  0.45594000000E+02  0.51100000000E-03 0. -1.
    9900012    2    1    2    0    0 -0.30187491069E+02 -0.21764934924E+02 -0.22329937111E+02  0.47787273040E+02  0.20000009097E+02 0.  0.
        -12    1    1    2    0    0  0.30187491069E+02  0.21764934924E+02  0.22329937111E+02  0.43400726960E+02  0.00000000000E+00 0.  1.
         11    1    3    3    0    0 -0.59759856248E+01 -0.62565995681E+01 -0.12939235867E+02  0.15565386838E+02  0.51100000000E-03 0. -1.
        -11    1    3    3    0    0 -0.93978432187E+01 -0.50522339768E+01  0.19341721381E+01  0.10843686986E+02  0.51100000000E-03 0.  1.
        -12    1    3    3    0    0 -0.14813662225E+02 -0.10456101379E+02 -0.11324873382E+02  0.21378199216E+02  0.00000000000E+00 0.  1.
</event>
<event>
 7    1  0.2732193E-010  0.4778728E+02  0.7816164E-02  0.1312668E+00
        -11   -1    0    0    0    0  0.00000000000E+00  0.00000000000E+00  0.45593999997E+02  0.45594000000E+02  0.51100000000E-03 0. -1.
         11   -1    0    0    0    0 -0.00000000000E+00 -0.00000000000E+00 -0.45593999997E+02  0.45594000000E+02  0.51100000000E-03 0.  1.
    9900012    2    1    2    0    0 -0.31907935389E+02  0.24912076293E+02  0.15649119519E+02  0.47787276184E+02  0.20000023434E+02 0.  0.
        -12    1    1    2    0    0  0.31907935389E+02 -0.24912076293E+02 -0.15649119519E+02  0.43400723816E+02  0.00000000000E+00 0.  1.
         11    1    3    3    0    0 -0.10826770731E+02  0.31014944455E+01  0.87092208333E+01  0.14236880278E+02  0.51100000000E-03 0. -1.
        -11    1    3    3    0    0 -0.19602355011E+02  0.15150443924E+02  0.14917713732E+01  0.24819622381E+02  0.51100000000E-03 0.  1.
        -12    1    3    3    0    0 -0.14788096470E+01  0.66601379235E+01  0.54481273127E+01  0.87307735251E+01  0.00000000000E+00 0.  1.
</event>
<event>
 7    1  0.2732193E-010  0.4778726E+02  0.7816164E-02  0.1312668E+00
        -11   -1    0    0    0    0  0.00000000000E+00  0.00000000000E+00  0.45593999997E+02  0.45594000000E+02  0.51100000000E-03 0. -1.
         11   -1    0    0    0    0 -0.00000000000E+00 -0.00000000000E+00 -0.45593999997E+02  0.45594000000E+02  0.51100000000E-03 0.  1.
    9900012    2    1    2    0    0 -0.15438571288E+01  0.11564196993E+00  0.43373113662E+02  0.47787264331E+02  0.19999969389E+02 0.  0.
        -12    1    1    2    0    0  0.15438571288E+01 -0.11564196993E+00 -0.43373113662E+02  0.43400735669E+02  0.00000000000E+00 0.  1.
         11    1    3    3    0    0 -0.84347663074E+01  0.16205485013E+01  0.37669709337E+02  0.38636491325E+02  0.51100000000E-03 0. -1.
        -11    1    3    3    0    0  0.42490954038E+00 -0.42243250705E+00  0.43980162929E+00  0.74325169005E+00  0.51100000000E-03 0.  1.
         12    1    3    3    0    0  0.64659996383E+01 -0.10824740244E+01  0.52636026963E+01  0.84075213160E+01  0.00000000000E+00 0. -1.
</event>
<event>
 7    1  0.2732193E-010  0.4778728E+02  0.7816164E-02  0.1312668E+00
        -11   -1    0    0    0    0  0.00000000000E+00  0.00000000000E+00  0.45593999997E+02  0.45594000000E+02  0.51100000000E-03 0. -1.
         11   -1    0    0    0    0 -0.00000000000E+00 -0.00000000000E+00 -0.45593999997E+02  0.45594000000E+02  0.51100000000E-03 0.  1.
    9900012    2    1    2    0    0 -0.30035009652E+02  0.29992148607E+02 -0.90549492058E+01  0.47787275491E+02  0.20000020272E+02 0.  0.
        -12    1    1    2    0    0  0.30035009652E+02 -0.29992148607E+02  0.90549492058E+01  0.43400724509E+02  0.00000000000E+00 0.  1.
         11    1    3    3    0    0 -0.11245754934E+02  0.21639195068E+02 -0.41654596880E+01  0.24740105535E+02  0.51100000000E-03 0. -1.
        -11    1    3    3    0    0 -0.12621903494E+02  0.38560589219E+01  0.12428222916E+01  0.13256177644E+02  0.51100000000E-03 0.  1.
         12    1    3    3    0    0 -0.61673512231E+01  0.44968946166E+01 -0.61323118095E+01  0.97909923108E+01  0.00000000000E+00 0. -1.
</event>
<event>
 7    1  0.2732193E-010  0.4778727E+02  0.7816164E-02  0.1312668E+00
        -11   -1    0    0    0    0  0.00000000000E+00  0.00000000000E+00  0.45593999997E+02  0.45594000000E+02  0.51100000000E-03 0. -1.
         11   -1    0    0    0    0 -0.00000000000E+00 -0.00000000000E+00 -0.45593999997E+02  0.45594000000E+02  0.51100000000E-03 0.  1.
    9900012    2    1    2    0    0  0.75455465014E+01 -0.39282911969E+02 -0.16838671350E+02  0.47787270771E+02  0.19999998751E+02 0.  0.
        -12    1    1    2    0    0 -0.75455465014E+01  0.39282911969E+02  0.16838671350E+02  0.43400729229E+02  0.00000000000E+00 0.  1.
         11    1    3    3    0    0  0.10259065104E+02 -0.14905758741E+02 -0.63105598760E+01  0.19163852083E+02  0.51100000000E-03 0. -1.
        -11    1    3    3    0    0 -0.61940526560E+01 -0.98181019552E+01 -0.53677627092E+01  0.12789616533E+02  0.51100000000E-03 0.  1.
        -12    1    3    3    0    0  0.34805340533E+01 -0.14559051273E+02 -0.51603487653E+01  0.15833802154E+02  0.00000000000E+00 0.  1.
</event>
<event>
 7    1  0.2732193E-010  0.4778727E+02  0.7816164E-02  0.1312668E+00
        -11   -1    0    0    0    0  0.00000000000E+00  0.00000000000E+00  0.45593999997E+02  0.45594000000E+02  0.51100000000E-03 0. -1.
         11   -1    0    0    0    0 -0.00000000000E+00 -0.00000000000E+00 -0.45593999997E+02  0.45594000000E+02  0.51100000000E-03 0.  1.
    9900012    2    1    2    0    0  0.35323693750E+02 -0.77752888654E+01  0.23987598929E+02  0.47787270059E+02  0.19999995505E+02 0.  0.
        -12    1    1    2    0    0 -0.35323693750E+02  0.77752888654E+01 -0.23987598929E+02  0.43400729941E+02  0.00000000000E+00 0.  1.
         11    1    3    3    0    0  0.58867080562E+01 -0.42018486703E+01  0.13502375295E+02  0.15317408490E+02  0.51100000000E-03 0. -1.
        -11    1    3    3    0    0  0.83508493268E+01 -0.21111175807E+01 -0.53989022301E+00  0.86304683322E+01  0.51100000000E-03 0.  1.
         12    1    3    3    0    0  0.21086136367E+02 -0.14623226144E+01  0.11025113857E+02  0.23839393236E+02  0.00000000000E+00 0. -1.
</event>
<event>
 7    1  0.2732193E-010  0.4778727E+02  0.7816164E-02  0.1312668E+00
        -11   -1    0    0    0    0  0.00000000000E+00  0.00000000000E+00  0.45593999997E+02  0.45594000000E+02  0.51100000000E-03 0.  1.
         11   -1    0    0    0    0 -0.00000000000E+00 -0.00000000000E+00 -0.45593999997E+02  0.45594000000E+02  0.51100000000E-03 0. -1.
    9900012    2    1    2    0    0 -0.10703903743E+02  0.12501964849E+02 -0.40159069194E+02  0.47787268221E+02  0.19999987128E+02 0.  0.
        -12    1    1    2    0    0  0.10703903743E+02 -0.12501964849E+02  0.40159069194E+02  0.43400731779E+02  0.00000000000E+00 0.  1.
         11    1    3    3    0    0  0.45007908173E+01  0.28132916032E+01 -0.44061478897E+01  0.68982510184E+01  0.51100000000E-03 0. -1.
        -11    1    3    3    0    0 -0.97261639323E+01  0.17856011352E+01 -0.14374943460E+02  0.17447797454E+02  0.51100000000E-03 0.  1.
         12    1    3    3    0    0 -0.54785306279E+01  0.79030721105E+01 -0.21377977844E+02  0.23441219749E+02  0.00000000000E+00 0. -1.
</event>
<event>
 7    1  0.2732193E-010  0.4778726E+02  0.7816164E-02  0.1312668E+00
        -11   -1    0    0    0    0  0.00000000000E+00  0.00000000000E+00  0.45593999997E+02  0.45594000000E+02  0.51100000000E-03 0.  1.
         11   -1    0    0    0    0 -0.00000000000E+00 -0.00000000000E+00 -0.45593999997E+02  0.45594000000E+02  0.51100000000E-03 0. -1.
    9900012    2    1    2    0    0 -0.14664289016E+02  0.28076107969E+02 -0.29670101165E+02  0.47787261364E+02  0.19999955862E+02 0.  0.
        -12    1    1    2    0    0  0.14664289016E+02 -0.28076107969E+02  0.29670101165E+02  0.43400738636E+02  0.00000000000E+00 0.  1.
         11    1    3    3    0    0 -0.91477028898E+00  0.15954360002E+02 -0.22419243207E+02  0.27531815669E+02  0.51100000000E-03 0. -1.
        -11    1    3    3    0    0 -0.12684849297E+02  0.10856061690E+02 -0.79099464420E+01  0.18475029908E+02  0.51100000000E-03 0.  1.
         12    1    3    3    0    0 -0.10646694294E+01  0.12656862768E+01  0.65908848465E+00  0.17804157873E+01  0.00000000000E+00 0. -1.
</event>
<event>
 7    1  0.2732193E-010  0.4778725E+02  0.7816164E-02  0.1312668E+00
        -11   -1    0    0    0    0  0.00000000000E+00  0.00000000000E+00  0.45593999997E+02  0.45594000000E+02  0.51100000000E-03 0.  1.
         11   -1    0    0    0    0 -0.00000000000E+00 -0.00000000000E+00 -0.45593999997E+02  0.45594000000E+02  0.51100000000E-03 0. -1.
    9900012    2    1    2    0    0  0.30554093922E+02 -0.92352260656E+00 -0.30809401498E+02  0.47787253808E+02  0.19999921412E+02 0.  0.
        -12    1    1    2    0    0 -0.30554093922E+02  0.92352260656E+00  0.30809401498E+02  0.43400746192E+02  0.00000000000E+00 0.  1.
         11    1    3    3    0    0  0.38752682252E+01  0.14943128133E+01 -0.36496993371E+01  0.55291030117E+01  0.51100000000E-03 0. -1.
        -11    1    3    3    0    0  0.27121363345E+02  0.25354817141E+01 -0.24404406604E+02  0.36572832529E+02  0.51100000000E-03 0.  1.
        -12    1    3    3    0    0 -0.44253764874E+00 -0.49533171340E+01 -0.27552955565E+01  0.56853182676E+01  0.00000000000E+00 0.  1.
</event>
<event>
 7    1  0.2732193E-010  0.4778727E+02  0.7816164E-02  0.1312668E+00
        -11   -1    0    0    0    0  0.00000000000E+00  0.00000000000E+00  0.45593999997E+02  0.45594000000E+02  0.51100000000E-03 0. -1.
         11   -1    0    0    0    0 -0.00000000000E+00 -0.00000000000E+00 -0.45593999997E+02  0.45594000000E+02  0.51100000000E-03 0.  1.
    9900012    2    1    2    0    0 -0.66435999071E+01 -0.40267484793E+02  0.14765361095E+02  0.47787266832E+02  0.19999980793E+02 0.  0.
        -12    1    1    2    0    0  0.66435999071E+01  0.40267484793E+02 -0.14765361095E+02  0.43400733168E+02  0.00000000000E+00 0.  1.
         11    1    3    3    0    0  0.48005137076E+01 -0.15152326984E+02  0.14529951209E+01  0.15960862758E+02  0.51100000000E-03 0. -1.
        -11    1    3    3    0    0  0.61890255576E+00 -0.15431153559E+01  0.29605961725E+01  0.33954933858E+01  0.51100000000E-03 0.  1.
         12    1    3    3    0    0 -0.12063016170E+02 -0.23572042453E+02  0.10351769801E+02  0.28430910688E+02  0.00000000000E+00 0. -1.
</event>
<event>
 7    1  0.2732193E-010  0.4778727E+02  0.7816164E-02  0.1312668E+00
        -11   -1    0    0    0    0  0.00000000000E+00  0.00000000000E+00  0.45593999997E+02  0.45594000000E+02  0.51100000000E-03 0.  1.
         11   -1    0    0    0    0 -0.00000000000E+00 -0.00000000000E+00 -0.45593999997E+02  0.45594000000E+02  0.51100000000E-03 0. -1.
    9900012    2    1    2    0    0  0.14252036690E+02 -0.37481243568E+02 -0.16602985203E+02  0.47787270895E+02  0.19999999319E+02 0.  0.
        -12    1    1    2    0    0 -0.14252036690E+02  0.37481243568E+02  0.16602985203E+02  0.43400729105E+02  0.00000000000E+00 0.  1.
         11    1    3    3    0    0  0.45382975684E+01 -0.25048122152E+02 -0.15352167131E+02  0.29726984442E+02  0.51100000000E-03 0. -1.
        -11    1    3    3    0    0  0.12466146146E+00 -0.57989130354E+01  0.16773562883E+01  0.60379182879E+01  0.51100000000E-03 0.  1.
         12    1    3    3    0    0  0.95890776603E+01 -0.66342083803E+01 -0.29281743599E+01  0.12022368165E+02  0.00000000000E+00 0. -1.
</event>
<event>
 7    1  0.2732193E-010  0.4778727E+02  0.7816164E-02  0.1312668E+00
        -11   -1    0    0    0    0  0.00000000000E+00  0.00000000000E+00  0.45593999997E+02  0.45594000000E+02  0.51100000000E-03 0. -1.
         11   -1    0    0    0    0 -0.00000000000E+00 -0.00000000000E+00 -0.45593999997E+02  0.45594000000E+02  0.51100000000E-03 0.  1.
    9900012    2    1    2    0    0  0.30869939553E+02 -0.30478086233E+02 -0.13252441461E+01  0.47787272120E+02  0.20000004905E+02 0.  0.
        -12    1    1    2    0    0 -0.30869939553E+02  0.30478086233E+02  0.13252441461E+01  0.43400727880E+02  0.00000000000E+00 0.  1.
         11    1    3    3    0    0  0.26795015999E+02 -0.31550388738E+02  0.25957261356E+01  0.41474542871E+02  0.51100000000E-03 0. -1.
        -11    1    3    3    0    0  0.39139531031E+01  0.26809865307E+00 -0.38381897022E+01  0.54884065294E+01  0.51100000000E-03 0.  1.
         12    1    3    3    0    0  0.16097045140E+00  0.80420385224E+00 -0.82780579470E-01  0.82432271988E+00  0.00000000000E+00 0. -1.
</event>
<event>
 7    1  0.2732193E-010  0.4778726E+02  0.7816164E-02  0.1312668E+00
        -11   -1    0    0    0    0  0.00000000000E+00  0.00000000000E+00  0.45593999997E+02  0.45594000000E+02  0.51100000000E-03 0. -1.
         11   -1    0    0    0    0 -0.00000000000E+00 -0.00000000000E+00 -0.45593999997E+02  0.45594000000E+02  0.51100000000E-03 0.  1.
    9900012    2    1    2    0    0 -0.22969172427E+02 -0.61140952022E+01  0.36313341373E+02  0.47787264939E+02  0.19999972164E+02 0.  0.
        -12    1    1    2    0    0  0.22969172427E+02  0.61140952022E+01 -0.36313341373E+02  0.43400735061E+02  0.00000000000E+00 0.  1.
         11    1    3    3    0    0 -0.16609658873E+02 -0.91494002745E+01  0.19750960451E+02  0.27380517385E+02  0.51100000000E-03 0. -1.
        -11    1    3    3    0    0  0.22387679696E+01  0.18288450824E+01  0.22357969931E+01  0.36545238831E+01  0.51100000000E-03 0.  1.
        -12    1    3    3    0    0 -0.85982815242E+01  0.12064599899E+01  0.14326583928E+02  0.16752223671E+02  0.00000000000E+00 0.  1.
</event>
<event>
 7    1  0.2732193E-010  0.4778727E+02  0.7816164E-02  0.1312668E+00
        -11   -1    0    0    0    0  0.00000000000E+00  0.00000000000E+00  0.45593999997E+02  0.45594000000E+02  0.51100000000E-03 0.  1.
         11   -1    0    0    0    0 -0.00000000000E+00 -0.00000000000E+00 -0.45593999997E+02  0.45594000000E+02  0.51100000000E-03 0. -1.
    9900012    2    1    2    0    0  0.20111523945E+02 -0.19221404916E+02 -0.33311967903E+02  0.47787274108E+02  0.20000013969E+02 0.  0.
        -12    1    1    2    0    0 -0.20111523945E+02  0.19221404916E+02  0.33311967903E+02  0.43400725892E+02  0.00000000000E+00 0.  1.
         11    1    3    3    0    0  0.11382295880E+02 -0.50819288373E+01 -0.15035676183E+02  0.19530852996E+02  0.51100000000E-03 0. -1.
        -11    1    3    3    0    0  0.18343379559E+01 -0.83026198104E+01 -0.74615527384E+00  0.85355163526E+01  0.51100000000E-03 0.  1.
        -12    1    3    3    0    0  0.68948901088E+01 -0.58368562688E+01 -0.17530136447E+02  0.19720904760E+02  0.00000000000E+00 0.  1.
</event>
<event>
 7    1  0.2732193E-010  0.4778726E+02  0.7816164E-02  0.1312668E+00
        -11   -1    0    0    0    0  0.00000000000E+00  0.00000000000E+00  0.45593999997E+02  0.45594000000E+02  0.51100000000E-03 0. -1.
         11   -1    0    0    0    0 -0.00000000000E+00 -0.00000000000E+00 -0.45593999997E+02  0.45594000000E+02  0.51100000000E-03 0.  1.
    9900012    2    1    2    0    0  0.23807558144E+02 -0.37680438215E+01  0.36091913873E+02  0.47787260075E+02  0.19999949986E+02 0.  0.
        -12    1    1    2    0    0 -0.23807558144E+02  0.37680438215E+01 -0.36091913873E+02  0.43400739925E+02  0.00000000000E+00 0.  1.
         11    1    3    3    0    0  0.22104481903E+02  0.20332049022E+01  0.23942079466E+02  0.32649122680E+02  0.51100000000E-03 0. -1.
        -11    1    3    3    0    0 -0.17833467340E+01 -0.16854632369E+01  0.81548522235E+00  0.25857548812E+01  0.51100000000E-03 0.  1.
        -12    1    3    3    0    0  0.34864229757E+01 -0.41157854869E+01  0.11334349185E+02  0.12552382514E+02  0.00000000000E+00 0.  1.
</event>
<event>
 7    1  0.2732193E-010  0.4778727E+02  0.7816164E-02  0.1312668E+00
        -11   -1    0    0    0    0  0.00000000000E+00  0.00000000000E+00  0.45593999997E+02  0.45594000000E+02  0.51100000000E-03 0. -1.
         11   -1    0    0    0    0 -0.00000000000E+00 -0.00000000000E+00 -0.45593999997E+02  0.45594000000E+02  0.51100000000E-03 0.  1.
    9900012    2    1    2    0    0  0.36478464064E+02 -0.22062817142E+02  0.81349236541E+01  0.47787271624E+02  0.20000002644E+02 0.  0.
        -12    1    1    2    0    0 -0.36478464064E+02  0.22062817142E+02 -0.81349236541E+01  0.43400728376E+02  0.00000000000E+00 0.  1.
         11    1    3    3    0    0  0.18132629500E+02 -0.14510245922E+02 -0.14386703011E+00  0.23224129419E+02  0.51100000000E-03 0. -1.
        -11    1    3    3    0    0  0.36285628369E+00  0.24304001130E+01  0.20053104070E+00  0.24655065100E+01  0.51100000000E-03 0.  1.
         12    1    3    3    0    0  0.17982978279E+02 -0.99829713332E+01  0.80782596435E+01  0.22097635695E+02  0.00000000000E+00 0. -1.
</event>
<event>
 7    1  0.2732193E-010  0.4778727E+02  0.7816164E-02  0.1312668E+00
        -11   -1    0    0    0    0  0.00000000000E+00  0.00000000000E+00  0.45593999997E+02  0.45594000000E+02  0.51100000000E-03 0.  1.
         11   -1    0    0    0    0 -0.00000000000E+00 -0.00000000000E+00 -0.45593999997E+02  0.45594000000E+02  0.51100000000E-03 0. -1.
    9900012    2    1    2    0    0  0.12293008748E+02  0.24872365740E+02 -0.33374697955E+02  0.47787272988E+02  0.20000008862E+02 0.  0.
        -12    1    1    2    0    0 -0.12293008748E+02 -0.24872365740E+02  0.33374697955E+02  0.43400727012E+02  0.00000000000E+00 0.  1.
         11    1    3    3    0    0  0.72045760408E+01  0.49423717797E+01 -0.15477356695E+02  0.17773056160E+02  0.51100000000E-03 0. -1.
        -11    1    3    3    0    0 -0.33785236301E+01  0.11311548677E+02 -0.10811446023E+02  0.16007901823E+02  0.51100000000E-03 0.  1.
        -12    1    3    3    0    0  0.84669563375E+01  0.86184452831E+01 -0.70858952364E+01  0.14006315005E+02  0.00000000000E+00 0.  1.
</event>
<event>
 7    1  0.2732193E-010  0.4778727E+02  0.7816164E-02  0.1312668E+00
        -11   -1    0    0    0    0  0.00000000000E+00  0.00000000000E+00  0.45593999997E+02  0.45594000000E+02  0.51100000000E-03 0.  1.
         11   -1    0    0    0    0 -0.00000000000E+00 -0.00000000000E+00 -0.45593999997E+02  0.45594000000E+02  0.51100000000E-03 0. -1.
    9900012    2    1    2    0    0 -0.21541431143E+02 -0.26722490065E+02 -0.26561228338E+02  0.47787267497E+02  0.19999983827E+02 0.  0.
        -12    1    1    2    0    0  0.21541431143E+02  0.26722490065E+02  0.26561228338E+02  0.43400732503E+02  0.00000000000E+00 0.  1.
         11    1    3    3    0    0 -0.68267579858E+00 -0.29271831232E+01 -0.16081858727E+01  0.34089161540E+01  0.51100000000E-03 0. -1.
        -11    1    3    3    0    0 -0.66830510666E+01 -0.19090499470E+01  0.16322278447E+01  0.71394545490E+01  0.51100000000E-03 0.  1.
        -12    1    3    3    0    0 -0.14175704278E+02 -0.21886256995E+02 -0.26585270310E+02  0.37238896794E+02  0.00000000000E+00 0.  1.
</event>
<event>
 7    1  0.2732193E-010  0.4778725E+02  0.7816164E-02  0.1312668E+00
        -11   -1    0    0    0    0  0.00000000000E+00  0.00000000000E+00  0.45593999997E+02  0.45594000000E+02  0.51100000000E-03 0. -1.
         11   -1    0    0    0    0 -0.00000000000E+00 -0.00000000000E+00 -0.45593999997E+02  0.45594000000E+02  0.51100000000E-03 0.  1.
    9900012    2    1    2    0    0  0.19478827802E+02 -0.16707227195E+02  0.35000980346E+02  0.47787253482E+02  0.19999919926E+02 0.  0.
        -12    1    1    2    0    0 -0.19478827802E+02  0.16707227195E+02 -0.35000980346E+02  0.43400746518E+02  0.00000000000E+00 0.  1.
         11    1    3    3    0    0  0.65432816740E+01 -0.89362242629E+01  0.21617661458E+02  0.24289790578E+02  0.51100000000E-03 0.  1.
        -11    1    3    3    0    0  0.45394035568E+01  0.31371385345E+01  0.44348519278E+01  0.70792467621E+01  0.51100000000E-03 0. -1.
         12    1    3    3    0    0  0.83961425713E+01 -0.10908141467E+02  0.89484669602E+01  0.16418216142E+02  0.00000000000E+00 0. -1.
</event>
<event>
 7    1  0.2732193E-010  0.4778728E+02  0.7816164E-02  0.1312668E+00
        -11   -1    0    0    0    0  0.00000000000E+00  0.00000000000E+00  0.45593999997E+02  0.45594000000E+02  0.51100000000E-03 0. -1.
         11   -1    0    0    0    0 -0.00000000000E+00 -0.00000000000E+00 -0.45593999997E+02  0.45594000000E+02  0.51100000000E-03 0.  1.
    9900012    2    1    2    0    0 -0.16997801322E+02 -0.72883584633E+01  0.39262926647E+02  0.47787276184E+02  0.20000023435E+02 0.  0.
        -12    1    1    2    0    0  0.16997801322E+02  0.72883584633E+01 -0.39262926647E+02  0.43400723816E+02  0.00000000000E+00 0.  1.
         11    1    3    3    0    0 -0.50451920258E+01  0.42809191471E+01  0.20600302532E+02  0.21636836552E+02  0.51100000000E-03 0. -1.
        -11    1    3    3    0    0 -0.12049470880E+02 -0.76171554831E+01  0.15728481179E+02  0.21227244913E+02  0.51100000000E-03 0.  1.
        -12    1    3    3    0    0  0.96861583674E-01 -0.39521221273E+01  0.29341429357E+01  0.49231947191E+01  0.00000000000E+00 0.  1.
</event>
<event>
 7    1  0.2732193E-010  0.4778726E+02  0.7816164E-02  0.1312668E+00
        -11   -1    0    0    0    0  0.00000000000E+00  0.00000000000E+00  0.45593999997E+02  0.45594000000E+02  0.51100000000E-03 0.  1.
         11   -1    0    0    0    0 -0.00000000000E+00 -0.00000000000E+00 -0.45593999997E+02  0.45594000000E+02  0.51100000000E-03 0. -1.
    9900012    2    1    2    0    0 -0.21187224627E+02 -0.37813154263E+02 -0.22115891087E+01  0.47787259810E+02  0.19999948776E+02 0.  0.
        -12    1    1    2    0    0  0.21187224627E+02  0.37813154263E+02  0.22115891087E+01  0.43400740190E+02  0.00000000000E+00 0.  1.
         11    1    3    3    0    0 -0.11051344228E+02 -0.33438898204E+02  0.11100082817E+01  0.35235269844E+02  0.51100000000E-03 0. -1.
        -11    1    3    3    0    0  0.47913104535E+00 -0.61556260503E+00  0.91198087612E-01  0.78536694076E+00  0.51100000000E-03 0.  1.
        -12    1    3    3    0    0 -0.10615011444E+02 -0.37586934541E+01 -0.34127954781E+01  0.11766623025E+02  0.00000000000E+00 0.  1.
</event>
<event>
 7    1  0.2732193E-010  0.4778728E+02  0.7816164E-02  0.1312668E+00
        -11   -1    0    0    0    0  0.00000000000E+00  0.00000000000E+00  0.45593999997E+02  0.45594000000E+02  0.51100000000E-03 0.  1.
         11   -1    0    0    0    0 -0.00000000000E+00 -0.00000000000E+00 -0.45593999997E+02  0.45594000000E+02  0.51100000000E-03 0. -1.
    9900012    2    1    2    0    0  0.14035488685E+02 -0.18403523354E+02 -0.36714279250E+02  0.47787275176E+02  0.20000018836E+02 0.  0.
        -12    1    1    2    0    0 -0.14035488685E+02  0.18403523354E+02  0.36714279250E+02  0.43400724824E+02  0.00000000000E+00 0.  1.
         11    1    3    3    0    0  0.18958102401E+01 -0.20939298043E+01 -0.11649771398E+02  0.11987318815E+02  0.51100000000E-03 0. -1.
        -11    1    3    3    0    0  0.24065674947E+01 -0.14672097673E+02 -0.10483148940E+02  0.18192262894E+02  0.51100000000E-03 0.  1.
        -12    1    3    3    0    0  0.97331109501E+01 -0.16374958766E+01 -0.14581358912E+02  0.17607693467E+02  0.00000000000E+00 0.  1.
</event>
<event>
 7    1  0.2732193E-010  0.4778727E+02  0.7816164E-02  0.1312668E+00
        -11   -1    0    0    0    0  0.00000000000E+00  0.00000000000E+00  0.45593999997E+02  0.45594000000E+02  0.51100000000E-03 0.  1.
         11   -1    0    0    0    0 -0.00000000000E+00 -0.00000000000E+00 -0.45593999997E+02  0.45594000000E+02  0.51100000000E-03 0. -1.
    9900012    2    1    2    0    0 -0.98387141032E+01  0.15589355751E+02 -0.39291157421E+02  0.47787270059E+02  0.19999995508E+02 0.  0.
        -12    1    1    2    0    0  0.98387141032E+01 -0.15589355751E+02  0.39291157421E+02  0.43400729941E+02  0.00000000000E+00 0.  1.
         11    1    3    3    0    0  0.17794411685E+01  0.66547819979E+01 -0.14673054025E+02  0.16209597435E+02  0.51100000000E-03 0. -1.
        -11    1    3    3    0    0 -0.95138817286E+01  0.28751116174E+01 -0.22859340466E+02  0.24926485094E+02  0.51100000000E-03 0.  1.
        -12    1    3    3    0    0 -0.21042735432E+01  0.60594621358E+01 -0.17587629300E+01  0.66511875304E+01  0.00000000000E+00 0.  1.
</event>
<event>
 7    1  0.2732193E-010  0.4778727E+02  0.7816164E-02  0.1312668E+00
        -11   -1    0    0    0    0  0.00000000000E+00  0.00000000000E+00  0.45593999997E+02  0.45594000000E+02  0.51100000000E-03 0.  1.
         11   -1    0    0    0    0 -0.00000000000E+00 -0.00000000000E+00 -0.45593999997E+02  0.45594000000E+02  0.51100000000E-03 0. -1.
    9900012    2    1    2    0    0  0.27929475456E+02  0.12731940539E+01 -0.33195582214E+02  0.47787270733E+02  0.19999998581E+02 0.  0.
        -12    1    1    2    0    0 -0.27929475456E+02 -0.12731940539E+01  0.33195582214E+02  0.43400729267E+02  0.00000000000E+00 0.  1.
         11    1    3    3    0    0  0.10072671541E+02  0.74926010849E+01 -0.17572425511E+02  0.21596016337E+02  0.51100000000E-03 0. -1.
        -11    1    3    3    0    0  0.13598848649E+02 -0.86461545111E+01 -0.11719428020E+02  0.19925603273E+02  0.51100000000E-03 0.  1.
        -12    1    3    3    0    0  0.42579552660E+01  0.24267474801E+01 -0.39037286820E+01  0.62656511236E+01  0.00000000000E+00 0.  1.
</event>
<event>
 7    1  0.2732193E-010  0.4778727E+02  0.7816164E-02  0.1312668E+00
        -11   -1    0    0    0    0  0.00000000000E+00  0.00000000000E+00  0.45593999997E+02  0.45594000000E+02  0.51100000000E-03 0.  1.
         11   -1    0    0    0    0 -0.00000000000E+00 -0.00000000000E+00 -0.45593999997E+02  0.45594000000E+02  0.51100000000E-03 0. -1.
    9900012    2    1    2    0    0  0.22520140065E+02  0.28499030948E+02  0.23754413783E+02  0.47787266737E+02  0.19999980362E+02 0.  0.
        -12    1    1    2    0    0 -0.22520140065E+02 -0.28499030948E+02 -0.23754413783E+02  0.43400733263E+02  0.00000000000E+00 0.  1.
         11    1    3    3    0    0  0.14258109021E+02  0.25700836580E+02  0.14289795997E+02  0.32680650906E+02  0.51100000000E-03 0. -1.
        -11    1    3    3    0    0  0.60600026241E+01 -0.71281772047E+00  0.17475635771E+01  0.63471032467E+01  0.51100000000E-03 0.  1.
         12    1    3    3    0    0  0.22020284202E+01  0.35110120892E+01  0.77170542087E+01  0.87595125843E+01  0.00000000000E+00 0. -1.
</event>
<event>
 7    1  0.2732193E-010  0.4778727E+02  0.7816164E-02  0.1312668E+00
        -11   -1    0    0    0    0  0.00000000000E+00  0.00000000000E+00  0.45593999997E+02  0.45594000000E+02  0.51100000000E-03 0.  1.
         11   -1    0    0    0    0 -0.00000000000E+00 -0.00000000000E+00 -0.45593999997E+02  0.45594000000E+02  0.51100000000E-03 0. -1.
    9900012    2    1    2    0    0 -0.82765699704E+01 -0.36373186400E+02 -0.22183615281E+02  0.47787273205E+02  0.20000009853E+02 0.  0.
        -12    1    1    2    0    0  0.82765699704E+01  0.36373186400E+02  0.22183615281E+02  0.43400726795E+02  0.00000000000E+00 0.  1.
         11    1    3    3    0    0 -0.13868652187E+01 -0.24407643464E+02 -0.17811768556E+02  0.30247571042E+02  0.51100000000E-03 0. -1.
        -11    1    3    3    0    0 -0.17164212570E+01 -0.10800377365E+02 -0.53060289552E+01  0.12155171603E+02  0.51100000000E-03 0.  1.
         12    1    3    3    0    0 -0.51732834947E+01 -0.11651655710E+01  0.93418222941E+00  0.53845305610E+01  0.00000000000E+00 0. -1.
</event>
<event>
 7    1  0.2732193E-010  0.4778726E+02  0.7816164E-02  0.1312668E+00
        -11   -1    0    0    0    0  0.00000000000E+00  0.00000000000E+00  0.45593999997E+02  0.45594000000E+02  0.51100000000E-03 0.  1.
         11   -1    0    0    0    0 -0.00000000000E+00 -0.00000000000E+00 -0.45593999997E+02  0.45594000000E+02  0.51100000000E-03 0. -1.
    9900012    2    1    2    0    0  0.55295332762E+01 -0.20201912091E+02 -0.38012248483E+02  0.47787262390E+02  0.19999960540E+02 0.  0.
        -12    1    1    2    0    0 -0.55295332762E+01  0.20201912091E+02  0.38012248483E+02  0.43400737610E+02  0.00000000000E+00 0.  1.
         11    1    3    3    0    0  0.95006424678E+01 -0.16184061282E+02 -0.15832386678E+02  0.24553014378E+02  0.51100000000E-03 0. -1.
        -11    1    3    3    0    0 -0.34186862402E+01 -0.45425902768E+01 -0.15476247040E+02  0.16487472964E+02  0.51100000000E-03 0.  1.
         12    1    3    3    0    0 -0.55242295140E+00  0.52473946788E+00 -0.67036147650E+01  0.67467750476E+01  0.00000000000E+00 0. -1.
</event>
<event>
 7    1  0.2732193E-010  0.4778727E+02  0.7816164E-02  0.1312668E+00
        -11   -1    0    0    0    0  0.00000000000E+00  0.00000000000E+00  0.45593999997E+02  0.45594000000E+02  0.51100000000E-03 0.  1.
         11   -1    0    0    0    0 -0.00000000000E+00 -0.00000000000E+00 -0.45593999997E+02  0.45594000000E+02  0.51100000000E-03 0. -1.
    9900012    2    1    2    0    0 -0.12526347720E+02  0.39615114006E+02 -0.12544181538E+02  0.47787272640E+02  0.20000007276E+02 0.  0.
        -12    1    1    2    0    0  0.12526347720E+02 -0.39615114006E+02  0.12544181538E+02  0.43400727360E+02  0.00000000000E+00 0.  1.
         11    1    3    3    0    0 -0.10864899975E+02  0.30302842203E+02 -0.41079962871E+01  0.32452795424E+02  0.51100000000E-03 0. -1.
        -11    1    3    3    0    0 -0.36862445947E+01  0.71121006921E+01 -0.92491085665E+01  0.12235864702E+02  0.51100000000E-03 0.  1.
        -12    1    3    3    0    0  0.20247968496E+01  0.22001711104E+01  0.81292331607E+00  0.30986125145E+01  0.00000000000E+00 0.  1.
</event>
<event>
 7    1  0.2732193E-010  0.4778728E+02  0.7816164E-02  0.1312668E+00
        -11   -1    0    0    0    0  0.00000000000E+00  0.00000000000E+00  0.45593999997E+02  0.45594000000E+02  0.51100000000E-03 0.  1.
         11   -1    0    0    0    0 -0.00000000000E+00 -0.00000000000E+00 -0.45593999997E+02  0.45594000000E+02  0.51100000000E-03 0. -1.
    9900012    2    1    2    0    0  0.13184062591E+02 -0.34593965591E+02 -0.22650842551E+02  0.47787278462E+02  0.20000033822E+02 0.  0.
        -12    1    1    2    0    0 -0.13184062591E+02  0.34593965591E+02  0.22650842551E+02  0.43400721538E+02  0.00000000000E+00 0.  1.
         11    1    3    3    0    0 -0.11488861094E+01 -0.17680843444E+02 -0.69371427662E+01  0.19027772182E+02  0.51100000000E-03 0. -1.
        -11    1    3    3    0    0  0.74053613782E+01 -0.33326716776E+01 -0.89383091582E+01  0.12076400479E+02  0.51100000000E-03 0.  1.
         12    1    3    3    0    0  0.69275873226E+01 -0.13580450469E+02 -0.67753906267E+01  0.16683105802E+02  0.00000000000E+00 0. -1.
</event>
<event>
 7    1  0.2732193E-010  0.4778727E+02  0.7816164E-02  0.1312668E+00
        -11   -1    0    0    0    0  0.00000000000E+00  0.00000000000E+00  0.45593999997E+02  0.45594000000E+02  0.51100000000E-03 0.  1.
         11   -1    0    0    0    0 -0.00000000000E+00 -0.00000000000E+00 -0.45593999997E+02  0.45594000000E+02  0.51100000000E-03 0. -1.
    9900012    2    1    2    0    0 -0.31769185154E+02  0.19326208165E+02 -0.22379450031E+02  0.47787271538E+02  0.20000002249E+02 0.  0.
        -12    1    1    2    0    0  0.31769185154E+02 -0.19326208165E+02  0.22379450031E+02  0.43400728462E+02  0.00000000000E+00 0.  1.
         11    1    3    3    0    0 -0.22835843481E+02  0.14816554003E+02 -0.17833944896E+02  0.32543134619E+02  0.51100000000E-03 0. -1.
        -11    1    3    3    0    0 -0.45588064661E+01  0.94916959092E+00  0.32090642573E+01  0.56552394270E+01  0.51100000000E-03 0.  1.
         12    1    3    3    0    0 -0.43745352069E+01  0.35604845712E+01 -0.77545693917E+01  0.95888974918E+01  0.00000000000E+00 0. -1.
</event>
<event>
 7    1  0.2732193E-010  0.4778727E+02  0.7816164E-02  0.1312668E+00
        -11   -1    0    0    0    0  0.00000000000E+00  0.00000000000E+00  0.45593999997E+02  0.45594000000E+02  0.51100000000E-03 0.  1.
         11   -1    0    0    0    0 -0.00000000000E+00 -0.00000000000E+00 -0.45593999997E+02  0.45594000000E+02  0.51100000000E-03 0. -1.
    9900012    2    1    2    0    0 -0.42005466149E+02  0.86584286167E+01  0.66479796663E+01  0.47787271824E+02  0.20000003556E+02 0.  0.
        -12    1    1    2    0    0  0.42005466149E+02 -0.86584286167E+01 -0.66479796663E+01  0.43400728176E+02  0.00000000000E+00 0.  1.
         11    1    3    3    0    0 -0.99164014666E+01  0.40817079640E+00  0.26686354263E+01  0.10277316612E+02  0.51100000000E-03 0. -1.
        -11    1    3    3    0    0 -0.48641570050E+01  0.68241835267E+01 -0.37384292312E+01  0.91763477241E+01  0.51100000000E-03 0.  1.
        -12    1    3    3    0    0 -0.27224907678E+02  0.14260742935E+01  0.77177734712E+01  0.28333607488E+02  0.00000000000E+00 0.  1.
</event>
<event>
 7    1  0.2732193E-010  0.4778727E+02  0.7816164E-02  0.1312668E+00
        -11   -1    0    0    0    0  0.00000000000E+00  0.00000000000E+00  0.45593999997E+02  0.45594000000E+02  0.51100000000E-03 0.  1.
         11   -1    0    0    0    0 -0.00000000000E+00 -0.00000000000E+00 -0.45593999997E+02  0.45594000000E+02  0.51100000000E-03 0. -1.
    9900012    2    1    2    0    0 -0.39933114042E+02  0.15808095170E+02 -0.62508982060E+01  0.47787271914E+02  0.20000003966E+02 0.  0.
        -12    1    1    2    0    0  0.39933114042E+02 -0.15808095170E+02  0.62508982060E+01  0.43400728086E+02  0.00000000000E+00 0.  1.
         11    1    3    3    0    0 -0.95906361505E+01 -0.94612247573E+00 -0.71015231058E+01  0.11971093525E+02  0.51100000000E-03 0. -1.
        -11    1    3    3    0    0 -0.14281250837E+02  0.12910855244E+02 -0.37832021751E+00  0.19255841583E+02  0.51100000000E-03 0.  1.
        -12    1    3    3    0    0 -0.16061227054E+02  0.38433624016E+01  0.12289451173E+01  0.16560336806E+02  0.00000000000E+00 0.  1.
</event>
<event>
 7    1  0.2732193E-010  0.4778728E+02  0.7816164E-02  0.1312668E+00
        -11   -1    0    0    0    0  0.00000000000E+00  0.00000000000E+00  0.45593999997E+02  0.45594000000E+02  0.51100000000E-03 0.  1.
         11   -1    0    0    0    0 -0.00000000000E+00 -0.00000000000E+00 -0.45593999997E+02  0.45594000000E+02  0.51100000000E-03 0. -1.
    9900012    2    1    2    0    0  0.20358468547E+02 -0.30341682465E+02 -0.23420875882E+02  0.47787281533E+02  0.20000047822E+02 0.  0.
        -12    1    1    2    0    0 -0.20358468547E+02  0.30341682465E+02  0.23420875882E+02  0.43400718467E+02  0.00000000000E+00 0.  1.
         11    1    3    3    0    0  0.18632062947E+02 -0.13658841133E+02 -0.11976474031E+02  0.26022175951E+02  0.51100000000E-03 0. -1.
        -11    1    3    3    0    0  0.23725776810E+01 -0.44291938566E+01 -0.57426895940E-01  0.50249558387E+01  0.51100000000E-03 0.  1.
         12    1    3    3    0    0 -0.64617208102E+00 -0.12253647475E+02 -0.11386974955E+02  0.16740149743E+02  0.00000000000E+00 0. -1.
</event>
<event>
 7    1  0.2732193E-010  0.4778727E+02  0.7816164E-02  0.1312668E+00
        -11   -1    0    0    0    0  0.00000000000E+00  0.00000000000E+00  0.45593999997E+02  0.45594000000E+02  0.51100000000E-03 0.  1.
         11   -1    0    0    0    0 -0.00000000000E+00 -0.00000000000E+00 -0.45593999997E+02  0.45594000000E+02  0.51100000000E-03 0. -1.
    9900012    2    1    2    0    0  0.22930885678E+02  0.17660540057E+02 -0.32340424349E+02  0.47787271433E+02  0.20000001772E+02 0.  0.
        -12    1    1    2    0    0 -0.22930885678E+02 -0.17660540057E+02  0.32340424349E+02  0.43400728567E+02  0.00000000000E+00 0.  1.
         11    1    3    3    0    0  0.92540208383E+00 -0.31957018751E+01 -0.91308915040E+00  0.34500161665E+01  0.51100000000E-03 0. -1.
        -11    1    3    3    0    0  0.57275435596E+01  0.10428830902E+02 -0.13143241939E+02  0.17728792348E+02  0.51100000000E-03 0.  1.
         12    1    3    3    0    0  0.16277940035E+02  0.10427411030E+02 -0.18284093259E+02  0.26608462918E+02  0.00000000000E+00 0. -1.
</event>
<event>
 7    1  0.2732193E-010  0.4778727E+02  0.7816164E-02  0.1312668E+00
        -11   -1    0    0    0    0  0.00000000000E+00  0.00000000000E+00  0.45593999997E+02  0.45594000000E+02  0.51100000000E-03 0.  1.
         11   -1    0    0    0    0 -0.00000000000E+00 -0.00000000000E+00 -0.45593999997E+02  0.45594000000E+02  0.51100000000E-03 0. -1.
    9900012    2    1    2    0    0  0.30354710111E+02 -0.23260483183E+02 -0.20522305655E+02  0.47787268057E+02  0.19999986377E+02 0.  0.
        -12    1    1    2    0    0 -0.30354710111E+02  0.23260483183E+02  0.20522305655E+02  0.43400731943E+02  0.00000000000E+00 0.  1.
         11    1    3    3    0    0  0.29358170091E+02 -0.23663045648E+02 -0.15850247794E+02  0.40903205691E+02  0.51100000000E-03 0. -1.
        -11    1    3    3    0    0 -0.15098127001E+01  0.90845387669E+00 -0.37895053806E+01  0.41791355716E+01  0.51100000000E-03 0.  1.
        -12    1    3    3    0    0  0.25063527203E+01 -0.50589141147E+00 -0.88255248054E+00  0.27049267938E+01  0.00000000000E+00 0.  1.
</event>
<event>
 7    1  0.2732193E-010  0.4778727E+02  0.7816164E-02  0.1312668E+00
        -11   -1    0    0    0    0  0.00000000000E+00  0.00000000000E+00  0.45593999997E+02  0.45594000000E+02  0.51100000000E-03 0.  1.
         11   -1    0    0    0    0 -0.00000000000E+00 -0.00000000000E+00 -0.45593999997E+02  0.45594000000E+02  0.51100000000E-03 0. -1.
    9900012    2    1    2    0    0  0.38667037291E+02 -0.19350188326E+02  0.37488695141E+01  0.47787267474E+02  0.19999983721E+02 0.  0.
        -12    1    1    2    0    0 -0.38667037291E+02  0.19350188326E+02 -0.37488695141E+01  0.43400732526E+02  0.00000000000E+00 0.  1.
         11    1    3    3    0    0  0.21217463125E+02 -0.10764056687E+02 -0.97813160744E+00  0.23811812185E+02  0.51100000000E-03 0. -1.
        -11    1    3    3    0    0  0.97478328199E+01 -0.10810169549E+02 -0.21577039546E+00  0.14557697878E+02  0.51100000000E-03 0.  1.
        -12    1    3    3    0    0  0.77017413459E+01  0.22240379102E+01  0.49427715170E+01  0.94177574111E+01  0.00000000000E+00 0.  1.
</event>
<event>
 7    1  0.2732193E-010  0.4778727E+02  0.7816164E-02  0.1312668E+00
        -11   -1    0    0    0    0  0.00000000000E+00  0.00000000000E+00  0.45593999997E+02  0.45594000000E+02  0.51100000000E-03 0. -1.
         11   -1    0    0    0    0 -0.00000000000E+00 -0.00000000000E+00 -0.45593999997E+02  0.45594000000E+02  0.51100000000E-03 0.  1.
    9900012    2    1    2    0    0  0.42611412141E+02 -0.63724297975E+01  0.52233393395E+01  0.47787267518E+02  0.19999983921E+02 0.  0.
        -12    1    1    2    0    0 -0.42611412141E+02  0.63724297975E+01 -0.52233393395E+01  0.43400732482E+02  0.00000000000E+00 0.  1.
         11    1    3    3    0    0  0.95213485510E+01 -0.87770449040E+01  0.29537242483E+00  0.12952985780E+02  0.51100000000E-03 0.  1.
        -11    1    3    3    0    0  0.15135727245E+02  0.53431005881E+01  0.26635016336E+00  0.16053345626E+02  0.51100000000E-03 0. -1.
        -12    1    3    3    0    0  0.17954336345E+02 -0.29384854816E+01  0.46616167513E+01  0.18780936112E+02  0.00000000000E+00 0.  1.
</event>
<event>
 7    1  0.2732193E-010  0.4778727E+02  0.7816164E-02  0.1312668E+00
        -11   -1    0    0    0    0  0.00000000000E+00  0.00000000000E+00  0.45593999997E+02  0.45594000000E+02  0.51100000000E-03 0.  1.
         11   -1    0    0    0    0 -0.00000000000E+00 -0.00000000000E+00 -0.45593999997E+02  0.45594000000E+02  0.51100000000E-03 0. -1.
    9900012    2    1    2    0    0  0.40724610799E+02  0.29220355816E+01 -0.14717032923E+02  0.47787271034E+02  0.19999999953E+02 0.  0.
        -12    1    1    2    0    0 -0.40724610799E+02 -0.29220355816E+01  0.14717032923E+02  0.43400728966E+02  0.00000000000E+00 0.  1.
         11    1    3    3    0    0  0.18573326188E+02  0.10335886524E+02 -0.92045462750E+01  0.23162958971E+02  0.51100000000E-03 0. -1.
        -11    1    3    3    0    0  0.17538689327E+02 -0.40377289475E+01 -0.25224479289E+01  0.18173376741E+02  0.51100000000E-03 0.  1.
         12    1    3    3    0    0  0.46125952844E+01 -0.33761219947E+01 -0.29900387196E+01  0.64509353217E+01  0.00000000000E+00 0. -1.
</event>
<event>
 7    1  0.2732193E-010  0.4778727E+02  0.7816164E-02  0.1312668E+00
        -11   -1    0    0    0    0  0.00000000000E+00  0.00000000000E+00  0.45593999997E+02  0.45594000000E+02  0.51100000000E-03 0.  1.
         11   -1    0    0    0    0 -0.00000000000E+00 -0.00000000000E+00 -0.45593999997E+02  0.45594000000E+02  0.51100000000E-03 0. -1.
    9900012    2    1    2    0    0  0.14208192968E+02 -0.24465645194E+02 -0.32911745758E+02  0.47787267852E+02  0.19999985443E+02 0.  0.
        -12    1    1    2    0    0 -0.14208192968E+02  0.24465645194E+02  0.32911745758E+02  0.43400732148E+02  0.00000000000E+00 0.  1.
         11    1    3    3    0    0  0.32072179408E+00 -0.67639687866E+01 -0.57754906825E+01  0.89000241067E+01  0.51100000000E-03 0. -1.
        -11    1    3    3    0    0  0.16514341231E+02 -0.13609433490E+02 -0.26376296397E+02  0.33965411202E+02  0.51100000000E-03 0.  1.
        -12    1    3    3    0    0 -0.26268700569E+01 -0.40922429172E+01 -0.75995867834E+00  0.49218325431E+01  0.00000000000E+00 0.  1.
</event>
<event>
 7    1  0.2732193E-010  0.4778727E+02  0.7816164E-02  0.1312668E+00
        -11   -1    0    0    0    0  0.00000000000E+00  0.00000000000E+00  0.45593999997E+02  0.45594000000E+02  0.51100000000E-03 0.  1.
         11   -1    0    0    0    0 -0.00000000000E+00 -0.00000000000E+00 -0.45593999997E+02  0.45594000000E+02  0.51100000000E-03 0. -1.
    9900012    2    1    2    0    0  0.39327395451E+02  0.18207375377E+02  0.23390319108E+01  0.47787267041E+02  0.19999981747E+02 0.  0.
        -12    1    1    2    0    0 -0.39327395451E+02 -0.18207375377E+02 -0.23390319108E+01  0.43400732959E+02  0.00000000000E+00 0.  1.
         11    1    3    3    0    0  0.13822587044E+02  0.90422231742E+01 -0.21479968560E+01  0.16656518342E+02  0.51100000000E-03 0. -1.
        -11    1    3    3    0    0  0.20904510295E+02  0.12576808042E+02  0.61642101005E+01  0.25162911947E+02  0.51100000000E-03 0.  1.
        -12    1    3    3    0    0  0.46002981117E+01 -0.34116558388E+01 -0.16771813337E+01  0.59678367525E+01  0.00000000000E+00 0.  1.
</event>
<event>
 7    1  0.2732193E-010  0.4778727E+02  0.7816164E-02  0.1312668E+00
        -11   -1    0    0    0    0  0.00000000000E+00  0.00000000000E+00  0.45593999997E+02  0.45594000000E+02  0.51100000000E-03 0.  1.
         11   -1    0    0    0    0 -0.00000000000E+00 -0.00000000000E+00 -0.45593999997E+02  0.45594000000E+02  0.51100000000E-03 0. -1.
    9900012    2    1    2    0    0  0.38006915194E+02  0.18308282363E+02 -0.10193355163E+02  0.47787270799E+02  0.19999998881E+02 0.  0.
        -12    1    1    2    0    0 -0.38006915194E+02 -0.18308282363E+02  0.10193355163E+02  0.43400729201E+02  0.00000000000E+00 0.  1.
         11    1    3    3    0    0  0.21375139325E+02  0.13745015313E+02 -0.70289594955E+01  0.26367182234E+02  0.51100000000E-03 0. -1.
        -11    1    3    3    0    0 -0.11746782390E+01  0.72285435588E+00 -0.28898546902E+01  0.32021317550E+01  0.51100000000E-03 0.  1.
        -12    1    3    3    0    0  0.17806454108E+02  0.38404126944E+01 -0.27454097775E+00  0.18217956810E+02  0.00000000000E+00 0.  1.
</event>
<event>
 7    1  0.2732193E-010  0.4778727E+02  0.7816164E-02  0.1312668E+00
        -11   -1    0    0    0    0  0.00000000000E+00  0.00000000000E+00  0.45593999997E+02  0.45594000000E+02  0.51100000000E-03 0.  1.
         11   -1    0    0    0    0 -0.00000000000E+00 -0.00000000000E+00 -0.45593999997E+02  0.45594000000E+02  0.51100000000E-03 0. -1.
    9900012    2    1    2    0    0  0.39175841725E+01 -0.38254521413E+02 -0.20121321136E+02  0.47787269148E+02  0.19999991353E+02 0.  0.
        -12    1    1    2    0    0 -0.39175841725E+01  0.38254521413E+02  0.20121321136E+02  0.43400730852E+02  0.00000000000E+00 0.  1.
         11    1    3    3    0    0 -0.66171974298E+01 -0.20311188528E+02 -0.14030638701E+02  0.25557591903E+02  0.51100000000E-03 0. -1.
        -11    1    3    3    0    0  0.85684995263E+01 -0.17300970858E+02 -0.56261823197E+01  0.20109617215E+02  0.51100000000E-03 0.  1.
         12    1    3    3    0    0  0.19662820760E+01 -0.64236202621E+00 -0.46450011490E+00  0.21200600302E+01  0.00000000000E+00 0. -1.
</event>
<event>
 7    1  0.2732193E-010  0.4778727E+02  0.7816164E-02  0.1312668E+00
        -11   -1    0    0    0    0  0.00000000000E+00  0.00000000000E+00  0.45593999997E+02  0.45594000000E+02  0.51100000000E-03 0. -1.
         11   -1    0    0    0    0 -0.00000000000E+00 -0.00000000000E+00 -0.45593999997E+02  0.45594000000E+02  0.51100000000E-03 0.  1.
    9900012    2    1    2    0    0  0.18712518579E+02 -0.28070557175E+02  0.27304002084E+02  0.47787273492E+02  0.20000011158E+02 0.  0.
        -12    1    1    2    0    0 -0.18712518579E+02  0.28070557175E+02 -0.27304002084E+02  0.43400726508E+02  0.00000000000E+00 0.  1.
         11    1    3    3    0    0  0.32858263301E+01 -0.96832682021E+01  0.81047941826E+01  0.13047989376E+02  0.51100000000E-03 0. -1.
        -11    1    3    3    0    0  0.55989909293E+01 -0.15973813250E+02  0.17731625527E+02  0.24513709496E+02  0.51100000000E-03 0.  1.
        -12    1    3    3    0    0  0.98277013193E+01 -0.24134757226E+01  0.14675823743E+01  0.10225574620E+02  0.00000000000E+00 0.  1.
</event>
<event>
 7    1  0.2732193E-010  0.4778727E+02  0.7816164E-02  0.1312668E+00
        -11   -1    0    0    0    0  0.00000000000E+00  0.00000000000E+00  0.45593999997E+02  0.45594000000E+02  0.51100000000E-03 0. -1.
         11   -1    0    0    0    0 -0.00000000000E+00 -0.00000000000E+00 -0.45593999997E+02  0.45594000000E+02  0.51100000000E-03 0.  1.
    9900012    2    1    2    0    0 -0.95985422921E+01  0.28593823573E+02  0.31207123308E+02  0.47787270676E+02  0.19999998319E+02 0.  0.
        -12    1    1    2    0    0  0.95985422921E+01 -0.28593823573E+02 -0.31207123308E+02  0.43400729324E+02  0.00000000000E+00 0.  1.
         11    1    3    3    0    0 -0.44927642349E+01  0.65188164130E+01  0.20802119270E+02  0.22257764135E+02  0.51100000000E-03 0. -1.
        -11    1    3    3    0    0 -0.42124049828E+01  0.19042002906E+02  0.10880350421E+02  0.22332135051E+02  0.51100000000E-03 0.  1.
         12    1    3    3    0    0 -0.89337307434E+00  0.30330042545E+01 -0.47534638271E+00  0.31973714894E+01  0.00000000000E+00 0. -1.
</event>
<event>
 7    1  0.2732193E-010  0.4778727E+02  0.7816164E-02  0.1312668E+00
        -11   -1    0    0    0    0  0.00000000000E+00  0.00000000000E+00  0.45593999997E+02  0.45594000000E+02  0.51100000000E-03 0.  1.
         11   -1    0    0    0    0 -0.00000000000E+00 -0.00000000000E+00 -0.45593999997E+02  0.45594000000E+02  0.51100000000E-03 0. -1.
    9900012    2    1    2    0    0  0.12526567646E+02 -0.23604954040E+02 -0.34198165054E+02  0.47787271374E+02  0.20000001502E+02 0.  0.
        -12    1    1    2    0    0 -0.12526567646E+02  0.23604954040E+02  0.34198165054E+02  0.43400728626E+02  0.00000000000E+00 0.  1.
         11    1    3    3    0    0  0.31999673751E+01 -0.10116126954E+02 -0.99097678595E+01  0.14518240769E+02  0.51100000000E-03 0. -1.
        -11    1    3    3    0    0  0.12391976959E+02 -0.89422331263E+01 -0.10811588620E+02  0.18719376992E+02  0.51100000000E-03 0.  1.
        -12    1    3    3    0    0 -0.30653766880E+01 -0.45465939602E+01 -0.13476808575E+02  0.14549653612E+02  0.00000000000E+00 0.  1.
</event>
<event>
 7    1  0.2732193E-010  0.4778727E+02  0.7816164E-02  0.1312668E+00
        -11   -1    0    0    0    0  0.00000000000E+00  0.00000000000E+00  0.45593999997E+02  0.45594000000E+02  0.51100000000E-03 0.  1.
         11   -1    0    0    0    0 -0.00000000000E+00 -0.00000000000E+00 -0.45593999997E+02  0.45594000000E+02  0.51100000000E-03 0. -1.
    9900012    2    1    2    0    0  0.15375553311E+02  0.14530126719E+02 -0.37895787714E+02  0.47787274792E+02  0.20000017085E+02 0.  0.
        -12    1    1    2    0    0 -0.15375553311E+02 -0.14530126719E+02  0.37895787714E+02  0.43400725208E+02  0.00000000000E+00 0.  1.
         11    1    3    3    0    0  0.11884223005E+02  0.11239380697E+02 -0.27440192813E+02  0.31945619680E+02  0.51100000000E-03 0. -1.
        -11    1    3    3    0    0  0.12768689058E+01 -0.27760676474E+01  0.52711804868E+00  0.31007740137E+01  0.51100000000E-03 0.  1.
        -12    1    3    3    0    0  0.22144614006E+01  0.60668136695E+01 -0.10982712951E+02  0.12740881098E+02  0.00000000000E+00 0.  1.
</event>
<event>
 7    1  0.2732193E-010  0.4778727E+02  0.7816164E-02  0.1312668E+00
        -11   -1    0    0    0    0  0.00000000000E+00  0.00000000000E+00  0.45593999997E+02  0.45594000000E+02  0.51100000000E-03 0.  1.
         11   -1    0    0    0    0 -0.00000000000E+00 -0.00000000000E+00 -0.45593999997E+02  0.45594000000E+02  0.51100000000E-03 0. -1.
    9900012    2    1    2    0    0  0.32065852512E+02  0.11147255823E+02 -0.27039657181E+02  0.47787271088E+02  0.20000000197E+02 0.  0.
        -12    1    1    2    0    0 -0.32065852512E+02 -0.11147255823E+02  0.27039657181E+02  0.43400728912E+02  0.00000000000E+00 0.  1.
         11    1    3    3    0    0  0.39392808031E+01 -0.44745656475E+01 -0.11899295673E+01  0.60791120746E+01  0.51100000000E-03 0. -1.
        -11    1    3    3    0    0  0.15726005010E+02  0.67326152516E+01 -0.10535328706E+02  0.20090507532E+02  0.51100000000E-03 0.  1.
         12    1    3    3    0    0  0.12400566699E+02  0.88892062187E+01 -0.15314398908E+02  0.21617651481E+02  0.00000000000E+00 0. -1.
</event>
<event>
 7    1  0.2732193E-010  0.4778727E+02  0.7816164E-02  0.1312668E+00
        -11   -1    0    0    0    0  0.00000000000E+00  0.00000000000E+00  0.45593999997E+02  0.45594000000E+02  0.51100000000E-03 0.  1.
         11   -1    0    0    0    0 -0.00000000000E+00 -0.00000000000E+00 -0.45593999997E+02  0.45594000000E+02  0.51100000000E-03 0. -1.
    9900012    2    1    2    0    0  0.19480002980E+02  0.31721716393E+02 -0.22313354208E+02  0.47787267483E+02  0.19999983761E+02 0.  0.
        -12    1    1    2    0    0 -0.19480002980E+02 -0.31721716393E+02  0.22313354208E+02  0.43400732517E+02  0.00000000000E+00 0.  1.
         11    1    3    3    0    0  0.15485453013E+02  0.30753156653E+02 -0.16781148295E+02  0.38303561682E+02  0.51100000000E-03 0. -1.
        -11    1    3    3    0    0  0.92711918535E-01 -0.79887344921E+00 -0.51173805217E+01  0.51801909186E+01  0.51100000000E-03 0.  1.
         12    1    3    3    0    0  0.39018380491E+01  0.17674331894E+01 -0.41482539059E+00  0.43035148826E+01  0.00000000000E+00 0. -1.
</event>
<event>
 7    1  0.2732193E-010  0.4778727E+02  0.7816164E-02  0.1312668E+00
        -11   -1    0    0    0    0  0.00000000000E+00  0.00000000000E+00  0.45593999997E+02  0.45594000000E+02  0.51100000000E-03 0.  1.
         11   -1    0    0    0    0 -0.00000000000E+00 -0.00000000000E+00 -0.45593999997E+02  0.45594000000E+02  0.51100000000E-03 0. -1.
    9900012    2    1    2    0    0 -0.10243888347E+01  0.32392346486E+02 -0.28867106225E+02  0.47787270684E+02  0.19999998358E+02 0.  0.
        -12    1    1    2    0    0  0.10243888347E+01 -0.32392346486E+02  0.28867106225E+02  0.43400729316E+02  0.00000000000E+00 0.  1.
         11    1    3    3    0    0  0.17754742289E+01  0.13034240971E+02 -0.60557560198E+01  0.14481572002E+02  0.51100000000E-03 0. -1.
        -11    1    3    3    0    0 -0.78586449942E+01  0.84482421962E+01 -0.15163363425E+02  0.19054098981E+02  0.51100000000E-03 0.  1.
        -12    1    3    3    0    0  0.50587819306E+01  0.10909863319E+02 -0.76479867800E+01  0.14251599701E+02  0.00000000000E+00 0.  1.
</event>
<event>
 7    1  0.2732193E-010  0.4778727E+02  0.7816164E-02  0.1312668E+00
        -11   -1    0    0    0    0  0.00000000000E+00  0.00000000000E+00  0.45593999997E+02  0.45594000000E+02  0.51100000000E-03 0.  1.
         11   -1    0    0    0    0 -0.00000000000E+00 -0.00000000000E+00 -0.45593999997E+02  0.45594000000E+02  0.51100000000E-03 0. -1.
    9900012    2    1    2    0    0 -0.28444968865E+01  0.42394874617E+02 -0.88434426614E+01  0.47787273802E+02  0.20000012575E+02 0.  0.
        -12    1    1    2    0    0  0.28444968865E+01 -0.42394874617E+02  0.88434426614E+01  0.43400726198E+02  0.00000000000E+00 0.  1.
         11    1    3    3    0    0 -0.29708774155E+01  0.26235854483E+02  0.98000753313E+00  0.26421706760E+02  0.51100000000E-03 0. -1.
        -11    1    3    3    0    0 -0.25299701205E+01  0.14588217722E+01 -0.47750011779E+01  0.55972802577E+01  0.51100000000E-03 0.  1.
        -12    1    3    3    0    0  0.26563506494E+01  0.14700198362E+02 -0.50484490166E+01  0.15768286785E+02  0.00000000000E+00 0.  1.
</event>
<event>
 7    1  0.2732193E-010  0.4778727E+02  0.7816164E-02  0.1312668E+00
        -11   -1    0    0    0    0  0.00000000000E+00  0.00000000000E+00  0.45593999997E+02  0.45594000000E+02  0.51100000000E-03 0.  1.
         11   -1    0    0    0    0 -0.00000000000E+00 -0.00000000000E+00 -0.45593999997E+02  0.45594000000E+02  0.51100000000E-03 0. -1.
    9900012    2    1    2    0    0  0.53039141831E+01  0.19226373470E+02 -0.38546574420E+02  0.47787270259E+02  0.19999996421E+02 0.  0.
        -12    1    1    2    0    0 -0.53039141831E+01 -0.19226373470E+02  0.38546574420E+02  0.43400729741E+02  0.00000000000E+00 0.  1.
         11    1    3    3    0    0 -0.22281296166E+01  0.15423890466E+02 -0.16766932560E+02  0.22890849403E+02  0.51100000000E-03 0. -1.
        -11    1    3    3    0    0  0.32645114048E+00 -0.21887312884E+01 -0.18916758067E+01  0.29112802371E+01  0.51100000000E-03 0.  1.
         12    1    3    3    0    0  0.72055926592E+01  0.59912142929E+01 -0.19887966054E+02  0.21985140619E+02  0.00000000000E+00 0. -1.
</event>
<event>
 7    1  0.2732193E-010  0.4778727E+02  0.7816164E-02  0.1312668E+00
        -11   -1    0    0    0    0  0.00000000000E+00  0.00000000000E+00  0.45593999997E+02  0.45594000000E+02  0.51100000000E-03 0.  1.
         11   -1    0    0    0    0 -0.00000000000E+00 -0.00000000000E+00 -0.45593999997E+02  0.45594000000E+02  0.51100000000E-03 0. -1.
    9900012    2    1    2    0    0 -0.48748945188E+01 -0.31853064300E+02 -0.29073026924E+02  0.47787271937E+02  0.20000004069E+02 0.  0.
        -12    1    1    2    0    0  0.48748945188E+01  0.31853064300E+02  0.29073026924E+02  0.43400728063E+02  0.00000000000E+00 0.  1.
         11    1    3    3    0    0 -0.96508532362E+01 -0.23483675207E+02 -0.20683739755E+02  0.32748115365E+02  0.51100000000E-03 0. -1.
        -11    1    3    3    0    0  0.43860717963E+01 -0.61900339170E+01 -0.98155128672E+01  0.12405580954E+02  0.51100000000E-03 0.  1.
         12    1    3    3    0    0  0.38988692108E+00 -0.21793551763E+01  0.14262256981E+01  0.26335756184E+01  0.00000000000E+00 0. -1.
</event>
<event>
 7    1  0.2732193E-010  0.4778727E+02  0.7816164E-02  0.1312668E+00
        -11   -1    0    0    0    0  0.00000000000E+00  0.00000000000E+00  0.45593999997E+02  0.45594000000E+02  0.51100000000E-03 0.  1.
         11   -1    0    0    0    0 -0.00000000000E+00 -0.00000000000E+00 -0.45593999997E+02  0.45594000000E+02  0.51100000000E-03 0. -1.
    9900012    2    1    2    0    0  0.23764318172E+01  0.36400432669E+01 -0.43182470558E+02  0.47787272971E+02  0.20000008785E+02 0.  0.
        -12    1    1    2    0    0 -0.23764318172E+01 -0.36400432669E+01  0.43182470558E+02  0.43400727029E+02  0.00000000000E+00 0.  1.
         11    1    3    3    0    0 -0.17660698873E+01  0.41320226977E+01 -0.22598613634E+02  0.23041049300E+02  0.51100000000E-03 0. -1.
        -11    1    3    3    0    0  0.86092187263E+01  0.12983336977E+01 -0.11061105419E+02  0.14076660500E+02  0.51100000000E-03 0.  1.
        -12    1    3    3    0    0 -0.44667170219E+01 -0.17903131285E+01 -0.95227515046E+01  0.10669563171E+02  0.00000000000E+00 0.  1.
</event>
<event>
 7    1  0.2732193E-010  0.4778727E+02  0.7816164E-02  0.1312668E+00
        -11   -1    0    0    0    0  0.00000000000E+00  0.00000000000E+00  0.45593999997E+02  0.45594000000E+02  0.51100000000E-03 0.  1.
         11   -1    0    0    0    0 -0.00000000000E+00 -0.00000000000E+00 -0.45593999997E+02  0.45594000000E+02  0.51100000000E-03 0. -1.
    9900012    2    1    2    0    0 -0.21190024107E+02 -0.12740251584E+01 -0.37854760161E+02  0.47787272718E+02  0.20000007630E+02 0.  0.
        -12    1    1    2    0    0  0.21190024107E+02  0.12740251584E+01  0.37854760161E+02  0.43400727282E+02  0.00000000000E+00 0.  1.
         11    1    3    3    0    0  0.16149288992E+01  0.10526547979E+01 -0.13611940034E+02  0.13747763063E+02  0.51100000000E-03 0. -1.
        -11    1    3    3    0    0 -0.18996538214E+02  0.55023893187E+00 -0.20660209644E+02  0.28071613594E+02  0.51100000000E-03 0.  1.
         12    1    3    3    0    0 -0.38084147928E+01 -0.28769188881E+01 -0.35826104833E+01  0.59678960613E+01  0.00000000000E+00 0. -1.
</event>
<event>
 7    1  0.2732193E-010  0.4778727E+02  0.7816164E-02  0.1312668E+00
        -11   -1    0    0    0    0  0.00000000000E+00  0.00000000000E+00  0.45593999997E+02  0.45594000000E+02  0.51100000000E-03 0. -1.
         11   -1    0    0    0    0 -0.00000000000E+00 -0.00000000000E+00 -0.45593999997E+02  0.45594000000E+02  0.51100000000E-03 0.  1.
    9900012    2    1    2    0    0 -0.28268957584E+02  0.32114532933E+02  0.72901281659E+01  0.47787272390E+02  0.20000006135E+02 0.  0.
        -12    1    1    2    0    0  0.28268957584E+02 -0.32114532933E+02 -0.72901281659E+01  0.43400727610E+02  0.00000000000E+00 0.  1.
         11    1    3    3    0    0 -0.28695050028E+02  0.27012033340E+02  0.74864735553E+01  0.40113627707E+02  0.51100000000E-03 0. -1.
        -11    1    3    3    0    0 -0.72620538032E+00  0.39465856704E+00 -0.22595511504E+01  0.24059720076E+01  0.51100000000E-03 0.  1.
         12    1    3    3    0    0  0.11522978242E+01  0.47078410258E+01  0.20632057610E+01  0.52676726751E+01  0.00000000000E+00 0. -1.
</event>
<event>
 7    1  0.2732193E-010  0.4778728E+02  0.7816164E-02  0.1312668E+00
        -11   -1    0    0    0    0  0.00000000000E+00  0.00000000000E+00  0.45593999997E+02  0.45594000000E+02  0.51100000000E-03 0.  1.
         11   -1    0    0    0    0 -0.00000000000E+00 -0.00000000000E+00 -0.45593999997E+02  0.45594000000E+02  0.51100000000E-03 0. -1.
    9900012    2    1    2    0    0  0.13995260676E+02 -0.20925306983E+02 -0.35353740844E+02  0.47787276672E+02  0.20000025658E+02 0.  0.
        -12    1    1    2    0    0 -0.13995260676E+02  0.20925306983E+02  0.35353740844E+02  0.43400723328E+02  0.00000000000E+00 0.  1.
         11    1    3    3    0    0  0.28967951525E+01 -0.13473263442E+02 -0.21351835325E+02  0.25413010879E+02  0.51100000000E-03 0. -1.
        -11    1    3    3    0    0  0.12262320127E+02 -0.89587813673E+01 -0.10750275567E+02  0.18606253882E+02  0.51100000000E-03 0.  1.
        -12    1    3    3    0    0 -0.11638546028E+01  0.15067378270E+01 -0.32516299521E+01  0.37680119110E+01  0.00000000000E+00 0.  1.
</event>
<event>
 7    1  0.2732193E-010  0.4778727E+02  0.7816164E-02  0.1312668E+00
        -11   -1    0    0    0    0  0.00000000000E+00  0.00000000000E+00  0.45593999997E+02  0.45594000000E+02  0.51100000000E-03 0.  1.
         11   -1    0    0    0    0 -0.00000000000E+00 -0.00000000000E+00 -0.45593999997E+02  0.45594000000E+02  0.51100000000E-03 0. -1.
    9900012    2    1    2    0    0 -0.43932854398E+01  0.16123665275E+02 -0.40054333233E+02  0.47787272476E+02  0.20000006529E+02 0.  0.
        -12    1    1    2    0    0  0.43932854398E+01 -0.16123665275E+02  0.40054333233E+02  0.43400727524E+02  0.00000000000E+00 0.  1.
         11    1    3    3    0    0  0.46451346216E+00  0.14500368262E+02 -0.28588141972E+02  0.32058669875E+02  0.51100000000E-03 0. -1.
        -11    1    3    3    0    0 -0.19928043655E+01 -0.35075494290E+01 -0.78572404865E+01  0.88323496625E+01  0.51100000000E-03 0.  1.
         12    1    3    3    0    0 -0.28649945364E+01  0.51308464416E+01 -0.36089507742E+01  0.68962529385E+01  0.00000000000E+00 0. -1.
</event>
<event>
 7    1  0.2732193E-010  0.4778729E+02  0.7816164E-02  0.1312668E+00
        -11   -1    0    0    0    0  0.00000000000E+00  0.00000000000E+00  0.45593999997E+02  0.45594000000E+02  0.51100000000E-03 0. -1.
         11   -1    0    0    0    0 -0.00000000000E+00 -0.00000000000E+00 -0.45593999997E+02  0.45594000000E+02  0.51100000000E-03 0.  1.
    9900012    2    1    2    0    0  0.35483324242E+02  0.55046891147E+01  0.24377328335E+02  0.47787285279E+02  0.20000064902E+02 0.  0.
        -12    1    1    2    0    0 -0.35483324242E+02 -0.55046891147E+01 -0.24377328335E+02  0.43400714721E+02  0.00000000000E+00 0.  1.
         11    1    3    3    0    0  0.20374167968E+02  0.11914466157E+02  0.15543576608E+02  0.28260643981E+02  0.51100000000E-03 0. -1.
        -11    1    3    3    0    0  0.29817605676E+01 -0.40978827613E+01  0.25024224669E+01  0.56520489799E+01  0.51100000000E-03 0.  1.
         12    1    3    3    0    0  0.12127395707E+02 -0.23118942810E+01  0.63313292604E+01  0.13874592318E+02  0.00000000000E+00 0. -1.
</event>
<event>
 7    1  0.2732193E-010  0.4778725E+02  0.7816164E-02  0.1312668E+00
        -11   -1    0    0    0    0  0.00000000000E+00  0.00000000000E+00  0.45593999997E+02  0.45594000000E+02  0.51100000000E-03 0. -1.
         11   -1    0    0    0    0 -0.00000000000E+00 -0.00000000000E+00 -0.45593999997E+02  0.45594000000E+02  0.51100000000E-03 0.  1.
    9900012    2    1    2    0    0  0.35756986876E+02 -0.23615041826E+02  0.68842450808E+01  0.47787249532E+02  0.19999901915E+02 0.  0.
        -12    1    1    2    0    0 -0.35756986876E+02  0.23615041826E+02 -0.68842450808E+01  0.43400750468E+02  0.00000000000E+00 0.  1.
         11    1    3    3    0    0 -0.11296965297E+01 -0.38100495840E+01 -0.10513012188E+01  0.41107087705E+01  0.51100000000E-03 0. -1.
        -11    1    3    3    0    0  0.47163207057E+00 -0.55649272493E+00  0.19153843098E+01  0.20495897829E+01  0.51100000000E-03 0.  1.
         12    1    3    3    0    0  0.36415051335E+02 -0.19248499517E+02  0.60201619897E+01  0.41626950978E+02  0.00000000000E+00 0. -1.
</event>
<event>
 7    1  0.2732193E-010  0.4778727E+02  0.7816164E-02  0.1312668E+00
        -11   -1    0    0    0    0  0.00000000000E+00  0.00000000000E+00  0.45593999997E+02  0.45594000000E+02  0.51100000000E-03 0.  1.
         11   -1    0    0    0    0 -0.00000000000E+00 -0.00000000000E+00 -0.45593999997E+02  0.45594000000E+02  0.51100000000E-03 0. -1.
    9900012    2    1    2    0    0 -0.26376502308E+02 -0.24733117049E+02 -0.24003668342E+02  0.47787273660E+02  0.20000011925E+02 0.  0.
        -12    1    1    2    0    0  0.26376502308E+02  0.24733117049E+02  0.24003668342E+02  0.43400726340E+02  0.00000000000E+00 0.  1.
         11    1    3    3    0    0  0.19161176465E+01 -0.36361995494E+01 -0.35743006211E+00  0.41256769758E+01  0.51100000000E-03 0. -1.
        -11    1    3    3    0    0 -0.27393637431E+02 -0.16926094440E+02 -0.19158426897E+02  0.37469312325E+02  0.51100000000E-03 0.  1.
         12    1    3    3    0    0 -0.89898252335E+00 -0.41708230600E+01 -0.44878113828E+01  0.61922843590E+01  0.00000000000E+00 0. -1.
</event>
<event>
 7    1  0.2732193E-010  0.4778727E+02  0.7816164E-02  0.1312668E+00
        -11   -1    0    0    0    0  0.00000000000E+00  0.00000000000E+00  0.45593999997E+02  0.45594000000E+02  0.51100000000E-03 0.  1.
         11   -1    0    0    0    0 -0.00000000000E+00 -0.00000000000E+00 -0.45593999997E+02  0.45594000000E+02  0.51100000000E-03 0. -1.
    9900012    2    1    2    0    0  0.10807379995E+02 -0.37372811061E+02 -0.19237896744E+02  0.47787272585E+02  0.20000007026E+02 0.  0.
        -12    1    1    2    0    0 -0.10807379995E+02  0.37372811061E+02  0.19237896744E+02  0.43400727415E+02  0.00000000000E+00 0.  1.
         11    1    3    3    0    0  0.65156268391E+01 -0.22924334193E+02 -0.41071662759E+01  0.24183616487E+02  0.51100000000E-03 0. -1.
        -11    1    3    3    0    0  0.44857049502E+01 -0.11814709315E+01 -0.55748099448E+01  0.72523050573E+01  0.51100000000E-03 0.  1.
         12    1    3    3    0    0 -0.19395179412E+00 -0.13267005937E+02 -0.95559205234E+01  0.16351351041E+02  0.00000000000E+00 0. -1.
</event>
<event>
 7    1  0.2732193E-010  0.4778727E+02  0.7816164E-02  0.1312668E+00
        -11   -1    0    0    0    0  0.00000000000E+00  0.00000000000E+00  0.45593999997E+02  0.45594000000E+02  0.51100000000E-03 0.  1.
         11   -1    0    0    0    0 -0.00000000000E+00 -0.00000000000E+00 -0.45593999997E+02  0.45594000000E+02  0.51100000000E-03 0. -1.
    9900012    2    1    2    0    0  0.74490115710E+01 -0.88582822691E+01 -0.41829013184E+02  0.47787270949E+02  0.19999999567E+02 0.  0.
        -12    1    1    2    0    0 -0.74490115710E+01  0.88582822691E+01  0.41829013184E+02  0.43400729051E+02  0.00000000000E+00 0.  1.
         11    1    3    3    0    0 -0.56287364579E+01 -0.27853031102E+00 -0.74051358930E+01  0.93057128207E+01  0.51100000000E-03 0. -1.
        -11    1    3    3    0    0  0.73020084699E+01 -0.74009892942E+01 -0.27433229631E+02  0.29337281034E+02  0.51100000000E-03 0.  1.
        -12    1    3    3    0    0  0.57757395590E+01 -0.11787626639E+01 -0.69906476606E+01  0.91442770948E+01  0.00000000000E+00 0.  1.
</event>
<event>
 7    1  0.2732193E-010  0.4778727E+02  0.7816164E-02  0.1312668E+00
        -11   -1    0    0    0    0  0.00000000000E+00  0.00000000000E+00  0.45593999997E+02  0.45594000000E+02  0.51100000000E-03 0. -1.
         11   -1    0    0    0    0 -0.00000000000E+00 -0.00000000000E+00 -0.45593999997E+02  0.45594000000E+02  0.51100000000E-03 0.  1.
    9900012    2    1    2    0    0 -0.13534438850E+02  0.34070926947E+02  0.23229593252E+02  0.47787273040E+02  0.20000009100E+02 0.  0.
        -12    1    1    2    0    0  0.13534438850E+02 -0.34070926947E+02 -0.23229593252E+02  0.43400726960E+02  0.00000000000E+00 0.  1.
         11    1    3    3    0    0 -0.56382387916E+01  0.74931267770E+01  0.54653647785E+01  0.10853888611E+02  0.51100000000E-03 0. -1.
        -11    1    3    3    0    0 -0.13116715422E+01  0.37785496163E+01  0.11806957534E+02  0.12466040506E+02  0.51100000000E-03 0.  1.
        -12    1    3    3    0    0 -0.65845285164E+01  0.22799250553E+02  0.59572709392E+01  0.24467343923E+02  0.00000000000E+00 0.  1.
</event>
<event>
 7    1  0.2732193E-010  0.4778727E+02  0.7816164E-02  0.1312668E+00
        -11   -1    0    0    0    0  0.00000000000E+00  0.00000000000E+00  0.45593999997E+02  0.45594000000E+02  0.51100000000E-03 0.  1.
         11   -1    0    0    0    0 -0.00000000000E+00 -0.00000000000E+00 -0.45593999997E+02  0.45594000000E+02  0.51100000000E-03 0. -1.
    9900012    2    1    2    0    0  0.26800273470E+02  0.29472740328E+02 -0.17225738534E+02  0.47787272488E+02  0.20000006582E+02 0.  0.
        -12    1    1    2    0    0 -0.26800273470E+02 -0.29472740328E+02  0.17225738534E+02  0.43400727512E+02  0.00000000000E+00 0.  1.
         11    1    3    3    0    0  0.15145209306E+02  0.85053004212E+01 -0.41436775821E+01  0.17857423228E+02  0.51100000000E-03 0. -1.
        -11    1    3    3    0    0  0.41109368772E+01  0.18220283693E+02 -0.73852037376E+01  0.20085312404E+02  0.51100000000E-03 0.  1.
        -12    1    3    3    0    0  0.75441272869E+01  0.27471562137E+01 -0.56968572141E+01  0.98445368556E+01  0.00000000000E+00 0.  1.
</event>
<event>
 7    1  0.2732193E-010  0.4778727E+02  0.7816164E-02  0.1312668E+00
        -11   -1    0    0    0    0  0.00000000000E+00  0.00000000000E+00  0.45593999997E+02  0.45594000000E+02  0.51100000000E-03 0.  1.
         11   -1    0    0    0    0 -0.00000000000E+00 -0.00000000000E+00 -0.45593999997E+02  0.45594000000E+02  0.51100000000E-03 0. -1.
    9900012    2    1    2    0    0 -0.26932438579E+02 -0.14216096088E+02 -0.30921993351E+02  0.47787270644E+02  0.19999998174E+02 0.  0.
        -12    1    1    2    0    0  0.26932438579E+02  0.14216096088E+02  0.30921993351E+02  0.43400729356E+02  0.00000000000E+00 0.  1.
         11    1    3    3    0    0 -0.20971143036E+02 -0.12789485434E+02 -0.16441842123E+02  0.29558314406E+02  0.51100000000E-03 0.  1.
        -11    1    3    3    0    0 -0.42628750810E+01 -0.17771034512E+00 -0.15362216488E+02  0.15943694070E+02  0.51100000000E-03 0. -1.
        -12    1    3    3    0    0 -0.16984204625E+01 -0.12489003091E+01  0.88206525973E+00  0.22852621670E+01  0.00000000000E+00 0.  1.
</event>
<event>
 7    1  0.2732193E-010  0.4778727E+02  0.7816164E-02  0.1312668E+00
        -11   -1    0    0    0    0  0.00000000000E+00  0.00000000000E+00  0.45593999997E+02  0.45594000000E+02  0.51100000000E-03 0.  1.
         11   -1    0    0    0    0 -0.00000000000E+00 -0.00000000000E+00 -0.45593999997E+02  0.45594000000E+02  0.51100000000E-03 0. -1.
    9900012    2    1    2    0    0  0.15712292217E+02 -0.32742487030E+02 -0.23762925582E+02  0.47787271713E+02  0.20000003050E+02 0.  0.
        -12    1    1    2    0    0 -0.15712292217E+02  0.32742487030E+02  0.23762925582E+02  0.43400728287E+02  0.00000000000E+00 0.  1.
         11    1    3    3    0    0  0.85730562508E+01 -0.77442373556E+01 -0.72583039961E+01  0.13643807491E+02  0.51100000000E-03 0. -1.
        -11    1    3    3    0    0 -0.26648041581E+01 -0.97147040468E+01 -0.74625424693E+00  0.10101165853E+02  0.51100000000E-03 0.  1.
        -12    1    3    3    0    0  0.98040401245E+01 -0.15283545627E+02 -0.15758367339E+02  0.24042298369E+02  0.00000000000E+00 0.  1.
</event>
<event>
 7    1  0.2732193E-010  0.4778727E+02  0.7816164E-02  0.1312668E+00
        -11   -1    0    0    0    0  0.00000000000E+00  0.00000000000E+00  0.45593999997E+02  0.45594000000E+02  0.51100000000E-03 0.  1.
         11   -1    0    0    0    0 -0.00000000000E+00 -0.00000000000E+00 -0.45593999997E+02  0.45594000000E+02  0.51100000000E-03 0. -1.
    9900012    2    1    2    0    0  0.56165942176E+01  0.19650703214E+02 -0.38287428804E+02  0.47787268764E+02  0.19999989601E+02 0.  0.
        -12    1    1    2    0    0 -0.56165942176E+01 -0.19650703214E+02  0.38287428804E+02  0.43400731236E+02  0.00000000000E+00 0.  1.
         11    1    3    3    0    0  0.56640126175E+00  0.40777476852E+01 -0.78327124150E+01  0.88487411879E+01  0.51100000000E-03 0. -1.
        -11    1    3    3    0    0 -0.60677358709E+00  0.10721749803E+02 -0.40089023810E+01  0.11462782890E+02  0.51100000000E-03 0.  1.
        -12    1    3    3    0    0  0.56569665430E+01  0.48512057259E+01 -0.26445814008E+02  0.27475744685E+02  0.00000000000E+00 0.  1.
</event>
<event>
 7    1  0.2732193E-010  0.4778727E+02  0.7816164E-02  0.1312668E+00
        -11   -1    0    0    0    0  0.00000000000E+00  0.00000000000E+00  0.45593999997E+02  0.45594000000E+02  0.51100000000E-03 0. -1.
         11   -1    0    0    0    0 -0.00000000000E+00 -0.00000000000E+00 -0.45593999997E+02  0.45594000000E+02  0.51100000000E-03 0.  1.
    9900012    2    1    2    0    0 -0.27938730056E+02 -0.91475784459E+01  0.31927614243E+02  0.47787269823E+02  0.19999994432E+02 0.  0.
        -12    1    1    2    0    0  0.27938730056E+02  0.91475784459E+01 -0.31927614243E+02  0.43400730177E+02  0.00000000000E+00 0.  1.
         11    1    3    3    0    0 -0.14333045637E+02 -0.89297344129E+01  0.10610717280E+02  0.19944013523E+02  0.51100000000E-03 0. -1.
        -11    1    3    3    0    0 -0.15560153974E+01  0.46374900094E+01  0.65559151897E+01  0.81797018124E+01  0.51100000000E-03 0.  1.
        -12    1    3    3    0    0 -0.12049669022E+02 -0.48553340424E+01  0.14760981774E+02  0.19663554488E+02  0.00000000000E+00 0.  1.
</event>
<event>
 7    1  0.2732193E-010  0.4778726E+02  0.7816164E-02  0.1312668E+00
        -11   -1    0    0    0    0  0.00000000000E+00  0.00000000000E+00  0.45593999997E+02  0.45594000000E+02  0.51100000000E-03 0.  1.
         11   -1    0    0    0    0 -0.00000000000E+00 -0.00000000000E+00 -0.45593999997E+02  0.45594000000E+02  0.51100000000E-03 0. -1.
    9900012    2    1    2    0    0 -0.17178968188E+02  0.22778131671E+02 -0.32705712358E+02  0.47787264392E+02  0.19999969671E+02 0.  0.
        -12    1    1    2    0    0  0.17178968188E+02 -0.22778131671E+02  0.32705712358E+02  0.43400735608E+02  0.00000000000E+00 0.  1.
         11    1    3    3    0    0 -0.15110193853E+02  0.76694198029E+01 -0.12314278673E+02  0.20947062273E+02  0.51100000000E-03 0.  1.
        -11    1    3    3    0    0 -0.29275032753E+01  0.13128042435E+02 -0.11518801286E+02  0.17708714152E+02  0.51100000000E-03 0. -1.
         12    1    3    3    0    0  0.85872893987E+00  0.19806694329E+01 -0.88726323991E+01  0.91314879666E+01  0.00000000000E+00 0. -1.
</event>
<event>
 7    1  0.2732193E-010  0.4778727E+02  0.7816164E-02  0.1312668E+00
        -11   -1    0    0    0    0  0.00000000000E+00  0.00000000000E+00  0.45593999997E+02  0.45594000000E+02  0.51100000000E-03 0.  1.
         11   -1    0    0    0    0 -0.00000000000E+00 -0.00000000000E+00 -0.45593999997E+02  0.45594000000E+02  0.51100000000E-03 0. -1.
    9900012    2    1    2    0    0 -0.10255377575E+02  0.33955487006E+02 -0.25009509066E+02  0.47787269468E+02  0.19999992811E+02 0.  0.
        -12    1    1    2    0    0  0.10255377575E+02 -0.33955487006E+02  0.25009509066E+02  0.43400730532E+02  0.00000000000E+00 0.  1.
         11    1    3    3    0    0 -0.94292066430E+00  0.14060143090E+02 -0.11736268504E+01  0.14140513546E+02  0.51100000000E-03 0. -1.
        -11    1    3    3    0    0 -0.53418771651E+01  0.42673318875E+01 -0.34604073369E+01  0.76629101707E+01  0.51100000000E-03 0.  1.
         12    1    3    3    0    0 -0.39705797457E+01  0.15628012028E+02 -0.20375474879E+02  0.25983845751E+02  0.00000000000E+00 0. -1.
</event>
<event>
 7    1  0.2732193E-010  0.4778728E+02  0.7816164E-02  0.1312668E+00
        -11   -1    0    0    0    0  0.00000000000E+00  0.00000000000E+00  0.45593999997E+02  0.45594000000E+02  0.51100000000E-03 0.  1.
         11   -1    0    0    0    0 -0.00000000000E+00 -0.00000000000E+00 -0.45593999997E+02  0.45594000000E+02  0.51100000000E-03 0. -1.
    9900012    2    1    2    0    0  0.13997442784E+02  0.33345850352E+02 -0.23994764750E+02  0.47787275633E+02  0.20000020919E+02 0.  0.
        -12    1    1    2    0    0 -0.13997442784E+02 -0.33345850352E+02  0.23994764750E+02  0.43400724367E+02  0.00000000000E+00 0.  1.
         11    1    3    3    0    0  0.95249452738E+01  0.40456871844E+01 -0.64542454966E+01  0.12196288470E+02  0.51100000000E-03 0. -1.
        -11    1    3    3    0    0  0.31707469290E+01  0.68166060594E+01 -0.86371704050E+00  0.75674144623E+01  0.51100000000E-03 0.  1.
         12    1    3    3    0    0  0.13017505815E+01  0.22483557108E+02 -0.16676802213E+02  0.28023572700E+02  0.00000000000E+00 0. -1.
</event>
<event>
 7    1  0.2732193E-010  0.4778727E+02  0.7816164E-02  0.1312668E+00
        -11   -1    0    0    0    0  0.00000000000E+00  0.00000000000E+00  0.45593999997E+02  0.45594000000E+02  0.51100000000E-03 0.  1.
         11   -1    0    0    0    0 -0.00000000000E+00 -0.00000000000E+00 -0.45593999997E+02  0.45594000000E+02  0.51100000000E-03 0. -1.
    9900012    2    1    2    0    0  0.66551340450E+01  0.19346312053E+02 -0.38276006798E+02  0.47787270794E+02  0.19999998860E+02 0.  0.
        -12    1    1    2    0    0 -0.66551340450E+01 -0.19346312053E+02  0.38276006798E+02  0.43400729206E+02  0.00000000000E+00 0.  1.
         11    1    3    3    0    0  0.19437311643E+01  0.10698997997E+02 -0.31205379954E+02  0.33045762017E+02  0.51100000000E-03 0. -1.
        -11    1    3    3    0    0  0.17326596322E+00  0.22885374070E+01  0.18033449026E+01  0.29188144265E+01  0.51100000000E-03 0.  1.
        -12    1    3    3    0    0  0.45381369175E+01  0.63587766484E+01 -0.88739717466E+01  0.11822694350E+02  0.00000000000E+00 0.  1.
</event>
<event>
 7    1  0.2732193E-010  0.4778727E+02  0.7816164E-02  0.1312668E+00
        -11   -1    0    0    0    0  0.00000000000E+00  0.00000000000E+00  0.45593999997E+02  0.45594000000E+02  0.51100000000E-03 0.  1.
         11   -1    0    0    0    0 -0.00000000000E+00 -0.00000000000E+00 -0.45593999997E+02  0.45594000000E+02  0.51100000000E-03 0. -1.
    9900012    2    1    2    0    0  0.37381312707E+02  0.22013962168E+02  0.12829955731E+01  0.47787272499E+02  0.20000006631E+02 0.  0.
        -12    1    1    2    0    0 -0.37381312707E+02 -0.22013962168E+02 -0.12829955731E+01  0.43400727501E+02  0.00000000000E+00 0.  1.
         11    1    3    3    0    0  0.21104490423E+02  0.46217822163E+01  0.71825795766E+01  0.22767297523E+02  0.51100000000E-03 0. -1.
        -11    1    3    3    0    0  0.82316566074E+01  0.12005539458E+02 -0.45073414988E+01  0.15238414479E+02  0.51100000000E-03 0.  1.
         12    1    3    3    0    0  0.80451656759E+01  0.53866404934E+01 -0.13922425048E+01  0.97815604967E+01  0.00000000000E+00 0. -1.
</event>
<event>
 7    1  0.2732193E-010  0.4778728E+02  0.7816164E-02  0.1312668E+00
        -11   -1    0    0    0    0  0.00000000000E+00  0.00000000000E+00  0.45593999997E+02  0.45594000000E+02  0.51100000000E-03 0.  1.
         11   -1    0    0    0    0 -0.00000000000E+00 -0.00000000000E+00 -0.45593999997E+02  0.45594000000E+02  0.51100000000E-03 0. -1.
    9900012    2    1    2    0    0 -0.35284070323E+02 -0.16016807238E+02 -0.19547860599E+02  0.47787278962E+02  0.20000036097E+02 0.  0.
        -12    1    1    2    0    0  0.35284070323E+02  0.16016807238E+02  0.19547860599E+02  0.43400721038E+02  0.00000000000E+00 0.  1.
         11    1    3    3    0    0 -0.68044173350E+01  0.30777920054E+01 -0.41180976451E+01  0.85282839642E+01  0.51100000000E-03 0. -1.
        -11    1    3    3    0    0 -0.14810537863E+02 -0.11976208519E+02 -0.26345326499E+01  0.19228165925E+02  0.51100000000E-03 0.  1.
         12    1    3    3    0    0 -0.13669115125E+02 -0.71183907245E+01 -0.12795230304E+02  0.20030829073E+02  0.00000000000E+00 0. -1.
</event>
<event>
 7    1  0.2732193E-010  0.4778726E+02  0.7816164E-02  0.1312668E+00
        -11   -1    0    0    0    0  0.00000000000E+00  0.00000000000E+00  0.45593999997E+02  0.45594000000E+02  0.51100000000E-03 0. -1.
         11   -1    0    0    0    0 -0.00000000000E+00 -0.00000000000E+00 -0.45593999997E+02  0.45594000000E+02  0.51100000000E-03 0.  1.
    9900012    2    1    2    0    0  0.38883898031E+02  0.35494296776E+01  0.18949094863E+02  0.47787260683E+02  0.19999952758E+02 0.  0.
        -12    1    1    2    0    0 -0.38883898031E+02 -0.35494296776E+01 -0.18949094863E+02  0.43400739317E+02  0.00000000000E+00 0.  1.
         11    1    3    3    0    0  0.99216687692E+01 -0.28034189652E+01  0.78774239111E+01  0.12975071360E+02  0.51100000000E-03 0. -1.
        -11    1    3    3    0    0  0.36299323735E+00  0.17239194408E+01  0.48776234399E+01  0.51860267075E+01  0.51100000000E-03 0.  1.
        -12    1    3    3    0    0  0.28599236024E+02  0.46289292020E+01  0.61940475122E+01  0.29626162616E+02  0.00000000000E+00 0.  1.
</event>
<event>
 7    1  0.2732193E-010  0.4778726E+02  0.7816164E-02  0.1312668E+00
        -11   -1    0    0    0    0  0.00000000000E+00  0.00000000000E+00  0.45593999997E+02  0.45594000000E+02  0.51100000000E-03 0.  1.
         11   -1    0    0    0    0 -0.00000000000E+00 -0.00000000000E+00 -0.45593999997E+02  0.45594000000E+02  0.51100000000E-03 0. -1.
    9900012    2    1    2    0    0 -0.24457538050E+02  0.26618601054E+02 -0.24018799219E+02  0.47787264920E+02  0.19999972077E+02 0.  0.
        -12    1    1    2    0    0  0.24457538050E+02 -0.26618601054E+02  0.24018799219E+02  0.43400735080E+02  0.00000000000E+00 0.  1.
         11    1    3    3    0    0 -0.12059454336E+02  0.17249223470E+02 -0.93207001760E+01  0.23018288408E+02  0.51100000000E-03 0. -1.
        -11    1    3    3    0    0 -0.11072139949E+02  0.18172689152E+01 -0.12490038720E+02  0.16789753329E+02  0.51100000000E-03 0.  1.
        -12    1    3    3    0    0 -0.13259437644E+01  0.75521086686E+01 -0.22080603235E+01  0.79792231828E+01  0.00000000000E+00 0.  1.
</event>
<event>
 7    1  0.2732193E-010  0.4778727E+02  0.7816164E-02  0.1312668E+00
        -11   -1    0    0    0    0  0.00000000000E+00  0.00000000000E+00  0.45593999997E+02  0.45594000000E+02  0.51100000000E-03 0.  1.
         11   -1    0    0    0    0 -0.00000000000E+00 -0.00000000000E+00 -0.45593999997E+02  0.45594000000E+02  0.51100000000E-03 0. -1.
    9900012    2    1    2    0    0  0.73284600356E+01 -0.41179833780E+02 -0.11581814074E+02  0.47787268971E+02  0.19999990545E+02 0.  0.
        -12    1    1    2    0    0 -0.73284600356E+01  0.41179833780E+02  0.11581814074E+02  0.43400731029E+02  0.00000000000E+00 0.  1.
         11    1    3    3    0    0  0.18847491774E+01 -0.10001322198E+02 -0.58414806729E+01  0.11734633436E+02  0.51100000000E-03 0. -1.
        -11    1    3    3    0    0  0.97396843565E+01 -0.29349618284E+02 -0.50237724042E+01  0.31328897750E+02  0.51100000000E-03 0.  1.
        -12    1    3    3    0    0 -0.42959734983E+01 -0.18288932976E+01 -0.71656099650E+00  0.47237377842E+01  0.00000000000E+00 0.  1.
</event>
<event>
 7    1  0.2732193E-010  0.4778726E+02  0.7816164E-02  0.1312668E+00
        -11   -1    0    0    0    0  0.00000000000E+00  0.00000000000E+00  0.45593999997E+02  0.45594000000E+02  0.51100000000E-03 0.  1.
         11   -1    0    0    0    0 -0.00000000000E+00 -0.00000000000E+00 -0.45593999997E+02  0.45594000000E+02  0.51100000000E-03 0. -1.
    9900012    2    1    2    0    0 -0.20516025718E+02 -0.24990136871E+02 -0.28951857263E+02  0.47787259326E+02  0.19999946570E+02 0.  0.
        -12    1    1    2    0    0  0.20516025718E+02  0.24990136871E+02  0.28951857263E+02  0.43400740674E+02  0.00000000000E+00 0.  1.
         11    1    3    3    0    0 -0.19709268807E+02 -0.11757363340E+02 -0.11070911005E+02  0.25480501179E+02  0.51100000000E-03 0. -1.
        -11    1    3    3    0    0  0.54666300055E-01 -0.64522021070E+01 -0.77297773722E+01  0.10068930376E+02  0.51100000000E-03 0.  1.
         12    1    3    3    0    0 -0.86142321093E+00 -0.67805714244E+01 -0.10151168886E+02  0.12237827771E+02  0.00000000000E+00 0. -1.
</event>
<event>
 7    1  0.2732193E-010  0.4778727E+02  0.7816164E-02  0.1312668E+00
        -11   -1    0    0    0    0  0.00000000000E+00  0.00000000000E+00  0.45593999997E+02  0.45594000000E+02  0.51100000000E-03 0.  1.
         11   -1    0    0    0    0 -0.00000000000E+00 -0.00000000000E+00 -0.45593999997E+02  0.45594000000E+02  0.51100000000E-03 0. -1.
    9900012    2    1    2    0    0 -0.35194121104E+02 -0.11414653291E+02 -0.22687073480E+02  0.47787265293E+02  0.19999973776E+02 0.  0.
        -12    1    1    2    0    0  0.35194121104E+02  0.11414653291E+02  0.22687073480E+02  0.43400734707E+02  0.00000000000E+00 0.  1.
         11    1    3    3    0    0  0.89179299554E+00 -0.50147607242E+00 -0.22600874406E+01  0.24808805893E+01  0.51100000000E-03 0. -1.
        -11    1    3    3    0    0 -0.10480029283E+02  0.15972545201E+01 -0.65630777411E+00  0.10621345298E+02  0.51100000000E-03 0.  1.
        -12    1    3    3    0    0 -0.25605884816E+02 -0.12510431739E+02 -0.19770678265E+02  0.34685039406E+02  0.00000000000E+00 0.  1.
</event>
<event>
 7    1  0.2732193E-010  0.4778727E+02  0.7816164E-02  0.1312668E+00
        -11   -1    0    0    0    0  0.00000000000E+00  0.00000000000E+00  0.45593999997E+02  0.45594000000E+02  0.51100000000E-03 0. -1.
         11   -1    0    0    0    0 -0.00000000000E+00 -0.00000000000E+00 -0.45593999997E+02  0.45594000000E+02  0.51100000000E-03 0.  1.
    9900012    2    1    2    0    0  0.23640063592E+02 -0.19101312099E+02  0.30982424920E+02  0.47787269770E+02  0.19999994191E+02 0.  0.
        -12    1    1    2    0    0 -0.23640063592E+02  0.19101312099E+02 -0.30982424920E+02  0.43400730230E+02  0.00000000000E+00 0.  1.
         11    1    3    3    0    0  0.22884948475E+02 -0.14606193516E+02  0.22272592402E+02  0.35115952618E+02  0.51100000000E-03 0. -1.
        -11    1    3    3    0    0 -0.17739780468E+01 -0.52907989180E+01  0.29083219194E+01  0.62926852733E+01  0.51100000000E-03 0.  1.
         12    1    3    3    0    0  0.25290931646E+01  0.79568033433E+00  0.58015105983E+01  0.63786318793E+01  0.00000000000E+00 0. -1.
</event>
<event>
 7    1  0.2732193E-010  0.4778727E+02  0.7816164E-02  0.1312668E+00
        -11   -1    0    0    0    0  0.00000000000E+00  0.00000000000E+00  0.45593999997E+02  0.45594000000E+02  0.51100000000E-03 0.  1.
         11   -1    0    0    0    0 -0.00000000000E+00 -0.00000000000E+00 -0.45593999997E+02  0.45594000000E+02  0.51100000000E-03 0. -1.
    9900012    2    1    2    0    0 -0.22784199720E+02  0.34519462642E+01 -0.36777541272E+02  0.47787271528E+02  0.20000002203E+02 0.  0.
        -12    1    1    2    0    0  0.22784199720E+02 -0.34519462642E+01  0.36777541272E+02  0.43400728472E+02  0.00000000000E+00 0.  1.
         11    1    3    3    0    0 -0.25551798695E+01  0.71060059857E+01 -0.94376290727E+01  0.12086898196E+02  0.51100000000E-03 0.  1.
        -11    1    3    3    0    0 -0.13840744723E+02 -0.13348687045E+01 -0.24824578960E+02  0.28453608027E+02  0.51100000000E-03 0. -1.
        -12    1    3    3    0    0 -0.63882751269E+01 -0.23191910170E+01 -0.25153332400E+01  0.72467653045E+01  0.00000000000E+00 0.  1.
</event>
<event>
 7    1  0.2732193E-010  0.4778727E+02  0.7816164E-02  0.1312668E+00
        -11   -1    0    0    0    0  0.00000000000E+00  0.00000000000E+00  0.45593999997E+02  0.45594000000E+02  0.51100000000E-03 0.  1.
         11   -1    0    0    0    0 -0.00000000000E+00 -0.00000000000E+00 -0.45593999997E+02  0.45594000000E+02  0.51100000000E-03 0. -1.
    9900012    2    1    2    0    0  0.28991551561E+02 -0.23725770814E+02 -0.21913491760E+02  0.47787269779E+02  0.19999994229E+02 0.  0.
        -12    1    1    2    0    0 -0.28991551561E+02  0.23725770814E+02  0.21913491760E+02  0.43400730221E+02  0.00000000000E+00 0.  1.
         11    1    3    3    0    0  0.81729424489E+01  0.27241101469E+00 -0.69152132970E+01  0.10709405737E+02  0.51100000000E-03 0. -1.
        -11    1    3    3    0    0  0.10752709102E+02 -0.77601760219E+01 -0.81835753317E+00  0.13285736496E+02  0.51100000000E-03 0.  1.
         12    1    3    3    0    0  0.10065900010E+02 -0.16238005806E+02 -0.14179920930E+02  0.23792127546E+02  0.00000000000E+00 0. -1.
</event>
<event>
 7    1  0.2732193E-010  0.4778727E+02  0.7816164E-02  0.1312668E+00
        -11   -1    0    0    0    0  0.00000000000E+00  0.00000000000E+00  0.45593999997E+02  0.45594000000E+02  0.51100000000E-03 0.  1.
         11   -1    0    0    0    0 -0.00000000000E+00 -0.00000000000E+00 -0.45593999997E+02  0.45594000000E+02  0.51100000000E-03 0. -1.
    9900012    2    1    2    0    0  0.38094419558E+02 -0.20571044216E+02  0.30447198745E+01  0.47787274422E+02  0.20000015399E+02 0.  0.
        -12    1    1    2    0    0 -0.38094419558E+02  0.20571044216E+02 -0.30447198745E+01  0.43400725578E+02  0.00000000000E+00 0.  1.
         11    1    3    3    0    0  0.32590581803E+02 -0.23448439533E+02  0.23064784557E+01  0.40215608686E+02  0.51100000000E-03 0. -1.
        -11    1    3    3    0    0  0.59134415820E+01  0.29137096875E+01  0.14497879926E+01  0.67498430331E+01  0.51100000000E-03 0.  1.
         12    1    3    3    0    0 -0.40960382721E+00 -0.36314370403E-01 -0.71154657379E+00  0.82182270317E+00  0.00000000000E+00 0. -1.
</event>
<event>
 7    1  0.2732193E-010  0.4778727E+02  0.7816164E-02  0.1312668E+00
        -11   -1    0    0    0    0  0.00000000000E+00  0.00000000000E+00  0.45593999997E+02  0.45594000000E+02  0.51100000000E-03 0. -1.
         11   -1    0    0    0    0 -0.00000000000E+00 -0.00000000000E+00 -0.45593999997E+02  0.45594000000E+02  0.51100000000E-03 0.  1.
    9900012    2    1    2    0    0 -0.42613759920E+02  0.79432231197E+01 -0.21439351980E+01  0.47787265142E+02  0.19999973090E+02 0.  0.
        -12    1    1    2    0    0  0.42613759920E+02 -0.79432231197E+01  0.21439351980E+01  0.43400734858E+02  0.00000000000E+00 0.  1.
         11    1    3    3    0    0 -0.11125544934E+02  0.71605069770E+01  0.39428107200E+01  0.13805664304E+02  0.51100000000E-03 0. -1.
        -11    1    3    3    0    0 -0.17522409974E+02 -0.38240612288E+01  0.32705994069E+00  0.17937816590E+02  0.51100000000E-03 0.  1.
         12    1    3    3    0    0 -0.13965805013E+02  0.46067773715E+01 -0.64138058586E+01  0.16043784248E+02  0.00000000000E+00 0. -1.
</event>
<event>
 7    1  0.2732193E-010  0.4778728E+02  0.7816164E-02  0.1312668E+00
        -11   -1    0    0    0    0  0.00000000000E+00  0.00000000000E+00  0.45593999997E+02  0.45594000000E+02  0.51100000000E-03 0. -1.
         11   -1    0    0    0    0 -0.00000000000E+00 -0.00000000000E+00 -0.45593999997E+02  0.45594000000E+02  0.51100000000E-03 0.  1.
    9900012    2    1    2    0    0  0.31252172108E+02 -0.28066970369E+02 -0.10916479811E+02  0.47787278593E+02  0.20000034419E+02 0.  0.
        -12    1    1    2    0    0 -0.31252172108E+02  0.28066970369E+02  0.10916479811E+02  0.43400721407E+02  0.00000000000E+00 0.  1.
         11    1    3    3    0    0  0.16482365223E+02 -0.69352734796E+01  0.81558887386E-01  0.17882198794E+02  0.51100000000E-03 0. -1.
        -11    1    3    3    0    0 -0.91014247817E+00 -0.39025485861E+00  0.87476396484E+00  0.13213139069E+01  0.51100000000E-03 0.  1.
         12    1    3    3    0    0  0.15679949363E+02 -0.20741442031E+02 -0.11872802663E+02  0.28583765893E+02  0.00000000000E+00 0. -1.
</event>
<event>
 7    1  0.2732193E-010  0.4778727E+02  0.7816164E-02  0.1312668E+00
        -11   -1    0    0    0    0  0.00000000000E+00  0.00000000000E+00  0.45593999997E+02  0.45594000000E+02  0.51100000000E-03 0. -1.
         11   -1    0    0    0    0 -0.00000000000E+00 -0.00000000000E+00 -0.45593999997E+02  0.45594000000E+02  0.51100000000E-03 0.  1.
    9900012    2    1    2    0    0  0.42782901227E+01  0.28609835892E+02  0.32354237456E+02  0.47787272385E+02  0.20000006113E+02 0.  0.
        -12    1    1    2    0    0 -0.42782901227E+01 -0.28609835892E+02 -0.32354237456E+02  0.43400727615E+02  0.00000000000E+00 0.  1.
         11    1    3    3    0    0  0.48918953272E+01 -0.61205558563E+00  0.14062720633E+01  0.51266805351E+01  0.51100000000E-03 0.  1.
        -11    1    3    3    0    0 -0.13416033921E+01  0.26745818836E+02  0.28368908672E+02  0.39011968732E+02  0.51100000000E-03 0. -1.
        -12    1    3    3    0    0  0.72799818760E+00  0.24760726421E+01  0.25790567206E+01  0.36486231182E+01  0.00000000000E+00 0.  1.
</event>
<event>
 7    1  0.2732193E-010  0.4778727E+02  0.7816164E-02  0.1312668E+00
        -11   -1    0    0    0    0  0.00000000000E+00  0.00000000000E+00  0.45593999997E+02  0.45594000000E+02  0.51100000000E-03 0.  1.
         11   -1    0    0    0    0 -0.00000000000E+00 -0.00000000000E+00 -0.45593999997E+02  0.45594000000E+02  0.51100000000E-03 0. -1.
    9900012    2    1    2    0    0 -0.35130829270E+02 -0.19790126065E+02 -0.16056122649E+02  0.47787270404E+02  0.19999997081E+02 0.  0.
        -12    1    1    2    0    0  0.35130829270E+02  0.19790126065E+02  0.16056122649E+02  0.43400729596E+02  0.00000000000E+00 0.  1.
         11    1    3    3    0    0 -0.16896473237E+02 -0.10082703001E+02 -0.43598189751E+00  0.19681000689E+02  0.51100000000E-03 0. -1.
        -11    1    3    3    0    0 -0.12555190778E+02 -0.45499563586E+01 -0.15465442402E+02  0.20433179569E+02  0.51100000000E-03 0.  1.
        -12    1    3    3    0    0 -0.56791652555E+01 -0.51574667060E+01 -0.15469835029E+00  0.76730901469E+01  0.00000000000E+00 0.  1.
</event>
<event>
 7    1  0.2732193E-010  0.4778727E+02  0.7816164E-02  0.1312668E+00
        -11   -1    0    0    0    0  0.00000000000E+00  0.00000000000E+00  0.45593999997E+02  0.45594000000E+02  0.51100000000E-03 0.  1.
         11   -1    0    0    0    0 -0.00000000000E+00 -0.00000000000E+00 -0.45593999997E+02  0.45594000000E+02  0.51100000000E-03 0. -1.
    9900012    2    1    2    0    0  0.36547756657E+00  0.29067069516E+02 -0.32227238293E+02  0.47787274291E+02  0.20000014802E+02 0.  0.
        -12    1    1    2    0    0 -0.36547756657E+00 -0.29067069516E+02  0.32227238293E+02  0.43400725709E+02  0.00000000000E+00 0.  1.
         11    1    3    3    0    0  0.66435735401E+00  0.26661493888E+02 -0.22428793118E+02  0.34847200577E+02  0.51100000000E-03 0. -1.
        -11    1    3    3    0    0 -0.10022417827E+01  0.53761066191E+00  0.12632159425E+01  0.16997731005E+01  0.51100000000E-03 0.  1.
         12    1    3    3    0    0  0.70336199522E+00  0.18679649654E+01 -0.11061661118E+02  0.11240300614E+02  0.00000000000E+00 0. -1.
</event>
<event>
 7    1  0.2732193E-010  0.4778727E+02  0.7816164E-02  0.1312668E+00
        -11   -1    0    0    0    0  0.00000000000E+00  0.00000000000E+00  0.45593999997E+02  0.45594000000E+02  0.51100000000E-03 0.  1.
         11   -1    0    0    0    0 -0.00000000000E+00 -0.00000000000E+00 -0.45593999997E+02  0.45594000000E+02  0.51100000000E-03 0. -1.
    9900012    2    1    2    0    0  0.17532080700E+01 -0.26023302907E+01 -0.43287149659E+02  0.47787272045E+02  0.20000004561E+02 0.  0.
        -12    1    1    2    0    0 -0.17532080700E+01  0.26023302907E+01  0.43287149659E+02  0.43400727955E+02  0.00000000000E+00 0.  1.
         11    1    3    3    0    0  0.18781011565E+01 -0.28624673340E+01 -0.10322579666E+02  0.10875506168E+02  0.51100000000E-03 0. -1.
        -11    1    3    3    0    0 -0.36688849413E+01 -0.56850812651E+01 -0.59033786386E+01  0.89794624179E+01  0.51100000000E-03 0.  1.
        -12    1    3    3    0    0  0.35439918548E+01  0.59452183085E+01 -0.27061191354E+02  0.27932303459E+02  0.00000000000E+00 0.  1.
</event>
<event>
 7    1  0.2732193E-010  0.4778727E+02  0.7816164E-02  0.1312668E+00
        -11   -1    0    0    0    0  0.00000000000E+00  0.00000000000E+00  0.45593999997E+02  0.45594000000E+02  0.51100000000E-03 0.  1.
         11   -1    0    0    0    0 -0.00000000000E+00 -0.00000000000E+00 -0.45593999997E+02  0.45594000000E+02  0.51100000000E-03 0. -1.
    9900012    2    1    2    0    0  0.15800649377E+02 -0.26333100401E+01 -0.40336440404E+02  0.47787271124E+02  0.20000000363E+02 0.  0.
        -12    1    1    2    0    0 -0.15800649377E+02  0.26333100401E+01  0.40336440404E+02  0.43400728876E+02  0.00000000000E+00 0.  1.
         11    1    3    3    0    0  0.41708016101E+01  0.28577962319E+01 -0.18174606139E+02  0.18864752687E+02  0.51100000000E-03 0. -1.
        -11    1    3    3    0    0  0.92128026638E+01 -0.58533969302E+01 -0.57638882209E+01  0.12343435350E+02  0.51100000000E-03 0.  1.
        -12    1    3    3    0    0  0.24170451030E+01  0.36229065821E+00 -0.16397946044E+02  0.16579083087E+02  0.00000000000E+00 0.  1.
</event>
<event>
 7    1  0.2732193E-010  0.4778727E+02  0.7816164E-02  0.1312668E+00
        -11   -1    0    0    0    0  0.00000000000E+00  0.00000000000E+00  0.45593999997E+02  0.45594000000E+02  0.51100000000E-03 0.  1.
         11   -1    0    0    0    0 -0.00000000000E+00 -0.00000000000E+00 -0.45593999997E+02  0.45594000000E+02  0.51100000000E-03 0. -1.
    9900012    2    1    2    0    0 -0.38259672684E+02  0.52436940396E+00 -0.20482816961E+02  0.47787270653E+02  0.19999998214E+02 0.  0.
        -12    1    1    2    0    0  0.38259672684E+02 -0.52436940396E+00  0.20482816961E+02  0.43400729347E+02  0.00000000000E+00 0.  1.
         11    1    3    3    0    0 -0.32025879236E+02 -0.28063948851E+01 -0.16201881150E+02  0.36000468693E+02  0.51100000000E-03 0. -1.
        -11    1    3    3    0    0 -0.59683164940E+01  0.17723819071E+01  0.97182715362E+00  0.63013163447E+01  0.51100000000E-03 0.  1.
         12    1    3    3    0    0 -0.26547695468E+00  0.15583823819E+01 -0.52527629655E+01  0.54854856151E+01  0.00000000000E+00 0. -1.
</event>
<event>
 7    1  0.2732193E-010  0.4778727E+02  0.7816164E-02  0.1312668E+00
        -11   -1    0    0    0    0  0.00000000000E+00  0.00000000000E+00  0.45593999997E+02  0.45594000000E+02  0.51100000000E-03 0.  1.
         11   -1    0    0    0    0 -0.00000000000E+00 -0.00000000000E+00 -0.45593999997E+02  0.45594000000E+02  0.51100000000E-03 0. -1.
    9900012    2    1    2    0    0  0.19965078785E+02 -0.13321645554E+02 -0.36160099257E+02  0.47787269713E+02  0.19999993930E+02 0.  0.
        -12    1    1    2    0    0 -0.19965078785E+02  0.13321645554E+02  0.36160099257E+02  0.43400730287E+02  0.00000000000E+00 0.  1.
         11    1    3    3    0    0  0.14041013843E+02 -0.74445428394E+00 -0.22259731938E+02  0.26328690589E+02  0.51100000000E-03 0. -1.
        -11    1    3    3    0    0  0.21947683854E+01  0.56069137707E+00 -0.48862572431E+00  0.23173559168E+01  0.51100000000E-03 0.  1.
         12    1    3    3    0    0  0.37292965568E+01 -0.13137882648E+02 -0.13411741594E+02  0.19141223207E+02  0.00000000000E+00 0. -1.
</event>
<event>
 7    1  0.2732193E-010  0.4778727E+02  0.7816164E-02  0.1312668E+00
        -11   -1    0    0    0    0  0.00000000000E+00  0.00000000000E+00  0.45593999997E+02  0.45594000000E+02  0.51100000000E-03 0.  1.
         11   -1    0    0    0    0 -0.00000000000E+00 -0.00000000000E+00 -0.45593999997E+02  0.45594000000E+02  0.51100000000E-03 0. -1.
    9900012    2    1    2    0    0  0.17015092302E+02 -0.19135668447E+02 -0.35041922805E+02  0.47787268130E+02  0.19999986714E+02 0.  0.
        -12    1    1    2    0    0 -0.17015092302E+02  0.19135668447E+02  0.35041922805E+02  0.43400731870E+02  0.00000000000E+00 0.  1.
         11    1    3    3    0    0  0.27841321959E+01 -0.54748188668E+01 -0.17402527607E+02  0.18454620047E+02  0.51100000000E-03 0. -1.
        -11    1    3    3    0    0  0.14369338905E+02 -0.15720141582E+02 -0.15367950374E+02  0.26263561276E+02  0.51100000000E-03 0.  1.
        -12    1    3    3    0    0 -0.13837879867E+00  0.20592920024E+01 -0.22714448233E+01  0.30690868069E+01  0.00000000000E+00 0.  1.
</event>
<event>
 7    1  0.2732193E-010  0.4778728E+02  0.7816164E-02  0.1312668E+00
        -11   -1    0    0    0    0  0.00000000000E+00  0.00000000000E+00  0.45593999997E+02  0.45594000000E+02  0.51100000000E-03 0.  1.
         11   -1    0    0    0    0 -0.00000000000E+00 -0.00000000000E+00 -0.45593999997E+02  0.45594000000E+02  0.51100000000E-03 0. -1.
    9900012    2    1    2    0    0 -0.39495133787E+02 -0.15769618248E+01 -0.17924020437E+02  0.47787275236E+02  0.20000019110E+02 0.  0.
        -12    1    1    2    0    0  0.39495133787E+02  0.15769618248E+01  0.17924020437E+02  0.43400724764E+02  0.00000000000E+00 0.  1.
         11    1    3    3    0    0 -0.26468439789E+02 -0.31619212558E+01 -0.39396638993E+01  0.26946187167E+02  0.51100000000E-03 0. -1.
        -11    1    3    3    0    0  0.11615526132E+01  0.28084686672E+00 -0.12872922018E+01  0.17564739992E+01  0.51100000000E-03 0.  1.
         12    1    3    3    0    0 -0.14188246611E+02  0.13041125643E+01 -0.12697064336E+02  0.19084614070E+02  0.00000000000E+00 0. -1.
</event>
<event>
 7    1  0.2732193E-010  0.4778727E+02  0.7816164E-02  0.1312668E+00
        -11   -1    0    0    0    0  0.00000000000E+00  0.00000000000E+00  0.45593999997E+02  0.45594000000E+02  0.51100000000E-03 0. -1.
         11   -1    0    0    0    0 -0.00000000000E+00 -0.00000000000E+00 -0.45593999997E+02  0.45594000000E+02  0.51100000000E-03 0.  1.
    9900012    2    1    2    0    0 -0.38817834022E+01  0.39043609423E+02  0.18551317748E+02  0.47787273400E+02  0.20000010741E+02 0.  0.
        -12    1    1    2    0    0  0.38817834022E+01 -0.39043609423E+02 -0.18551317748E+02  0.43400726600E+02  0.00000000000E+00 0.  1.
         11    1    3    3    0    0 -0.25487986206E+01  0.23479864017E+02  0.18681398091E+02  0.30113037435E+02  0.51100000000E-03 0. -1.
        -11    1    3    3    0    0  0.29903052725E+01  0.44371590678E+01 -0.17459387652E+01  0.56283753116E+01  0.51100000000E-03 0.  1.
        -12    1    3    3    0    0 -0.43232900541E+01  0.11126586339E+02  0.16158584227E+01  0.12045860654E+02  0.00000000000E+00 0.  1.
</event>
<event>
 7    1  0.2732193E-010  0.4778728E+02  0.7816164E-02  0.1312668E+00
        -11   -1    0    0    0    0  0.00000000000E+00  0.00000000000E+00  0.45593999997E+02  0.45594000000E+02  0.51100000000E-03 0.  1.
         11   -1    0    0    0    0 -0.00000000000E+00 -0.00000000000E+00 -0.45593999997E+02  0.45594000000E+02  0.51100000000E-03 0. -1.
    9900012    2    1    2    0    0  0.85862229910E+01 -0.33729340230E+02 -0.25927419870E+02  0.47787277440E+02  0.20000029158E+02 0.  0.
        -12    1    1    2    0    0 -0.85862229910E+01  0.33729340230E+02  0.25927419870E+02  0.43400722560E+02  0.00000000000E+00 0.  1.
         11    1    3    3    0    0  0.97203613288E+01 -0.19877158453E+02 -0.77476822515E+01  0.23443835716E+02  0.51100000000E-03 0. -1.
        -11    1    3    3    0    0  0.24850678074E+00 -0.46016501495E+00  0.87078970538E+00  0.10157669187E+01  0.51100000000E-03 0.  1.
         12    1    3    3    0    0 -0.13826451185E+01 -0.13392016762E+02 -0.19050527324E+02  0.23327674805E+02  0.00000000000E+00 0. -1.
</event>
<event>
 7    1  0.2732193E-010  0.4778729E+02  0.7816164E-02  0.1312668E+00
        -11   -1    0    0    0    0  0.00000000000E+00  0.00000000000E+00  0.45593999997E+02  0.45594000000E+02  0.51100000000E-03 0.  1.
         11   -1    0    0    0    0 -0.00000000000E+00 -0.00000000000E+00 -0.45593999997E+02  0.45594000000E+02  0.51100000000E-03 0. -1.
    9900012    2    1    2    0    0 -0.15716215965E+02  0.25077012843E+02 -0.31745328091E+02  0.47787287183E+02  0.20000073582E+02 0.  0.
        -12    1    1    2    0    0  0.15716215965E+02 -0.25077012843E+02  0.31745328091E+02  0.43400712817E+02  0.00000000000E+00 0.  1.
         11    1    3    3    0    0 -0.14783725209E+02  0.18327432029E+02 -0.11163399123E+02  0.26059063223E+02  0.51100000000E-03 0. -1.
        -11    1    3    3    0    0 -0.38898676715E+00  0.60613039419E+01 -0.18404193348E+02  0.19380532739E+02  0.51100000000E-03 0.  1.
         12    1    3    3    0    0 -0.54350398957E+00  0.68827687161E+00 -0.21777356202E+01  0.23476912212E+01  0.00000000000E+00 0. -1.
</event>
<event>
 7    1  0.2732193E-010  0.4778727E+02  0.7816164E-02  0.1312668E+00
        -11   -1    0    0    0    0  0.00000000000E+00  0.00000000000E+00  0.45593999997E+02  0.45594000000E+02  0.51100000000E-03 0.  1.
         11   -1    0    0    0    0 -0.00000000000E+00 -0.00000000000E+00 -0.45593999997E+02  0.45594000000E+02  0.51100000000E-03 0. -1.
    9900012    2    1    2    0    0  0.27467853970E+01  0.16938747824E+02 -0.39864235350E+02  0.47787271114E+02  0.20000000315E+02 0.  0.
        -12    1    1    2    0    0 -0.27467853970E+01 -0.16938747824E+02  0.39864235350E+02  0.43400728886E+02  0.00000000000E+00 0.  1.
         11    1    3    3    0    0  0.34926856662E+01  0.52970610494E+01 -0.20370353703E+02  0.21335627930E+02  0.51100000000E-03 0. -1.
        -11    1    3    3    0    0 -0.71198195960E+01  0.55602669537E+01 -0.10709050745E+02  0.14010430679E+02  0.51100000000E-03 0.  1.
        -12    1    3    3    0    0  0.63739193268E+01  0.60814198212E+01 -0.87848309013E+01  0.12441212505E+02  0.00000000000E+00 0.  1.
</event>
<event>
 7    1  0.2732193E-010  0.4778727E+02  0.7816164E-02  0.1312668E+00
        -11   -1    0    0    0    0  0.00000000000E+00  0.00000000000E+00  0.45593999997E+02  0.45594000000E+02  0.51100000000E-03 0.  1.
         11   -1    0    0    0    0 -0.00000000000E+00 -0.00000000000E+00 -0.45593999997E+02  0.45594000000E+02  0.51100000000E-03 0. -1.
    9900012    2    1    2    0    0 -0.69018898718E+01  0.42435802632E+01 -0.42637764384E+02  0.47787274097E+02  0.20000013919E+02 0.  0.
        -12    1    1    2    0    0  0.69018898718E+01 -0.42435802632E+01  0.42637764384E+02  0.43400725903E+02  0.00000000000E+00 0.  1.
         11    1    3    3    0    0  0.26397098248E+01 -0.25456267228E+01 -0.17824578453E+02  0.18197908689E+02  0.51100000000E-03 0. -1.
        -11    1    3    3    0    0 -0.92129476980E+01  0.72233645867E+01 -0.25872709668E+02  0.28398107456E+02  0.51100000000E-03 0.  1.
        -12    1    3    3    0    0 -0.32865199856E+00 -0.43415760080E+00  0.10595237375E+01  0.11912579522E+01  0.00000000000E+00 0.  1.
</event>
<event>
 7    1  0.2732193E-010  0.4778727E+02  0.7816164E-02  0.1312668E+00
        -11   -1    0    0    0    0  0.00000000000E+00  0.00000000000E+00  0.45593999997E+02  0.45594000000E+02  0.51100000000E-03 0.  1.
         11   -1    0    0    0    0 -0.00000000000E+00 -0.00000000000E+00 -0.45593999997E+02  0.45594000000E+02  0.51100000000E-03 0. -1.
    9900012    2    1    2    0    0 -0.34286367372E+02  0.62376972885E+00 -0.26602243014E+02  0.47787269481E+02  0.19999992870E+02 0.  0.
        -12    1    1    2    0    0  0.34286367372E+02 -0.62376972885E+00  0.26602243014E+02  0.43400730519E+02  0.00000000000E+00 0.  1.
         11    1    3    3    0    0 -0.11725813403E+02  0.57309343519E+01 -0.10808547744E+02  0.16945884842E+02  0.51100000000E-03 0. -1.
        -11    1    3    3    0    0 -0.82974334143E+01 -0.82061974130E+01 -0.50402667335E+01  0.12711937942E+02  0.51100000000E-03 0.  1.
        -12    1    3    3    0    0 -0.14263120555E+02  0.30990327900E+01 -0.10753428537E+02  0.18129446696E+02  0.00000000000E+00 0.  1.
</event>
<event>
 7    1  0.2732193E-010  0.4778727E+02  0.7816164E-02  0.1312668E+00
        -11   -1    0    0    0    0  0.00000000000E+00  0.00000000000E+00  0.45593999997E+02  0.45594000000E+02  0.51100000000E-03 0.  1.
         11   -1    0    0    0    0 -0.00000000000E+00 -0.00000000000E+00 -0.45593999997E+02  0.45594000000E+02  0.51100000000E-03 0. -1.
    9900012    2    1    2    0    0 -0.36297641771E+02 -0.11861971421E+02 -0.20625191335E+02  0.47787266346E+02  0.19999978577E+02 0.  0.
        -12    1    1    2    0    0  0.36297641771E+02  0.11861971421E+02  0.20625191335E+02  0.43400733654E+02  0.00000000000E+00 0.  1.
         11    1    3    3    0    0 -0.91094191182E+01  0.30129078850E+01 -0.10736955824E+02  0.14399352458E+02  0.51100000000E-03 0. -1.
        -11    1    3    3    0    0 -0.79632458448E+01 -0.42419486392E+01  0.60146667461E+00  0.90426309813E+01  0.51100000000E-03 0.  1.
         12    1    3    3    0    0 -0.19224976808E+02 -0.10632930667E+02 -0.10489702186E+02  0.24345282906E+02  0.00000000000E+00 0. -1.
</event>
<event>
 7    1  0.2732193E-010  0.4778728E+02  0.7816164E-02  0.1312668E+00
        -11   -1    0    0    0    0  0.00000000000E+00  0.00000000000E+00  0.45593999997E+02  0.45594000000E+02  0.51100000000E-03 0. -1.
         11   -1    0    0    0    0 -0.00000000000E+00 -0.00000000000E+00 -0.45593999997E+02  0.45594000000E+02  0.51100000000E-03 0.  1.
    9900012    2    1    2    0    0  0.47411630954E+01 -0.12421767829E+02  0.41313966669E+02  0.47787276672E+02  0.20000025657E+02 0.  0.
        -12    1    1    2    0    0 -0.47411630954E+01  0.12421767829E+02 -0.41313966669E+02  0.43400723328E+02  0.00000000000E+00 0.  1.
         11    1    3    3    0    0  0.47177196360E+01 -0.12101983110E+02  0.27093547213E+02  0.30046217309E+02  0.51100000000E-03 0. -1.
        -11    1    3    3    0    0  0.10839319654E+01  0.19651550317E+01  0.14950769332E+02  0.15118275255E+02  0.51100000000E-03 0.  1.
        -12    1    3    3    0    0 -0.10604885060E+01 -0.22849397505E+01 -0.73034987544E+00  0.26227841077E+01  0.00000000000E+00 0.  1.
</event>
<event>
 7    1  0.2732193E-010  0.4778728E+02  0.7816164E-02  0.1312668E+00
        -11   -1    0    0    0    0  0.00000000000E+00  0.00000000000E+00  0.45593999997E+02  0.45594000000E+02  0.51100000000E-03 0.  1.
         11   -1    0    0    0    0 -0.00000000000E+00 -0.00000000000E+00 -0.45593999997E+02  0.45594000000E+02  0.51100000000E-03 0. -1.
    9900012    2    1    2    0    0  0.14151626256E+02  0.13164466746E+01 -0.41007576168E+02  0.47787275805E+02  0.20000021704E+02 0.  0.
        -12    1    1    2    0    0 -0.14151626256E+02 -0.13164466746E+01  0.41007576168E+02  0.43400724195E+02  0.00000000000E+00 0.  1.
         11    1    3    3    0    0  0.10027352940E+02  0.66758721694E+01 -0.28158348398E+02  0.30626910731E+02  0.51100000000E-03 0. -1.
        -11    1    3    3    0    0 -0.14307609947E+01 -0.48725857147E+01 -0.91618482617E+01  0.10475143550E+02  0.51100000000E-03 0.  1.
        -12    1    3    3    0    0  0.55550343113E+01 -0.48683977999E+00 -0.36873795080E+01  0.66852215227E+01  0.00000000000E+00 0.  1.
</event>
<event>
 7    1  0.2732193E-010  0.4778727E+02  0.7816164E-02  0.1312668E+00
        -11   -1    0    0    0    0  0.00000000000E+00  0.00000000000E+00  0.45593999997E+02  0.45594000000E+02  0.51100000000E-03 0.  1.
         11   -1    0    0    0    0 -0.00000000000E+00 -0.00000000000E+00 -0.45593999997E+02  0.45594000000E+02  0.51100000000E-03 0. -1.
    9900012    2    1    2    0    0  0.63606190453E+01 -0.25939019727E+02 -0.34210129258E+02  0.47787272323E+02  0.20000005829E+02 0.  0.
        -12    1    1    2    0    0 -0.63606190453E+01  0.25939019727E+02  0.34210129258E+02  0.43400727677E+02  0.00000000000E+00 0.  1.
         11    1    3    3    0    0  0.57204864478E+00 -0.26330637983E+02 -0.25457366475E+02  0.36629322193E+02  0.51100000000E-03 0. -1.
        -11    1    3    3    0    0  0.61023731242E+01  0.20324720160E+00 -0.66674003445E+01  0.90407131791E+01  0.51100000000E-03 0.  1.
        -12    1    3    3    0    0 -0.31380272373E+00  0.18837105411E+00 -0.20853624391E+01  0.21172369508E+01  0.00000000000E+00 0.  1.
</event>
<event>
 7    1  0.2732193E-010  0.4778727E+02  0.7816164E-02  0.1312668E+00
        -11   -1    0    0    0    0  0.00000000000E+00  0.00000000000E+00  0.45593999997E+02  0.45594000000E+02  0.51100000000E-03 0.  1.
         11   -1    0    0    0    0 -0.00000000000E+00 -0.00000000000E+00 -0.45593999997E+02  0.45594000000E+02  0.51100000000E-03 0. -1.
    9900012    2    1    2    0    0 -0.10991845611E+02  0.41628156456E+02 -0.54680172382E+01  0.47787270832E+02  0.19999999029E+02 0.  0.
        -12    1    1    2    0    0  0.10991845611E+02 -0.41628156456E+02  0.54680172382E+01  0.43400729168E+02  0.00000000000E+00 0.  1.
         11    1    3    3    0    0 -0.39123203717E+01  0.97431148561E+01 -0.39955411585E+01  0.11233827807E+02  0.51100000000E-03 0. -1.
        -11    1    3    3    0    0 -0.21914283696E+01  0.29061308394E+02  0.30735744242E+01  0.29305440857E+02  0.51100000000E-03 0.  1.
        -12    1    3    3    0    0 -0.48880968699E+01  0.28237332059E+01 -0.45460505040E+01  0.72480021670E+01  0.00000000000E+00 0.  1.
</event>
<event>
 7    1  0.2732193E-010  0.4778727E+02  0.7816164E-02  0.1312668E+00
        -11   -1    0    0    0    0  0.00000000000E+00  0.00000000000E+00  0.45593999997E+02  0.45594000000E+02  0.51100000000E-03 0.  1.
         11   -1    0    0    0    0 -0.00000000000E+00 -0.00000000000E+00 -0.45593999997E+02  0.45594000000E+02  0.51100000000E-03 0. -1.
    9900012    2    1    2    0    0  0.13780648256E+02  0.66127164877E+01 -0.40620054902E+02  0.47787272518E+02  0.20000006720E+02 0.  0.
        -12    1    1    2    0    0 -0.13780648256E+02 -0.66127164877E+01  0.40620054902E+02  0.43400727482E+02  0.00000000000E+00 0.  1.
         11    1    3    3    0    0  0.10455007051E+02 -0.23391587126E+01 -0.24323714502E+02  0.26578598972E+02  0.51100000000E-03 0. -1.
        -11    1    3    3    0    0 -0.16352075419E+01  0.13498147447E+01 -0.98486385777E+01  0.10074303234E+02  0.51100000000E-03 0.  1.
         12    1    3    3    0    0  0.49608487467E+01  0.76020604556E+01 -0.64477018226E+01  0.11134370312E+02  0.00000000000E+00 0. -1.
</event>
<event>
 7    1  0.2732193E-010  0.4778727E+02  0.7816164E-02  0.1312668E+00
        -11   -1    0    0    0    0  0.00000000000E+00  0.00000000000E+00  0.45593999997E+02  0.45594000000E+02  0.51100000000E-03 0.  1.
         11   -1    0    0    0    0 -0.00000000000E+00 -0.00000000000E+00 -0.45593999997E+02  0.45594000000E+02  0.51100000000E-03 0. -1.
    9900012    2    1    2    0    0 -0.35412387695E+02  0.82650154545E+00 -0.25077940197E+02  0.47787269688E+02  0.19999993817E+02 0.  0.
        -12    1    1    2    0    0  0.35412387695E+02 -0.82650154545E+00  0.25077940197E+02  0.43400730312E+02  0.00000000000E+00 0.  1.
         11    1    3    3    0    0 -0.16687114426E+02  0.85287715361E+01 -0.12725481111E+02  0.22652540731E+02  0.51100000000E-03 0. -1.
        -11    1    3    3    0    0 -0.39906957696E+01  0.31772660386E+00  0.45462288945E+00  0.40290551191E+01  0.51100000000E-03 0.  1.
         12    1    3    3    0    0 -0.14734577499E+02 -0.80199965945E+01 -0.12807081975E+02  0.21105673839E+02  0.00000000000E+00 0. -1.
</event>
<event>
 7    1  0.2732193E-010  0.4778727E+02  0.7816164E-02  0.1312668E+00
        -11   -1    0    0    0    0  0.00000000000E+00  0.00000000000E+00  0.45593999997E+02  0.45594000000E+02  0.51100000000E-03 0. -1.
         11   -1    0    0    0    0 -0.00000000000E+00 -0.00000000000E+00 -0.45593999997E+02  0.45594000000E+02  0.51100000000E-03 0.  1.
    9900012    2    1    2    0    0 -0.32271012361E+01 -0.37718332926E+02  0.21225848766E+02  0.47787268705E+02  0.19999989334E+02 0.  0.
        -12    1    1    2    0    0  0.32271012361E+01  0.37718332926E+02 -0.21225848766E+02  0.43400731295E+02  0.00000000000E+00 0.  1.
         11    1    3    3    0    0 -0.12267373907E+01 -0.29194832192E+02  0.98415306945E+01  0.30833404581E+02  0.51100000000E-03 0. -1.
        -11    1    3    3    0    0 -0.28656731179E+01 -0.64457840824E+01  0.12566926376E+02  0.14411379312E+02  0.51100000000E-03 0.  1.
         12    1    3    3    0    0  0.86530927251E+00 -0.20777166514E+01 -0.11826083048E+01  0.25424848127E+01  0.00000000000E+00 0. -1.
</event>
<event>
 7    1  0.2732193E-010  0.4778727E+02  0.7816164E-02  0.1312668E+00
        -11   -1    0    0    0    0  0.00000000000E+00  0.00000000000E+00  0.45593999997E+02  0.45594000000E+02  0.51100000000E-03 0.  1.
         11   -1    0    0    0    0 -0.00000000000E+00 -0.00000000000E+00 -0.45593999997E+02  0.45594000000E+02  0.51100000000E-03 0. -1.
    9900012    2    1    2    0    0 -0.28610052051E+02  0.22247115586E+02 -0.23877895001E+02  0.47787273048E+02  0.20000009136E+02 0.  0.
        -12    1    1    2    0    0  0.28610052051E+02 -0.22247115586E+02  0.23877895001E+02  0.43400726952E+02  0.00000000000E+00 0.  1.
         11    1    3    3    0    0 -0.50248570937E+01  0.39628609293E+01 -0.67882038012E+01  0.93291568035E+01  0.51100000000E-03 0. -1.
        -11    1    3    3    0    0 -0.97485830182E+01  0.94231344298E+01 -0.17357309691E+02  0.22025134127E+02  0.51100000000E-03 0.  1.
        -12    1    3    3    0    0 -0.13836611939E+02  0.88611202271E+01  0.26761849075E+00  0.16432982118E+02  0.00000000000E+00 0.  1.
</event>
<event>
 7    1  0.2732193E-010  0.4778727E+02  0.7816164E-02  0.1312668E+00
        -11   -1    0    0    0    0  0.00000000000E+00  0.00000000000E+00  0.45593999997E+02  0.45594000000E+02  0.51100000000E-03 0.  1.
         11   -1    0    0    0    0 -0.00000000000E+00 -0.00000000000E+00 -0.45593999997E+02  0.45594000000E+02  0.51100000000E-03 0. -1.
    9900012    2    1    2    0    0  0.33522725603E+02  0.18744851990E+02  0.20210907418E+02  0.47787269745E+02  0.19999994078E+02 0.  0.
        -12    1    1    2    0    0 -0.33522725603E+02 -0.18744851990E+02 -0.20210907418E+02  0.43400730255E+02  0.00000000000E+00 0.  1.
         11    1    3    3    0    0  0.10579302982E+02  0.23607406200E+00  0.23392179181E+01  0.10837403899E+02  0.51100000000E-03 0. -1.
        -11    1    3    3    0    0  0.12041317123E+02  0.14613881395E+02  0.16816419270E+02  0.25324904833E+02  0.51100000000E-03 0.  1.
        -12    1    3    3    0    0  0.10902105499E+02  0.38948965328E+01  0.10552702296E+01  0.11624961013E+02  0.00000000000E+00 0.  1.
</event>
<event>
 7    1  0.2732193E-010  0.4778727E+02  0.7816164E-02  0.1312668E+00
        -11   -1    0    0    0    0  0.00000000000E+00  0.00000000000E+00  0.45593999997E+02  0.45594000000E+02  0.51100000000E-03 0.  1.
         11   -1    0    0    0    0 -0.00000000000E+00 -0.00000000000E+00 -0.45593999997E+02  0.45594000000E+02  0.51100000000E-03 0. -1.
    9900012    2    1    2    0    0  0.23675278555E+01  0.21610073211E+02 -0.37563584384E+02  0.47787270465E+02  0.19999997359E+02 0.  0.
        -12    1    1    2    0    0 -0.23675278555E+01 -0.21610073211E+02  0.37563584384E+02  0.43400729535E+02  0.00000000000E+00 0.  1.
         11    1    3    3    0    0  0.10415706234E+02  0.13800668291E+02 -0.28090568519E+02  0.32985230355E+02  0.51100000000E-03 0. -1.
        -11    1    3    3    0    0 -0.59512996518E+01  0.57091096574E+01 -0.79964291111E+01  0.11487157151E+02  0.51100000000E-03 0.  1.
         12    1    3    3    0    0 -0.20968787265E+01  0.21002952632E+01 -0.14765867544E+01  0.33148829586E+01  0.00000000000E+00 0. -1.
</event>
<event>
 7    1  0.2732193E-010  0.4778727E+02  0.7816164E-02  0.1312668E+00
        -11   -1    0    0    0    0  0.00000000000E+00  0.00000000000E+00  0.45593999997E+02  0.45594000000E+02  0.51100000000E-03 0. -1.
         11   -1    0    0    0    0 -0.00000000000E+00 -0.00000000000E+00 -0.45593999997E+02  0.45594000000E+02  0.51100000000E-03 0.  1.
    9900012    2    1    2    0    0 -0.12637543993E+02  0.16810997915E+02  0.37964541300E+02  0.47787267688E+02  0.19999984697E+02 0.  0.
        -12    1    1    2    0    0  0.12637543993E+02 -0.16810997915E+02 -0.37964541300E+02  0.43400732312E+02  0.00000000000E+00 0.  1.
         11    1    3    3    0    0 -0.12591885889E+02  0.13258972768E+02  0.26441466327E+02  0.32148205096E+02  0.51100000000E-03 0. -1.
        -11    1    3    3    0    0  0.11797694697E+01 -0.25846659276E+01  0.79287304705E+01  0.84224177701E+01  0.51100000000E-03 0.  1.
        -12    1    3    3    0    0 -0.12254275737E+01  0.61366910752E+01  0.35943445028E+01  0.72166448226E+01  0.00000000000E+00 0.  1.
</event>
<event>
 7    1  0.2732193E-010  0.4778727E+02  0.7816164E-02  0.1312668E+00
        -11   -1    0    0    0    0  0.00000000000E+00  0.00000000000E+00  0.45593999997E+02  0.45594000000E+02  0.51100000000E-03 0.  1.
         11   -1    0    0    0    0 -0.00000000000E+00 -0.00000000000E+00 -0.45593999997E+02  0.45594000000E+02  0.51100000000E-03 0. -1.
    9900012    2    1    2    0    0  0.87643046961E+01 -0.17031770655E+02 -0.38945203571E+02  0.47787272706E+02  0.20000007575E+02 0.  0.
        -12    1    1    2    0    0 -0.87643046961E+01  0.17031770655E+02  0.38945203571E+02  0.43400727294E+02  0.00000000000E+00 0.  1.
         11    1    3    3    0    0  0.27593806975E+01  0.38933518435E+01 -0.10520848475E+02  0.11552515887E+02  0.51100000000E-03 0. -1.
        -11    1    3    3    0    0  0.25197943221E+00 -0.10184061299E+02 -0.11248658209E+02  0.15175997824E+02  0.51100000000E-03 0.  1.
         12    1    3    3    0    0  0.57529445664E+01 -0.10741061199E+02 -0.17175696887E+02  0.21058758996E+02  0.00000000000E+00 0. -1.
</event>
<event>
 7    1  0.2732193E-010  0.4778726E+02  0.7816164E-02  0.1312668E+00
        -11   -1    0    0    0    0  0.00000000000E+00  0.00000000000E+00  0.45593999997E+02  0.45594000000E+02  0.51100000000E-03 0.  1.
         11   -1    0    0    0    0 -0.00000000000E+00 -0.00000000000E+00 -0.45593999997E+02  0.45594000000E+02  0.51100000000E-03 0. -1.
    9900012    2    1    2    0    0  0.28225351179E+02 -0.31279528988E+02 -0.10418496746E+02  0.47787257410E+02  0.19999937836E+02 0.  0.
        -12    1    1    2    0    0 -0.28225351179E+02  0.31279528988E+02  0.10418496746E+02  0.43400742590E+02  0.00000000000E+00 0.  1.
         11    1    3    3    0    0  0.26061499322E+01 -0.12375195214E+02  0.31123696138E+01  0.13023990131E+02  0.51100000000E-03 0. -1.
        -11    1    3    3    0    0  0.70258448520E+01 -0.44416154426E+01 -0.50568484625E+01  0.97294480963E+01  0.51100000000E-03 0.  1.
         12    1    3    3    0    0  0.18593356395E+02 -0.14462718332E+02 -0.84740178977E+01  0.25033819183E+02  0.00000000000E+00 0. -1.
</event>
<event>
 7    1  0.2732193E-010  0.4778727E+02  0.7816164E-02  0.1312668E+00
        -11   -1    0    0    0    0  0.00000000000E+00  0.00000000000E+00  0.45593999997E+02  0.45594000000E+02  0.51100000000E-03 0. -1.
         11   -1    0    0    0    0 -0.00000000000E+00 -0.00000000000E+00 -0.45593999997E+02  0.45594000000E+02  0.51100000000E-03 0.  1.
    9900012    2    1    2    0    0  0.21493400880E+02 -0.49369740331E+01  0.37380253000E+02  0.47787270647E+02  0.19999998189E+02 0.  0.
        -12    1    1    2    0    0 -0.21493400880E+02  0.49369740331E+01 -0.37380253000E+02  0.43400729353E+02  0.00000000000E+00 0.  1.
         11    1    3    3    0    0  0.10580591880E+02  0.32211023602E+01  0.16269891461E+02  0.19673174460E+02  0.51100000000E-03 0. -1.
        -11    1    3    3    0    0  0.10662027580E+02 -0.88586619242E+01  0.10279105843E+02  0.17257309767E+02  0.51100000000E-03 0.  1.
        -12    1    3    3    0    0  0.25078142036E+00  0.70058553095E+00  0.10831255697E+02  0.10856786420E+02  0.00000000000E+00 0.  1.
</event>
<event>
 7    1  0.2732193E-010  0.4778727E+02  0.7816164E-02  0.1312668E+00
        -11   -1    0    0    0    0  0.00000000000E+00  0.00000000000E+00  0.45593999997E+02  0.45594000000E+02  0.51100000000E-03 0. -1.
         11   -1    0    0    0    0 -0.00000000000E+00 -0.00000000000E+00 -0.45593999997E+02  0.45594000000E+02  0.51100000000E-03 0.  1.
    9900012    2    1    2    0    0  0.68652525144E+01  0.26002390437E+02  0.34064164587E+02  0.47787270633E+02  0.19999998126E+02 0.  0.
        -12    1    1    2    0    0 -0.68652525144E+01 -0.26002390437E+02 -0.34064164587E+02  0.43400729367E+02  0.00000000000E+00 0.  1.
         11    1    3    3    0    0  0.28591668768E+01  0.90611797854E+01  0.21381553361E+02  0.23397663104E+02  0.51100000000E-03 0. -1.
        -11    1    3    3    0    0  0.43269220059E+01  0.10031589422E+02  0.12082360131E+01  0.10991582001E+02  0.51100000000E-03 0.  1.
        -12    1    3    3    0    0 -0.32083636822E+00  0.69096212300E+01  0.11474375214E+02  0.13398025528E+02  0.00000000000E+00 0.  1.
</event>
<event>
 7    1  0.2732193E-010  0.4778727E+02  0.7816164E-02  0.1312668E+00
        -11   -1    0    0    0    0  0.00000000000E+00  0.00000000000E+00  0.45593999997E+02  0.45594000000E+02  0.51100000000E-03 0.  1.
         11   -1    0    0    0    0 -0.00000000000E+00 -0.00000000000E+00 -0.45593999997E+02  0.45594000000E+02  0.51100000000E-03 0. -1.
    9900012    2    1    2    0    0 -0.19539161719E+02  0.27642850190E+02 -0.27160944883E+02  0.47787274957E+02  0.20000017837E+02 0.  0.
        -12    1    1    2    0    0  0.19539161719E+02 -0.27642850190E+02  0.27160944883E+02  0.43400725043E+02  0.00000000000E+00 0.  1.
         11    1    3    3    0    0 -0.16029772658E+01  0.36369750644E+01 -0.27777047378E+01  0.48489965565E+01  0.51100000000E-03 0. -1.
        -11    1    3    3    0    0 -0.50448098317E+01  0.21260895684E+02 -0.12397879034E+02  0.25123359575E+02  0.51100000000E-03 0.  1.
        -12    1    3    3    0    0 -0.12891374622E+02  0.27449794422E+01 -0.11985361111E+02  0.17814918825E+02  0.00000000000E+00 0.  1.
</event>
<event>
 7    1  0.2732193E-010  0.4778727E+02  0.7816164E-02  0.1312668E+00
        -11   -1    0    0    0    0  0.00000000000E+00  0.00000000000E+00  0.45593999997E+02  0.45594000000E+02  0.51100000000E-03 0.  1.
         11   -1    0    0    0    0 -0.00000000000E+00 -0.00000000000E+00 -0.45593999997E+02  0.45594000000E+02  0.51100000000E-03 0. -1.
    9900012    2    1    2    0    0  0.23799691762E+02  0.96378371813E+01 -0.34990138784E+02  0.47787273674E+02  0.20000011988E+02 0.  0.
        -12    1    1    2    0    0 -0.23799691762E+02 -0.96378371813E+01  0.34990138784E+02  0.43400726326E+02  0.00000000000E+00 0.  1.
         11    1    3    3    0    0  0.17217108246E+02  0.12282348882E+02 -0.26675905865E+02  0.34042456791E+02  0.51100000000E-03 0. -1.
        -11    1    3    3    0    0  0.32693117055E+00  0.93291978805E+00  0.13601561300E+01  0.16814423214E+01  0.51100000000E-03 0.  1.
         12    1    3    3    0    0  0.62556523460E+01 -0.35774314887E+01 -0.96743890494E+01  0.12063374561E+02  0.00000000000E+00 0. -1.
</event>
<event>
 7    1  0.2732193E-010  0.4778726E+02  0.7816164E-02  0.1312668E+00
        -11   -1    0    0    0    0  0.00000000000E+00  0.00000000000E+00  0.45593999997E+02  0.45594000000E+02  0.51100000000E-03 0. -1.
         11   -1    0    0    0    0 -0.00000000000E+00 -0.00000000000E+00 -0.45593999997E+02  0.45594000000E+02  0.51100000000E-03 0.  1.
    9900012    2    1    2    0    0 -0.27583002910E+02 -0.12938595637E+02  0.30909466597E+02  0.47787257703E+02  0.19999939172E+02 0.  0.
        -12    1    1    2    0    0  0.27583002910E+02  0.12938595637E+02 -0.30909466597E+02  0.43400742297E+02  0.00000000000E+00 0.  1.
         11    1    3    3    0    0 -0.28459699278E+01 -0.95757140237E+01  0.41876224406E+01  0.10831898534E+02  0.51100000000E-03 0. -1.
        -11    1    3    3    0    0 -0.32830747193E+00  0.70797168762E+00  0.76110190968E+00  0.10900853566E+01  0.51100000000E-03 0.  1.
         12    1    3    3    0    0 -0.24408725510E+02 -0.40708533012E+01  0.25960742247E+02  0.35865273812E+02  0.00000000000E+00 0. -1.
</event>
<event>
 7    1  0.2732193E-010  0.4778725E+02  0.7816164E-02  0.1312668E+00
        -11   -1    0    0    0    0  0.00000000000E+00  0.00000000000E+00  0.45593999997E+02  0.45594000000E+02  0.51100000000E-03 0. -1.
         11   -1    0    0    0    0 -0.00000000000E+00 -0.00000000000E+00 -0.45593999997E+02  0.45594000000E+02  0.51100000000E-03 0.  1.
    9900012    2    1    2    0    0 -0.21354672442E+02  0.37481571319E+02  0.47680876047E+01  0.47787252506E+02  0.19999915476E+02 0.  0.
        -12    1    1    2    0    0  0.21354672442E+02 -0.37481571319E+02 -0.47680876047E+01  0.43400747494E+02  0.00000000000E+00 0.  1.
         11    1    3    3    0    0 -0.14400124843E+02  0.33983781787E+02  0.42709496973E+01  0.37155107746E+02  0.51100000000E-03 0. -1.
        -11    1    3    3    0    0 -0.84240048783E+01  0.26044930591E+01 -0.81233342875E-01  0.88178138675E+01  0.51100000000E-03 0.  1.
        -12    1    3    3    0    0  0.14694572796E+01  0.89329647332E+00  0.57837125032E+00  0.18143308929E+01  0.00000000000E+00 0.  1.
</event>
<event>
 7    1  0.2732193E-010  0.4778727E+02  0.7816164E-02  0.1312668E+00
        -11   -1    0    0    0    0  0.00000000000E+00  0.00000000000E+00  0.45593999997E+02  0.45594000000E+02  0.51100000000E-03 0. -1.
         11   -1    0    0    0    0 -0.00000000000E+00 -0.00000000000E+00 -0.45593999997E+02  0.45594000000E+02  0.51100000000E-03 0.  1.
    9900012    2    1    2    0    0  0.37900880553E+02 -0.47348321122E+01  0.20608936821E+02  0.47787266611E+02  0.19999979787E+02 0.  0.
        -12    1    1    2    0    0 -0.37900880553E+02  0.47348321122E+01 -0.20608936821E+02  0.43400733389E+02  0.00000000000E+00 0.  1.
         11    1    3    3    0    0  0.12359256759E+02 -0.72282460818E+01  0.47329417943E+01  0.15079771462E+02  0.51100000000E-03 0. -1.
        -11    1    3    3    0    0  0.82876486526E+01  0.55033423746E+01  0.10316293673E+02  0.14331706559E+02  0.51100000000E-03 0.  1.
         12    1    3    3    0    0  0.17253975142E+02 -0.30099284051E+01  0.55597013536E+01  0.18375788591E+02  0.00000000000E+00 0. -1.
</event>
<event>
 7    1  0.2732193E-010  0.4778726E+02  0.7816164E-02  0.1312668E+00
        -11   -1    0    0    0    0  0.00000000000E+00  0.00000000000E+00  0.45593999997E+02  0.45594000000E+02  0.51100000000E-03 0.  1.
         11   -1    0    0    0    0 -0.00000000000E+00 -0.00000000000E+00 -0.45593999997E+02  0.45594000000E+02  0.51100000000E-03 0. -1.
    9900012    2    1    2    0    0 -0.34773037383E+01  0.25328979655E+02 -0.35071006751E+02  0.47787258461E+02  0.19999942627E+02 0.  0.
        -12    1    1    2    0    0  0.34773037383E+01 -0.25328979655E+02  0.35071006751E+02  0.43400741539E+02  0.00000000000E+00 0.  1.
         11    1    3    3    0    0  0.18617680221E+01 -0.95415332670E+00 -0.60040438379E+01  0.63580760775E+01  0.51100000000E-03 0. -1.
        -11    1    3    3    0    0 -0.17418871105E+01 -0.99525947336E+00 -0.20202764200E+01  0.28471440426E+01  0.51100000000E-03 0.  1.
         12    1    3    3    0    0 -0.35971846499E+01  0.27278392455E+02 -0.27046686493E+02  0.38582038341E+02  0.00000000000E+00 0. -1.
</event>
<event>
 7    1  0.2732193E-010  0.4778727E+02  0.7816164E-02  0.1312668E+00
        -11   -1    0    0    0    0  0.00000000000E+00  0.00000000000E+00  0.45593999997E+02  0.45594000000E+02  0.51100000000E-03 0. -1.
         11   -1    0    0    0    0 -0.00000000000E+00 -0.00000000000E+00 -0.45593999997E+02  0.45594000000E+02  0.51100000000E-03 0.  1.
    9900012    2    1    2    0    0 -0.30699097445E+02  0.71551183413E+01  0.29832747637E+02  0.47787272656E+02  0.20000007348E+02 0.  0.
        -12    1    1    2    0    0  0.30699097445E+02 -0.71551183413E+01 -0.29832747637E+02  0.43400727344E+02  0.00000000000E+00 0.  1.
         11    1    3    3    0    0 -0.19513165843E+02 -0.47048591026E+01  0.19910155987E+02  0.28272135612E+02  0.51100000000E-03 0. -1.
        -11    1    3    3    0    0 -0.57582659153E+01  0.89533574906E+01  0.61374757674E+01  0.12287751860E+02  0.51100000000E-03 0.  1.
        -12    1    3    3    0    0 -0.54276656871E+01  0.29066199533E+01  0.37851158829E+01  0.72273851849E+01  0.00000000000E+00 0.  1.
</event>
<event>
 7    1  0.2732193E-010  0.4778726E+02  0.7816164E-02  0.1312668E+00
        -11   -1    0    0    0    0  0.00000000000E+00  0.00000000000E+00  0.45593999997E+02  0.45594000000E+02  0.51100000000E-03 0.  1.
         11   -1    0    0    0    0 -0.00000000000E+00 -0.00000000000E+00 -0.45593999997E+02  0.45594000000E+02  0.51100000000E-03 0. -1.
    9900012    2    1    2    0    0  0.36282620215E+01  0.62714368208E+01 -0.42791690585E+02  0.47787262815E+02  0.19999962478E+02 0.  0.
        -12    1    1    2    0    0 -0.36282620215E+01 -0.62714368208E+01  0.42791690585E+02  0.43400737185E+02  0.00000000000E+00 0.  1.
         11    1    3    3    0    0  0.56562958513E+01  0.15166404035E+01 -0.27578608045E+01  0.64729960103E+01  0.51100000000E-03 0. -1.
        -11    1    3    3    0    0 -0.21231516348E+01 -0.17892373609E+01 -0.54488097960E+01  0.61154453355E+01  0.51100000000E-03 0.  1.
         12    1    3    3    0    0  0.95117805013E-01  0.65440337782E+01 -0.34585019984E+02  0.35198821469E+02  0.00000000000E+00 0. -1.
</event>
<event>
 7    1  0.2732193E-010  0.4778726E+02  0.7816164E-02  0.1312668E+00
        -11   -1    0    0    0    0  0.00000000000E+00  0.00000000000E+00  0.45593999997E+02  0.45594000000E+02  0.51100000000E-03 0.  1.
         11   -1    0    0    0    0 -0.00000000000E+00 -0.00000000000E+00 -0.45593999997E+02  0.45594000000E+02  0.51100000000E-03 0. -1.
    9900012    2    1    2    0    0  0.43220050622E+02  0.30534458010E+01 -0.25155751355E+01  0.47787257779E+02  0.19999939519E+02 0.  0.
        -12    1    1    2    0    0 -0.43220050622E+02 -0.30534458010E+01  0.25155751355E+01  0.43400742221E+02  0.00000000000E+00 0.  1.
         11    1    3    3    0    0  0.93146533777E+01  0.73284389085E+01  0.48235510571E+01  0.12795914561E+02  0.51100000000E-03 0. -1.
        -11    1    3    3    0    0  0.34606483345E+01 -0.81628792254E+00 -0.43074176224E+00  0.35816129878E+01  0.51100000000E-03 0.  1.
         12    1    3    3    0    0  0.30444748910E+02 -0.34587051850E+01 -0.69083844304E+01  0.31409730231E+02  0.00000000000E+00 0. -1.
</event>
<event>
 7    1  0.2732193E-010  0.4778727E+02  0.7816164E-02  0.1312668E+00
        -11   -1    0    0    0    0  0.00000000000E+00  0.00000000000E+00  0.45593999997E+02  0.45594000000E+02  0.51100000000E-03 0.  1.
         11   -1    0    0    0    0 -0.00000000000E+00 -0.00000000000E+00 -0.45593999997E+02  0.45594000000E+02  0.51100000000E-03 0. -1.
    9900012    2    1    2    0    0 -0.20908099526E+02 -0.19569353129E+02 -0.32611578160E+02  0.47787271460E+02  0.20000001896E+02 0.  0.
        -12    1    1    2    0    0  0.20908099526E+02  0.19569353129E+02  0.32611578160E+02  0.43400728540E+02  0.00000000000E+00 0.  1.
         11    1    3    3    0    0 -0.14792555835E+02 -0.72029054493E+01 -0.22573934976E+02  0.27933565752E+02  0.51100000000E-03 0. -1.
        -11    1    3    3    0    0 -0.18602282468E+01 -0.95080405370E+00 -0.69897400827E+01  0.72952686149E+01  0.51100000000E-03 0.  1.
         12    1    3    3    0    0 -0.42553154439E+01 -0.11415643626E+02 -0.30479031017E+01  0.12558437094E+02  0.00000000000E+00 0. -1.
</event>
<event>
 7    1  0.2732193E-010  0.4778727E+02  0.7816164E-02  0.1312668E+00
        -11   -1    0    0    0    0  0.00000000000E+00  0.00000000000E+00  0.45593999997E+02  0.45594000000E+02  0.51100000000E-03 0. -1.
         11   -1    0    0    0    0 -0.00000000000E+00 -0.00000000000E+00 -0.45593999997E+02  0.45594000000E+02  0.51100000000E-03 0.  1.
    9900012    2    1    2    0    0  0.13067223675E+02 -0.40416658357E+02  0.89086891506E+01  0.47787270171E+02  0.19999996016E+02 0.  0.
        -12    1    1    2    0    0 -0.13067223675E+02  0.40416658357E+02 -0.89086891506E+01  0.43400729829E+02  0.00000000000E+00 0.  1.
         11    1    3    3    0    0  0.96247229794E+01 -0.15536837778E+02  0.62046482722E+00  0.18286978904E+02  0.51100000000E-03 0. -1.
        -11    1    3    3    0    0 -0.38017685399E+01 -0.20766412088E+01  0.19379612175E+01  0.47456903273E+01  0.51100000000E-03 0.  1.
        -12    1    3    3    0    0  0.72442692354E+01 -0.22803179370E+02  0.63502631059E+01  0.24754600939E+02  0.00000000000E+00 0.  1.
</event>
<event>
 7    1  0.2732193E-010  0.4778727E+02  0.7816164E-02  0.1312668E+00
        -11   -1    0    0    0    0  0.00000000000E+00  0.00000000000E+00  0.45593999997E+02  0.45594000000E+02  0.51100000000E-03 0.  1.
         11   -1    0    0    0    0 -0.00000000000E+00 -0.00000000000E+00 -0.45593999997E+02  0.45594000000E+02  0.51100000000E-03 0. -1.
    9900012    2    1    2    0    0 -0.96690250806E+00  0.37920097289E+02 -0.21089216979E+02  0.47787265540E+02  0.19999974904E+02 0.  0.
        -12    1    1    2    0    0  0.96690250806E+00 -0.37920097289E+02  0.21089216979E+02  0.43400734460E+02  0.00000000000E+00 0.  1.
         11    1    3    3    0    0  0.31503539962E+01  0.15582451950E+02 -0.18010440036E+02  0.24023186501E+02  0.51100000000E-03 0. -1.
        -11    1    3    3    0    0 -0.20209262674E-01  0.15975773889E+02 -0.25570798563E+01  0.16179135250E+02  0.51100000000E-03 0.  1.
         12    1    3    3    0    0 -0.40970472416E+01  0.63618714499E+01 -0.52169708599E+00  0.75849437898E+01  0.00000000000E+00 0. -1.
</event>
<event>
 7    1  0.2732193E-010  0.4778727E+02  0.7816164E-02  0.1312668E+00
        -11   -1    0    0    0    0  0.00000000000E+00  0.00000000000E+00  0.45593999997E+02  0.45594000000E+02  0.51100000000E-03 0.  1.
         11   -1    0    0    0    0 -0.00000000000E+00 -0.00000000000E+00 -0.45593999997E+02  0.45594000000E+02  0.51100000000E-03 0. -1.
    9900012    2    1    2    0    0  0.10319611501E+01 -0.21505357118E+02 -0.37683922543E+02  0.47787270204E+02  0.19999996168E+02 0.  0.
        -12    1    1    2    0    0 -0.10319611501E+01  0.21505357118E+02  0.37683922543E+02  0.43400729796E+02  0.00000000000E+00 0.  1.
         11    1    3    3    0    0  0.30035545184E+01 -0.15562563267E-01 -0.15723101504E+02  0.16007420251E+02  0.51100000000E-03 0. -1.
        -11    1    3    3    0    0  0.16887726627E+01 -0.10611828983E+02 -0.66203846495E+01  0.12621107742E+02  0.51100000000E-03 0.  1.
        -12    1    3    3    0    0 -0.36603660309E+01 -0.10877965572E+02 -0.15340436390E+02  0.19158742210E+02  0.00000000000E+00 0.  1.
</event>
<event>
 7    1  0.2732193E-010  0.4778727E+02  0.7816164E-02  0.1312668E+00
        -11   -1    0    0    0    0  0.00000000000E+00  0.00000000000E+00  0.45593999997E+02  0.45594000000E+02  0.51100000000E-03 0.  1.
         11   -1    0    0    0    0 -0.00000000000E+00 -0.00000000000E+00 -0.45593999997E+02  0.45594000000E+02  0.51100000000E-03 0. -1.
    9900012    2    1    2    0    0  0.11757372483E+02  0.31720271627E+02 -0.27188458585E+02  0.47787265904E+02  0.19999976563E+02 0.  0.
        -12    1    1    2    0    0 -0.11757372483E+02 -0.31720271627E+02  0.27188458585E+02  0.43400734096E+02  0.00000000000E+00 0.  1.
         11    1    3    3    0    0  0.12885043666E+02  0.88433174939E+01 -0.75719105334E+01  0.17365553373E+02  0.51100000000E-03 0.  1.
        -11    1    3    3    0    0  0.35148551701E+00  0.18433045059E+02 -0.16883133611E+02  0.24998817833E+02  0.51100000000E-03 0. -1.
        -12    1    3    3    0    0 -0.14791567000E+01  0.44439090742E+01 -0.27334144403E+01  0.54228946980E+01  0.00000000000E+00 0.  1.
</event>
<event>
 7    1  0.2732193E-010  0.4778726E+02  0.7816164E-02  0.1312668E+00
        -11   -1    0    0    0    0  0.00000000000E+00  0.00000000000E+00  0.45593999997E+02  0.45594000000E+02  0.51100000000E-03 0.  1.
         11   -1    0    0    0    0 -0.00000000000E+00 -0.00000000000E+00 -0.45593999997E+02  0.45594000000E+02  0.51100000000E-03 0. -1.
    9900012    2    1    2    0    0 -0.40659765797E+02 -0.15055125466E+02 -0.19367011909E+01  0.47787260733E+02  0.19999952985E+02 0.  0.
        -12    1    1    2    0    0  0.40659765797E+02  0.15055125466E+02  0.19367011909E+01  0.43400739267E+02  0.00000000000E+00 0.  1.
         11    1    3    3    0    0 -0.11636691220E+02 -0.11481253508E+02 -0.33607916414E+01  0.16689118772E+02  0.51100000000E-03 0. -1.
        -11    1    3    3    0    0 -0.24102777833E+02 -0.72917838077E+00 -0.24227584143E+01  0.24235209076E+02  0.51100000000E-03 0.  1.
        -12    1    3    3    0    0 -0.49202967435E+01 -0.28446935768E+01  0.38468488647E+01  0.68629328846E+01  0.00000000000E+00 0.  1.
</event>
<event>
 7    1  0.2732193E-010  0.4778726E+02  0.7816164E-02  0.1312668E+00
        -11   -1    0    0    0    0  0.00000000000E+00  0.00000000000E+00  0.45593999997E+02  0.45594000000E+02  0.51100000000E-03 0. -1.
         11   -1    0    0    0    0 -0.00000000000E+00 -0.00000000000E+00 -0.45593999997E+02  0.45594000000E+02  0.51100000000E-03 0.  1.
    9900012    2    1    2    0    0 -0.25450951443E+02 -0.16037792489E+02  0.31283581213E+02  0.47787260712E+02  0.19999952888E+02 0.  0.
        -12    1    1    2    0    0  0.25450951443E+02  0.16037792489E+02 -0.31283581213E+02  0.43400739288E+02  0.00000000000E+00 0.  1.
         11    1    3    3    0    0 -0.35628746437E+01 -0.89759170621E+01  0.15795453648E+02  0.18513711649E+02  0.51100000000E-03 0. -1.
        -11    1    3    3    0    0  0.12104521615E+00 -0.16968560334E+01 -0.20759117528E+00  0.17137872387E+01  0.51100000000E-03 0.  1.
         12    1    3    3    0    0 -0.22009122016E+02 -0.53650193931E+01  0.15695718740E+02  0.27559761824E+02  0.00000000000E+00 0. -1.
</event>
<event>
 7    1  0.2732193E-010  0.4778727E+02  0.7816164E-02  0.1312668E+00
        -11   -1    0    0    0    0  0.00000000000E+00  0.00000000000E+00  0.45593999997E+02  0.45594000000E+02  0.51100000000E-03 0.  1.
         11   -1    0    0    0    0 -0.00000000000E+00 -0.00000000000E+00 -0.45593999997E+02  0.45594000000E+02  0.51100000000E-03 0. -1.
    9900012    2    1    2    0    0 -0.71284488594E+00 -0.13071213029E+02 -0.41379450172E+02  0.47787266660E+02  0.19999980012E+02 0.  0.
        -12    1    1    2    0    0  0.71284488594E+00  0.13071213029E+02  0.41379450172E+02  0.43400733340E+02  0.00000000000E+00 0.  1.
         11    1    3    3    0    0  0.18238603935E+00 -0.11267693918E+02 -0.34271438790E+02  0.36076664312E+02  0.51100000000E-03 0. -1.
        -11    1    3    3    0    0 -0.13861548886E+01  0.34759449210E+01 -0.43358434603E+01  0.57274040579E+01  0.51100000000E-03 0.  1.
         12    1    3    3    0    0  0.49092396329E+00 -0.52794640315E+01 -0.27721679219E+01  0.59831982906E+01  0.00000000000E+00 0. -1.
</event>
<event>
 7    1  0.2732193E-010  0.4778727E+02  0.7816164E-02  0.1312668E+00
        -11   -1    0    0    0    0  0.00000000000E+00  0.00000000000E+00  0.45593999997E+02  0.45594000000E+02  0.51100000000E-03 0.  1.
         11   -1    0    0    0    0 -0.00000000000E+00 -0.00000000000E+00 -0.45593999997E+02  0.45594000000E+02  0.51100000000E-03 0. -1.
    9900012    2    1    2    0    0 -0.25287091564E+02 -0.18463475451E+02 -0.30054722522E+02  0.47787271074E+02  0.20000000133E+02 0.  0.
        -12    1    1    2    0    0  0.25287091564E+02  0.18463475451E+02  0.30054722522E+02  0.43400728926E+02  0.00000000000E+00 0.  1.
         11    1    3    3    0    0 -0.11036979343E+02 -0.12032610354E+02 -0.15519919456E+02  0.22527017671E+02  0.51100000000E-03 0. -1.
        -11    1    3    3    0    0 -0.14271943039E+02 -0.17169493163E+00 -0.11360008963E+02  0.18241919887E+02  0.51100000000E-03 0.  1.
        -12    1    3    3    0    0  0.21830818614E-01 -0.62591701654E+01 -0.31747941024E+01  0.70183335156E+01  0.00000000000E+00 0.  1.
</event>
<event>
 7    1  0.2732193E-010  0.4778727E+02  0.7816164E-02  0.1312668E+00
        -11   -1    0    0    0    0  0.00000000000E+00  0.00000000000E+00  0.45593999997E+02  0.45594000000E+02  0.51100000000E-03 0.  1.
         11   -1    0    0    0    0 -0.00000000000E+00 -0.00000000000E+00 -0.45593999997E+02  0.45594000000E+02  0.51100000000E-03 0. -1.
    9900012    2    1    2    0    0 -0.14471731916E+02 -0.17448745569E+02 -0.37009911848E+02  0.47787270495E+02  0.19999997495E+02 0.  0.
        -12    1    1    2    0    0  0.14471731916E+02  0.17448745569E+02  0.37009911848E+02  0.43400729505E+02  0.00000000000E+00 0.  1.
         11    1    3    3    0    0 -0.36973277827E+01  0.15764163049E+01 -0.13125939449E+02  0.13727549227E+02  0.51100000000E-03 0. -1.
        -11    1    3    3    0    0 -0.11658800821E+02 -0.16173178017E+02 -0.15790596854E+02  0.25433094052E+02  0.51100000000E-03 0.  1.
        -12    1    3    3    0    0  0.88439668855E+00 -0.28519838564E+01 -0.80933755454E+01  0.86266272168E+01  0.00000000000E+00 0.  1.
</event>
<event>
 7    1  0.2732193E-010  0.4778727E+02  0.7816164E-02  0.1312668E+00
        -11   -1    0    0    0    0  0.00000000000E+00  0.00000000000E+00  0.45593999997E+02  0.45594000000E+02  0.51100000000E-03 0.  1.
         11   -1    0    0    0    0 -0.00000000000E+00 -0.00000000000E+00 -0.45593999997E+02  0.45594000000E+02  0.51100000000E-03 0. -1.
    9900012    2    1    2    0    0 -0.78863918617E+01  0.28855818409E+01 -0.42580528868E+02  0.47787271920E+02  0.20000003992E+02 0.  0.
        -12    1    1    2    0    0  0.78863918617E+01 -0.28855818409E+01  0.42580528868E+02  0.43400728080E+02  0.00000000000E+00 0.  1.
         11    1    3    3    0    0 -0.73260578132E+01  0.15117088078E+01 -0.11833858202E+02  0.13999878100E+02  0.51100000000E-03 0. -1.
        -11    1    3    3    0    0  0.54993713358E+00 -0.96749384128E+00 -0.31145700880E+02  0.31165576502E+02  0.51100000000E-03 0.  1.
        -12    1    3    3    0    0 -0.11102711821E+01  0.23413668743E+01  0.39903021311E+00  0.26218173180E+01  0.00000000000E+00 0.  1.
</event>
<event>
 7    1  0.2732193E-010  0.4778726E+02  0.7816164E-02  0.1312668E+00
        -11   -1    0    0    0    0  0.00000000000E+00  0.00000000000E+00  0.45593999997E+02  0.45594000000E+02  0.51100000000E-03 0.  1.
         11   -1    0    0    0    0 -0.00000000000E+00 -0.00000000000E+00 -0.45593999997E+02  0.45594000000E+02  0.51100000000E-03 0. -1.
    9900012    2    1    2    0    0  0.23489425810E+02 -0.20923987654E+02  0.29900804344E+02  0.47787257096E+02  0.19999936403E+02 0.  0.
        -12    1    1    2    0    0 -0.23489425810E+02  0.20923987654E+02 -0.29900804344E+02  0.43400742904E+02  0.00000000000E+00 0.  1.
         11    1    3    3    0    0  0.62006518013E+01  0.14745021689E+01  0.12493980856E+01  0.64948622191E+01  0.51100000000E-03 0. -1.
        -11    1    3    3    0    0  0.16902445875E+02 -0.23177488422E+02  0.28446259878E+02  0.40398989436E+02  0.51100000000E-03 0.  1.
        -12    1    3    3    0    0  0.38632813433E+00  0.77899859951E+00  0.20514637981E+00  0.89340544131E+00  0.00000000000E+00 0.  1.
</event>
<event>
 7    1  0.2732193E-010  0.4778727E+02  0.7816164E-02  0.1312668E+00
        -11   -1    0    0    0    0  0.00000000000E+00  0.00000000000E+00  0.45593999997E+02  0.45594000000E+02  0.51100000000E-03 0.  1.
         11   -1    0    0    0    0 -0.00000000000E+00 -0.00000000000E+00 -0.45593999997E+02  0.45594000000E+02  0.51100000000E-03 0. -1.
    9900012    2    1    2    0    0  0.61425473421E+01  0.39107782430E+02  0.17789705415E+02  0.47787272435E+02  0.20000006339E+02 0.  0.
        -12    1    1    2    0    0 -0.61425473421E+01 -0.39107782430E+02 -0.17789705415E+02  0.43400727565E+02  0.00000000000E+00 0.  1.
         11    1    3    3    0    0  0.89843697410E+01  0.12724935624E+02  0.10101943506E+02  0.18565886705E+02  0.51100000000E-03 0. -1.
        -11    1    3    3    0    0 -0.48988624884E+01  0.21269361454E+02  0.30902766474E+01  0.22043919805E+02  0.51100000000E-03 0.  1.
        -12    1    3    3    0    0  0.20570400895E+01  0.51134853516E+01  0.45974852615E+01  0.71774659247E+01  0.00000000000E+00 0.  1.
</event>
<event>
 7    1  0.2732193E-010  0.4778727E+02  0.7816164E-02  0.1312668E+00
        -11   -1    0    0    0    0  0.00000000000E+00  0.00000000000E+00  0.45593999997E+02  0.45594000000E+02  0.51100000000E-03 0.  1.
         11   -1    0    0    0    0 -0.00000000000E+00 -0.00000000000E+00 -0.45593999997E+02  0.45594000000E+02  0.51100000000E-03 0. -1.
    9900012    2    1    2    0    0 -0.38351020259E+02  0.20113630458E+02 -0.28747813011E+01  0.47787271289E+02  0.20000001116E+02 0.  0.
        -12    1    1    2    0    0  0.38351020259E+02 -0.20113630458E+02  0.28747813011E+01  0.43400728711E+02  0.00000000000E+00 0.  1.
         11    1    3    3    0    0 -0.13624780748E+02  0.32121252023E+01 -0.35088053040E+01  0.14431358691E+02  0.51100000000E-03 0. -1.
        -11    1    3    3    0    0 -0.19893117687E+02  0.12630175835E+02  0.67038197855E+01  0.24498952486E+02  0.51100000000E-03 0.  1.
        -12    1    3    3    0    0 -0.48331218237E+01  0.42713294206E+01 -0.60697957826E+01  0.88569601119E+01  0.00000000000E+00 0.  1.
</event>
<event>
 7    1  0.2732193E-010  0.4778734E+02  0.7816164E-02  0.1312667E+00
        -11   -1    0    0    0    0  0.00000000000E+00  0.00000000000E+00  0.45593999997E+02  0.45594000000E+02  0.51100000000E-03 0. -1.
         11   -1    0    0    0    0 -0.00000000000E+00 -0.00000000000E+00 -0.45593999997E+02  0.45594000000E+02  0.51100000000E-03 0.  1.
    9900012    2    1    2    0    0  0.21565778447E+02 -0.30073251308E+02  0.22674531501E+02  0.47787336145E+02  0.20000296816E+02 0.  0.
        -12    1    1    2    0    0 -0.21565778447E+02  0.30073251308E+02 -0.22674531501E+02  0.43400663855E+02  0.00000000000E+00 0.  1.
         11    1    3    3    0    0  0.88138096680E+01 -0.25771787589E+02  0.18440416111E+02  0.32892510136E+02  0.51100000000E-03 0. -1.
        -11    1    3    3    0    0  0.89109683043E+01 -0.32781948145E+01  0.60782238637E+00  0.95142716840E+01  0.51100000000E-03 0.  1.
         12    1    3    3    0    0  0.38410004743E+01 -0.10232689044E+01  0.36262930041E+01  0.53805543251E+01  0.00000000000E+00 0. -1.
</event>
<event>
 7    1  0.2732193E-010  0.4778727E+02  0.7816164E-02  0.1312668E+00
        -11   -1    0    0    0    0  0.00000000000E+00  0.00000000000E+00  0.45593999997E+02  0.45594000000E+02  0.51100000000E-03 0.  1.
         11   -1    0    0    0    0 -0.00000000000E+00 -0.00000000000E+00 -0.45593999997E+02  0.45594000000E+02  0.51100000000E-03 0. -1.
    9900012    2    1    2    0    0  0.17504523389E+02 -0.17508355548E+02 -0.35646496222E+02  0.47787267910E+02  0.19999985708E+02 0.  0.
        -12    1    1    2    0    0 -0.17504523389E+02  0.17508355548E+02  0.35646496222E+02  0.43400732090E+02  0.00000000000E+00 0.  1.
         11    1    3    3    0    0  0.10282389006E+02 -0.12714584040E+02 -0.15244831007E+02  0.22356051612E+02  0.51100000000E-03 0. -1.
        -11    1    3    3    0    0  0.93281716845E+00  0.37520075974E+01 -0.93136366078E+01  0.10084222132E+02  0.51100000000E-03 0.  1.
        -12    1    3    3    0    0  0.62893172137E+01 -0.85457791054E+01 -0.11088028607E+02  0.15346994166E+02  0.00000000000E+00 0.  1.
</event>
<event>
 7    1  0.2732193E-010  0.4778727E+02  0.7816164E-02  0.1312668E+00
        -11   -1    0    0    0    0  0.00000000000E+00  0.00000000000E+00  0.45593999997E+02  0.45594000000E+02  0.51100000000E-03 0. -1.
         11   -1    0    0    0    0 -0.00000000000E+00 -0.00000000000E+00 -0.45593999997E+02  0.45594000000E+02  0.51100000000E-03 0.  1.
    9900012    2    1    2    0    0 -0.22286482285E+02 -0.37222906519E+02 -0.11796251968E+01  0.47787267541E+02  0.19999984028E+02 0.  0.
        -12    1    1    2    0    0  0.22286482285E+02  0.37222906519E+02  0.11796251968E+01  0.43400732459E+02  0.00000000000E+00 0.  1.
         11    1    3    3    0    0 -0.14314630364E+02 -0.30438051875E+02 -0.48457948126E+00  0.33639537184E+02  0.51100000000E-03 0. -1.
        -11    1    3    3    0    0 -0.97674664041E+01 -0.52280671387E+01 -0.22538929837E+01  0.11305579145E+02  0.51100000000E-03 0.  1.
         12    1    3    3    0    0  0.17956144834E+01 -0.15567875054E+01  0.15588472682E+01  0.28421512126E+01  0.00000000000E+00 0. -1.
</event>
<event>
 7    1  0.2732193E-010  0.4778727E+02  0.7816164E-02  0.1312668E+00
        -11   -1    0    0    0    0  0.00000000000E+00  0.00000000000E+00  0.45593999997E+02  0.45594000000E+02  0.51100000000E-03 0.  1.
         11   -1    0    0    0    0 -0.00000000000E+00 -0.00000000000E+00 -0.45593999997E+02  0.45594000000E+02  0.51100000000E-03 0. -1.
    9900012    2    1    2    0    0 -0.31076876142E+02  0.26449270381E+02 -0.14774550000E+02  0.47787268875E+02  0.19999990109E+02 0.  0.
        -12    1    1    2    0    0  0.31076876142E+02 -0.26449270381E+02  0.14774550000E+02  0.43400731125E+02  0.00000000000E+00 0.  1.
         11    1    3    3    0    0 -0.29123466414E+01  0.38837397372E+01  0.63706123970E+00  0.48960233445E+01  0.51100000000E-03 0. -1.
        -11    1    3    3    0    0  0.74431839070E+00  0.15170397334E+01  0.24046673693E+01  0.29390210679E+01  0.51100000000E-03 0.  1.
        -12    1    3    3    0    0 -0.28908847892E+02  0.21048490910E+02 -0.17816278609E+02  0.39952224463E+02  0.00000000000E+00 0.  1.
</event>
<event>
 7    1  0.2732193E-010  0.4778728E+02  0.7816164E-02  0.1312668E+00
        -11   -1    0    0    0    0  0.00000000000E+00  0.00000000000E+00  0.45593999997E+02  0.45594000000E+02  0.51100000000E-03 0.  1.
         11   -1    0    0    0    0 -0.00000000000E+00 -0.00000000000E+00 -0.45593999997E+02  0.45594000000E+02  0.51100000000E-03 0. -1.
    9900012    2    1    2    0    0 -0.13472084734E+02 -0.31488626400E+02 -0.26656933205E+02  0.47787277108E+02  0.20000027647E+02 0.  0.
        -12    1    1    2    0    0  0.13472084734E+02  0.31488626400E+02  0.26656933205E+02  0.43400722892E+02  0.00000000000E+00 0.  1.
         11    1    3    3    0    0 -0.11225699997E+02 -0.28038597051E+02 -0.22210021758E+02  0.37489522960E+02  0.51100000000E-03 0. -1.
        -11    1    3    3    0    0 -0.24845590716E+01  0.23756675487E+01 -0.19779003493E+01  0.39659702640E+01  0.51100000000E-03 0.  1.
         12    1    3    3    0    0  0.23817433441E+00 -0.58256968979E+01 -0.24690110970E+01  0.63317838842E+01  0.00000000000E+00 0. -1.
</event>
<event>
 7    1  0.2732193E-010  0.4778727E+02  0.7816164E-02  0.1312668E+00
        -11   -1    0    0    0    0  0.00000000000E+00  0.00000000000E+00  0.45593999997E+02  0.45594000000E+02  0.51100000000E-03 0. -1.
         11   -1    0    0    0    0 -0.00000000000E+00 -0.00000000000E+00 -0.45593999997E+02  0.45594000000E+02  0.51100000000E-03 0.  1.
    9900012    2    1    2    0    0 -0.40625017929E+02  0.11549224011E+02 -0.99923147424E+01  0.47787274074E+02  0.20000013814E+02 0.  0.
        -12    1    1    2    0    0  0.40625017929E+02 -0.11549224011E+02  0.99923147424E+01  0.43400725926E+02  0.00000000000E+00 0.  1.
         11    1    3    3    0    0 -0.28520030590E+02  0.68029319835E+01 -0.56345042580E+01  0.29856651971E+02  0.51100000000E-03 0. -1.
        -11    1    3    3    0    0 -0.67342047061E+00 -0.30934845138E+01  0.57459308655E+00  0.32176542766E+01  0.51100000000E-03 0.  1.
        -12    1    3    3    0    0 -0.11431566868E+02  0.78397765410E+01 -0.49324035710E+01  0.14712967827E+02  0.00000000000E+00 0.  1.
</event>
<event>
 7    1  0.2732193E-010  0.4778727E+02  0.7816164E-02  0.1312668E+00
        -11   -1    0    0    0    0  0.00000000000E+00  0.00000000000E+00  0.45593999997E+02  0.45594000000E+02  0.51100000000E-03 0.  1.
         11   -1    0    0    0    0 -0.00000000000E+00 -0.00000000000E+00 -0.45593999997E+02  0.45594000000E+02  0.51100000000E-03 0. -1.
    9900012    2    1    2    0    0  0.21372536450E+02  0.15689078560E+02 -0.34361180092E+02  0.47787271922E+02  0.20000004002E+02 0.  0.
        -12    1    1    2    0    0 -0.21372536450E+02 -0.15689078560E+02  0.34361180092E+02  0.43400728078E+02  0.00000000000E+00 0.  1.
         11    1    3    3    0    0  0.25380368741E+01 -0.20074475829E+01 -0.79231820483E+01  0.85585215431E+01  0.51100000000E-03 0. -1.
        -11    1    3    3    0    0 -0.17771847760E+01 -0.43154081428E-01 -0.13903969716E+01  0.22568677415E+01  0.51100000000E-03 0.  1.
        -12    1    3    3    0    0  0.20611684352E+02  0.17739680225E+02 -0.25047601072E+02  0.36971882638E+02  0.00000000000E+00 0.  1.
</event>
<event>
 7    1  0.2732193E-010  0.4778727E+02  0.7816164E-02  0.1312668E+00
        -11   -1    0    0    0    0  0.00000000000E+00  0.00000000000E+00  0.45593999997E+02  0.45594000000E+02  0.51100000000E-03 0. -1.
         11   -1    0    0    0    0 -0.00000000000E+00 -0.00000000000E+00 -0.45593999997E+02  0.45594000000E+02  0.51100000000E-03 0.  1.
    9900012    2    1    2    0    0  0.72938522767E+01  0.38285484777E+02  0.19095671867E+02  0.47787270632E+02  0.19999998119E+02 0.  0.
        -12    1    1    2    0    0 -0.72938522767E+01 -0.38285484777E+02 -0.19095671867E+02  0.43400729368E+02  0.00000000000E+00 0.  1.
         11    1    3    3    0    0  0.52517666611E+00  0.18285439239E+02  0.29403424095E+01  0.18527782178E+02  0.51100000000E-03 0. -1.
        -11    1    3    3    0    0  0.67494102733E+01  0.14414902351E+02  0.17353152200E+02  0.23547310683E+02  0.51100000000E-03 0.  1.
        -12    1    3    3    0    0  0.19265337308E-01  0.55851431866E+01 -0.11978227425E+01  0.57121777712E+01  0.00000000000E+00 0.  1.
</event>
<event>
 7    1  0.2732193E-010  0.4778727E+02  0.7816164E-02  0.1312668E+00
        -11   -1    0    0    0    0  0.00000000000E+00  0.00000000000E+00  0.45593999997E+02  0.45594000000E+02  0.51100000000E-03 0. -1.
         11   -1    0    0    0    0 -0.00000000000E+00 -0.00000000000E+00 -0.45593999997E+02  0.45594000000E+02  0.51100000000E-03 0.  1.
    9900012    2    1    2    0    0  0.36152873782E+02 -0.20667702303E+02  0.12224526161E+02  0.47787271423E+02  0.20000001724E+02 0.  0.
        -12    1    1    2    0    0 -0.36152873782E+02  0.20667702303E+02 -0.12224526161E+02  0.43400728577E+02  0.00000000000E+00 0.  1.
         11    1    3    3    0    0  0.24000303436E+02 -0.27730303731E+01  0.45407382660E+01  0.24582973106E+02  0.51100000000E-03 0. -1.
        -11    1    3    3    0    0  0.58387749668E+01 -0.90418697682E+01  0.20458073985E+01  0.10955913024E+02  0.51100000000E-03 0.  1.
         12    1    3    3    0    0  0.63137953802E+01 -0.88528021612E+01  0.56379804963E+01  0.12248385293E+02  0.00000000000E+00 0. -1.
</event>
<event>
 7    1  0.2732193E-010  0.4778727E+02  0.7816164E-02  0.1312668E+00
        -11   -1    0    0    0    0  0.00000000000E+00  0.00000000000E+00  0.45593999997E+02  0.45594000000E+02  0.51100000000E-03 0. -1.
         11   -1    0    0    0    0 -0.00000000000E+00 -0.00000000000E+00 -0.45593999997E+02  0.45594000000E+02  0.51100000000E-03 0.  1.
    9900012    2    1    2    0    0  0.35291951767E+01 -0.12676572916E+02  0.41357857493E+02  0.47787273095E+02  0.20000009348E+02 0.  0.
        -12    1    1    2    0    0 -0.35291951767E+01  0.12676572916E+02 -0.41357857493E+02  0.43400726905E+02  0.00000000000E+00 0.  1.
         11    1    3    3    0    0 -0.31328609910E+01 -0.50762938635E+01  0.17059082051E+02  0.18071963315E+02  0.51100000000E-03 0. -1.
        -11    1    3    3    0    0  0.10537614381E+02 -0.30570119046E+01  0.13723647180E+02  0.17570575711E+02  0.51100000000E-03 0.  1.
        -12    1    3    3    0    0 -0.38755582135E+01 -0.45432671480E+01  0.10575128262E+02  0.12144734069E+02  0.00000000000E+00 0.  1.
</event>
<event>
 7    1  0.2732193E-010  0.4778727E+02  0.7816164E-02  0.1312668E+00
        -11   -1    0    0    0    0  0.00000000000E+00  0.00000000000E+00  0.45593999997E+02  0.45594000000E+02  0.51100000000E-03 0.  1.
         11   -1    0    0    0    0 -0.00000000000E+00 -0.00000000000E+00 -0.45593999997E+02  0.45594000000E+02  0.51100000000E-03 0. -1.
    9900012    2    1    2    0    0 -0.16447819024E+02  0.39878047001E+02 -0.47784582701E+01  0.47787273662E+02  0.20000011932E+02 0.  0.
        -12    1    1    2    0    0  0.16447819024E+02 -0.39878047001E+02  0.47784582701E+01  0.43400726338E+02  0.00000000000E+00 0.  1.
         11    1    3    3    0    0  0.17649177867E+01 -0.69092801095E+00 -0.74329778418E-01  0.18967976927E+01  0.51100000000E-03 0. -1.
        -11    1    3    3    0    0 -0.41440825316E+01  0.20921440759E+01 -0.10508949026E+01  0.47597129347E+01  0.51100000000E-03 0.  1.
         12    1    3    3    0    0 -0.14068654279E+02  0.38476830936E+02 -0.36532335891E+01  0.41130763034E+02  0.00000000000E+00 0. -1.
</event>
<event>
 7    1  0.2732193E-010  0.4778727E+02  0.7816164E-02  0.1312668E+00
        -11   -1    0    0    0    0  0.00000000000E+00  0.00000000000E+00  0.45593999997E+02  0.45594000000E+02  0.51100000000E-03 0.  1.
         11   -1    0    0    0    0 -0.00000000000E+00 -0.00000000000E+00 -0.45593999997E+02  0.45594000000E+02  0.51100000000E-03 0. -1.
    9900012    2    1    2    0    0  0.21888324868E+02 -0.28114885205E+02 -0.24780592890E+02  0.47787270518E+02  0.19999997600E+02 0.  0.
        -12    1    1    2    0    0 -0.21888324868E+02  0.28114885205E+02  0.24780592890E+02  0.43400729482E+02  0.00000000000E+00 0.  1.
         11    1    3    3    0    0  0.19575751493E+02 -0.11094729800E+02 -0.97271771786E+01  0.24513691113E+02  0.51100000000E-03 0. -1.
        -11    1    3    3    0    0 -0.54822891768E-02  0.28750626152E+00 -0.24204626447E+00  0.37586774425E+00  0.51100000000E-03 0.  1.
         12    1    3    3    0    0  0.23180556638E+01 -0.17307661666E+02 -0.14811369447E+02  0.22897711661E+02  0.00000000000E+00 0. -1.
</event>
<event>
 7    1  0.2732193E-010  0.4778727E+02  0.7816164E-02  0.1312668E+00
        -11   -1    0    0    0    0  0.00000000000E+00  0.00000000000E+00  0.45593999997E+02  0.45594000000E+02  0.51100000000E-03 0.  1.
         11   -1    0    0    0    0 -0.00000000000E+00 -0.00000000000E+00 -0.45593999997E+02  0.45594000000E+02  0.51100000000E-03 0. -1.
    9900012    2    1    2    0    0  0.28871844358E+02  0.19235181751E+02 -0.26077720693E+02  0.47787272700E+02  0.20000007547E+02 0.  0.
        -12    1    1    2    0    0 -0.28871844358E+02 -0.19235181751E+02  0.26077720693E+02  0.43400727300E+02  0.00000000000E+00 0.  1.
         11    1    3    3    0    0  0.19701323194E+02  0.17284475252E+02 -0.27103291348E+02  0.37702567851E+02  0.51100000000E-03 0. -1.
        -11    1    3    3    0    0  0.80269728513E+01  0.62126112328E+00 -0.44337820049E-02  0.80509799688E+01  0.51100000000E-03 0.  1.
         12    1    3    3    0    0  0.11435483122E+01  0.13294453757E+01  0.10300044369E+01  0.20337248805E+01  0.00000000000E+00 0. -1.
</event>
<event>
 7    1  0.2732193E-010  0.4778727E+02  0.7816164E-02  0.1312668E+00
        -11   -1    0    0    0    0  0.00000000000E+00  0.00000000000E+00  0.45593999997E+02  0.45594000000E+02  0.51100000000E-03 0.  1.
         11   -1    0    0    0    0 -0.00000000000E+00 -0.00000000000E+00 -0.45593999997E+02  0.45594000000E+02  0.51100000000E-03 0. -1.
    9900012    2    1    2    0    0  0.11334640324E+02 -0.39863203202E+02 -0.12886981858E+02  0.47787270257E+02  0.19999996411E+02 0.  0.
        -12    1    1    2    0    0 -0.11334640324E+02  0.39863203202E+02  0.12886981858E+02  0.43400729743E+02  0.00000000000E+00 0.  1.
         11    1    3    3    0    0 -0.15243772829E+01 -0.12826809836E+02  0.32135681683E+00  0.12921069891E+02  0.51100000000E-03 0. -1.
        -11    1    3    3    0    0  0.25807145502E+01 -0.18414853196E+02 -0.54873759183E+01  0.19387578512E+02  0.51100000000E-03 0.  1.
         12    1    3    3    0    0  0.10278303056E+02 -0.86215401699E+01 -0.77209627568E+01  0.15478621854E+02  0.00000000000E+00 0. -1.
</event>
<event>
 7    1  0.2732193E-010  0.4778727E+02  0.7816164E-02  0.1312668E+00
        -11   -1    0    0    0    0  0.00000000000E+00  0.00000000000E+00  0.45593999997E+02  0.45594000000E+02  0.51100000000E-03 0. -1.
         11   -1    0    0    0    0 -0.00000000000E+00 -0.00000000000E+00 -0.45593999997E+02  0.45594000000E+02  0.51100000000E-03 0.  1.
    9900012    2    1    2    0    0  0.80347765309E+01  0.13442149987E+02  0.40476831898E+02  0.47787274768E+02  0.20000016977E+02 0.  0.
        -12    1    1    2    0    0 -0.80347765309E+01 -0.13442149987E+02 -0.40476831898E+02  0.43400725232E+02  0.00000000000E+00 0.  1.
         11    1    3    3    0    0  0.11524674385E+01 -0.29224585934E+01  0.76180980340E+01  0.82404103868E+01  0.51100000000E-03 0. -1.
        -11    1    3    3    0    0  0.92351442876E+01  0.16931550297E+02  0.26762722423E+02  0.32988006870E+02  0.51100000000E-03 0.  1.
        -12    1    3    3    0    0 -0.23528351951E+01 -0.56694171669E+00  0.60960114407E+01  0.65588575111E+01  0.00000000000E+00 0.  1.
</event>
<event>
 7    1  0.2732193E-010  0.4778727E+02  0.7816164E-02  0.1312668E+00
        -11   -1    0    0    0    0  0.00000000000E+00  0.00000000000E+00  0.45593999997E+02  0.45594000000E+02  0.51100000000E-03 0. -1.
         11   -1    0    0    0    0 -0.00000000000E+00 -0.00000000000E+00 -0.45593999997E+02  0.45594000000E+02  0.51100000000E-03 0.  1.
    9900012    2    1    2    0    0  0.40083517095E+02  0.13265746667E+00  0.16640824598E+02  0.47787274383E+02  0.20000015224E+02 0.  0.
        -12    1    1    2    0    0 -0.40083517095E+02 -0.13265746667E+00 -0.16640824598E+02  0.43400725617E+02  0.00000000000E+00 0.  1.
         11    1    3    3    0    0  0.24512279260E+02 -0.73855207188E+00  0.39116318374E+01  0.24833408094E+02  0.51100000000E-03 0. -1.
        -11    1    3    3    0    0  0.32042386363E+01 -0.44049941403E+01  0.52638518555E+01  0.75749095858E+01  0.51100000000E-03 0.  1.
        -12    1    3    3    0    0  0.12366999199E+02  0.52762036789E+01  0.74653409055E+01  0.15378956704E+02  0.00000000000E+00 0.  1.
</event>
<event>
 7    1  0.2732193E-010  0.4778727E+02  0.7816164E-02  0.1312668E+00
        -11   -1    0    0    0    0  0.00000000000E+00  0.00000000000E+00  0.45593999997E+02  0.45594000000E+02  0.51100000000E-03 0.  1.
         11   -1    0    0    0    0 -0.00000000000E+00 -0.00000000000E+00 -0.45593999997E+02  0.45594000000E+02  0.51100000000E-03 0. -1.
    9900012    2    1    2    0    0  0.34800573077E+01 -0.33710603321E+02 -0.27112864824E+02  0.47787274038E+02  0.20000013648E+02 0.  0.
        -12    1    1    2    0    0 -0.34800573077E+01  0.33710603321E+02  0.27112864824E+02  0.43400725962E+02  0.00000000000E+00 0.  1.
         11    1    3    3    0    0  0.49160476290E+01 -0.23253466909E+01 -0.32413863474E+01  0.63309831178E+01  0.51100000000E-03 0. -1.
        -11    1    3    3    0    0  0.31550300367E+01 -0.27859853977E+02 -0.20739908388E+02  0.34875055245E+02  0.51100000000E-03 0.  1.
         12    1    3    3    0    0 -0.45910203580E+01 -0.35254026530E+01 -0.31315700888E+01  0.65812356754E+01  0.00000000000E+00 0. -1.
</event>
<event>
 7    1  0.2732193E-010  0.4778726E+02  0.7816164E-02  0.1312668E+00
        -11   -1    0    0    0    0  0.00000000000E+00  0.00000000000E+00  0.45593999997E+02  0.45594000000E+02  0.51100000000E-03 0. -1.
         11   -1    0    0    0    0 -0.00000000000E+00 -0.00000000000E+00 -0.45593999997E+02  0.45594000000E+02  0.51100000000E-03 0.  1.
    9900012    2    1    2    0    0  0.17776985231E+01  0.20586647649E+02  0.38166132050E+02  0.47787263726E+02  0.19999966634E+02 0.  0.
        -12    1    1    2    0    0 -0.17776985231E+01 -0.20586647649E+02 -0.38166132050E+02  0.43400736274E+02  0.00000000000E+00 0.  1.
         11    1    3    3    0    0 -0.59358562243E+01  0.16842823014E+02  0.26270204127E+02  0.31765369529E+02  0.51100000000E-03 0. -1.
        -11    1    3    3    0    0  0.62473200819E+01  0.41988569781E+01  0.51914247317E+01  0.91438667496E+01  0.51100000000E-03 0.  1.
        -12    1    3    3    0    0  0.14662346655E+01 -0.45503234387E+00  0.67045031911E+01  0.68780274474E+01  0.00000000000E+00 0.  1.
</event>
<event>
 7    1  0.2732193E-010  0.4778728E+02  0.7816164E-02  0.1312668E+00
        -11   -1    0    0    0    0  0.00000000000E+00  0.00000000000E+00  0.45593999997E+02  0.45594000000E+02  0.51100000000E-03 0.  1.
         11   -1    0    0    0    0 -0.00000000000E+00 -0.00000000000E+00 -0.45593999997E+02  0.45594000000E+02  0.51100000000E-03 0. -1.
    9900012    2    1    2    0    0  0.50303222478E+01  0.36439574169E+02  0.23032069271E+02  0.47787275093E+02  0.20000018459E+02 0.  0.
        -12    1    1    2    0    0 -0.50303222478E+01 -0.36439574169E+02 -0.23032069271E+02  0.43400724907E+02  0.00000000000E+00 0.  1.
         11    1    3    3    0    0 -0.25620103923E+00 -0.37592120246E+00 -0.98264013631E-01  0.46541572864E+00  0.51100000000E-03 0. -1.
        -11    1    3    3    0    0  0.27306506170E+01  0.97932259631E+00 -0.19597739375E+01  0.35008912704E+01  0.51100000000E-03 0.  1.
        -12    1    3    3    0    0  0.25558726700E+01  0.35836172776E+02  0.25090107222E+02  0.43820968094E+02  0.00000000000E+00 0.  1.
</event>
<event>
 7    1  0.2732193E-010  0.4778727E+02  0.7816164E-02  0.1312668E+00
        -11   -1    0    0    0    0  0.00000000000E+00  0.00000000000E+00  0.45593999997E+02  0.45594000000E+02  0.51100000000E-03 0.  1.
         11   -1    0    0    0    0 -0.00000000000E+00 -0.00000000000E+00 -0.45593999997E+02  0.45594000000E+02  0.51100000000E-03 0. -1.
    9900012    2    1    2    0    0 -0.35005895611E+02 -0.12605731170E+02 -0.22345164185E+02  0.47787267883E+02  0.19999985585E+02 0.  0.
        -12    1    1    2    0    0  0.35005895611E+02  0.12605731170E+02  0.22345164185E+02  0.43400732117E+02  0.00000000000E+00 0.  1.
         11    1    3    3    0    0 -0.75067716667E+01 -0.87570902590E+01 -0.10920311724E+02  0.15883685311E+02  0.51100000000E-03 0. -1.
        -11    1    3    3    0    0 -0.28283715277E+02 -0.39962629009E+01 -0.99892596556E+01  0.30260931508E+02  0.51100000000E-03 0.  1.
        -12    1    3    3    0    0  0.78459133262E+00  0.14762199004E+00 -0.14355928060E+01  0.16426510633E+01  0.00000000000E+00 0.  1.
</event>
<event>
 7    1  0.2732193E-010  0.4778727E+02  0.7816164E-02  0.1312668E+00
        -11   -1    0    0    0    0  0.00000000000E+00  0.00000000000E+00  0.45593999997E+02  0.45594000000E+02  0.51100000000E-03 0. -1.
         11   -1    0    0    0    0 -0.00000000000E+00 -0.00000000000E+00 -0.45593999997E+02  0.45594000000E+02  0.51100000000E-03 0.  1.
    9900012    2    1    2    0    0 -0.75859415747E+00  0.68047843628E+01  0.42857237788E+02  0.47787269752E+02  0.19999994105E+02 0.  0.
        -12    1    1    2    0    0  0.75859415747E+00 -0.68047843628E+01 -0.42857237788E+02  0.43400730248E+02  0.00000000000E+00 0.  1.
         11    1    3    3    0    0  0.80133014920E+00  0.12945655787E+01  0.35064397100E+01  0.38227149706E+01  0.51100000000E-03 0. -1.
        -11    1    3    3    0    0 -0.95922052557E+01 -0.44981112485E+00  0.19529665595E+02  0.21762825419E+02  0.51100000000E-03 0.  1.
        -12    1    3    3    0    0  0.80322809490E+01  0.59600299090E+01  0.19821132483E+02  0.22201729362E+02  0.00000000000E+00 0.  1.
</event>
<event>
 7    1  0.2732193E-010  0.4778727E+02  0.7816164E-02  0.1312668E+00
        -11   -1    0    0    0    0  0.00000000000E+00  0.00000000000E+00  0.45593999997E+02  0.45594000000E+02  0.51100000000E-03 0.  1.
         11   -1    0    0    0    0 -0.00000000000E+00 -0.00000000000E+00 -0.45593999997E+02  0.45594000000E+02  0.51100000000E-03 0. -1.
    9900012    2    1    2    0    0 -0.39545727595E+02 -0.89883924675E+01 -0.15458578309E+02  0.47787269436E+02  0.19999992664E+02 0.  0.
        -12    1    1    2    0    0  0.39545727595E+02  0.89883924675E+01  0.15458578309E+02  0.43400730564E+02  0.00000000000E+00 0.  1.
         11    1    3    3    0    0 -0.12933236333E+02 -0.41685019280E+00 -0.49731369904E+01  0.13862700239E+02  0.51100000000E-03 0. -1.
        -11    1    3    3    0    0 -0.24881498664E+02 -0.46567543917E+01 -0.13500729749E+02  0.28688744156E+02  0.51100000000E-03 0.  1.
        -12    1    3    3    0    0 -0.17309925987E+01 -0.39147878830E+01  0.30152884300E+01  0.52358250411E+01  0.00000000000E+00 0.  1.
</event>
<event>
 7    1  0.2732193E-010  0.4778727E+02  0.7816164E-02  0.1312668E+00
        -11   -1    0    0    0    0  0.00000000000E+00  0.00000000000E+00  0.45593999997E+02  0.45594000000E+02  0.51100000000E-03 0.  1.
         11   -1    0    0    0    0 -0.00000000000E+00 -0.00000000000E+00 -0.45593999997E+02  0.45594000000E+02  0.51100000000E-03 0. -1.
    9900012    2    1    2    0    0  0.14401151730E+02  0.24641628162E+02 -0.32695875142E+02  0.47787271193E+02  0.20000000679E+02 0.  0.
        -12    1    1    2    0    0 -0.14401151730E+02 -0.24641628162E+02  0.32695875142E+02  0.43400728807E+02  0.00000000000E+00 0.  1.
         11    1    3    3    0    0  0.87781920421E+01  0.90847348919E+01 -0.24253613246E+02  0.27346422423E+02  0.51100000000E-03 0. -1.
        -11    1    3    3    0    0  0.17651648887E+01  0.13705716925E+02 -0.42678331599E+01  0.14462948650E+02  0.51100000000E-03 0.  1.
        -12    1    3    3    0    0  0.38577947994E+01  0.18511763455E+01 -0.41744287358E+01  0.59779001201E+01  0.00000000000E+00 0.  1.
</event>
<event>
 7    1  0.2732193E-010  0.4778726E+02  0.7816164E-02  0.1312668E+00
        -11   -1    0    0    0    0  0.00000000000E+00  0.00000000000E+00  0.45593999997E+02  0.45594000000E+02  0.51100000000E-03 0.  1.
         11   -1    0    0    0    0 -0.00000000000E+00 -0.00000000000E+00 -0.45593999997E+02  0.45594000000E+02  0.51100000000E-03 0. -1.
    9900012    2    1    2    0    0 -0.40606555581E+01  0.21919237422E+02 -0.37238182197E+02  0.47787261457E+02  0.19999956289E+02 0.  0.
        -12    1    1    2    0    0  0.40606555581E+01 -0.21919237422E+02  0.37238182197E+02  0.43400738543E+02  0.00000000000E+00 0.  1.
         11    1    3    3    0    0 -0.55064552813E+01  0.17586482686E+02 -0.32106336501E+02  0.37019214832E+02  0.51100000000E-03 0. -1.
        -11    1    3    3    0    0  0.25922746636E+01  0.54465817059E+01 -0.71910547354E+00  0.60747224755E+01  0.51100000000E-03 0.  1.
        -12    1    3    3    0    0 -0.11464749405E+01 -0.11138269695E+01 -0.44127402220E+01  0.46933241497E+01  0.00000000000E+00 0.  1.
</event>
<event>
 7    1  0.2732193E-010  0.4778727E+02  0.7816164E-02  0.1312668E+00
        -11   -1    0    0    0    0  0.00000000000E+00  0.00000000000E+00  0.45593999997E+02  0.45594000000E+02  0.51100000000E-03 0. -1.
         11   -1    0    0    0    0 -0.00000000000E+00 -0.00000000000E+00 -0.45593999997E+02  0.45594000000E+02  0.51100000000E-03 0.  1.
    9900012    2    1    2    0    0 -0.82438692130E+01 -0.41731298588E+02 -0.86116399987E+01  0.47787274143E+02  0.20000014128E+02 0.  0.
        -12    1    1    2    0    0  0.82438692130E+01  0.41731298588E+02  0.86116399987E+01  0.43400725857E+02  0.00000000000E+00 0.  1.
         11    1    3    3    0    0 -0.76845813893E+01 -0.16665733392E+02 -0.11051664989E+02  0.21422856016E+02  0.51100000000E-03 0. -1.
        -11    1    3    3    0    0  0.35839625777E+01 -0.13398651707E+02  0.13915256035E+01  0.13939332806E+02  0.51100000000E-03 0.  1.
         12    1    3    3    0    0 -0.41432504013E+01 -0.11666913490E+02  0.10484993864E+01  0.12425085321E+02  0.00000000000E+00 0. -1.
</event>
<event>
 7    1  0.2732193E-010  0.4778726E+02  0.7816164E-02  0.1312668E+00
        -11   -1    0    0    0    0  0.00000000000E+00  0.00000000000E+00  0.45593999997E+02  0.45594000000E+02  0.51100000000E-03 0.  1.
         11   -1    0    0    0    0 -0.00000000000E+00 -0.00000000000E+00 -0.45593999997E+02  0.45594000000E+02  0.51100000000E-03 0. -1.
    9900012    2    1    2    0    0  0.30653801796E+02  0.30537520179E+02 -0.33805609297E+01  0.47787263884E+02  0.19999967353E+02 0.  0.
        -12    1    1    2    0    0 -0.30653801796E+02 -0.30537520179E+02  0.33805609297E+01  0.43400736116E+02  0.00000000000E+00 0.  1.
         11    1    3    3    0    0  0.11390388343E+02  0.22194276757E+02 -0.76717666441E+01  0.26099480283E+02  0.51100000000E-03 0. -1.
        -11    1    3    3    0    0  0.11851306393E+02  0.34169578653E+01  0.30114872693E+01  0.12696382166E+02  0.51100000000E-03 0.  1.
        -12    1    3    3    0    0  0.74121070599E+01  0.49262855567E+01  0.12797184451E+01  0.89914014343E+01  0.00000000000E+00 0.  1.
</event>
<event>
 7    1  0.2732193E-010  0.4778727E+02  0.7816164E-02  0.1312668E+00
        -11   -1    0    0    0    0  0.00000000000E+00  0.00000000000E+00  0.45593999997E+02  0.45594000000E+02  0.51100000000E-03 0.  1.
         11   -1    0    0    0    0 -0.00000000000E+00 -0.00000000000E+00 -0.45593999997E+02  0.45594000000E+02  0.51100000000E-03 0. -1.
    9900012    2    1    2    0    0 -0.21314042467E+01 -0.32146734516E+02 -0.29080368951E+02  0.47787270946E+02  0.19999999553E+02 0.  0.
        -12    1    1    2    0    0  0.21314042467E+01  0.32146734516E+02  0.29080368951E+02  0.43400729054E+02  0.00000000000E+00 0.  1.
         11    1    3    3    0    0  0.53160949929E+01 -0.14005401225E+02 -0.22575876495E+02  0.27093953740E+02  0.51100000000E-03 0. -1.
        -11    1    3    3    0    0 -0.28554331589E+01 -0.66235553984E+01 -0.18239829693E+01  0.74398856695E+01  0.51100000000E-03 0.  1.
         12    1    3    3    0    0 -0.45920660806E+01 -0.11517777892E+02 -0.46805094859E+01  0.13253431537E+02  0.00000000000E+00 0. -1.
</event>
<event>
 7    1  0.4440805E-010  0.4778727E+02  0.7816164E-02  0.1312668E+00
        -11   -1    0    0    0    0  0.00000000000E+00  0.00000000000E+00  0.45593999997E+02  0.45594000000E+02  0.51100000000E-03 0. -1.
         11   -1    0    0    0    0 -0.00000000000E+00 -0.00000000000E+00 -0.45593999997E+02  0.45594000000E+02  0.51100000000E-03 0.  1.
    9900012    2    1    2    0    0  0.12489977451E+01  0.40387190017E+01  0.43194351621E+02  0.47787271221E+02  0.20000000806E+02 0.  0.
        -12    1    1    2    0    0 -0.12489977451E+01 -0.40387190017E+01 -0.43194351621E+02  0.43400728779E+02  0.00000000000E+00 0.  1.
         11    1    3    3    0    0  0.21123967150E+01  0.31395307881E+01  0.31302703379E+02  0.31530590108E+02  0.51100000000E-03 0. -1.
        -11    1    3    3    0    0 -0.41668242525E+01 -0.35684633770E+01  0.66175270322E+01  0.85958140689E+01  0.51100000000E-03 0.  1.
        -12    1    3    3    0    0  0.33034252826E+01  0.44676515906E+01  0.52741212097E+01  0.76608670441E+01  0.00000000000E+00 0.  1.
</event>
<event>
 7    1  0.2732193E-010  0.4778727E+02  0.7816164E-02  0.1312668E+00
        -11   -1    0    0    0    0  0.00000000000E+00  0.00000000000E+00  0.45593999997E+02  0.45594000000E+02  0.51100000000E-03 0. -1.
         11   -1    0    0    0    0 -0.00000000000E+00 -0.00000000000E+00 -0.45593999997E+02  0.45594000000E+02  0.51100000000E-03 0.  1.
    9900012    2    1    2    0    0 -0.14887891537E+02 -0.25267302695E+02  0.31992765856E+02  0.47787274580E+02  0.20000016119E+02 0.  0.
        -12    1    1    2    0    0  0.14887891537E+02  0.25267302695E+02 -0.31992765856E+02  0.43400725420E+02  0.00000000000E+00 0.  1.
         11    1    3    3    0    0 -0.56377256905E+01 -0.11674859607E+02  0.88254200564E+01  0.15683569021E+02  0.51100000000E-03 0. -1.
        -11    1    3    3    0    0  0.16139754562E+01  0.19064057285E+01  0.62010308404E+01  0.66852137826E+01  0.51100000000E-03 0.  1.
        -12    1    3    3    0    0 -0.10864141303E+02 -0.15498848817E+02  0.16966314959E+02  0.25418491776E+02  0.00000000000E+00 0.  1.
</event>
<event>
 7    1  0.2732193E-010  0.4778727E+02  0.7816164E-02  0.1312668E+00
        -11   -1    0    0    0    0  0.00000000000E+00  0.00000000000E+00  0.45593999997E+02  0.45594000000E+02  0.51100000000E-03 0.  1.
         11   -1    0    0    0    0 -0.00000000000E+00 -0.00000000000E+00 -0.45593999997E+02  0.45594000000E+02  0.51100000000E-03 0. -1.
    9900012    2    1    2    0    0  0.31052855117E+02  0.30279287162E+02  0.15837544005E+01  0.47787270514E+02  0.19999997581E+02 0.  0.
        -12    1    1    2    0    0 -0.31052855117E+02 -0.30279287162E+02 -0.15837544005E+01  0.43400729486E+02  0.00000000000E+00 0.  1.
         11    1    3    3    0    0  0.40097756502E+00  0.37275424216E+01 -0.28746823103E+01  0.47243152053E+01  0.51100000000E-03 0. -1.
        -11    1    3    3    0    0  0.23061528757E+02  0.18480560461E+02  0.92859729828E+01  0.30977322642E+02  0.51100000000E-03 0.  1.
        -12    1    3    3    0    0  0.75903487951E+01  0.80711842794E+01 -0.48275362720E+01  0.12085632667E+02  0.00000000000E+00 0.  1.
</event>
<event>
 7    1  0.2732193E-010  0.4778727E+02  0.7816164E-02  0.1312668E+00
        -11   -1    0    0    0    0  0.00000000000E+00  0.00000000000E+00  0.45593999997E+02  0.45594000000E+02  0.51100000000E-03 0.  1.
         11   -1    0    0    0    0 -0.00000000000E+00 -0.00000000000E+00 -0.45593999997E+02  0.45594000000E+02  0.51100000000E-03 0. -1.
    9900012    2    1    2    0    0  0.88150569371E+01 -0.44826809828E+01 -0.42259010544E+02  0.47787266944E+02  0.19999981306E+02 0.  0.
        -12    1    1    2    0    0 -0.88150569371E+01  0.44826809828E+01  0.42259010544E+02  0.43400733056E+02  0.00000000000E+00 0.  1.
         11    1    3    3    0    0 -0.20417547183E+01  0.39621803953E+01 -0.90112896178E+01  0.10053406221E+02  0.51100000000E-03 0. -1.
        -11    1    3    3    0    0  0.53648163093E+01 -0.97364964743E+01 -0.15244422653E+02  0.18867247810E+02  0.51100000000E-03 0.  1.
         12    1    3    3    0    0  0.54919953462E+01  0.12916350962E+01 -0.18003298273E+02  0.18866612913E+02  0.00000000000E+00 0. -1.
</event>
<event>
 7    1  0.2732193E-010  0.4778727E+02  0.7816164E-02  0.1312668E+00
        -11   -1    0    0    0    0  0.00000000000E+00  0.00000000000E+00  0.45593999997E+02  0.45594000000E+02  0.51100000000E-03 0.  1.
         11   -1    0    0    0    0 -0.00000000000E+00 -0.00000000000E+00 -0.45593999997E+02  0.45594000000E+02  0.51100000000E-03 0. -1.
    9900012    2    1    2    0    0  0.16485807579E+02  0.14790524206E+01 -0.40120488852E+02  0.47787273355E+02  0.20000010535E+02 0.  0.
        -12    1    1    2    0    0 -0.16485807579E+02 -0.14790524206E+01  0.40120488852E+02  0.43400726645E+02  0.00000000000E+00 0.  1.
         11    1    3    3    0    0  0.58456379588E+01 -0.23656260080E+01 -0.79048591755E+01  0.10112095154E+02  0.51100000000E-03 0. -1.
        -11    1    3    3    0    0  0.12313157416E+02  0.13742106413E+01 -0.32397766708E+02  0.34685985475E+02  0.51100000000E-03 0.  1.
        -12    1    3    3    0    0 -0.16729877965E+01  0.24704677874E+01  0.18213703155E+00  0.29891927261E+01  0.00000000000E+00 0.  1.
</event>
<event>
 7    1  0.2732193E-010  0.4778727E+02  0.7816164E-02  0.1312668E+00
        -11   -1    0    0    0    0  0.00000000000E+00  0.00000000000E+00  0.45593999997E+02  0.45594000000E+02  0.51100000000E-03 0.  1.
         11   -1    0    0    0    0 -0.00000000000E+00 -0.00000000000E+00 -0.45593999997E+02  0.45594000000E+02  0.51100000000E-03 0. -1.
    9900012    2    1    2    0    0  0.18351521980E+02 -0.84605710648E+00 -0.39320851338E+02  0.47787268191E+02  0.19999986988E+02 0.  0.
        -12    1    1    2    0    0 -0.18351521980E+02  0.84605710648E+00  0.39320851338E+02  0.43400731809E+02  0.00000000000E+00 0.  1.
         11    1    3    3    0    0  0.80747857457E+01 -0.38678194844E+00 -0.13943133331E+02  0.16117156464E+02  0.51100000000E-03 0. -1.
        -11    1    3    3    0    0  0.11926450750E+02 -0.37726838703E+01 -0.10478013109E+02  0.16317540564E+02  0.51100000000E-03 0.  1.
        -12    1    3    3    0    0 -0.16497145154E+01  0.33134087122E+01 -0.14899704898E+02  0.15352571163E+02  0.00000000000E+00 0.  1.
</event>
<event>
 7    1  0.2732193E-010  0.4778727E+02  0.7816164E-02  0.1312668E+00
        -11   -1    0    0    0    0  0.00000000000E+00  0.00000000000E+00  0.45593999997E+02  0.45594000000E+02  0.51100000000E-03 0.  1.
         11   -1    0    0    0    0 -0.00000000000E+00 -0.00000000000E+00 -0.45593999997E+02  0.45594000000E+02  0.51100000000E-03 0. -1.
    9900012    2    1    2    0    0  0.25057755854E+01 -0.30590666798E+02 -0.30684774829E+02  0.47787271748E+02  0.20000003209E+02 0.  0.
        -12    1    1    2    0    0 -0.25057755854E+01  0.30590666798E+02  0.30684774829E+02  0.43400728252E+02  0.00000000000E+00 0.  1.
         11    1    3    3    0    0  0.61120066465E+01 -0.25089579774E+02 -0.20709244743E+02  0.33101608066E+02  0.51100000000E-03 0. -1.
        -11    1    3    3    0    0 -0.44341435796E+01 -0.58905147557E+01 -0.11044045864E+02  0.13278958644E+02  0.51100000000E-03 0.  1.
        -12    1    3    3    0    0  0.82791251857E+00  0.38942773169E+00  0.10685157773E+01  0.14067050377E+01  0.00000000000E+00 0.  1.
</event>
<event>
 7    1  0.2732193E-010  0.4778726E+02  0.7816164E-02  0.1312668E+00
        -11   -1    0    0    0    0  0.00000000000E+00  0.00000000000E+00  0.45593999997E+02  0.45594000000E+02  0.51100000000E-03 0.  1.
         11   -1    0    0    0    0 -0.00000000000E+00 -0.00000000000E+00 -0.45593999997E+02  0.45594000000E+02  0.51100000000E-03 0. -1.
    9900012    2    1    2    0    0  0.97472100467E+01 -0.57101454334E+01 -0.41904776304E+02  0.47787261048E+02  0.19999954420E+02 0.  0.
        -12    1    1    2    0    0 -0.97472100467E+01  0.57101454334E+01  0.41904776304E+02  0.43400738952E+02  0.00000000000E+00 0.  1.
         11    1    3    3    0    0  0.39315286225E+01  0.60444270945E+01 -0.14521550550E+02  0.16213187437E+02  0.51100000000E-03 0. -1.
        -11    1    3    3    0    0  0.14245139245E+01 -0.10548539304E+02 -0.22535986197E+02  0.24923314296E+02  0.51100000000E-03 0.  1.
        -12    1    3    3    0    0  0.43911674998E+01 -0.12060332235E+01 -0.48472395566E+01  0.66507593150E+01  0.00000000000E+00 0.  1.
</event>
<event>
 7    1  0.2732193E-010  0.4778727E+02  0.7816164E-02  0.1312668E+00
        -11   -1    0    0    0    0  0.00000000000E+00  0.00000000000E+00  0.45593999997E+02  0.45594000000E+02  0.51100000000E-03 0. -1.
         11   -1    0    0    0    0 -0.00000000000E+00 -0.00000000000E+00 -0.45593999997E+02  0.45594000000E+02  0.51100000000E-03 0.  1.
    9900012    2    1    2    0    0 -0.42171789463E+02 -0.35509693866E+01  0.96204967078E+01  0.47787272275E+02  0.20000005612E+02 0.  0.
        -12    1    1    2    0    0  0.42171789463E+02  0.35509693866E+01 -0.96204967078E+01  0.43400727725E+02  0.00000000000E+00 0.  1.
         11    1    3    3    0    0 -0.58783369109E+01  0.29767352433E+01 -0.32805973603E+01  0.73605785675E+01  0.51100000000E-03 0. -1.
        -11    1    3    3    0    0 -0.22403140146E+02 -0.82610056614E+01  0.11036801111E+02  0.26305054304E+02  0.51100000000E-03 0.  1.
         12    1    3    3    0    0 -0.13890312406E+02  0.17333010315E+01  0.18642929575E+01  0.14121639403E+02  0.00000000000E+00 0. -1.
</event>
<event>
 7    1  0.2732193E-010  0.4778727E+02  0.7816164E-02  0.1312668E+00
        -11   -1    0    0    0    0  0.00000000000E+00  0.00000000000E+00  0.45593999997E+02  0.45594000000E+02  0.51100000000E-03 0.  1.
         11   -1    0    0    0    0 -0.00000000000E+00 -0.00000000000E+00 -0.45593999997E+02  0.45594000000E+02  0.51100000000E-03 0. -1.
    9900012    2    1    2    0    0  0.22489477843E+02 -0.87543157287E+01 -0.36072268533E+02  0.47787271727E+02  0.20000003111E+02 0.  0.
        -12    1    1    2    0    0 -0.22489477843E+02  0.87543157287E+01  0.36072268533E+02  0.43400728273E+02  0.00000000000E+00 0.  1.
         11    1    3    3    0    0  0.81720174957E+01 -0.34461716854E+01 -0.22309367170E+02  0.24007620312E+02  0.51100000000E-03 0. -1.
        -11    1    3    3    0    0  0.15228036508E+02 -0.17642842180E+01 -0.90105086802E+01  0.17781874525E+02  0.51100000000E-03 0.  1.
         12    1    3    3    0    0 -0.91057616128E+00 -0.35438598253E+01 -0.47523926826E+01  0.59977768895E+01  0.00000000000E+00 0. -1.
</event>
<event>
 7    1  0.2732193E-010  0.4778727E+02  0.7816164E-02  0.1312668E+00
        -11   -1    0    0    0    0  0.00000000000E+00  0.00000000000E+00  0.45593999997E+02  0.45594000000E+02  0.51100000000E-03 0.  1.
         11   -1    0    0    0    0 -0.00000000000E+00 -0.00000000000E+00 -0.45593999997E+02  0.45594000000E+02  0.51100000000E-03 0. -1.
    9900012    2    1    2    0    0  0.33421054721E+02  0.20591370824E+02 -0.18510853744E+02  0.47787272386E+02  0.20000006116E+02 0.  0.
        -12    1    1    2    0    0 -0.33421054721E+02 -0.20591370824E+02  0.18510853744E+02  0.43400727614E+02  0.00000000000E+00 0.  1.
         11    1    3    3    0    0  0.27631263070E+02  0.13996033564E+02 -0.16972488371E+02  0.35319131022E+02  0.51100000000E-03 0. -1.
        -11    1    3    3    0    0  0.39162286454E+01  0.47004562224E+01  0.32949354221E+01  0.69489377029E+01  0.51100000000E-03 0.  1.
        -12    1    3    3    0    0  0.18735630061E+01  0.18948810380E+01 -0.48333007943E+01  0.55192036612E+01  0.00000000000E+00 0.  1.
</event>
<event>
 7    1  0.2732193E-010  0.4778729E+02  0.7816164E-02  0.1312668E+00
        -11   -1    0    0    0    0  0.00000000000E+00  0.00000000000E+00  0.45593999997E+02  0.45594000000E+02  0.51100000000E-03 0.  1.
         11   -1    0    0    0    0 -0.00000000000E+00 -0.00000000000E+00 -0.45593999997E+02  0.45594000000E+02  0.51100000000E-03 0. -1.
    9900012    2    1    2    0    0 -0.26922820482E+01 -0.25509224635E+02 -0.35009326021E+02  0.47787287650E+02  0.20000075709E+02 0.  0.
        -12    1    1    2    0    0  0.26922820482E+01  0.25509224635E+02  0.35009326021E+02  0.43400712350E+02  0.00000000000E+00 0.  1.
         11    1    3    3    0    0 -0.66490894049E+01 -0.36119516818E+01 -0.60246026035E+01  0.96722500825E+01  0.51100000000E-03 0. -1.
        -11    1    3    3    0    0  0.39997605909E+01 -0.13146203073E+02 -0.24938624796E+02  0.28473772967E+02  0.51100000000E-03 0.  1.
         12    1    3    3    0    0 -0.42953234151E-01 -0.87510698807E+01 -0.40460986213E+01  0.96412646002E+01  0.00000000000E+00 0. -1.
</event>
<event>
 7    1  0.2732193E-010  0.4778727E+02  0.7816164E-02  0.1312668E+00
        -11   -1    0    0    0    0  0.00000000000E+00  0.00000000000E+00  0.45593999997E+02  0.45594000000E+02  0.51100000000E-03 0.  1.
         11   -1    0    0    0    0 -0.00000000000E+00 -0.00000000000E+00 -0.45593999997E+02  0.45594000000E+02  0.51100000000E-03 0. -1.
    9900012    2    1    2    0    0 -0.62161910643E+01 -0.16532728921E+01 -0.42921427292E+02  0.47787271165E+02  0.20000000551E+02 0.  0.
        -12    1    1    2    0    0  0.62161910643E+01  0.16532728921E+01  0.42921427292E+02  0.43400728835E+02  0.00000000000E+00 0.  1.
         11    1    3    3    0    0 -0.24500134345E+00  0.72994209652E+00 -0.15823374296E+02  0.15842096310E+02  0.51100000000E-03 0. -1.
        -11    1    3    3    0    0 -0.62425555470E+01  0.59143665872E+01 -0.14475949749E+02  0.16837528123E+02  0.51100000000E-03 0.  1.
        -12    1    3    3    0    0  0.27136582614E+00 -0.82975815758E+01 -0.12622103247E+02  0.15107646732E+02  0.00000000000E+00 0.  1.
</event>
<event>
 7    1  0.2732193E-010  0.4778727E+02  0.7816164E-02  0.1312668E+00
        -11   -1    0    0    0    0  0.00000000000E+00  0.00000000000E+00  0.45593999997E+02  0.45594000000E+02  0.51100000000E-03 0. -1.
         11   -1    0    0    0    0 -0.00000000000E+00 -0.00000000000E+00 -0.45593999997E+02  0.45594000000E+02  0.51100000000E-03 0.  1.
    9900012    2    1    2    0    0 -0.31512691894E+02  0.42143978928E+01  0.29543395348E+02  0.47787272947E+02  0.20000008675E+02 0.  0.
        -12    1    1    2    0    0  0.31512691894E+02 -0.42143978928E+01 -0.29543395348E+02  0.43400727053E+02  0.00000000000E+00 0.  1.
         11    1    3    3    0    0 -0.13548708350E+02 -0.52238216814E+01  0.21248534282E+02  0.25736278291E+02  0.51100000000E-03 0. -1.
        -11    1    3    3    0    0 -0.99954164762E+01  0.45949956935E+01  0.56006727252E+01  0.12344629245E+02  0.51100000000E-03 0.  1.
         12    1    3    3    0    0 -0.79685670678E+01  0.48432238807E+01  0.26941883416E+01  0.97063654111E+01  0.00000000000E+00 0. -1.
</event>
<event>
 7    1  0.2732193E-010  0.4778728E+02  0.7816164E-02  0.1312668E+00
        -11   -1    0    0    0    0  0.00000000000E+00  0.00000000000E+00  0.45593999997E+02  0.45594000000E+02  0.51100000000E-03 0.  1.
         11   -1    0    0    0    0 -0.00000000000E+00 -0.00000000000E+00 -0.45593999997E+02  0.45594000000E+02  0.51100000000E-03 0. -1.
    9900012    2    1    2    0    0  0.11351116355E+02 -0.39521576223E+02 -0.13885964436E+02  0.47787276067E+02  0.20000022898E+02 0.  0.
        -12    1    1    2    0    0 -0.11351116355E+02  0.39521576223E+02  0.13885964436E+02  0.43400723933E+02  0.00000000000E+00 0.  1.
         11    1    3    3    0    0  0.36898109636E+01 -0.16658409087E+02 -0.14521769352E+02  0.22405336053E+02  0.51100000000E-03 0. -1.
        -11    1    3    3    0    0  0.49533523584E+01 -0.56525272608E+01  0.23521240574E+01  0.78752302736E+01  0.51100000000E-03 0.  1.
         12    1    3    3    0    0  0.27079530325E+01 -0.17210639875E+02 -0.17163191410E+01  0.17506709740E+02  0.00000000000E+00 0. -1.
</event>
<event>
 7    1  0.2732193E-010  0.4778727E+02  0.7816164E-02  0.1312668E+00
        -11   -1    0    0    0    0  0.00000000000E+00  0.00000000000E+00  0.45593999997E+02  0.45594000000E+02  0.51100000000E-03 0. -1.
         11   -1    0    0    0    0 -0.00000000000E+00 -0.00000000000E+00 -0.45593999997E+02  0.45594000000E+02  0.51100000000E-03 0.  1.
    9900012    2    1    2    0    0  0.22790690626E+02 -0.31108611513E+02  0.19911356274E+02  0.47787269612E+02  0.19999993470E+02 0.  0.
        -12    1    1    2    0    0 -0.22790690626E+02  0.31108611513E+02 -0.19911356274E+02  0.43400730388E+02  0.00000000000E+00 0.  1.
         11    1    3    3    0    0  0.12072904754E+02 -0.12546038566E+02 -0.14744017340E+01  0.17473750990E+02  0.51100000000E-03 0. -1.
        -11    1    3    3    0    0  0.60418939378E+01 -0.92251251642E+01  0.11521816337E+02  0.15948657267E+02  0.51100000000E-03 0.  1.
         12    1    3    3    0    0  0.46758919342E+01 -0.93374477826E+01  0.98639416713E+01  0.14364861356E+02  0.00000000000E+00 0. -1.
</event>
<event>
 7    1  0.2732193E-010  0.4778727E+02  0.7816164E-02  0.1312668E+00
        -11   -1    0    0    0    0  0.00000000000E+00  0.00000000000E+00  0.45593999997E+02  0.45594000000E+02  0.51100000000E-03 0.  1.
         11   -1    0    0    0    0 -0.00000000000E+00 -0.00000000000E+00 -0.45593999997E+02  0.45594000000E+02  0.51100000000E-03 0. -1.
    9900012    2    1    2    0    0  0.40667547920E+02 -0.11635788909E+02 -0.97150417954E+01  0.47787273342E+02  0.20000010474E+02 0.  0.
        -12    1    1    2    0    0 -0.40667547920E+02  0.11635788909E+02  0.97150417954E+01  0.43400726658E+02  0.00000000000E+00 0.  1.
         11    1    3    3    0    0  0.14885966262E+02 -0.43364830108E+01  0.18402170197E+01  0.15613567030E+02  0.51100000000E-03 0. -1.
        -11    1    3    3    0    0  0.52003154125E+01 -0.24027534971E+01 -0.92668922040E+01  0.10894576455E+02  0.51100000000E-03 0.  1.
        -12    1    3    3    0    0  0.20581266246E+02 -0.48965524014E+01 -0.22883666111E+01  0.21279129857E+02  0.00000000000E+00 0.  1.
</event>
<event>
 7    1  0.2732193E-010  0.4778728E+02  0.7816164E-02  0.1312668E+00
        -11   -1    0    0    0    0  0.00000000000E+00  0.00000000000E+00  0.45593999997E+02  0.45594000000E+02  0.51100000000E-03 0.  1.
         11   -1    0    0    0    0 -0.00000000000E+00 -0.00000000000E+00 -0.45593999997E+02  0.45594000000E+02  0.51100000000E-03 0. -1.
    9900012    2    1    2    0    0  0.17615409629E+02  0.21401529839E+02 -0.33396019024E+02  0.47787283157E+02  0.20000055226E+02 0.  0.
        -12    1    1    2    0    0 -0.17615409629E+02 -0.21401529839E+02  0.33396019024E+02  0.43400716843E+02  0.00000000000E+00 0.  1.
         11    1    3    3    0    0  0.17729428670E+02  0.12341319098E+02 -0.26210088409E+02  0.33964827877E+02  0.51100000000E-03 0. -1.
        -11    1    3    3    0    0 -0.76250444941E+00  0.64026933917E+01 -0.34761422727E+00  0.64573006446E+01  0.51100000000E-03 0.  1.
        -12    1    3    3    0    0  0.64848540868E+00  0.26575173493E+01 -0.68383163874E+01  0.73651546353E+01  0.00000000000E+00 0.  1.
</event>
<event>
 7    1  0.2732193E-010  0.4778727E+02  0.7816164E-02  0.1312668E+00
        -11   -1    0    0    0    0  0.00000000000E+00  0.00000000000E+00  0.45593999997E+02  0.45594000000E+02  0.51100000000E-03 0.  1.
         11   -1    0    0    0    0 -0.00000000000E+00 -0.00000000000E+00 -0.45593999997E+02  0.45594000000E+02  0.51100000000E-03 0. -1.
    9900012    2    1    2    0    0 -0.19199444020E+02  0.18794898442E+02 -0.34084548448E+02  0.47787270732E+02  0.19999998574E+02 0.  0.
        -12    1    1    2    0    0  0.19199444020E+02 -0.18794898442E+02  0.34084548448E+02  0.43400729268E+02  0.00000000000E+00 0.  1.
         11    1    3    3    0    0 -0.15772485799E+02  0.42373420041E+01 -0.22755401018E+02  0.28009545718E+02  0.51100000000E-03 0. -1.
        -11    1    3    3    0    0  0.17652058058E+01  0.42972662181E+01 -0.24689576938E+01  0.52610075880E+01  0.51100000000E-03 0.  1.
         12    1    3    3    0    0 -0.51921640263E+01  0.10260290220E+02 -0.88601897360E+01  0.14516717426E+02  0.00000000000E+00 0. -1.
</event>
<event>
 7    1  0.2732193E-010  0.4778726E+02  0.7816164E-02  0.1312668E+00
        -11   -1    0    0    0    0  0.00000000000E+00  0.00000000000E+00  0.45593999997E+02  0.45594000000E+02  0.51100000000E-03 0. -1.
         11   -1    0    0    0    0 -0.00000000000E+00 -0.00000000000E+00 -0.45593999997E+02  0.45594000000E+02  0.51100000000E-03 0.  1.
    9900012    2    1    2    0    0  0.29792407652E+02 -0.31548544143E+02 -0.85192540528E+00  0.47787263046E+02  0.19999963533E+02 0.  0.
        -12    1    1    2    0    0 -0.29792407652E+02  0.31548544143E+02  0.85192540528E+00  0.43400736954E+02  0.00000000000E+00 0.  1.
         11    1    3    3    0    0  0.69927472894E+01 -0.41420297157E+01  0.74084889749E+01  0.10997301213E+02  0.51100000000E-03 0. -1.
        -11    1    3    3    0    0  0.15481732364E+02 -0.21174212593E+02 -0.56977098349E+01  0.26842041904E+02  0.51100000000E-03 0.  1.
         12    1    3    3    0    0  0.73179279985E+01 -0.62323018337E+01 -0.25627045453E+01  0.99479199295E+01  0.00000000000E+00 0. -1.
</event>
<event>
 7    1  0.2791839E-010  0.4778727E+02  0.7816164E-02  0.1312668E+00
        -11   -1    0    0    0    0  0.00000000000E+00  0.00000000000E+00  0.45593999997E+02  0.45594000000E+02  0.51100000000E-03 0. -1.
         11   -1    0    0    0    0 -0.00000000000E+00 -0.00000000000E+00 -0.45593999997E+02  0.45594000000E+02  0.51100000000E-03 0.  1.
    9900012    2    1    2    0    0 -0.14222695094E+02 -0.30817814813E+02  0.27048120226E+02  0.47787267594E+02  0.19999984269E+02 0.  0.
        -12    1    1    2    0    0  0.14222695094E+02  0.30817814813E+02 -0.27048120226E+02  0.43400732406E+02  0.00000000000E+00 0.  1.
         11    1    3    3    0    0 -0.57202395212E+01 -0.10502348797E+02  0.16406674598E+02  0.20302695438E+02  0.51100000000E-03 0. -1.
        -11    1    3    3    0    0 -0.10362540475E+02 -0.20784776470E+02  0.88317689149E+01  0.24847320186E+02  0.51100000000E-03 0.  1.
        -12    1    3    3    0    0  0.18600849023E+01  0.46931045364E+00  0.18096767129E+01  0.26372519696E+01  0.00000000000E+00 0.  1.
</event>
<event>
 7    1  0.2732193E-010  0.4778727E+02  0.7816164E-02  0.1312668E+00
        -11   -1    0    0    0    0  0.00000000000E+00  0.00000000000E+00  0.45593999997E+02  0.45594000000E+02  0.51100000000E-03 0. -1.
         11   -1    0    0    0    0 -0.00000000000E+00 -0.00000000000E+00 -0.45593999997E+02  0.45594000000E+02  0.51100000000E-03 0.  1.
    9900012    2    1    2    0    0 -0.14973106060E+02  0.27227583211E+02  0.30299971522E+02  0.47787268821E+02  0.19999989863E+02 0.  0.
        -12    1    1    2    0    0  0.14973106060E+02 -0.27227583211E+02 -0.30299971522E+02  0.43400731179E+02  0.00000000000E+00 0.  1.
         11    1    3    3    0    0 -0.62297206037E+00  0.62896061769E+01  0.12833146339E+02  0.14305134926E+02  0.51100000000E-03 0. -1.
        -11    1    3    3    0    0 -0.15489318890E+02  0.19136016863E+02  0.11551824293E+02  0.27194683043E+02  0.51100000000E-03 0.  1.
        -12    1    3    3    0    0  0.11391848908E+01  0.18019601717E+01  0.59150008908E+01  0.62874508518E+01  0.00000000000E+00 0.  1.
</event>
<event>
 7    1  0.2732193E-010  0.4778727E+02  0.7816164E-02  0.1312668E+00
        -11   -1    0    0    0    0  0.00000000000E+00  0.00000000000E+00  0.45593999997E+02  0.45594000000E+02  0.51100000000E-03 0. -1.
         11   -1    0    0    0    0 -0.00000000000E+00 -0.00000000000E+00 -0.45593999997E+02  0.45594000000E+02  0.51100000000E-03 0.  1.
    9900012    2    1    2    0    0  0.18149757334E+01  0.38923671008E+02  0.19112231208E+02  0.47787266327E+02  0.19999978490E+02 0.  0.
        -12    1    1    2    0    0 -0.18149757334E+01 -0.38923671008E+02 -0.19112231208E+02  0.43400733673E+02  0.00000000000E+00 0.  1.
         11    1    3    3    0    0 -0.23812785468E+01  0.21944183526E+02  0.11867984231E+02  0.25061259508E+02  0.51100000000E-03 0. -1.
        -11    1    3    3    0    0 -0.23693798729E+01 -0.86420772261E+00  0.69020168589E+00  0.26148029750E+01  0.51100000000E-03 0.  1.
        -12    1    3    3    0    0  0.65656341531E+01  0.17843695204E+02  0.65540452909E+01  0.20111203844E+02  0.00000000000E+00 0.  1.
</event>
<event>
 7    1  0.2732193E-010  0.4778727E+02  0.7816164E-02  0.1312668E+00
        -11   -1    0    0    0    0  0.00000000000E+00  0.00000000000E+00  0.45593999997E+02  0.45594000000E+02  0.51100000000E-03 0.  1.
         11   -1    0    0    0    0 -0.00000000000E+00 -0.00000000000E+00 -0.45593999997E+02  0.45594000000E+02  0.51100000000E-03 0. -1.
    9900012    2    1    2    0    0  0.48995328779E+01 -0.86331510044E+01 -0.42250286153E+02  0.47787269607E+02  0.19999993444E+02 0.  0.
        -12    1    1    2    0    0 -0.48995328779E+01  0.86331510044E+01  0.42250286153E+02  0.43400730393E+02  0.00000000000E+00 0.  1.
         11    1    3    3    0    0  0.33905011236E+01 -0.93281170541E+01 -0.37088285317E+02  0.38393361062E+02  0.51100000000E-03 0. -1.
        -11    1    3    3    0    0  0.30877875147E+01 -0.16049517649E+01  0.52187578591E-01  0.34803772365E+01  0.51100000000E-03 0.  1.
         12    1    3    3    0    0 -0.15787557605E+01  0.22999178146E+01 -0.52141884144E+01  0.59135313076E+01  0.00000000000E+00 0. -1.
</event>
<event>
 7    1  0.2732193E-010  0.4778727E+02  0.7816164E-02  0.1312668E+00
        -11   -1    0    0    0    0  0.00000000000E+00  0.00000000000E+00  0.45593999997E+02  0.45594000000E+02  0.51100000000E-03 0.  1.
         11   -1    0    0    0    0 -0.00000000000E+00 -0.00000000000E+00 -0.45593999997E+02  0.45594000000E+02  0.51100000000E-03 0. -1.
    9900012    2    1    2    0    0  0.35998277877E+02 -0.90867395243E+01 -0.22476173581E+02  0.47787271618E+02  0.20000002614E+02 0.  0.
        -12    1    1    2    0    0 -0.35998277877E+02  0.90867395243E+01  0.22476173581E+02  0.43400728382E+02  0.00000000000E+00 0.  1.
         11    1    3    3    0    0  0.23433218260E+02 -0.10140089457E+02 -0.20273456066E+02  0.32602916332E+02  0.51100000000E-03 0. -1.
        -11    1    3    3    0    0  0.87800908671E+01  0.14401433216E+01  0.23973643889E+01  0.92147362792E+01  0.51100000000E-03 0.  1.
        -12    1    3    3    0    0  0.37849687490E+01 -0.38679338874E+00 -0.46000819041E+01  0.59696190064E+01  0.00000000000E+00 0.  1.
</event>
<event>
 7    1  0.2732193E-010  0.4778728E+02  0.7816164E-02  0.1312668E+00
        -11   -1    0    0    0    0  0.00000000000E+00  0.00000000000E+00  0.45593999997E+02  0.45594000000E+02  0.51100000000E-03 0.  1.
         11   -1    0    0    0    0 -0.00000000000E+00 -0.00000000000E+00 -0.45593999997E+02  0.45594000000E+02  0.51100000000E-03 0. -1.
    9900012    2    1    2    0    0  0.64235892217E+01  0.32811749391E+02 -0.27672170875E+02  0.47787280679E+02  0.20000043928E+02 0.  0.
        -12    1    1    2    0    0 -0.64235892217E+01 -0.32811749391E+02  0.27672170875E+02  0.43400719321E+02  0.00000000000E+00 0.  1.
         11    1    3    3    0    0 -0.79374890351E+00  0.60597850642E+01 -0.57448471948E+01  0.83877471289E+01  0.51100000000E-03 0. -1.
        -11    1    3    3    0    0 -0.15223096203E+00  0.20603380161E+02 -0.21520054676E+02  0.29793207310E+02  0.51100000000E-03 0.  1.
        -12    1    3    3    0    0  0.73695690873E+01  0.61485841666E+01 -0.40726900436E+00  0.96063262399E+01  0.00000000000E+00 0.  1.
</event>
<event>
 7    1  0.2732193E-010  0.4778727E+02  0.7816164E-02  0.1312668E+00
        -11   -1    0    0    0    0  0.00000000000E+00  0.00000000000E+00  0.45593999997E+02  0.45594000000E+02  0.51100000000E-03 0.  1.
         11   -1    0    0    0    0 -0.00000000000E+00 -0.00000000000E+00 -0.45593999997E+02  0.45594000000E+02  0.51100000000E-03 0. -1.
    9900012    2    1    2    0    0 -0.11942538964E+02 -0.39050251307E+02 -0.14699554000E+02  0.47787271299E+02  0.20000001159E+02 0.  0.
        -12    1    1    2    0    0  0.11942538964E+02  0.39050251307E+02  0.14699554000E+02  0.43400728701E+02  0.00000000000E+00 0.  1.
         11    1    3    3    0    0 -0.41283690319E+01 -0.18984893434E+02 -0.31733619738E+01  0.19686031496E+02  0.51100000000E-03 0. -1.
        -11    1    3    3    0    0 -0.48549025076E+01 -0.13001758514E+02 -0.14326830700E+02  0.19946776205E+02  0.51100000000E-03 0.  1.
        -12    1    3    3    0    0 -0.29592674242E+01 -0.70635993584E+01  0.28006386738E+01  0.81544635976E+01  0.00000000000E+00 0.  1.
</event>
<event>
 7    1  0.2732193E-010  0.4778727E+02  0.7816164E-02  0.1312668E+00
        -11   -1    0    0    0    0  0.00000000000E+00  0.00000000000E+00  0.45593999997E+02  0.45594000000E+02  0.51100000000E-03 0.  1.
         11   -1    0    0    0    0 -0.00000000000E+00 -0.00000000000E+00 -0.45593999997E+02  0.45594000000E+02  0.51100000000E-03 0. -1.
    9900012    2    1    2    0    0  0.35515284360E+02 -0.24062374215E+02  0.65795228195E+01  0.47787269631E+02  0.19999993557E+02 0.  0.
        -12    1    1    2    0    0 -0.35515284360E+02  0.24062374215E+02 -0.65795228195E+01  0.43400730369E+02  0.00000000000E+00 0.  1.
         11    1    3    3    0    0  0.57299916690E+01 -0.17100513741E+01  0.11475280181E+01  0.60888341283E+01  0.51100000000E-03 0. -1.
        -11    1    3    3    0    0  0.27515165828E+02 -0.23099685040E+02  0.93375241076E+01  0.37119659969E+02  0.51100000000E-03 0.  1.
        -12    1    3    3    0    0  0.22701268632E+01  0.74736219926E+00 -0.39055293062E+01  0.45787755343E+01  0.00000000000E+00 0.  1.
</event>
<event>
 7    1  0.2732193E-010  0.4778727E+02  0.7816164E-02  0.1312668E+00
        -11   -1    0    0    0    0  0.00000000000E+00  0.00000000000E+00  0.45593999997E+02  0.45594000000E+02  0.51100000000E-03 0.  1.
         11   -1    0    0    0    0 -0.00000000000E+00 -0.00000000000E+00 -0.45593999997E+02  0.45594000000E+02  0.51100000000E-03 0. -1.
    9900012    2    1    2    0    0  0.12471759168E+02 -0.43834758752E+01 -0.41338402359E+02  0.47787272505E+02  0.20000006660E+02 0.  0.
        -12    1    1    2    0    0 -0.12471759168E+02  0.43834758752E+01  0.41338402359E+02  0.43400727495E+02  0.00000000000E+00 0.  1.
         11    1    3    3    0    0  0.12513032620E+01  0.12388966850E+00  0.14973670323E+01  0.19553047829E+01  0.51100000000E-03 0. -1.
        -11    1    3    3    0    0  0.12973583411E+01  0.50240441382E+00  0.18026333900E+00  0.14028699130E+01  0.51100000000E-03 0.  1.
         12    1    3    3    0    0  0.99230975651E+01 -0.50097699575E+01 -0.43016032730E+02  0.44429097809E+02  0.00000000000E+00 0. -1.
</event>
<event>
 7    1  0.2732193E-010  0.4778727E+02  0.7816164E-02  0.1312668E+00
        -11   -1    0    0    0    0  0.00000000000E+00  0.00000000000E+00  0.45593999997E+02  0.45594000000E+02  0.51100000000E-03 0. -1.
         11   -1    0    0    0    0 -0.00000000000E+00 -0.00000000000E+00 -0.45593999997E+02  0.45594000000E+02  0.51100000000E-03 0.  1.
    9900012    2    1    2    0    0  0.20134077338E+02 -0.26185849820E+02  0.28152148958E+02  0.47787270836E+02  0.19999999048E+02 0.  0.
        -12    1    1    2    0    0 -0.20134077338E+02  0.26185849820E+02 -0.28152148958E+02  0.43400729164E+02  0.00000000000E+00 0.  1.
         11    1    3    3    0    0  0.31956805418E+01 -0.53839438224E+01  0.81658120350E+01  0.10289786765E+02  0.51100000000E-03 0. -1.
        -11    1    3    3    0    0  0.11995265403E+02 -0.19200983846E+02  0.22328382616E+02  0.31798126411E+02  0.51100000000E-03 0.  1.
        -12    1    3    3    0    0  0.49431313930E+01 -0.16009221512E+01 -0.23420456931E+01  0.56993576596E+01  0.00000000000E+00 0.  1.
</event>
<event>
 7    1  0.2732193E-010  0.4778727E+02  0.7816164E-02  0.1312668E+00
        -11   -1    0    0    0    0  0.00000000000E+00  0.00000000000E+00  0.45593999997E+02  0.45594000000E+02  0.51100000000E-03 0.  1.
         11   -1    0    0    0    0 -0.00000000000E+00 -0.00000000000E+00 -0.45593999997E+02  0.45594000000E+02  0.51100000000E-03 0. -1.
    9900012    2    1    2    0    0  0.68506953393E+01  0.10963564646E+01 -0.42842610696E+02  0.47787270566E+02  0.19999997819E+02 0.  0.
        -12    1    1    2    0    0 -0.68506953393E+01 -0.10963564646E+01  0.42842610696E+02  0.43400729434E+02  0.00000000000E+00 0.  1.
         11    1    3    3    0    0 -0.16896210020E+01  0.35188261815E+01 -0.36370096664E+02  0.36578967843E+02  0.51100000000E-03 0. -1.
        -11    1    3    3    0    0  0.43429399472E+01 -0.21395315645E+01 -0.26245196999E+01  0.55069798090E+01  0.51100000000E-03 0.  1.
         12    1    3    3    0    0  0.41973763941E+01 -0.28293815248E+00 -0.38479943324E+01  0.57013229144E+01  0.00000000000E+00 0. -1.
</event>
<event>
 7    1  0.2732193E-010  0.4778727E+02  0.7816164E-02  0.1312668E+00
        -11   -1    0    0    0    0  0.00000000000E+00  0.00000000000E+00  0.45593999997E+02  0.45594000000E+02  0.51100000000E-03 0.  1.
         11   -1    0    0    0    0 -0.00000000000E+00 -0.00000000000E+00 -0.45593999997E+02  0.45594000000E+02  0.51100000000E-03 0. -1.
    9900012    2    1    2    0    0 -0.13213983208E+02  0.10448162981E+02 -0.39998125367E+02  0.47787268499E+02  0.19999988395E+02 0.  0.
        -12    1    1    2    0    0  0.13213983208E+02 -0.10448162981E+02  0.39998125367E+02  0.43400731501E+02  0.00000000000E+00 0.  1.
         11    1    3    3    0    0 -0.55832523622E+01 -0.77081489311E+00 -0.13285390250E+01  0.57906717004E+01  0.51100000000E-03 0. -1.
        -11    1    3    3    0    0  0.16732137276E+01  0.40760934524E+01 -0.75756582523E+01  0.87638336490E+01  0.51100000000E-03 0.  1.
         12    1    3    3    0    0 -0.93039445734E+01  0.71428844221E+01 -0.31093928090E+02  0.33232763150E+02  0.00000000000E+00 0. -1.
</event>
<event>
 7    1  0.2732193E-010  0.4778727E+02  0.7816164E-02  0.1312668E+00
        -11   -1    0    0    0    0  0.00000000000E+00  0.00000000000E+00  0.45593999997E+02  0.45594000000E+02  0.51100000000E-03 0.  1.
         11   -1    0    0    0    0 -0.00000000000E+00 -0.00000000000E+00 -0.45593999997E+02  0.45594000000E+02  0.51100000000E-03 0. -1.
    9900012    2    1    2    0    0  0.62441438962E+00 -0.28931040680E+02 -0.32345454696E+02  0.47787269042E+02  0.19999990872E+02 0.  0.
        -12    1    1    2    0    0 -0.62441438962E+00  0.28931040680E+02  0.32345454696E+02  0.43400730958E+02  0.00000000000E+00 0.  1.
         11    1    3    3    0    0  0.71486988346E+01 -0.19408953995E+02 -0.20155571276E+02  0.28880070013E+02  0.51100000000E-03 0. -1.
        -11    1    3    3    0    0 -0.40449877394E+01 -0.95371785104E+01 -0.54076471335E+01  0.11685989369E+02  0.51100000000E-03 0.  1.
         12    1    3    3    0    0 -0.24792967056E+01  0.15091825597E-01 -0.67822362865E+01  0.72212096607E+01  0.00000000000E+00 0. -1.
</event>
<event>
 7    1  0.2732193E-010  0.4778727E+02  0.7816164E-02  0.1312668E+00
        -11   -1    0    0    0    0  0.00000000000E+00  0.00000000000E+00  0.45593999997E+02  0.45594000000E+02  0.51100000000E-03 0. -1.
         11   -1    0    0    0    0 -0.00000000000E+00 -0.00000000000E+00 -0.45593999997E+02  0.45594000000E+02  0.51100000000E-03 0.  1.
    9900012    2    1    2    0    0  0.80318939655E+01 -0.12543686893E+02  0.40764787816E+02  0.47787270430E+02  0.19999997199E+02 0.  0.
        -12    1    1    2    0    0 -0.80318939655E+01  0.12543686893E+02 -0.40764787816E+02  0.43400729570E+02  0.00000000000E+00 0.  1.
         11    1    3    3    0    0 -0.97846026657E+00 -0.33123746803E+00  0.69872422115E+01  0.70631902662E+01  0.51100000000E-03 0. -1.
        -11    1    3    3    0    0 -0.46773690225E+00 -0.12816588591E+01 -0.18340082375E+01  0.22858288906E+01  0.51100000000E-03 0.  1.
        -12    1    3    3    0    0  0.94780911343E+01 -0.10930790566E+02  0.35611553842E+02  0.38438251273E+02  0.00000000000E+00 0.  1.
</event>
<event>
 7    1  0.2732193E-010  0.4778727E+02  0.7816164E-02  0.1312668E+00
        -11   -1    0    0    0    0  0.00000000000E+00  0.00000000000E+00  0.45593999997E+02  0.45594000000E+02  0.51100000000E-03 0. -1.
         11   -1    0    0    0    0 -0.00000000000E+00 -0.00000000000E+00 -0.45593999997E+02  0.45594000000E+02  0.51100000000E-03 0.  1.
    9900012    2    1    2    0    0  0.27191807057E+02 -0.31528903258E+02  0.12253861580E+02  0.47787271489E+02  0.20000002028E+02 0.  0.
        -12    1    1    2    0    0 -0.27191807057E+02  0.31528903258E+02 -0.12253861580E+02  0.43400728511E+02  0.00000000000E+00 0.  1.
         11    1    3    3    0    0  0.29502874635E+02 -0.27684205879E+02  0.10494877807E+02  0.41796857864E+02  0.51100000000E-03 0. -1.
        -11    1    3    3    0    0 -0.24037305666E+01 -0.22969556142E+01 -0.38235905680E+00  0.33466586978E+01  0.51100000000E-03 0.  1.
        -12    1    3    3    0    0  0.92662988723E-01 -0.15477417645E+01  0.21413428305E+01  0.26437549275E+01  0.00000000000E+00 0.  1.
</event>
<event>
 7    1  0.2732193E-010  0.4778727E+02  0.7816164E-02  0.1312668E+00
        -11   -1    0    0    0    0  0.00000000000E+00  0.00000000000E+00  0.45593999997E+02  0.45594000000E+02  0.51100000000E-03 0. -1.
         11   -1    0    0    0    0 -0.00000000000E+00 -0.00000000000E+00 -0.45593999997E+02  0.45594000000E+02  0.51100000000E-03 0.  1.
    9900012    2    1    2    0    0  0.22688144828E+02  0.34284407203E+02  0.13908666760E+02  0.47787268392E+02  0.19999987909E+02 0.  0.
        -12    1    1    2    0    0 -0.22688144828E+02 -0.34284407203E+02 -0.13908666760E+02  0.43400731608E+02  0.00000000000E+00 0.  1.
         11    1    3    3    0    0  0.12480578723E+02  0.19503581513E+02  0.75726149009E+01  0.24361835599E+02  0.51100000000E-03 0. -1.
        -11    1    3    3    0    0  0.33174614705E+01  0.54229895713E+01 -0.42976996105E+01  0.76736294348E+01  0.51100000000E-03 0.  1.
        -12    1    3    3    0    0  0.68901046347E+01  0.93578361193E+01  0.10633751470E+02  0.15751803358E+02  0.00000000000E+00 0.  1.
</event>
<event>
 7    1  0.2732193E-010  0.4778727E+02  0.7816164E-02  0.1312668E+00
        -11   -1    0    0    0    0  0.00000000000E+00  0.00000000000E+00  0.45593999997E+02  0.45594000000E+02  0.51100000000E-03 0. -1.
         11   -1    0    0    0    0 -0.00000000000E+00 -0.00000000000E+00 -0.45593999997E+02  0.45594000000E+02  0.51100000000E-03 0.  1.
    9900012    2    1    2    0    0 -0.39532313402E+02 -0.17901525007E+02 -0.59575593199E+00  0.47787270449E+02  0.19999997283E+02 0.  0.
        -12    1    1    2    0    0  0.39532313402E+02  0.17901525007E+02  0.59575593199E+00  0.43400729551E+02  0.00000000000E+00 0.  1.
         11    1    3    3    0    0 -0.13598139143E+02 -0.13002288401E+01 -0.19761011234E+00  0.13661589703E+02  0.51100000000E-03 0. -1.
        -11    1    3    3    0    0 -0.14639149639E+02 -0.17404201694E+02  0.66795686826E+00  0.22752079144E+02  0.51100000000E-03 0.  1.
        -12    1    3    3    0    0 -0.11295024620E+02  0.80290552703E+00 -0.10661026879E+01  0.11373601602E+02  0.00000000000E+00 0.  1.
</event>
<event>
 7    1  0.2732193E-010  0.4778733E+02  0.7816164E-02  0.1312668E+00
        -11   -1    0    0    0    0  0.00000000000E+00  0.00000000000E+00  0.45593999997E+02  0.45594000000E+02  0.51100000000E-03 0.  1.
         11   -1    0    0    0    0 -0.00000000000E+00 -0.00000000000E+00 -0.45593999997E+02  0.45594000000E+02  0.51100000000E-03 0. -1.
    9900012    2    1    2    0    0  0.37712556036E+01 -0.17946964886E+02 -0.39335767525E+02  0.47787325763E+02  0.20000249481E+02 0.  0.
        -12    1    1    2    0    0 -0.37712556036E+01  0.17946964886E+02  0.39335767525E+02  0.43400674237E+02  0.00000000000E+00 0.  1.
         11    1    3    3    0    0  0.84384745721E+01 -0.48415865823E+01 -0.79426128134E+01  0.12559216230E+02  0.51100000000E-03 0. -1.
        -11    1    3    3    0    0 -0.43611726224E+01 -0.14178514022E+02 -0.29728957863E+02  0.33224404019E+02  0.51100000000E-03 0.  1.
         12    1    3    3    0    0 -0.30604634613E+00  0.10731357185E+01 -0.16641968487E+01  0.20037055142E+01  0.00000000000E+00 0. -1.
</event>
<event>
 7    1  0.2732193E-010  0.4778727E+02  0.7816164E-02  0.1312668E+00
        -11   -1    0    0    0    0  0.00000000000E+00  0.00000000000E+00  0.45593999997E+02  0.45594000000E+02  0.51100000000E-03 0. -1.
         11   -1    0    0    0    0 -0.00000000000E+00 -0.00000000000E+00 -0.45593999997E+02  0.45594000000E+02  0.51100000000E-03 0.  1.
    9900012    2    1    2    0    0  0.25579794710E+02  0.27632432583E+02  0.21581149914E+02  0.47787271211E+02  0.20000000759E+02 0.  0.
        -12    1    1    2    0    0 -0.25579794710E+02 -0.27632432583E+02 -0.21581149914E+02  0.43400728789E+02  0.00000000000E+00 0.  1.
         11    1    3    3    0    0  0.11878595000E+02  0.22190424943E+02  0.16581767476E+02  0.30140852530E+02  0.51100000000E-03 0. -1.
        -11    1    3    3    0    0  0.20129230529E+01 -0.21549106404E+01  0.45184133028E+00  0.29832297823E+01  0.51100000000E-03 0.  1.
         12    1    3    3    0    0  0.11688276657E+02  0.75969182804E+01  0.45475411069E+01  0.14663188899E+02  0.00000000000E+00 0. -1.
</event>
<event>
 7    1  0.2732193E-010  0.4778727E+02  0.7816164E-02  0.1312668E+00
        -11   -1    0    0    0    0  0.00000000000E+00  0.00000000000E+00  0.45593999997E+02  0.45594000000E+02  0.51100000000E-03 0.  1.
         11   -1    0    0    0    0 -0.00000000000E+00 -0.00000000000E+00 -0.45593999997E+02  0.45594000000E+02  0.51100000000E-03 0. -1.
    9900012    2    1    2    0    0 -0.14026596414E+02 -0.28594534133E+02 -0.29482714711E+02  0.47787271251E+02  0.20000000942E+02 0.  0.
        -12    1    1    2    0    0  0.14026596414E+02  0.28594534133E+02  0.29482714711E+02  0.43400728749E+02  0.00000000000E+00 0.  1.
         11    1    3    3    0    0 -0.11014087683E+02 -0.18730871645E+02 -0.24398818306E+02  0.32671975989E+02  0.51100000000E-03 0. -1.
        -11    1    3    3    0    0 -0.15141646278E+01 -0.25583695166E+00  0.23969728591E+01  0.28466868838E+01  0.51100000000E-03 0.  1.
         12    1    3    3    0    0 -0.14983441038E+01 -0.96078255362E+01 -0.74808692642E+01  0.12268608378E+02  0.00000000000E+00 0. -1.
</event>
<event>
 7    1  0.2732193E-010  0.4778728E+02  0.7816164E-02  0.1312668E+00
        -11   -1    0    0    0    0  0.00000000000E+00  0.00000000000E+00  0.45593999997E+02  0.45594000000E+02  0.51100000000E-03 0.  1.
         11   -1    0    0    0    0 -0.00000000000E+00 -0.00000000000E+00 -0.45593999997E+02  0.45594000000E+02  0.51100000000E-03 0. -1.
    9900012    2    1    2    0    0  0.31706036489E+02  0.29621076629E+02  0.97022501635E+00  0.47787282643E+02  0.20000052884E+02 0.  0.
        -12    1    1    2    0    0 -0.31706036489E+02 -0.29621076629E+02 -0.97022501635E+00  0.43400717357E+02  0.00000000000E+00 0.  1.
         11    1    3    3    0    0  0.13952997766E+02  0.14212238617E+02 -0.89283737708E+01  0.21826354061E+02  0.51100000000E-03 0. -1.
        -11    1    3    3    0    0  0.76433398306E+01  0.88992199038E+01  0.67375760513E+01  0.13528181325E+02  0.51100000000E-03 0.  1.
         12    1    3    3    0    0  0.10109698892E+02  0.65096181081E+01  0.31610227359E+01  0.12432747257E+02  0.00000000000E+00 0. -1.
</event>
<event>
 7    1  0.2732193E-010  0.4778727E+02  0.7816164E-02  0.1312668E+00
        -11   -1    0    0    0    0  0.00000000000E+00  0.00000000000E+00  0.45593999997E+02  0.45594000000E+02  0.51100000000E-03 0.  1.
         11   -1    0    0    0    0 -0.00000000000E+00 -0.00000000000E+00 -0.45593999997E+02  0.45594000000E+02  0.51100000000E-03 0. -1.
    9900012    2    1    2    0    0 -0.22799382571E+02  0.22159301020E+02 -0.29542792728E+02  0.47787273399E+02  0.20000010737E+02 0.  0.
        -12    1    1    2    0    0  0.22799382571E+02 -0.22159301020E+02  0.29542792728E+02  0.43400726601E+02  0.00000000000E+00 0.  1.
         11    1    3    3    0    0  0.25031613130E+01  0.21299642721E+01 -0.61360391315E+01  0.69608577664E+01  0.51100000000E-03 0. -1.
        -11    1    3    3    0    0 -0.17702812274E+02  0.14834161163E+02 -0.21220077929E+02  0.31364527853E+02  0.51100000000E-03 0.  1.
        -12    1    3    3    0    0 -0.75997316098E+01  0.51951755848E+01 -0.21866756670E+01  0.94618877805E+01  0.00000000000E+00 0.  1.
</event>
<event>
 7    1  0.2732193E-010  0.4778728E+02  0.7816164E-02  0.1312668E+00
        -11   -1    0    0    0    0  0.00000000000E+00  0.00000000000E+00  0.45593999997E+02  0.45594000000E+02  0.51100000000E-03 0.  1.
         11   -1    0    0    0    0 -0.00000000000E+00 -0.00000000000E+00 -0.45593999997E+02  0.45594000000E+02  0.51100000000E-03 0. -1.
    9900012    2    1    2    0    0 -0.48252752228E+01 -0.37848317338E+02 -0.20684388402E+02  0.47787281920E+02  0.20000049587E+02 0.  0.
        -12    1    1    2    0    0  0.48252752228E+01  0.37848317338E+02  0.20684388402E+02  0.43400718080E+02  0.00000000000E+00 0.  1.
         11    1    3    3    0    0  0.16713277129E+01 -0.21781922249E+02 -0.21049963109E+02  0.30337211809E+02  0.51100000000E-03 0. -1.
        -11    1    3    3    0    0 -0.58878327288E+01 -0.12492711569E+02  0.53414682028E+00  0.13820988737E+02  0.51100000000E-03 0.  1.
         12    1    3    3    0    0 -0.60877020690E+00 -0.35736835198E+01 -0.16857211373E+00  0.36290813744E+01  0.00000000000E+00 0. -1.
</event>
<event>
 7    1  0.2732193E-010  0.4778727E+02  0.7816164E-02  0.1312668E+00
        -11   -1    0    0    0    0  0.00000000000E+00  0.00000000000E+00  0.45593999997E+02  0.45594000000E+02  0.51100000000E-03 0. -1.
         11   -1    0    0    0    0 -0.00000000000E+00 -0.00000000000E+00 -0.45593999997E+02  0.45594000000E+02  0.51100000000E-03 0.  1.
    9900012    2    1    2    0    0  0.42736993005E+02  0.26431587634E+01  0.70842479933E+01  0.47787269258E+02  0.19999991853E+02 0.  0.
        -12    1    1    2    0    0 -0.42736993005E+02 -0.26431587634E+01 -0.70842479933E+01  0.43400730742E+02  0.00000000000E+00 0.  1.
         11    1    3    3    0    0  0.14781165929E+02  0.94194818205E+00  0.49428277623E+01  0.15614149965E+02  0.51100000000E-03 0. -1.
        -11    1    3    3    0    0  0.52945930950E+01  0.58418185161E+00  0.71716434074E+01  0.89334458022E+01  0.51100000000E-03 0.  1.
        -12    1    3    3    0    0  0.22661233981E+02  0.11170287298E+01 -0.50302231763E+01  0.23239673490E+02  0.00000000000E+00 0.  1.
</event>
<event>
 7    1  0.2732193E-010  0.4778727E+02  0.7816164E-02  0.1312668E+00
        -11   -1    0    0    0    0  0.00000000000E+00  0.00000000000E+00  0.45593999997E+02  0.45594000000E+02  0.51100000000E-03 0. -1.
         11   -1    0    0    0    0 -0.00000000000E+00 -0.00000000000E+00 -0.45593999997E+02  0.45594000000E+02  0.51100000000E-03 0.  1.
    9900012    2    1    2    0    0  0.37114780979E+02 -0.19759164851E+02  0.10756006145E+02  0.47787271539E+02  0.20000002255E+02 0.  0.
        -12    1    1    2    0    0 -0.37114780979E+02  0.19759164851E+02 -0.10756006145E+02  0.43400728461E+02  0.00000000000E+00 0.  1.
         11    1    3    3    0    0  0.18003406461E+02 -0.10797783487E+01  0.32751768266E+00  0.18038731484E+02  0.51100000000E-03 0. -1.
        -11    1    3    3    0    0  0.20007557604E+01  0.46094528168E-01  0.24377603228E+01  0.31540171165E+01  0.51100000000E-03 0.  1.
         12    1    3    3    0    0  0.17110618758E+02 -0.18725481031E+02  0.79907281393E+01  0.26594522938E+02  0.00000000000E+00 0. -1.
</event>
<event>
 7    1  0.2732193E-010  0.4778727E+02  0.7816164E-02  0.1312668E+00
        -11   -1    0    0    0    0  0.00000000000E+00  0.00000000000E+00  0.45593999997E+02  0.45594000000E+02  0.51100000000E-03 0.  1.
         11   -1    0    0    0    0 -0.00000000000E+00 -0.00000000000E+00 -0.45593999997E+02  0.45594000000E+02  0.51100000000E-03 0. -1.
    9900012    2    1    2    0    0  0.24761942150E+02 -0.33908220006E+01 -0.35481988962E+02  0.47787274274E+02  0.20000014723E+02 0.  0.
        -12    1    1    2    0    0 -0.24761942150E+02  0.33908220006E+01  0.35481988962E+02  0.43400725726E+02  0.00000000000E+00 0.  1.
         11    1    3    3    0    0  0.68722238527E+01  0.59825128453E+01 -0.46069234015E+01  0.10209880710E+02  0.51100000000E-03 0. -1.
        -11    1    3    3    0    0  0.11022968899E+02 -0.81885109098E+01 -0.15566341951E+02  0.20757373540E+02  0.51100000000E-03 0.  1.
         12    1    3    3    0    0  0.68667493984E+01 -0.11848239361E+01 -0.15308723609E+02  0.16820020024E+02  0.00000000000E+00 0. -1.
</event>
<event>
 7    1  0.2732193E-010  0.4778727E+02  0.7816164E-02  0.1312668E+00
        -11   -1    0    0    0    0  0.00000000000E+00  0.00000000000E+00  0.45593999997E+02  0.45594000000E+02  0.51100000000E-03 0.  1.
         11   -1    0    0    0    0 -0.00000000000E+00 -0.00000000000E+00 -0.45593999997E+02  0.45594000000E+02  0.51100000000E-03 0. -1.
    9900012    2    1    2    0    0 -0.38120799246E+01 -0.35648698618E+02 -0.24459383568E+02  0.47787272921E+02  0.20000008556E+02 0.  0.
        -12    1    1    2    0    0  0.38120799246E+01  0.35648698618E+02  0.24459383568E+02  0.43400727079E+02  0.00000000000E+00 0.  1.
         11    1    3    3    0    0 -0.38372841528E+01  0.35837738278E+00 -0.35744243289E+01  0.52563954914E+01  0.51100000000E-03 0. -1.
        -11    1    3    3    0    0 -0.37597243177E+01 -0.22100740481E+02 -0.10429283694E+02  0.24725456829E+02  0.51100000000E-03 0.  1.
         12    1    3    3    0    0  0.37849285460E+01 -0.13906335519E+02 -0.10455675545E+02  0.17805420601E+02  0.00000000000E+00 0. -1.
</event>
<event>
 7    1  0.2732193E-010  0.4778727E+02  0.7816164E-02  0.1312668E+00
        -11   -1    0    0    0    0  0.00000000000E+00  0.00000000000E+00  0.45593999997E+02  0.45594000000E+02  0.51100000000E-03 0.  1.
         11   -1    0    0    0    0 -0.00000000000E+00 -0.00000000000E+00 -0.45593999997E+02  0.45594000000E+02  0.51100000000E-03 0. -1.
    9900012    2    1    2    0    0 -0.38354319662E+02  0.18456197637E+02 -0.84816353963E+01  0.47787271816E+02  0.20000003517E+02 0.  0.
        -12    1    1    2    0    0  0.38354319662E+02 -0.18456197637E+02  0.84816353963E+01  0.43400728184E+02  0.00000000000E+00 0.  1.
         11    1    3    3    0    0 -0.10101536849E+02  0.75258211673E+01 -0.13148982376E+00  0.12597472794E+02  0.51100000000E-03 0. -1.
        -11    1    3    3    0    0 -0.28479782043E+02  0.12368365512E+02 -0.48852745903E+01  0.31431518556E+02  0.51100000000E-03 0.  1.
        -12    1    3    3    0    0  0.22699923048E+00 -0.14379890425E+01 -0.34648709823E+01  0.37582804660E+01  0.00000000000E+00 0.  1.
</event>
<event>
 7    1  0.2732193E-010  0.4778725E+02  0.7816164E-02  0.1312668E+00
        -11   -1    0    0    0    0  0.00000000000E+00  0.00000000000E+00  0.45593999997E+02  0.45594000000E+02  0.51100000000E-03 0. -1.
         11   -1    0    0    0    0 -0.00000000000E+00 -0.00000000000E+00 -0.45593999997E+02  0.45594000000E+02  0.51100000000E-03 0.  1.
    9900012    2    1    2    0    0  0.13633202161E+02  0.28506012236E+02  0.29751771498E+02  0.47787252978E+02  0.19999917629E+02 0.  0.
        -12    1    1    2    0    0 -0.13633202161E+02 -0.28506012236E+02 -0.29751771498E+02  0.43400747022E+02  0.00000000000E+00 0.  1.
         11    1    3    3    0    0  0.59597131970E+01  0.17117578967E+02  0.28569786149E+02  0.33834337173E+02  0.51100000000E-03 0. -1.
        -11    1    3    3    0    0  0.33453697399E+01  0.67778930651E+01  0.26624488270E+00  0.75632149049E+01  0.51100000000E-03 0.  1.
         12    1    3    3    0    0  0.43281192244E+01  0.46105402036E+01  0.91574046616E+00  0.63897009000E+01  0.00000000000E+00 0. -1.
</event>
<event>
 7    1  0.2732193E-010  0.4778731E+02  0.7816164E-02  0.1312668E+00
        -11   -1    0    0    0    0  0.00000000000E+00  0.00000000000E+00  0.45593999997E+02  0.45594000000E+02  0.51100000000E-03 0.  1.
         11   -1    0    0    0    0 -0.00000000000E+00 -0.00000000000E+00 -0.45593999997E+02  0.45594000000E+02  0.51100000000E-03 0. -1.
    9900012    2    1    2    0    0 -0.10665021735E+02 -0.39854128251E+02 -0.13473155829E+02  0.47787306972E+02  0.20000163809E+02 0.  0.
        -12    1    1    2    0    0  0.10665021735E+02  0.39854128251E+02  0.13473155829E+02  0.43400693028E+02  0.00000000000E+00 0.  1.
         11    1    3    3    0    0 -0.44786820075E+01 -0.55926593647E+01 -0.64878691007E+00  0.71942585448E+01  0.51100000000E-03 0. -1.
        -11    1    3    3    0    0 -0.75416192363E+01 -0.84104252153E+01 -0.89624543997E+01  0.14420016024E+02  0.51100000000E-03 0.  1.
        -12    1    3    3    0    0  0.13552795086E+01 -0.25851043671E+02 -0.38619145193E+01  0.26173032403E+02  0.00000000000E+00 0.  1.
</event>
<event>
 7    1  0.2732193E-010  0.4778727E+02  0.7816164E-02  0.1312668E+00
        -11   -1    0    0    0    0  0.00000000000E+00  0.00000000000E+00  0.45593999997E+02  0.45594000000E+02  0.51100000000E-03 0.  1.
         11   -1    0    0    0    0 -0.00000000000E+00 -0.00000000000E+00 -0.45593999997E+02  0.45594000000E+02  0.51100000000E-03 0. -1.
    9900012    2    1    2    0    0  0.34573276428E+02 -0.19400727096E+02 -0.17661371021E+02  0.47787266352E+02  0.19999978604E+02 0.  0.
        -12    1    1    2    0    0 -0.34573276428E+02  0.19400727096E+02  0.17661371021E+02  0.43400733648E+02  0.00000000000E+00 0.  1.
         11    1    3    3    0    0  0.12479791625E+02 -0.56199783879E+01  0.53826028958E+00  0.13697411452E+02  0.51100000000E-03 0. -1.
        -11    1    3    3    0    0  0.95773819876E+01 -0.89538126042E+00 -0.11317792284E+02  0.14853295115E+02  0.51100000000E-03 0.  1.
        -12    1    3    3    0    0  0.12516102816E+02 -0.12885367448E+02 -0.68818390275E+01  0.19236559785E+02  0.00000000000E+00 0.  1.
</event>
<event>
 7    1  0.2732193E-010  0.4778727E+02  0.7816164E-02  0.1312668E+00
        -11   -1    0    0    0    0  0.00000000000E+00  0.00000000000E+00  0.45593999997E+02  0.45594000000E+02  0.51100000000E-03 0.  1.
         11   -1    0    0    0    0 -0.00000000000E+00 -0.00000000000E+00 -0.45593999997E+02  0.45594000000E+02  0.51100000000E-03 0. -1.
    9900012    2    1    2    0    0 -0.28345125244E+01  0.37528344642E+02 -0.21615094792E+02  0.47787269181E+02  0.19999991502E+02 0.  0.
        -12    1    1    2    0    0  0.28345125244E+01 -0.37528344642E+02  0.21615094792E+02  0.43400730819E+02  0.00000000000E+00 0.  1.
         11    1    3    3    0    0 -0.71563694782E+01  0.32605591603E+02 -0.16602108127E+02  0.37282277592E+02  0.51100000000E-03 0. -1.
        -11    1    3    3    0    0  0.10312497375E+01  0.40174200570E+01  0.33460247785E+00  0.41611415519E+01  0.51100000000E-03 0.  1.
         12    1    3    3    0    0  0.32906072163E+01  0.90533298173E+00 -0.53475891424E+01  0.63438500373E+01  0.00000000000E+00 0. -1.
</event>
<event>
 7    1  0.2732193E-010  0.4778728E+02  0.7816164E-02  0.1312668E+00
        -11   -1    0    0    0    0  0.00000000000E+00  0.00000000000E+00  0.45593999997E+02  0.45594000000E+02  0.51100000000E-03 0. -1.
         11   -1    0    0    0    0 -0.00000000000E+00 -0.00000000000E+00 -0.45593999997E+02  0.45594000000E+02  0.51100000000E-03 0.  1.
    9900012    2    1    2    0    0  0.10583060476E+01  0.15144146722E+02  0.40659041693E+02  0.47787275778E+02  0.20000021580E+02 0.  0.
        -12    1    1    2    0    0 -0.10583060476E+01 -0.15144146722E+02 -0.40659041693E+02  0.43400724222E+02  0.00000000000E+00 0.  1.
         11    1    3    3    0    0 -0.25979464741E+01 -0.22653066315E+01  0.13987350260E+02  0.14405794236E+02  0.51100000000E-03 0. -1.
        -11    1    3    3    0    0 -0.12209309478E+00  0.13093318092E+02  0.12540808145E+02  0.18130685441E+02  0.51100000000E-03 0.  1.
         12    1    3    3    0    0  0.37783456164E+01  0.43161352623E+01  0.14130883288E+02  0.15250796100E+02  0.00000000000E+00 0. -1.
</event>
<event>
 7    1  0.2732193E-010  0.4778727E+02  0.7816164E-02  0.1312668E+00
        -11   -1    0    0    0    0  0.00000000000E+00  0.00000000000E+00  0.45593999997E+02  0.45594000000E+02  0.51100000000E-03 0.  1.
         11   -1    0    0    0    0 -0.00000000000E+00 -0.00000000000E+00 -0.45593999997E+02  0.45594000000E+02  0.51100000000E-03 0. -1.
    9900012    2    1    2    0    0 -0.10012134853E+02 -0.21606443375E+02 -0.36284183796E+02  0.47787271511E+02  0.20000002127E+02 0.  0.
        -12    1    1    2    0    0  0.10012134853E+02  0.21606443375E+02  0.36284183796E+02  0.43400728489E+02  0.00000000000E+00 0.  1.
         11    1    3    3    0    0 -0.71674646928E+01 -0.47675126522E+01 -0.53427850740E+01  0.10131489506E+02  0.51100000000E-03 0. -1.
        -11    1    3    3    0    0  0.41745770647E+01 -0.58370804621E+01 -0.17533754408E+02  0.18945478244E+02  0.51100000000E-03 0.  1.
         12    1    3    3    0    0 -0.70192472247E+01 -0.11001850261E+02 -0.13407644315E+02  0.18710303761E+02  0.00000000000E+00 0. -1.
</event>
<event>
 7    1  0.2732193E-010  0.4778728E+02  0.7816164E-02  0.1312668E+00
        -11   -1    0    0    0    0  0.00000000000E+00  0.00000000000E+00  0.45593999997E+02  0.45594000000E+02  0.51100000000E-03 0.  1.
         11   -1    0    0    0    0 -0.00000000000E+00 -0.00000000000E+00 -0.45593999997E+02  0.45594000000E+02  0.51100000000E-03 0. -1.
    9900012    2    1    2    0    0 -0.31495457877E+02 -0.18649183100E+01 -0.29802366904E+02  0.47787275810E+02  0.20000021726E+02 0.  0.
        -12    1    1    2    0    0  0.31495457877E+02  0.18649183100E+01  0.29802366904E+02  0.43400724190E+02  0.00000000000E+00 0.  1.
         11    1    3    3    0    0 -0.33075124687E+01  0.35554490431E+01 -0.14050155946E+02  0.14865656360E+02  0.51100000000E-03 0. -1.
        -11    1    3    3    0    0 -0.14283197198E+02 -0.10009766962E+01 -0.78438643991E+01  0.16325988041E+02  0.51100000000E-03 0.  1.
         12    1    3    3    0    0 -0.13904748210E+02 -0.44193906570E+01 -0.79083465586E+01  0.16595631409E+02  0.00000000000E+00 0. -1.
</event>
<event>
 7    1  0.2732193E-010  0.4778727E+02  0.7816164E-02  0.1312668E+00
        -11   -1    0    0    0    0  0.00000000000E+00  0.00000000000E+00  0.45593999997E+02  0.45594000000E+02  0.51100000000E-03 0.  1.
         11   -1    0    0    0    0 -0.00000000000E+00 -0.00000000000E+00 -0.45593999997E+02  0.45594000000E+02  0.51100000000E-03 0. -1.
    9900012    2    1    2    0    0 -0.11914636879E+02  0.16808429049E+02 -0.38198711206E+02  0.47787269628E+02  0.19999993540E+02 0.  0.
        -12    1    1    2    0    0  0.11914636879E+02 -0.16808429049E+02  0.38198711206E+02  0.43400730372E+02  0.00000000000E+00 0.  1.
         11    1    3    3    0    0 -0.57049256261E+00  0.10699647827E+02 -0.26320635258E+02  0.28418018334E+02  0.51100000000E-03 0. -1.
        -11    1    3    3    0    0 -0.49621446943E+01  0.55522314462E+01 -0.22030215194E+01  0.77655301220E+01  0.51100000000E-03 0.  1.
         12    1    3    3    0    0 -0.63819996216E+01  0.55654977551E+00 -0.96750544290E+01  0.11603721172E+02  0.00000000000E+00 0. -1.
</event>
<event>
 7    1  0.2732193E-010  0.4778727E+02  0.7816164E-02  0.1312668E+00
        -11   -1    0    0    0    0  0.00000000000E+00  0.00000000000E+00  0.45593999997E+02  0.45594000000E+02  0.51100000000E-03 0.  1.
         11   -1    0    0    0    0 -0.00000000000E+00 -0.00000000000E+00 -0.45593999997E+02  0.45594000000E+02  0.51100000000E-03 0. -1.
    9900012    2    1    2    0    0  0.22284444676E+02 -0.30321228207E+02 -0.21625213933E+02  0.47787271525E+02  0.20000002192E+02 0.  0.
        -12    1    1    2    0    0 -0.22284444676E+02  0.30321228207E+02  0.21625213933E+02  0.43400728475E+02  0.00000000000E+00 0.  1.
         11    1    3    3    0    0  0.93792575472E+01 -0.92922162217E+01 -0.77954741782E+01  0.15332487482E+02  0.51100000000E-03 0. -1.
        -11    1    3    3    0    0 -0.37249289291E+01 -0.52403313379E+01 -0.29903700509E+01  0.70907320751E+01  0.51100000000E-03 0.  1.
        -12    1    3    3    0    0  0.16630116058E+02 -0.15788680648E+02 -0.10839369704E+02  0.25364051969E+02  0.00000000000E+00 0.  1.
</event>
<event>
 7    1  0.2732193E-010  0.4778727E+02  0.7816164E-02  0.1312668E+00
        -11   -1    0    0    0    0  0.00000000000E+00  0.00000000000E+00  0.45593999997E+02  0.45594000000E+02  0.51100000000E-03 0. -1.
         11   -1    0    0    0    0 -0.00000000000E+00 -0.00000000000E+00 -0.45593999997E+02  0.45594000000E+02  0.51100000000E-03 0.  1.
    9900012    2    1    2    0    0  0.30375789834E+02  0.37295691199E+01  0.30773771215E+02  0.47787270874E+02  0.19999999225E+02 0.  0.
        -12    1    1    2    0    0 -0.30375789834E+02 -0.37295691199E+01 -0.30773771215E+02  0.43400729126E+02  0.00000000000E+00 0.  1.
         11    1    3    3    0    0  0.90337041392E+01  0.11651095849E+01  0.10885699522E+02  0.14193792487E+02  0.51100000000E-03 0. -1.
        -11    1    3    3    0    0  0.35134724843E+01  0.54243579068E+01  0.12523610233E+02  0.14092869159E+02  0.51100000000E-03 0.  1.
        -12    1    3    3    0    0  0.17828613210E+02 -0.28598983718E+01  0.73644614602E+01  0.19500609229E+02  0.00000000000E+00 0.  1.
</event>
<event>
 7    1  0.2732193E-010  0.4778727E+02  0.7816164E-02  0.1312668E+00
        -11   -1    0    0    0    0  0.00000000000E+00  0.00000000000E+00  0.45593999997E+02  0.45594000000E+02  0.51100000000E-03 0.  1.
         11   -1    0    0    0    0 -0.00000000000E+00 -0.00000000000E+00 -0.45593999997E+02  0.45594000000E+02  0.51100000000E-03 0. -1.
    9900012    2    1    2    0    0 -0.16076216895E+02  0.49564009444E+01 -0.40007660192E+02  0.47787268048E+02  0.19999986337E+02 0.  0.
        -12    1    1    2    0    0  0.16076216895E+02 -0.49564009444E+01  0.40007660192E+02  0.43400731952E+02  0.00000000000E+00 0.  1.
         11    1    3    3    0    0 -0.17862011063E+02 -0.72836648885E+00 -0.27242471835E+02  0.32584263516E+02  0.51100000000E-03 0. -1.
        -11    1    3    3    0    0  0.23062674217E+01  0.48919589793E+01 -0.13119542994E+02  0.14190579294E+02  0.51100000000E-03 0.  1.
         12    1    3    3    0    0 -0.52047325395E+00  0.79280845402E+00  0.35435463697E+00  0.10124252375E+01  0.00000000000E+00 0. -1.
</event>
<event>
 7    1  0.2732193E-010  0.4778728E+02  0.7816164E-02  0.1312668E+00
        -11   -1    0    0    0    0  0.00000000000E+00  0.00000000000E+00  0.45593999997E+02  0.45594000000E+02  0.51100000000E-03 0. -1.
         11   -1    0    0    0    0 -0.00000000000E+00 -0.00000000000E+00 -0.45593999997E+02  0.45594000000E+02  0.51100000000E-03 0.  1.
    9900012    2    1    2    0    0  0.37368697359E+02 -0.20679679237E+01  0.21975593505E+02  0.47787277155E+02  0.20000027859E+02 0.  0.
        -12    1    1    2    0    0 -0.37368697359E+02  0.20679679237E+01 -0.21975593505E+02  0.43400722845E+02  0.00000000000E+00 0.  1.
         11    1    3    3    0    0  0.20012105653E+02  0.22719914515E+01  0.49403044646E+01  0.20737717480E+02  0.51100000000E-03 0. -1.
        -11    1    3    3    0    0  0.21007297308E+01 -0.51679287693E+01  0.31623248551E+01  0.64125542428E+01  0.51100000000E-03 0.  1.
         12    1    3    3    0    0  0.15255861975E+02  0.82796939410E+00  0.13872964185E+02  0.20637005432E+02  0.00000000000E+00 0. -1.
</event>
<event>
 7    1  0.2732193E-010  0.4778726E+02  0.7816164E-02  0.1312668E+00
        -11   -1    0    0    0    0  0.00000000000E+00  0.00000000000E+00  0.45593999997E+02  0.45594000000E+02  0.51100000000E-03 0.  1.
         11   -1    0    0    0    0 -0.00000000000E+00 -0.00000000000E+00 -0.45593999997E+02  0.45594000000E+02  0.51100000000E-03 0. -1.
    9900012    2    1    2    0    0  0.45874806500E+01  0.32075100302E+02 -0.28875025101E+02  0.47787261381E+02  0.19999955939E+02 0.  0.
        -12    1    1    2    0    0 -0.45874806500E+01 -0.32075100302E+02  0.28875025101E+02  0.43400738619E+02  0.00000000000E+00 0.  1.
         11    1    3    3    0    0  0.68925702334E+00  0.17055305923E+02 -0.84864107087E+01  0.19062468422E+02  0.51100000000E-03 0. -1.
        -11    1    3    3    0    0 -0.29751034037E+01  0.81945456607E-01 -0.66932970104E+01  0.73251744314E+01  0.51100000000E-03 0.  1.
        -12    1    3    3    0    0  0.68733270303E+01  0.14937848923E+02 -0.13695317382E+02  0.21399618527E+02  0.00000000000E+00 0.  1.
</event>
<event>
 7    1  0.2732193E-010  0.4778727E+02  0.7816164E-02  0.1312668E+00
        -11   -1    0    0    0    0  0.00000000000E+00  0.00000000000E+00  0.45593999997E+02  0.45594000000E+02  0.51100000000E-03 0.  1.
         11   -1    0    0    0    0 -0.00000000000E+00 -0.00000000000E+00 -0.45593999997E+02  0.45594000000E+02  0.51100000000E-03 0. -1.
    9900012    2    1    2    0    0 -0.28731054678E+02  0.22272417721E+02 -0.23708427904E+02  0.47787266738E+02  0.19999980363E+02 0.  0.
        -12    1    1    2    0    0  0.28731054678E+02 -0.22272417721E+02  0.23708427904E+02  0.43400733262E+02  0.00000000000E+00 0.  1.
         11    1    3    3    0    0 -0.25820984539E+01  0.21178569651E+01 -0.80523242385E+01  0.87173663714E+01  0.51100000000E-03 0. -1.
        -11    1    3    3    0    0 -0.20877275685E+02  0.21848921552E+02 -0.13878349813E+02  0.33254241937E+02  0.51100000000E-03 0.  1.
        -12    1    3    3    0    0 -0.52716805390E+01 -0.16943607953E+01 -0.17777538525E+01  0.58156584296E+01  0.00000000000E+00 0.  1.
</event>
<event>
 7    1  0.2732193E-010  0.4778727E+02  0.7816164E-02  0.1312668E+00
        -11   -1    0    0    0    0  0.00000000000E+00  0.00000000000E+00  0.45593999997E+02  0.45594000000E+02  0.51100000000E-03 0. -1.
         11   -1    0    0    0    0 -0.00000000000E+00 -0.00000000000E+00 -0.45593999997E+02  0.45594000000E+02  0.51100000000E-03 0.  1.
    9900012    2    1    2    0    0  0.24261061422E+02 -0.18346277529E+02 -0.30958658234E+02  0.47787268207E+02  0.19999987064E+02 0.  0.
        -12    1    1    2    0    0 -0.24261061422E+02  0.18346277529E+02  0.30958658234E+02  0.43400731793E+02  0.00000000000E+00 0.  1.
         11    1    3    3    0    0  0.74271154703E+01 -0.60810672180E+01 -0.99649833253E+01  0.13836268126E+02  0.51100000000E-03 0. -1.
        -11    1    3    3    0    0  0.79333331319E+01 -0.11477647071E+02 -0.36204781132E+01  0.14414645986E+02  0.51100000000E-03 0.  1.
        -12    1    3    3    0    0  0.89006128197E+01 -0.78756323964E+00 -0.17373196796E+02  0.19536354095E+02  0.00000000000E+00 0.  1.
</event>
<event>
 7    1  0.2732193E-010  0.4778727E+02  0.7816164E-02  0.1312668E+00
        -11   -1    0    0    0    0  0.00000000000E+00  0.00000000000E+00  0.45593999997E+02  0.45594000000E+02  0.51100000000E-03 0.  1.
         11   -1    0    0    0    0 -0.00000000000E+00 -0.00000000000E+00 -0.45593999997E+02  0.45594000000E+02  0.51100000000E-03 0. -1.
    9900012    2    1    2    0    0 -0.16140026311E+02 -0.39439821414E+02 -0.82233410051E+01  0.47787270746E+02  0.19999998638E+02 0.  0.
        -12    1    1    2    0    0  0.16140026311E+02  0.39439821414E+02  0.82233410051E+01  0.43400729254E+02  0.00000000000E+00 0.  1.
         11    1    3    3    0    0  0.24309062781E+01 -0.44666607938E+01 -0.52013739803E+01  0.72742460450E+01  0.51100000000E-03 0.  1.
        -11    1    3    3    0    0 -0.12445670138E+02 -0.25945308916E+02 -0.55692906449E+01  0.29309908879E+02  0.51100000000E-03 0. -1.
         12    1    3    3    0    0 -0.61252624508E+01 -0.90278517050E+01  0.25473236201E+01  0.11203115822E+02  0.00000000000E+00 0. -1.
</event>
<event>
 7    1  0.2732193E-010  0.4778730E+02  0.7816164E-02  0.1312668E+00
        -11   -1    0    0    0    0  0.00000000000E+00  0.00000000000E+00  0.45593999997E+02  0.45594000000E+02  0.51100000000E-03 0.  1.
         11   -1    0    0    0    0 -0.00000000000E+00 -0.00000000000E+00 -0.45593999997E+02  0.45594000000E+02  0.51100000000E-03 0. -1.
    9900012    2    1    2    0    0 -0.42979852928E+02 -0.56002927645E+01 -0.22337554859E+01  0.47787300693E+02  0.20000135180E+02 0.  0.
        -12    1    1    2    0    0  0.42979852928E+02  0.56002927645E+01  0.22337554859E+01  0.43400699307E+02  0.00000000000E+00 0.  1.
         11    1    3    3    0    0 -0.34559157013E+02 -0.37727168761E+01  0.29751906428E+01  0.34891553214E+02  0.51100000000E-03 0.  1.
        -11    1    3    3    0    0 -0.62608832752E+01 -0.37151064440E+01 -0.64912268225E+01  0.97538044474E+01  0.51100000000E-03 0. -1.
        -12    1    3    3    0    0 -0.21598126396E+01  0.18875305555E+01  0.12822806937E+01  0.31419430316E+01  0.00000000000E+00 0.  1.
</event>
<event>
 7    1  0.2732193E-010  0.4778727E+02  0.7816164E-02  0.1312668E+00
        -11   -1    0    0    0    0  0.00000000000E+00  0.00000000000E+00  0.45593999997E+02  0.45594000000E+02  0.51100000000E-03 0.  1.
         11   -1    0    0    0    0 -0.00000000000E+00 -0.00000000000E+00 -0.45593999997E+02  0.45594000000E+02  0.51100000000E-03 0. -1.
    9900012    2    1    2    0    0  0.29183771314E+02  0.29563626227E+02 -0.12566730168E+02  0.47787271769E+02  0.20000003306E+02 0.  0.
        -12    1    1    2    0    0 -0.29183771314E+02 -0.29563626227E+02  0.12566730168E+02  0.43400728231E+02  0.00000000000E+00 0.  1.
         11    1    3    3    0    0  0.22732935259E+02  0.12209408193E+02 -0.13475456082E+02  0.29110889901E+02  0.51100000000E-03 0. -1.
        -11    1    3    3    0    0  0.12485974042E+01  0.60786877223E+01  0.80989555315E+00  0.62582242666E+01  0.51100000000E-03 0.  1.
         12    1    3    3    0    0  0.52022386510E+01  0.11275530312E+02  0.98830361011E-01  0.12418157602E+02  0.00000000000E+00 0. -1.
</event>
<event>
 7    1  0.2732193E-010  0.4778727E+02  0.7816164E-02  0.1312668E+00
        -11   -1    0    0    0    0  0.00000000000E+00  0.00000000000E+00  0.45593999997E+02  0.45594000000E+02  0.51100000000E-03 0.  1.
         11   -1    0    0    0    0 -0.00000000000E+00 -0.00000000000E+00 -0.45593999997E+02  0.45594000000E+02  0.51100000000E-03 0. -1.
    9900012    2    1    2    0    0 -0.22801376224E+02  0.35380747514E+02 -0.10579375623E+02  0.47787271424E+02  0.20000001732E+02 0.  0.
        -12    1    1    2    0    0  0.22801376224E+02 -0.35380747514E+02  0.10579375623E+02  0.43400728576E+02  0.00000000000E+00 0.  1.
         11    1    3    3    0    0 -0.57851989451E+01  0.66546662379E+01  0.39644978911E+01  0.96680066902E+01  0.51100000000E-03 0. -1.
        -11    1    3    3    0    0 -0.33854178525E+01  0.44765898001E+01  0.17520214297E+01  0.58796674758E+01  0.51100000000E-03 0.  1.
         12    1    3    3    0    0 -0.13630759426E+02  0.24249491476E+02 -0.16295894943E+02  0.32239597258E+02  0.00000000000E+00 0. -1.
</event>
<event>
 7    1  0.2732193E-010  0.4778727E+02  0.7816164E-02  0.1312668E+00
        -11   -1    0    0    0    0  0.00000000000E+00  0.00000000000E+00  0.45593999997E+02  0.45594000000E+02  0.51100000000E-03 0.  1.
         11   -1    0    0    0    0 -0.00000000000E+00 -0.00000000000E+00 -0.45593999997E+02  0.45594000000E+02  0.51100000000E-03 0. -1.
    9900012    2    1    2    0    0 -0.35010601179E+02  0.15053289402E+02 -0.20767282613E+02  0.47787265630E+02  0.19999975312E+02 0.  0.
        -12    1    1    2    0    0  0.35010601179E+02 -0.15053289402E+02  0.20767282613E+02  0.43400734370E+02  0.00000000000E+00 0.  1.
         11    1    3    3    0    0 -0.38124533303E+01 -0.39390901550E+01 -0.60987476947E+01  0.82003631230E+01  0.51100000000E-03 0. -1.
        -11    1    3    3    0    0 -0.12796781314E+02  0.76348728629E+01 -0.37661892236E+01  0.15369875639E+02  0.51100000000E-03 0.  1.
         12    1    3    3    0    0 -0.18401366534E+02  0.11357506694E+02 -0.10902345695E+02  0.24217026867E+02  0.00000000000E+00 0. -1.
</event>
<event>
 7    1  0.2732193E-010  0.4778727E+02  0.7816164E-02  0.1312668E+00
        -11   -1    0    0    0    0  0.00000000000E+00  0.00000000000E+00  0.45593999997E+02  0.45594000000E+02  0.51100000000E-03 0. -1.
         11   -1    0    0    0    0 -0.00000000000E+00 -0.00000000000E+00 -0.45593999997E+02  0.45594000000E+02  0.51100000000E-03 0.  1.
    9900012    2    1    2    0    0  0.28086709566E+02  0.59012761451E+01  0.32556639583E+02  0.47787273101E+02  0.20000009378E+02 0.  0.
        -12    1    1    2    0    0 -0.28086709566E+02 -0.59012761451E+01 -0.32556639583E+02  0.43400726899E+02  0.00000000000E+00 0.  1.
         11    1    3    3    0    0  0.56543126438E+01 -0.63858303451E+01  0.85321497478E+01  0.12064313501E+02  0.51100000000E-03 0. -1.
        -11    1    3    3    0    0  0.98762192428E+01  0.78692501872E+01  0.82548267294E+01  0.15086648721E+02  0.51100000000E-03 0.  1.
         12    1    3    3    0    0  0.12556177680E+02  0.44178563030E+01  0.15769663106E+02  0.20636310879E+02  0.00000000000E+00 0. -1.
</event>
<event>
 7    1  0.2732193E-010  0.4778727E+02  0.7816164E-02  0.1312668E+00
        -11   -1    0    0    0    0  0.00000000000E+00  0.00000000000E+00  0.45593999997E+02  0.45594000000E+02  0.51100000000E-03 0. -1.
         11   -1    0    0    0    0 -0.00000000000E+00 -0.00000000000E+00 -0.45593999997E+02  0.45594000000E+02  0.51100000000E-03 0.  1.
    9900012    2    1    2    0    0  0.38645497549E+02 -0.72744786512E+01  0.18363848477E+02  0.47787269000E+02  0.19999990677E+02 0.  0.
        -12    1    1    2    0    0 -0.38645497549E+02  0.72744786512E+01 -0.18363848477E+02  0.43400731000E+02  0.00000000000E+00 0.  1.
         11    1    3    3    0    0  0.24328200602E+02  0.17513086412E+01  0.50599889268E+01  0.24910478010E+02  0.51100000000E-03 0.  1.
        -11    1    3    3    0    0  0.37516672813E+01 -0.64250352516E+01  0.74160173667E+01  0.10504922618E+02  0.51100000000E-03 0. -1.
        -12    1    3    3    0    0  0.10565629666E+02 -0.26007520407E+01  0.58878421840E+01  0.12371868372E+02  0.00000000000E+00 0.  1.
</event>
<event>
 7    1  0.2732193E-010  0.4778727E+02  0.7816164E-02  0.1312668E+00
        -11   -1    0    0    0    0  0.00000000000E+00  0.00000000000E+00  0.45593999997E+02  0.45594000000E+02  0.51100000000E-03 0.  1.
         11   -1    0    0    0    0 -0.00000000000E+00 -0.00000000000E+00 -0.45593999997E+02  0.45594000000E+02  0.51100000000E-03 0. -1.
    9900012    2    1    2    0    0 -0.45513043411E+01 -0.36288338669E+02 -0.23368041945E+02  0.47787270987E+02  0.19999999736E+02 0.  0.
        -12    1    1    2    0    0  0.45513043411E+01  0.36288338669E+02  0.23368041945E+02  0.43400729013E+02  0.00000000000E+00 0.  1.
         11    1    3    3    0    0 -0.68282934833E+01 -0.28376199163E+02 -0.14060716576E+02  0.32396574228E+02  0.51100000000E-03 0. -1.
        -11    1    3    3    0    0  0.16833988043E+01  0.17379427471E+01 -0.29685967403E+01  0.38297315041E+01  0.51100000000E-03 0.  1.
         12    1    3    3    0    0  0.59359033794E+00 -0.96500822529E+01 -0.63387286293E+01  0.11560965254E+02  0.00000000000E+00 0. -1.
</event>
<event>
 7    1  0.2732193E-010  0.4778729E+02  0.7816164E-02  0.1312668E+00
        -11   -1    0    0    0    0  0.00000000000E+00  0.00000000000E+00  0.45593999997E+02  0.45594000000E+02  0.51100000000E-03 0. -1.
         11   -1    0    0    0    0 -0.00000000000E+00 -0.00000000000E+00 -0.45593999997E+02  0.45594000000E+02  0.51100000000E-03 0.  1.
    9900012    2    1    2    0    0 -0.16567242997E+02 -0.10182732370E+02  0.38800253632E+02  0.47787294234E+02  0.20000105732E+02 0.  0.
        -12    1    1    2    0    0  0.16567242997E+02  0.10182732370E+02 -0.38800253632E+02  0.43400705766E+02  0.00000000000E+00 0.  1.
         11    1    3    3    0    0 -0.82436887223E+01  0.47171592169E+01  0.14269517111E+02  0.17141444329E+02  0.51100000000E-03 0. -1.
        -11    1    3    3    0    0 -0.20171735513E+01 -0.95062160507E+01  0.16173803406E+02  0.18868732061E+02  0.51100000000E-03 0.  1.
         12    1    3    3    0    0 -0.63063807238E+01 -0.53936755364E+01  0.83569331152E+01  0.11777117844E+02  0.00000000000E+00 0. -1.
</event>
<event>
 7    1  0.2732193E-010  0.4778727E+02  0.7816164E-02  0.1312668E+00
        -11   -1    0    0    0    0  0.00000000000E+00  0.00000000000E+00  0.45593999997E+02  0.45594000000E+02  0.51100000000E-03 0. -1.
         11   -1    0    0    0    0 -0.00000000000E+00 -0.00000000000E+00 -0.45593999997E+02  0.45594000000E+02  0.51100000000E-03 0.  1.
    9900012    2    1    2    0    0 -0.44201187721E+01  0.16375174548E+02  0.39949211845E+02  0.47787270530E+02  0.19999997656E+02 0.  0.
        -12    1    1    2    0    0  0.44201187721E+01 -0.16375174548E+02 -0.39949211845E+02  0.43400729470E+02  0.00000000000E+00 0.  1.
         11    1    3    3    0    0 -0.59337628482E+00  0.10257490983E+02  0.25966293804E+02  0.27925197061E+02  0.51100000000E-03 0. -1.
        -11    1    3    3    0    0 -0.29633253444E+01  0.59630183513E+01  0.86480685956E+00  0.67146687275E+01  0.51100000000E-03 0.  1.
        -12    1    3    3    0    0 -0.86341714289E+00  0.15466521402E+00  0.13118111181E+02  0.13147404742E+02  0.00000000000E+00 0.  1.
</event>
<event>
 7    1  0.2732193E-010  0.4778727E+02  0.7816164E-02  0.1312668E+00
        -11   -1    0    0    0    0  0.00000000000E+00  0.00000000000E+00  0.45593999997E+02  0.45594000000E+02  0.51100000000E-03 0.  1.
         11   -1    0    0    0    0 -0.00000000000E+00 -0.00000000000E+00 -0.45593999997E+02  0.45594000000E+02  0.51100000000E-03 0. -1.
    9900012    2    1    2    0    0 -0.35737527943E+02 -0.23283735545E+02  0.80199729622E+01  0.47787271772E+02  0.20000003317E+02 0.  0.
        -12    1    1    2    0    0  0.35737527943E+02  0.23283735545E+02 -0.80199729622E+01  0.43400728228E+02  0.00000000000E+00 0.  1.
         11    1    3    3    0    0 -0.20674506375E+02 -0.47663764798E+01  0.79292245491E+01  0.22650080812E+02  0.51100000000E-03 0. -1.
        -11    1    3    3    0    0 -0.11054713106E+01  0.72134048411E+00 -0.34637691788E+00  0.13646890279E+01  0.51100000000E-03 0.  1.
         12    1    3    3    0    0 -0.13957550258E+02 -0.19238699549E+02  0.43712533093E+00  0.23772501932E+02  0.00000000000E+00 0. -1.
</event>
<event>
 7    1  0.2732193E-010  0.4778727E+02  0.7816164E-02  0.1312668E+00
        -11   -1    0    0    0    0  0.00000000000E+00  0.00000000000E+00  0.45593999997E+02  0.45594000000E+02  0.51100000000E-03 0.  1.
         11   -1    0    0    0    0 -0.00000000000E+00 -0.00000000000E+00 -0.45593999997E+02  0.45594000000E+02  0.51100000000E-03 0. -1.
    9900012    2    1    2    0    0  0.39116243779E+02  0.28789184094E+01 -0.18581023158E+02  0.47787272815E+02  0.20000008072E+02 0.  0.
        -12    1    1    2    0    0 -0.39116243779E+02 -0.28789184094E+01  0.18581023158E+02  0.43400727185E+02  0.00000000000E+00 0.  1.
         11    1    3    3    0    0  0.19865517541E+02 -0.29438460373E+01 -0.14010550723E+02  0.24486742301E+02  0.51100000000E-03 0. -1.
        -11    1    3    3    0    0  0.13941439900E+02  0.50174866383E+01  0.18482993037E+01  0.14931682063E+02  0.51100000000E-03 0.  1.
        -12    1    3    3    0    0  0.53092863380E+01  0.80527780846E+00 -0.64187717380E+01  0.83688484508E+01  0.00000000000E+00 0.  1.
</event>
<event>
 7    1  0.2732193E-010  0.4778727E+02  0.7816164E-02  0.1312668E+00
        -11   -1    0    0    0    0  0.00000000000E+00  0.00000000000E+00  0.45593999997E+02  0.45594000000E+02  0.51100000000E-03 0.  1.
         11   -1    0    0    0    0 -0.00000000000E+00 -0.00000000000E+00 -0.45593999997E+02  0.45594000000E+02  0.51100000000E-03 0. -1.
    9900012    2    1    2    0    0 -0.17576751253E+02 -0.33126615706E+02 -0.21847385895E+02  0.47787272781E+02  0.20000007917E+02 0.  0.
        -12    1    1    2    0    0  0.17576751253E+02  0.33126615706E+02  0.21847385895E+02  0.43400727219E+02  0.00000000000E+00 0.  1.
         11    1    3    3    0    0 -0.33330618642E+01 -0.38127088872E+01  0.19408696019E+01  0.54233776857E+01  0.51100000000E-03 0. -1.
        -11    1    3    3    0    0 -0.24504643730E+01 -0.11684288726E+01  0.11552556892E+01  0.29503589005E+01  0.51100000000E-03 0.  1.
         12    1    3    3    0    0 -0.11793225016E+02 -0.28145477946E+02 -0.24943511186E+02  0.39413536195E+02  0.00000000000E+00 0. -1.
</event>
<event>
 7    1  0.2732193E-010  0.4778729E+02  0.7816164E-02  0.1312668E+00
        -11   -1    0    0    0    0  0.00000000000E+00  0.00000000000E+00  0.45593999997E+02  0.45594000000E+02  0.51100000000E-03 0.  1.
         11   -1    0    0    0    0 -0.00000000000E+00 -0.00000000000E+00 -0.45593999997E+02  0.45594000000E+02  0.51100000000E-03 0. -1.
    9900012    2    1    2    0    0  0.28982041059E+02 -0.18337293297E+02 -0.26597119414E+02  0.47787288133E+02  0.20000077915E+02 0.  0.
        -12    1    1    2    0    0 -0.28982041059E+02  0.18337293297E+02  0.26597119414E+02  0.43400711867E+02  0.00000000000E+00 0.  1.
         11    1    3    3    0    0  0.15085276151E+02 -0.66860651779E+01 -0.17901096921E+02  0.24345806525E+02  0.51100000000E-03 0. -1.
        -11    1    3    3    0    0  0.59917198153E+01 -0.76030808203E+01  0.16353624837E+01  0.98174311823E+01  0.51100000000E-03 0.  1.
        -12    1    3    3    0    0  0.79050450926E+01 -0.40481472989E+01 -0.10331384977E+02  0.13624050426E+02  0.00000000000E+00 0.  1.
</event>
<event>
 7    1  0.2732193E-010  0.4778727E+02  0.7816164E-02  0.1312668E+00
        -11   -1    0    0    0    0  0.00000000000E+00  0.00000000000E+00  0.45593999997E+02  0.45594000000E+02  0.51100000000E-03 0.  1.
         11   -1    0    0    0    0 -0.00000000000E+00 -0.00000000000E+00 -0.45593999997E+02  0.45594000000E+02  0.51100000000E-03 0. -1.
    9900012    2    1    2    0    0 -0.66192465006E+01 -0.38438203924E+02 -0.19034543542E+02  0.47787265064E+02  0.19999972732E+02 0.  0.
        -12    1    1    2    0    0  0.66192465006E+01  0.38438203924E+02  0.19034543542E+02  0.43400734936E+02  0.00000000000E+00 0.  1.
         11    1    3    3    0    0 -0.20278269848E+01 -0.15040857830E+02  0.11022779058E+01  0.15216915041E+02  0.51100000000E-03 0. -1.
        -11    1    3    3    0    0  0.20862303847E+01 -0.91528493016E+01 -0.10660504419E+02  0.14204695079E+02  0.51100000000E-03 0.  1.
         12    1    3    3    0    0 -0.66776499005E+01 -0.14244496793E+02 -0.94763170286E+01  0.18365654943E+02  0.00000000000E+00 0. -1.
</event>
<event>
 7    1  0.2732193E-010  0.4778727E+02  0.7816164E-02  0.1312668E+00
        -11   -1    0    0    0    0  0.00000000000E+00  0.00000000000E+00  0.45593999997E+02  0.45594000000E+02  0.51100000000E-03 0.  1.
         11   -1    0    0    0    0 -0.00000000000E+00 -0.00000000000E+00 -0.45593999997E+02  0.45594000000E+02  0.51100000000E-03 0. -1.
    9900012    2    1    2    0    0 -0.80163965096E+01  0.42396338359E+02 -0.46809273408E+01  0.47787271895E+02  0.20000003877E+02 0.  0.
        -12    1    1    2    0    0  0.80163965096E+01 -0.42396338359E+02  0.46809273408E+01  0.43400728105E+02  0.00000000000E+00 0.  1.
         11    1    3    3    0    0 -0.40875332553E+01  0.38873131493E+02 -0.82122783469E+01  0.39940828686E+02  0.51100000000E-03 0. -1.
        -11    1    3    3    0    0 -0.48700489014E+01  0.31909658855E+01  0.22970427263E+01  0.62590770191E+01  0.51100000000E-03 0.  1.
        -12    1    3    3    0    0  0.94118564714E+00  0.33224098083E+00  0.12343082798E+01  0.15873661900E+01  0.00000000000E+00 0.  1.
</event>
<event>
 7    1  0.2732193E-010  0.4778727E+02  0.7816164E-02  0.1312668E+00
        -11   -1    0    0    0    0  0.00000000000E+00  0.00000000000E+00  0.45593999997E+02  0.45594000000E+02  0.51100000000E-03 0.  1.
         11   -1    0    0    0    0 -0.00000000000E+00 -0.00000000000E+00 -0.45593999997E+02  0.45594000000E+02  0.51100000000E-03 0. -1.
    9900012    2    1    2    0    0 -0.12979015163E+02  0.24640847304E+02 -0.33286590576E+02  0.47787270713E+02  0.19999998491E+02 0.  0.
        -12    1    1    2    0    0  0.12979015163E+02 -0.24640847304E+02  0.33286590576E+02  0.43400729287E+02  0.00000000000E+00 0.  1.
         11    1    3    3    0    0 -0.47323195336E+01  0.12203864631E+02 -0.19160525898E+02  0.23204631284E+02  0.51100000000E-03 0. -1.
        -11    1    3    3    0    0 -0.35451379267E+01  0.37412433511E+01  0.21137763521E+01  0.55707230643E+01  0.51100000000E-03 0.  1.
        -12    1    3    3    0    0 -0.47015577023E+01  0.86957393222E+01 -0.16239841030E+02  0.19011916365E+02  0.00000000000E+00 0.  1.
</event>
<event>
 7    1  0.2732193E-010  0.4778728E+02  0.7816164E-02  0.1312668E+00
        -11   -1    0    0    0    0  0.00000000000E+00  0.00000000000E+00  0.45593999997E+02  0.45594000000E+02  0.51100000000E-03 0.  1.
         11   -1    0    0    0    0 -0.00000000000E+00 -0.00000000000E+00 -0.45593999997E+02  0.45594000000E+02  0.51100000000E-03 0. -1.
    9900012    2    1    2    0    0  0.20430752201E+02 -0.35676642061E+02  0.13906270599E+02  0.47787276662E+02  0.20000025614E+02 0.  0.
        -12    1    1    2    0    0 -0.20430752201E+02  0.35676642061E+02 -0.13906270599E+02  0.43400723338E+02  0.00000000000E+00 0.  1.
         11    1    3    3    0    0 -0.80295838127E+00 -0.11326591810E+01 -0.22238986941E+01  0.26217140662E+01  0.51100000000E-03 0. -1.
        -11    1    3    3    0    0  0.15706582912E+02 -0.16697635310E+02  0.12579024073E+02  0.26148415222E+02  0.51100000000E-03 0.  1.
        -12    1    3    3    0    0  0.55271276701E+01 -0.17846347570E+02  0.35511452197E+01  0.19017147374E+02  0.00000000000E+00 0.  1.
</event>
<event>
 7    1  0.2732193E-010  0.4778727E+02  0.7816164E-02  0.1312668E+00
        -11   -1    0    0    0    0  0.00000000000E+00  0.00000000000E+00  0.45593999997E+02  0.45594000000E+02  0.51100000000E-03 0.  1.
         11   -1    0    0    0    0 -0.00000000000E+00 -0.00000000000E+00 -0.45593999997E+02  0.45594000000E+02  0.51100000000E-03 0. -1.
    9900012    2    1    2    0    0  0.23811563827E+02 -0.35069359613E+02 -0.93151815680E+01  0.47787272320E+02  0.20000005814E+02 0.  0.
        -12    1    1    2    0    0 -0.23811563827E+02  0.35069359613E+02  0.93151815680E+01  0.43400727680E+02  0.00000000000E+00 0.  1.
         11    1    3    3    0    0  0.15184000200E+01 -0.16274140020E+02 -0.38918470834E+01  0.16801775084E+02  0.51100000000E-03 0. -1.
        -11    1    3    3    0    0  0.10476963791E+01 -0.24189236750E+01  0.18163181552E+01  0.32012296622E+01  0.51100000000E-03 0.  1.
         12    1    3    3    0    0  0.21245467428E+02 -0.16376295918E+02 -0.72396526397E+01  0.27784267573E+02  0.00000000000E+00 0. -1.
</event>
<event>
 7    1  0.2732193E-010  0.4778727E+02  0.7816164E-02  0.1312668E+00
        -11   -1    0    0    0    0  0.00000000000E+00  0.00000000000E+00  0.45593999997E+02  0.45594000000E+02  0.51100000000E-03 0. -1.
         11   -1    0    0    0    0 -0.00000000000E+00 -0.00000000000E+00 -0.45593999997E+02  0.45594000000E+02  0.51100000000E-03 0.  1.
    9900012    2    1    2    0    0 -0.16825049077E+01  0.18955577165E+02  0.39006134532E+02  0.47787271210E+02  0.20000000754E+02 0.  0.
        -12    1    1    2    0    0  0.16825049077E+01 -0.18955577165E+02 -0.39006134532E+02  0.43400728790E+02  0.00000000000E+00 0.  1.
         11    1    3    3    0    0  0.20295107804E+01  0.16956039318E+02  0.30748138742E+02  0.35172065900E+02  0.51100000000E-03 0. -1.
        -11    1    3    3    0    0  0.15503253744E+00  0.23133525469E+01 -0.10393348369E+01  0.25408369208E+01  0.51100000000E-03 0.  1.
         12    1    3    3    0    0 -0.38670482256E+01 -0.31381470029E+00  0.92973306271E+01  0.10074368389E+02  0.00000000000E+00 0. -1.
</event>
<event>
 7    1  0.2732193E-010  0.4778724E+02  0.7816164E-02  0.1312668E+00
        -11   -1    0    0    0    0  0.00000000000E+00  0.00000000000E+00  0.45593999997E+02  0.45594000000E+02  0.51100000000E-03 0.  1.
         11   -1    0    0    0    0 -0.00000000000E+00 -0.00000000000E+00 -0.45593999997E+02  0.45594000000E+02  0.51100000000E-03 0. -1.
    9900012    2    1    2    0    0 -0.24301006122E+02 -0.17872077402E+02 -0.31203775648E+02  0.47787243510E+02  0.19999874459E+02 0.  0.
        -12    1    1    2    0    0  0.24301006122E+02  0.17872077402E+02  0.31203775648E+02  0.43400756490E+02  0.00000000000E+00 0.  1.
         11    1    3    3    0    0 -0.13389284491E+02 -0.11103141870E+02 -0.98623952076E+01  0.19995487942E+02  0.51100000000E-03 0. -1.
        -11    1    3    3    0    0 -0.71915363228E+01 -0.71525201583E+01 -0.21780281157E+02  0.24026181278E+02  0.51100000000E-03 0.  1.
        -12    1    3    3    0    0 -0.37201853081E+01  0.38358462568E+00  0.43890071578E+00  0.37655742896E+01  0.00000000000E+00 0.  1.
</event>
<event>
 7    1  0.2732193E-010  0.4778727E+02  0.7816164E-02  0.1312668E+00
        -11   -1    0    0    0    0  0.00000000000E+00  0.00000000000E+00  0.45593999997E+02  0.45594000000E+02  0.51100000000E-03 0.  1.
         11   -1    0    0    0    0 -0.00000000000E+00 -0.00000000000E+00 -0.45593999997E+02  0.45594000000E+02  0.51100000000E-03 0. -1.
    9900012    2    1    2    0    0 -0.12452353851E+01 -0.39992760436E+02 -0.16812247803E+02  0.47787272187E+02  0.20000005211E+02 0.  0.
        -12    1    1    2    0    0  0.12452353851E+01  0.39992760436E+02  0.16812247803E+02  0.43400727813E+02  0.00000000000E+00 0.  1.
         11    1    3    3    0    0  0.78837137770E+00 -0.17164065799E+01  0.34277024328E+01  0.39136588004E+01  0.51100000000E-03 0.  1.
        -11    1    3    3    0    0 -0.34250427780E+00 -0.32629280829E+02 -0.14719217599E+02  0.35797243519E+02  0.51100000000E-03 0. -1.
        -12    1    3    3    0    0 -0.16911024850E+01 -0.56470730275E+01 -0.55207326369E+01  0.80763698677E+01  0.00000000000E+00 0.  1.
</event>
<event>
 7    1  0.2732193E-010  0.4778727E+02  0.7816164E-02  0.1312668E+00
        -11   -1    0    0    0    0  0.00000000000E+00  0.00000000000E+00  0.45593999997E+02  0.45594000000E+02  0.51100000000E-03 0. -1.
         11   -1    0    0    0    0 -0.00000000000E+00 -0.00000000000E+00 -0.45593999997E+02  0.45594000000E+02  0.51100000000E-03 0.  1.
    9900012    2    1    2    0    0 -0.51225518623E+01 -0.43087672882E+02  0.91401806641E+00  0.47787268198E+02  0.19999987020E+02 0.  0.
        -12    1    1    2    0    0  0.51225518623E+01  0.43087672882E+02 -0.91401806641E+00  0.43400731802E+02  0.00000000000E+00 0.  1.
         11    1    3    3    0    0 -0.57646364579E+01 -0.87932828824E+01 -0.23171141420E+01  0.10766702167E+02  0.51100000000E-03 0. -1.
        -11    1    3    3    0    0  0.28186904393E+01 -0.22027795133E+02  0.81088157753E+01  0.23641524226E+02  0.51100000000E-03 0.  1.
        -12    1    3    3    0    0 -0.21766058437E+01 -0.12266594867E+02 -0.48776835669E+01  0.13379041804E+02  0.00000000000E+00 0.  1.
</event>
<event>
 7    1  0.2732193E-010  0.4778727E+02  0.7816164E-02  0.1312668E+00
        -11   -1    0    0    0    0  0.00000000000E+00  0.00000000000E+00  0.45593999997E+02  0.45594000000E+02  0.51100000000E-03 0.  1.
         11   -1    0    0    0    0 -0.00000000000E+00 -0.00000000000E+00 -0.45593999997E+02  0.45594000000E+02  0.51100000000E-03 0. -1.
    9900012    2    1    2    0    0 -0.31519176601E+01  0.37324232856E+02 -0.21922375855E+02  0.47787268366E+02  0.19999987788E+02 0.  0.
        -12    1    1    2    0    0  0.31519176601E+01 -0.37324232856E+02  0.21922375855E+02  0.43400731634E+02  0.00000000000E+00 0.  1.
         11    1    3    3    0    0  0.12327954955E+01 -0.15667355441E+01 -0.88956724572E+00  0.21830655383E+01  0.51100000000E-03 0. -1.
        -11    1    3    3    0    0 -0.71180907681E+01  0.23124484442E+02 -0.10068615803E+02  0.26206602629E+02  0.51100000000E-03 0.  1.
         12    1    3    3    0    0  0.27333776125E+01  0.15766483958E+02 -0.10964192806E+02  0.19397600199E+02  0.00000000000E+00 0. -1.
</event>
<event>
 7    1  0.2732193E-010  0.4778728E+02  0.7816164E-02  0.1312668E+00
        -11   -1    0    0    0    0  0.00000000000E+00  0.00000000000E+00  0.45593999997E+02  0.45594000000E+02  0.51100000000E-03 0. -1.
         11   -1    0    0    0    0 -0.00000000000E+00 -0.00000000000E+00 -0.45593999997E+02  0.45594000000E+02  0.51100000000E-03 0.  1.
    9900012    2    1    2    0    0 -0.11658240735E+02  0.26438034276E+02  0.32384227478E+02  0.47787280850E+02  0.20000044707E+02 0.  0.
        -12    1    1    2    0    0  0.11658240735E+02 -0.26438034276E+02 -0.32384227478E+02  0.43400719150E+02  0.00000000000E+00 0.  1.
         11    1    3    3    0    0  0.16518946549E+01  0.51890602811E+01  0.10608497582E+02  0.11924568074E+02  0.51100000000E-03 0. -1.
        -11    1    3    3    0    0 -0.84562145271E+01  0.56821406233E+01  0.22676031574E+01  0.10437255891E+02  0.51100000000E-03 0.  1.
        -12    1    3    3    0    0 -0.48539208628E+01  0.15566833371E+02  0.19508126739E+02  0.25425456885E+02  0.00000000000E+00 0.  1.
</event>
<event>
 7    1  0.2732193E-010  0.4778727E+02  0.7816164E-02  0.1312668E+00
        -11   -1    0    0    0    0  0.00000000000E+00  0.00000000000E+00  0.45593999997E+02  0.45594000000E+02  0.51100000000E-03 0. -1.
         11   -1    0    0    0    0 -0.00000000000E+00 -0.00000000000E+00 -0.45593999997E+02  0.45594000000E+02  0.51100000000E-03 0.  1.
    9900012    2    1    2    0    0 -0.33044725605E+02 -0.17603331203E+02  0.21949767025E+02  0.47787269220E+02  0.19999991683E+02 0.  0.
        -12    1    1    2    0    0  0.33044725605E+02  0.17603331203E+02 -0.21949767025E+02  0.43400730780E+02  0.00000000000E+00 0.  1.
         11    1    3    3    0    0 -0.26043024924E+02 -0.18237429984E+02  0.18040781521E+02  0.36555612398E+02  0.51100000000E-03 0. -1.
        -11    1    3    3    0    0  0.16530881748E+01 -0.43820342190E+00  0.12365972093E+01  0.21104254718E+01  0.51100000000E-03 0.  1.
         12    1    3    3    0    0 -0.86547888561E+01  0.10723022030E+01  0.26723882945E+01  0.91212313508E+01  0.00000000000E+00 0. -1.
</event>
<event>
 7    1  0.2732193E-010  0.4778727E+02  0.7816164E-02  0.1312668E+00
        -11   -1    0    0    0    0  0.00000000000E+00  0.00000000000E+00  0.45593999997E+02  0.45594000000E+02  0.51100000000E-03 0.  1.
         11   -1    0    0    0    0 -0.00000000000E+00 -0.00000000000E+00 -0.45593999997E+02  0.45594000000E+02  0.51100000000E-03 0. -1.
    9900012    2    1    2    0    0  0.83487214391E+01 -0.15300186803E+01 -0.42562670114E+02  0.47787274268E+02  0.20000014699E+02 0.  0.
        -12    1    1    2    0    0 -0.83487214391E+01  0.15300186803E+01  0.42562670114E+02  0.43400725732E+02  0.00000000000E+00 0.  1.
         11    1    3    3    0    0  0.11097990308E+02 -0.45993689933E+01 -0.27306943985E+02  0.29832679633E+02  0.51100000000E-03 0. -1.
        -11    1    3    3    0    0 -0.23100144233E+01  0.50079889896E+01 -0.14960924844E+02  0.15945074249E+02  0.51100000000E-03 0.  1.
        -12    1    3    3    0    0 -0.43925444578E+00 -0.19386386767E+01 -0.29480128495E+00  0.20095203867E+01  0.00000000000E+00 0.  1.
</event>
<event>
 7    1  0.2732193E-010  0.4778727E+02  0.7816164E-02  0.1312668E+00
        -11   -1    0    0    0    0  0.00000000000E+00  0.00000000000E+00  0.45593999997E+02  0.45594000000E+02  0.51100000000E-03 0.  1.
         11   -1    0    0    0    0 -0.00000000000E+00 -0.00000000000E+00 -0.45593999997E+02  0.45594000000E+02  0.51100000000E-03 0. -1.
    9900012    2    1    2    0    0  0.22670260228E+02  0.70562264044E+01 -0.36330326549E+02  0.47787266630E+02  0.19999979873E+02 0.  0.
        -12    1    1    2    0    0 -0.22670260228E+02 -0.70562264044E+01  0.36330326549E+02  0.43400733370E+02  0.00000000000E+00 0.  1.
         11    1    3    3    0    0  0.11354788024E+02  0.10880955530E+02 -0.12473197569E+02  0.20072544985E+02  0.51100000000E-03 0. -1.
        -11    1    3    3    0    0  0.37464985514E+01 -0.33494542713E+01 -0.16100854920E+02  0.16866909163E+02  0.51100000000E-03 0.  1.
        -12    1    3    3    0    0  0.75689736521E+01 -0.47527485441E+00 -0.77562740610E+01  0.10847812482E+02  0.00000000000E+00 0.  1.
</event>
<event>
 7    1  0.2732193E-010  0.4778727E+02  0.7816164E-02  0.1312668E+00
        -11   -1    0    0    0    0  0.00000000000E+00  0.00000000000E+00  0.45593999997E+02  0.45594000000E+02  0.51100000000E-03 0. -1.
         11   -1    0    0    0    0 -0.00000000000E+00 -0.00000000000E+00 -0.45593999997E+02  0.45594000000E+02  0.51100000000E-03 0.  1.
    9900012    2    1    2    0    0  0.32710723077E+02  0.25229789262E+02  0.13307490427E+02  0.47787274523E+02  0.20000015860E+02 0.  0.
        -12    1    1    2    0    0 -0.32710723077E+02 -0.25229789262E+02 -0.13307490427E+02  0.43400725477E+02  0.00000000000E+00 0.  1.
         11    1    3    3    0    0  0.16020305213E+02  0.21769745249E+02  0.12139622375E+02  0.29630093131E+02  0.51100000000E-03 0. -1.
        -11    1    3    3    0    0  0.54486656448E+01  0.15638509091E+01 -0.24797662294E+01  0.61873118386E+01  0.51100000000E-03 0.  1.
         12    1    3    3    0    0  0.11241752220E+02  0.18961931044E+01  0.36476342822E+01  0.11969869553E+02  0.00000000000E+00 0. -1.
</event>
<event>
 7    1  0.2732193E-010  0.4778727E+02  0.7816164E-02  0.1312668E+00
        -11   -1    0    0    0    0  0.00000000000E+00  0.00000000000E+00  0.45593999997E+02  0.45594000000E+02  0.51100000000E-03 0. -1.
         11   -1    0    0    0    0 -0.00000000000E+00 -0.00000000000E+00 -0.45593999997E+02  0.45594000000E+02  0.51100000000E-03 0.  1.
    9900012    2    1    2    0    0  0.26929880391E+01  0.41729004425E+02  0.11621589862E+02  0.47787270216E+02  0.19999996223E+02 0.  0.
        -12    1    1    2    0    0 -0.26929880391E+01 -0.41729004425E+02 -0.11621589862E+02  0.43400729784E+02  0.00000000000E+00 0.  1.
         11    1    3    3    0    0  0.33018814567E+01 -0.26101614521E+00 -0.16305190664E+00  0.33161931137E+01  0.51100000000E-03 0. -1.
        -11    1    3    3    0    0 -0.19682301863E+01  0.15866252031E+02  0.53839806601E+00  0.15996929591E+02  0.51100000000E-03 0.  1.
         12    1    3    3    0    0  0.13593367688E+01  0.26123768538E+02  0.11246243703E+02  0.28474147512E+02  0.00000000000E+00 0. -1.
</event>
<event>
 7    1  0.2732193E-010  0.4778728E+02  0.7816164E-02  0.1312668E+00
        -11   -1    0    0    0    0  0.00000000000E+00  0.00000000000E+00  0.45593999997E+02  0.45594000000E+02  0.51100000000E-03 0. -1.
         11   -1    0    0    0    0 -0.00000000000E+00 -0.00000000000E+00 -0.45593999997E+02  0.45594000000E+02  0.51100000000E-03 0.  1.
    9900012    2    1    2    0    0 -0.91523534485E+01 -0.42117597750E+02 -0.50955900409E+01  0.47787278212E+02  0.20000032680E+02 0.  0.
        -12    1    1    2    0    0  0.91523534485E+01  0.42117597750E+02  0.50955900409E+01  0.43400721788E+02  0.00000000000E+00 0.  1.
         11    1    3    3    0    0  0.33365445891E+01 -0.23408538131E+02 -0.77509544172E+01  0.24883116402E+02  0.51100000000E-03 0.  1.
        -11    1    3    3    0    0 -0.10331226294E+02 -0.16342775096E+02  0.11580738924E+01  0.19369090582E+02  0.51100000000E-03 0. -1.
        -12    1    3    3    0    0 -0.21576717434E+01 -0.23662845225E+01  0.14972904839E+01  0.35350712280E+01  0.00000000000E+00 0.  1.
</event>
<event>
 7    1  0.2732193E-010  0.4778727E+02  0.7816164E-02  0.1312668E+00
        -11   -1    0    0    0    0  0.00000000000E+00  0.00000000000E+00  0.45593999997E+02  0.45594000000E+02  0.51100000000E-03 0.  1.
         11   -1    0    0    0    0 -0.00000000000E+00 -0.00000000000E+00 -0.45593999997E+02  0.45594000000E+02  0.51100000000E-03 0. -1.
    9900012    2    1    2    0    0  0.10322763401E+01  0.24946265465E+02 -0.35499878854E+02  0.47787272428E+02  0.20000006309E+02 0.  0.
        -12    1    1    2    0    0 -0.10322763401E+01 -0.24946265465E+02  0.35499878854E+02  0.43400727572E+02  0.00000000000E+00 0.  1.
         11    1    3    3    0    0 -0.22254851270E-01  0.18748157174E+02 -0.28363570678E+02  0.33999794625E+02  0.51100000000E-03 0. -1.
        -11    1    3    3    0    0  0.38728343716E+01  0.58534587247E+01 -0.10835035686E+01  0.71018170460E+01  0.51100000000E-03 0.  1.
        -12    1    3    3    0    0 -0.28183031803E+01  0.34464956719E+00 -0.60528046072E+01  0.66856607567E+01  0.00000000000E+00 0.  1.
</event>
<event>
 7    1  0.2732193E-010  0.4778727E+02  0.7816164E-02  0.1312668E+00
        -11   -1    0    0    0    0  0.00000000000E+00  0.00000000000E+00  0.45593999997E+02  0.45594000000E+02  0.51100000000E-03 0.  1.
         11   -1    0    0    0    0 -0.00000000000E+00 -0.00000000000E+00 -0.45593999997E+02  0.45594000000E+02  0.51100000000E-03 0. -1.
    9900012    2    1    2    0    0  0.94047454761E+01 -0.16937698946E+02 -0.38836688139E+02  0.47787271565E+02  0.20000002373E+02 0.  0.
        -12    1    1    2    0    0 -0.94047454761E+01  0.16937698946E+02  0.38836688139E+02  0.43400728435E+02  0.00000000000E+00 0.  1.
         11    1    3    3    0    0 -0.31666454991E+00 -0.15555800790E+02 -0.24776565066E+02  0.29256817862E+02  0.51100000000E-03 0. -1.
        -11    1    3    3    0    0  0.87704813282E+01 -0.27213266474E+01 -0.77692144439E+01  0.12028618158E+02  0.51100000000E-03 0.  1.
        -12    1    3    3    0    0  0.95092869776E+00  0.13394284917E+01 -0.62909086298E+01  0.65018355455E+01  0.00000000000E+00 0.  1.
</event>
<event>
 7    1  0.2732193E-010  0.4778727E+02  0.7816164E-02  0.1312668E+00
        -11   -1    0    0    0    0  0.00000000000E+00  0.00000000000E+00  0.45593999997E+02  0.45594000000E+02  0.51100000000E-03 0. -1.
         11   -1    0    0    0    0 -0.00000000000E+00 -0.00000000000E+00 -0.45593999997E+02  0.45594000000E+02  0.51100000000E-03 0.  1.
    9900012    2    1    2    0    0  0.91493313164E+01  0.30367828681E+02  0.29626142331E+02  0.47787267383E+02  0.19999983304E+02 0.  0.
        -12    1    1    2    0    0 -0.91493313164E+01 -0.30367828681E+02 -0.29626142331E+02  0.43400732617E+02  0.00000000000E+00 0.  1.
         11    1    3    3    0    0  0.75791893110E+00  0.10250039634E+02  0.14777189575E+02  0.18000085711E+02  0.51100000000E-03 0. -1.
        -11    1    3    3    0    0  0.11850486047E+02  0.11402885709E+02  0.95172812392E+01  0.19001012197E+02  0.51100000000E-03 0.  1.
        -12    1    3    3    0    0 -0.34590736620E+01  0.87149033374E+01  0.53316715169E+01  0.10786169475E+02  0.00000000000E+00 0.  1.
</event>
<event>
 7    1  0.2732193E-010  0.4778727E+02  0.7816164E-02  0.1312668E+00
        -11   -1    0    0    0    0  0.00000000000E+00  0.00000000000E+00  0.45593999997E+02  0.45594000000E+02  0.51100000000E-03 0.  1.
         11   -1    0    0    0    0 -0.00000000000E+00 -0.00000000000E+00 -0.45593999997E+02  0.45594000000E+02  0.51100000000E-03 0. -1.
    9900012    2    1    2    0    0 -0.35094714914E+02 -0.20418720092E+01 -0.25452208820E+02  0.47787272011E+02  0.20000004406E+02 0.  0.
        -12    1    1    2    0    0  0.35094714914E+02  0.20418720092E+01  0.25452208820E+02  0.43400727989E+02  0.00000000000E+00 0.  1.
         11    1    3    3    0    0 -0.16044157324E+02  0.23037630649E+01 -0.85807603223E+01  0.18339895214E+02  0.51100000000E-03 0. -1.
        -11    1    3    3    0    0 -0.10898776963E+02 -0.86472392651E+01 -0.58833668557E+01  0.15105366332E+02  0.51100000000E-03 0.  1.
        -12    1    3    3    0    0 -0.81517806272E+01  0.43016041911E+01 -0.10988081642E+02  0.14342010465E+02  0.00000000000E+00 0.  1.
</event>
<event>
 7    1  0.2732193E-010  0.4778727E+02  0.7816164E-02  0.1312668E+00
        -11   -1    0    0    0    0  0.00000000000E+00  0.00000000000E+00  0.45593999997E+02  0.45594000000E+02  0.51100000000E-03 0.  1.
         11   -1    0    0    0    0 -0.00000000000E+00 -0.00000000000E+00 -0.45593999997E+02  0.45594000000E+02  0.51100000000E-03 0. -1.
    9900012    2    1    2    0    0 -0.23802371191E+00 -0.22520413317E+02 -0.37099830687E+02  0.47787272952E+02  0.20000008698E+02 0.  0.
        -12    1    1    2    0    0  0.23802371191E+00  0.22520413317E+02  0.37099830687E+02  0.43400727048E+02  0.00000000000E+00 0.  1.
         11    1    3    3    0    0 -0.31043050104E+01 -0.15281198378E+01  0.13651173363E+01  0.37195974835E+01  0.51100000000E-03 0.  1.
        -11    1    3    3    0    0  0.18325993241E+01 -0.17797432680E+02 -0.29587724108E+02  0.34576588155E+02  0.51100000000E-03 0. -1.
        -12    1    3    3    0    0  0.10336819744E+01 -0.31948607989E+01 -0.88772239160E+01  0.94910873141E+01  0.00000000000E+00 0.  1.
</event>
<event>
 7    1  0.2732193E-010  0.4778727E+02  0.7816164E-02  0.1312668E+00
        -11   -1    0    0    0    0  0.00000000000E+00  0.00000000000E+00  0.45593999997E+02  0.45594000000E+02  0.51100000000E-03 0. -1.
         11   -1    0    0    0    0 -0.00000000000E+00 -0.00000000000E+00 -0.45593999997E+02  0.45594000000E+02  0.51100000000E-03 0.  1.
    9900012    2    1    2    0    0 -0.17106235973E+02  0.10039325777E+02  0.38603263659E+02  0.47787270325E+02  0.19999996719E+02 0.  0.
        -12    1    1    2    0    0  0.17106235973E+02 -0.10039325777E+02 -0.38603263659E+02  0.43400729675E+02  0.00000000000E+00 0.  1.
         11    1    3    3    0    0 -0.82810341393E+01  0.31133558683E+00  0.16983730562E+02  0.18897607264E+02  0.51100000000E-03 0. -1.
        -11    1    3    3    0    0 -0.47598657842E+01  0.10550147201E+02  0.66337285029E+01  0.13340475343E+02  0.51100000000E-03 0.  1.
        -12    1    3    3    0    0 -0.40653360499E+01 -0.82215701161E+00  0.14985804594E+02  0.15549187718E+02  0.00000000000E+00 0.  1.
</event>
<event>
 7    1  0.2732193E-010  0.4778727E+02  0.7816164E-02  0.1312668E+00
        -11   -1    0    0    0    0  0.00000000000E+00  0.00000000000E+00  0.45593999997E+02  0.45594000000E+02  0.51100000000E-03 0. -1.
         11   -1    0    0    0    0 -0.00000000000E+00 -0.00000000000E+00 -0.45593999997E+02  0.45594000000E+02  0.51100000000E-03 0.  1.
    9900012    2    1    2    0    0  0.13246820199E+02  0.14726168398E+02  0.38617163092E+02  0.47787267675E+02  0.19999984640E+02 0.  0.
        -12    1    1    2    0    0 -0.13246820199E+02 -0.14726168398E+02 -0.38617163092E+02  0.43400732325E+02  0.00000000000E+00 0.  1.
         11    1    3    3    0    0 -0.97311007885E+00  0.85151610655E+00  0.14544958537E+02  0.14602323171E+02  0.51100000000E-03 0. -1.
        -11    1    3    3    0    0 -0.11429317938E+01 -0.95402534182E+00  0.16647488819E+01  0.22333487276E+01  0.51100000000E-03 0.  1.
         12    1    3    3    0    0  0.15362862071E+02  0.14828677633E+02  0.22407455673E+02  0.30951595776E+02  0.00000000000E+00 0. -1.
</event>
<event>
 7    1  0.2732193E-010  0.4778727E+02  0.7816164E-02  0.1312668E+00
        -11   -1    0    0    0    0  0.00000000000E+00  0.00000000000E+00  0.45593999997E+02  0.45594000000E+02  0.51100000000E-03 0. -1.
         11   -1    0    0    0    0 -0.00000000000E+00 -0.00000000000E+00 -0.45593999997E+02  0.45594000000E+02  0.51100000000E-03 0.  1.
    9900012    2    1    2    0    0  0.32320560597E+02 -0.28734932683E+02 -0.36480230088E+01  0.47787273446E+02  0.20000010948E+02 0.  0.
        -12    1    1    2    0    0 -0.32320560597E+02  0.28734932683E+02  0.36480230088E+01  0.43400726554E+02  0.00000000000E+00 0.  1.
         11    1    3    3    0    0  0.13842771397E+02 -0.17220300554E+02 -0.12688086179E+01  0.22130769229E+02  0.51100000000E-03 0. -1.
        -11    1    3    3    0    0  0.17358739445E+02 -0.42252323322E+01  0.13147664363E+00  0.17866049080E+02  0.51100000000E-03 0.  1.
        -12    1    3    3    0    0  0.11190497550E+01 -0.72893997973E+01 -0.25106910345E+01  0.77904551362E+01  0.00000000000E+00 0.  1.
</event>
<event>
 7    1  0.2732193E-010  0.4778727E+02  0.7816164E-02  0.1312668E+00
        -11   -1    0    0    0    0  0.00000000000E+00  0.00000000000E+00  0.45593999997E+02  0.45594000000E+02  0.51100000000E-03 0.  1.
         11   -1    0    0    0    0 -0.00000000000E+00 -0.00000000000E+00 -0.45593999997E+02  0.45594000000E+02  0.51100000000E-03 0. -1.
    9900012    2    1    2    0    0 -0.18606542815E+02  0.25043119944E+02 -0.30170549402E+02  0.47787270245E+02  0.19999996354E+02 0.  0.
        -12    1    1    2    0    0  0.18606542815E+02 -0.25043119944E+02  0.30170549402E+02  0.43400729755E+02  0.00000000000E+00 0.  1.
         11    1    3    3    0    0 -0.46320102138E+01  0.99477749159E+01 -0.13025632834E+02  0.17031760196E+02  0.51100000000E-03 0. -1.
        -11    1    3    3    0    0 -0.10049005842E+01 -0.30279438491E+00 -0.89626402084E+01  0.90238810603E+01  0.51100000000E-03 0.  1.
        -12    1    3    3    0    0 -0.12969632017E+02  0.15398139413E+02 -0.81822763595E+01  0.21731628988E+02  0.00000000000E+00 0.  1.
</event>
<event>
 7    1  0.2732193E-010  0.4778725E+02  0.7816164E-02  0.1312668E+00
        -11   -1    0    0    0    0  0.00000000000E+00  0.00000000000E+00  0.45593999997E+02  0.45594000000E+02  0.51100000000E-03 0.  1.
         11   -1    0    0    0    0 -0.00000000000E+00 -0.00000000000E+00 -0.45593999997E+02  0.45594000000E+02  0.51100000000E-03 0. -1.
    9900012    2    1    2    0    0 -0.11210871842E+02  0.30019977204E+02 -0.29270158619E+02  0.47787252721E+02  0.19999916457E+02 0.  0.
        -12    1    1    2    0    0  0.11210871842E+02 -0.30019977204E+02  0.29270158619E+02  0.43400747279E+02  0.00000000000E+00 0.  1.
         11    1    3    3    0    0 -0.12993847012E+02  0.24728534429E+02 -0.22612589353E+02  0.35939806242E+02  0.51100000000E-03 0. -1.
        -11    1    3    3    0    0  0.36572639440E+01  0.55231503041E+01 -0.21568394135E+01  0.69665432859E+01  0.51100000000E-03 0.  1.
        -12    1    3    3    0    0 -0.18742887738E+01 -0.23170752879E+00 -0.45007298519E+01  0.48809031937E+01  0.00000000000E+00 0.  1.
</event>
<event>
 7    1  0.2732193E-010  0.4778727E+02  0.7816164E-02  0.1312668E+00
        -11   -1    0    0    0    0  0.00000000000E+00  0.00000000000E+00  0.45593999997E+02  0.45594000000E+02  0.51100000000E-03 0. -1.
         11   -1    0    0    0    0 -0.00000000000E+00 -0.00000000000E+00 -0.45593999997E+02  0.45594000000E+02  0.51100000000E-03 0.  1.
    9900012    2    1    2    0    0 -0.32167258163E+02 -0.23308114333E+02  0.17482059691E+02  0.47787273019E+02  0.20000009001E+02 0.  0.
        -12    1    1    2    0    0  0.32167258163E+02  0.23308114333E+02 -0.17482059691E+02  0.43400726981E+02  0.00000000000E+00 0.  1.
         11    1    3    3    0    0 -0.41753835700E+01  0.24530055400E+01 -0.61743175716E+00  0.48818322761E+01  0.51100000000E-03 0. -1.
        -11    1    3    3    0    0 -0.97617242869E+01 -0.12700310328E+02  0.43440832534E+01  0.16596993796E+02  0.51100000000E-03 0.  1.
         12    1    3    3    0    0 -0.18230150306E+02 -0.13060809545E+02  0.13755408195E+02  0.26308446947E+02  0.00000000000E+00 0. -1.
</event>
<event>
 7    1  0.2732193E-010  0.4778727E+02  0.7816164E-02  0.1312668E+00
        -11   -1    0    0    0    0  0.00000000000E+00  0.00000000000E+00  0.45593999997E+02  0.45594000000E+02  0.51100000000E-03 0.  1.
         11   -1    0    0    0    0 -0.00000000000E+00 -0.00000000000E+00 -0.45593999997E+02  0.45594000000E+02  0.51100000000E-03 0. -1.
    9900012    2    1    2    0    0  0.24861529911E+02  0.15636308896E+02 -0.31953612275E+02  0.47787272324E+02  0.20000005834E+02 0.  0.
        -12    1    1    2    0    0 -0.24861529911E+02 -0.15636308896E+02  0.31953612275E+02  0.43400727676E+02  0.00000000000E+00 0.  1.
         11    1    3    3    0    0  0.19482643045E+02  0.14985708773E+02 -0.24886930766E+02  0.34978624482E+02  0.51100000000E-03 0. -1.
        -11    1    3    3    0    0  0.44123797545E+01  0.33324563345E+01 -0.38328054201E+00  0.55426766597E+01  0.51100000000E-03 0.  1.
         12    1    3    3    0    0  0.96650711091E+00 -0.26818562113E+01 -0.66834009670E+01  0.72659711821E+01  0.00000000000E+00 0. -1.
</event>
<event>
 7    1  0.2732193E-010  0.4778727E+02  0.7816164E-02  0.1312668E+00
        -11   -1    0    0    0    0  0.00000000000E+00  0.00000000000E+00  0.45593999997E+02  0.45594000000E+02  0.51100000000E-03 0.  1.
         11   -1    0    0    0    0 -0.00000000000E+00 -0.00000000000E+00 -0.45593999997E+02  0.45594000000E+02  0.51100000000E-03 0. -1.
    9900012    2    1    2    0    0  0.37883106837E+02 -0.17654230508E+02 -0.11697082155E+02  0.47787269944E+02  0.19999994983E+02 0.  0.
        -12    1    1    2    0    0 -0.37883106837E+02  0.17654230508E+02  0.11697082155E+02  0.43400730056E+02  0.00000000000E+00 0.  1.
         11    1    3    3    0    0  0.12702856085E+02 -0.84699228112E+01 -0.13354552118E+02  0.20284136848E+02  0.51100000000E-03 0. -1.
        -11    1    3    3    0    0  0.15887810929E+02 -0.76381274875E+01  0.33171060768E+01  0.17937857191E+02  0.51100000000E-03 0.  1.
        -12    1    3    3    0    0  0.92924398228E+01 -0.15461802094E+01 -0.16596361139E+01  0.95652759046E+01  0.00000000000E+00 0.  1.
</event>
<event>
 7    1  0.2732193E-010  0.4778727E+02  0.7816164E-02  0.1312668E+00
        -11   -1    0    0    0    0  0.00000000000E+00  0.00000000000E+00  0.45593999997E+02  0.45594000000E+02  0.51100000000E-03 0.  1.
         11   -1    0    0    0    0 -0.00000000000E+00 -0.00000000000E+00 -0.45593999997E+02  0.45594000000E+02  0.51100000000E-03 0. -1.
    9900012    2    1    2    0    0 -0.23034309326E+02 -0.17215253523E+02 -0.32506597503E+02  0.47787271420E+02  0.20000001715E+02 0.  0.
        -12    1    1    2    0    0  0.23034309326E+02  0.17215253523E+02  0.32506597503E+02  0.43400728580E+02  0.00000000000E+00 0.  1.
         11    1    3    3    0    0 -0.10387810205E+02 -0.27212207996E+01 -0.92429322607E+01  0.14168395835E+02  0.51100000000E-03 0. -1.
        -11    1    3    3    0    0  0.29751158185E+01 -0.31644776857E+01 -0.76452939934E+01  0.87929377152E+01  0.51100000000E-03 0.  1.
        -12    1    3    3    0    0 -0.15621614940E+02 -0.11329555038E+02 -0.15618371249E+02  0.24825937871E+02  0.00000000000E+00 0.  1.
</event>
<event>
 7    1  0.2732193E-010  0.4778728E+02  0.7816164E-02  0.1312668E+00
        -11   -1    0    0    0    0  0.00000000000E+00  0.00000000000E+00  0.45593999997E+02  0.45594000000E+02  0.51100000000E-03 0.  1.
         11   -1    0    0    0    0 -0.00000000000E+00 -0.00000000000E+00 -0.45593999997E+02  0.45594000000E+02  0.51100000000E-03 0. -1.
    9900012    2    1    2    0    0  0.10275511154E+02 -0.37292208393E+02 -0.19680647534E+02  0.47787276231E+02  0.20000023649E+02 0.  0.
        -12    1    1    2    0    0 -0.10275511154E+02  0.37292208393E+02  0.19680647534E+02  0.43400723769E+02  0.00000000000E+00 0.  1.
         11    1    3    3    0    0  0.10150152320E+01 -0.40567586810E+01 -0.42664353953E+01  0.59741123324E+01  0.51100000000E-03 0.  1.
        -11    1    3    3    0    0  0.85565694989E+00 -0.13619535029E+02 -0.15260249096E+02  0.20471909681E+02  0.51100000000E-03 0. -1.
        -12    1    3    3    0    0  0.84048389722E+01 -0.19615914683E+02 -0.15396304256E+00  0.21341254218E+02  0.00000000000E+00 0.  1.
</event>
<event>
 7    1  0.2732193E-010  0.4778727E+02  0.7816164E-02  0.1312668E+00
        -11   -1    0    0    0    0  0.00000000000E+00  0.00000000000E+00  0.45593999997E+02  0.45594000000E+02  0.51100000000E-03 0. -1.
         11   -1    0    0    0    0 -0.00000000000E+00 -0.00000000000E+00 -0.45593999997E+02  0.45594000000E+02  0.51100000000E-03 0.  1.
    9900012    2    1    2    0    0 -0.26980318641E+02  0.16911051818E+02  0.29490713060E+02  0.47787269311E+02  0.19999992096E+02 0.  0.
        -12    1    1    2    0    0  0.26980318641E+02 -0.16911051818E+02 -0.29490713060E+02  0.43400730689E+02  0.00000000000E+00 0.  1.
         11    1    3    3    0    0 -0.14527261246E+02  0.12461807699E+02  0.23236072764E+02  0.30104037075E+02  0.51100000000E-03 0. -1.
        -11    1    3    3    0    0 -0.59246327090E+01  0.38828603537E+01 -0.17911062131E+01  0.73065682088E+01  0.51100000000E-03 0.  1.
        -12    1    3    3    0    0 -0.65284246855E+01  0.56638376554E+00  0.80457465090E+01  0.10376664027E+02  0.00000000000E+00 0.  1.
</event>
<event>
 7    1  0.2732193E-010  0.4778727E+02  0.7816164E-02  0.1312668E+00
        -11   -1    0    0    0    0  0.00000000000E+00  0.00000000000E+00  0.45593999997E+02  0.45594000000E+02  0.51100000000E-03 0. -1.
         11   -1    0    0    0    0 -0.00000000000E+00 -0.00000000000E+00 -0.45593999997E+02  0.45594000000E+02  0.51100000000E-03 0.  1.
    9900012    2    1    2    0    0  0.58232094694E+00 -0.42535338400E+02  0.86040207306E+01  0.47787270937E+02  0.19999999509E+02 0.  0.
        -12    1    1    2    0    0 -0.58232094694E+00  0.42535338400E+02 -0.86040207306E+01  0.43400729063E+02  0.00000000000E+00 0.  1.
         11    1    3    3    0    0  0.51098016413E+01 -0.31095121353E+02  0.79771865962E+01  0.32506186350E+02  0.51100000000E-03 0. -1.
        -11    1    3    3    0    0  0.98997141743E+00 -0.72055550540E+01 -0.24512717506E+01  0.76752068701E+01  0.51100000000E-03 0.  1.
         12    1    3    3    0    0 -0.55174521118E+01 -0.42346619930E+01  0.30781058850E+01  0.76058777166E+01  0.00000000000E+00 0. -1.
</event>
<event>
 7    1  0.2732193E-010  0.4778726E+02  0.7816164E-02  0.1312668E+00
        -11   -1    0    0    0    0  0.00000000000E+00  0.00000000000E+00  0.45593999997E+02  0.45594000000E+02  0.51100000000E-03 0.  1.
         11   -1    0    0    0    0 -0.00000000000E+00 -0.00000000000E+00 -0.45593999997E+02  0.45594000000E+02  0.51100000000E-03 0. -1.
    9900012    2    1    2    0    0 -0.24841284983E+01 -0.23866974862E+02 -0.36163801980E+02  0.47787263173E+02  0.19999964111E+02 0.  0.
        -12    1    1    2    0    0  0.24841284983E+01  0.23866974862E+02  0.36163801980E+02  0.43400736827E+02  0.00000000000E+00 0.  1.
         11    1    3    3    0    0 -0.56736373025E+01 -0.92781287392E+01 -0.18919156143E+02  0.21822197474E+02  0.51100000000E-03 0. -1.
        -11    1    3    3    0    0  0.36673960956E+01 -0.94537720560E+01 -0.26423742626E+01  0.10478823513E+02  0.51100000000E-03 0.  1.
        -12    1    3    3    0    0 -0.47788729135E+00 -0.51350740672E+01 -0.14602271574E+02  0.15486242187E+02  0.00000000000E+00 0.  1.
</event>
<event>
 7    1  0.2732193E-010  0.4778727E+02  0.7816164E-02  0.1312668E+00
        -11   -1    0    0    0    0  0.00000000000E+00  0.00000000000E+00  0.45593999997E+02  0.45594000000E+02  0.51100000000E-03 0.  1.
         11   -1    0    0    0    0 -0.00000000000E+00 -0.00000000000E+00 -0.45593999997E+02  0.45594000000E+02  0.51100000000E-03 0. -1.
    9900012    2    1    2    0    0  0.35018188607E+02 -0.19331920509E+02 -0.16841221241E+02  0.47787269398E+02  0.19999992494E+02 0.  0.
        -12    1    1    2    0    0 -0.35018188607E+02  0.19331920509E+02  0.16841221241E+02  0.43400730602E+02  0.00000000000E+00 0.  1.
         11    1    3    3    0    0  0.58793761258E+01 -0.10295485789E+02 -0.41070639289E+01  0.12547193536E+02  0.51100000000E-03 0. -1.
        -11    1    3    3    0    0  0.10628437596E+00 -0.20405116229E+00  0.16438949669E+01  0.16599169162E+01  0.51100000000E-03 0.  1.
         12    1    3    3    0    0  0.29032528105E+02 -0.88323835580E+01 -0.14378052279E+02  0.33580158946E+02  0.00000000000E+00 0. -1.
</event>
<event>
 7    1  0.2732193E-010  0.4778727E+02  0.7816164E-02  0.1312668E+00
        -11   -1    0    0    0    0  0.00000000000E+00  0.00000000000E+00  0.45593999997E+02  0.45594000000E+02  0.51100000000E-03 0.  1.
         11   -1    0    0    0    0 -0.00000000000E+00 -0.00000000000E+00 -0.45593999997E+02  0.45594000000E+02  0.51100000000E-03 0. -1.
    9900012    2    1    2    0    0  0.31678192933E+02  0.29357286410E+02  0.42737892890E+01  0.47787269041E+02  0.19999990865E+02 0.  0.
        -12    1    1    2    0    0 -0.31678192933E+02 -0.29357286410E+02 -0.42737892890E+01  0.43400730959E+02  0.00000000000E+00 0.  1.
         11    1    3    3    0    0  0.12296954555E+02  0.20514684039E+02  0.87083722201E+01  0.25453940746E+02  0.51100000000E-03 0. -1.
        -11    1    3    3    0    0  0.95214740900E+01  0.37615471519E+01 -0.46387408233E+01  0.11239467181E+02  0.51100000000E-03 0.  1.
         12    1    3    3    0    0  0.98597642884E+01  0.50810552197E+01  0.20415789222E+00  0.11093861114E+02  0.00000000000E+00 0. -1.
</event>
<event>
 7    1  0.2732193E-010  0.4778727E+02  0.7816164E-02  0.1312668E+00
        -11   -1    0    0    0    0  0.00000000000E+00  0.00000000000E+00  0.45593999997E+02  0.45594000000E+02  0.51100000000E-03 0.  1.
         11   -1    0    0    0    0 -0.00000000000E+00 -0.00000000000E+00 -0.45593999997E+02  0.45594000000E+02  0.51100000000E-03 0. -1.
    9900012    2    1    2    0    0  0.23527776778E+02 -0.25128559039E+02 -0.26431476233E+02  0.47787266189E+02  0.19999977861E+02 0.  0.
        -12    1    1    2    0    0 -0.23527776778E+02  0.25128559039E+02  0.26431476233E+02  0.43400733811E+02  0.00000000000E+00 0.  1.
         11    1    3    3    0    0  0.16924557456E+02 -0.19457512772E+02 -0.16499249736E+02  0.30614713627E+02  0.51100000000E-03 0. -1.
        -11    1    3    3    0    0  0.48541139466E+01  0.14760390388E+01 -0.34232713067E+00  0.50851058570E+01  0.51100000000E-03 0.  1.
         12    1    3    3    0    0  0.17491053750E+01 -0.71470853059E+01 -0.95898993660E+01  0.12087446704E+02  0.00000000000E+00 0. -1.
</event>
<event>
 7    1  0.2732193E-010  0.4778727E+02  0.7816164E-02  0.1312668E+00
        -11   -1    0    0    0    0  0.00000000000E+00  0.00000000000E+00  0.45593999997E+02  0.45594000000E+02  0.51100000000E-03 0.  1.
         11   -1    0    0    0    0 -0.00000000000E+00 -0.00000000000E+00 -0.45593999997E+02  0.45594000000E+02  0.51100000000E-03 0. -1.
    9900012    2    1    2    0    0 -0.56990971747E+01 -0.27500248685E+02 -0.33088973873E+02  0.47787267538E+02  0.19999984012E+02 0.  0.
        -12    1    1    2    0    0  0.56990971747E+01  0.27500248685E+02  0.33088973873E+02  0.43400732462E+02  0.00000000000E+00 0.  1.
         11    1    3    3    0    0 -0.14149412553E+01 -0.22921757061E+02 -0.17649635722E+02  0.28964092371E+02  0.51100000000E-03 0. -1.
        -11    1    3    3    0    0 -0.49145992530E+01  0.19109785825E+00 -0.11820857323E+02  0.12803221170E+02  0.51100000000E-03 0.  1.
        -12    1    3    3    0    0  0.63044333364E+00 -0.47695894822E+01 -0.36184808277E+01  0.60199539970E+01  0.00000000000E+00 0.  1.
</event>
<event>
 7    1  0.2732193E-010  0.4778727E+02  0.7816164E-02  0.1312668E+00
        -11   -1    0    0    0    0  0.00000000000E+00  0.00000000000E+00  0.45593999997E+02  0.45594000000E+02  0.51100000000E-03 0.  1.
         11   -1    0    0    0    0 -0.00000000000E+00 -0.00000000000E+00 -0.45593999997E+02  0.45594000000E+02  0.51100000000E-03 0. -1.
    9900012    2    1    2    0    0 -0.37211914476E+02 -0.52085773786E-01 -0.22335942014E+02  0.47787267316E+02  0.19999983000E+02 0.  0.
        -12    1    1    2    0    0  0.37211914476E+02  0.52085773786E-01  0.22335942014E+02  0.43400732684E+02  0.00000000000E+00 0.  1.
         11    1    3    3    0    0 -0.11439654078E+02  0.53980574459E+01 -0.10229182419E+02  0.16267786661E+02  0.51100000000E-03 0. -1.
        -11    1    3    3    0    0 -0.23356977763E+02 -0.86011776919E+01 -0.11776081583E+02  0.27535518256E+02  0.51100000000E-03 0.  1.
        -12    1    3    3    0    0 -0.24152826353E+01  0.31510344722E+01 -0.33067801166E+00  0.39839623995E+01  0.00000000000E+00 0.  1.
</event>
<event>
 7    1  0.2732193E-010  0.4778727E+02  0.7816164E-02  0.1312668E+00
        -11   -1    0    0    0    0  0.00000000000E+00  0.00000000000E+00  0.45593999997E+02  0.45594000000E+02  0.51100000000E-03 0.  1.
         11   -1    0    0    0    0 -0.00000000000E+00 -0.00000000000E+00 -0.45593999997E+02  0.45594000000E+02  0.51100000000E-03 0. -1.
    9900012    2    1    2    0    0  0.36417028148E+02 -0.20727281196E+02 -0.11305001133E+02  0.47787272177E+02  0.20000005164E+02 0.  0.
        -12    1    1    2    0    0 -0.36417028148E+02  0.20727281196E+02  0.11305001133E+02  0.43400727823E+02  0.00000000000E+00 0.  1.
         11    1    3    3    0    0  0.16290517959E+02 -0.17298994504E+02  0.50485458836E-01  0.23762128172E+02  0.51100000000E-03 0. -1.
        -11    1    3    3    0    0  0.13017732757E+02  0.54144333044E+00 -0.71070299430E+01  0.14841307283E+02  0.51100000000E-03 0.  1.
         12    1    3    3    0    0  0.71087774324E+01 -0.39697300227E+01 -0.42484566488E+01  0.91838367219E+01  0.00000000000E+00 0. -1.
</event>
<event>
 7    1  0.2732193E-010  0.4778727E+02  0.7816164E-02  0.1312668E+00
        -11   -1    0    0    0    0  0.00000000000E+00  0.00000000000E+00  0.45593999997E+02  0.45594000000E+02  0.51100000000E-03 0.  1.
         11   -1    0    0    0    0 -0.00000000000E+00 -0.00000000000E+00 -0.45593999997E+02  0.45594000000E+02  0.51100000000E-03 0. -1.
    9900012    2    1    2    0    0  0.38839928670E+02 -0.18359894790E+01 -0.19279843435E+02  0.47787270981E+02  0.19999999713E+02 0.  0.
        -12    1    1    2    0    0 -0.38839928670E+02  0.18359894790E+01  0.19279843435E+02  0.43400729019E+02  0.00000000000E+00 0.  1.
         11    1    3    3    0    0  0.16080523241E+02 -0.79226660613E+01 -0.84848840959E+01  0.19832930283E+02  0.51100000000E-03 0. -1.
        -11    1    3    3    0    0  0.21078037510E+02  0.58826704091E+01 -0.12782304730E+02  0.25343180362E+02  0.51100000000E-03 0.  1.
         12    1    3    3    0    0  0.16813679191E+01  0.20400617323E+00  0.19873453909E+01  0.26111603361E+01  0.00000000000E+00 0. -1.
</event>
<event>
 7    1  0.2732193E-010  0.4778727E+02  0.7816164E-02  0.1312668E+00
        -11   -1    0    0    0    0  0.00000000000E+00  0.00000000000E+00  0.45593999997E+02  0.45594000000E+02  0.51100000000E-03 0.  1.
         11   -1    0    0    0    0 -0.00000000000E+00 -0.00000000000E+00 -0.45593999997E+02  0.45594000000E+02  0.51100000000E-03 0. -1.
    9900012    2    1    2    0    0  0.30585682340E+02  0.26296052878E+02 -0.16020517724E+02  0.47787270176E+02  0.19999996039E+02 0.  0.
        -12    1    1    2    0    0 -0.30585682340E+02 -0.26296052878E+02  0.16020517724E+02  0.43400729824E+02  0.00000000000E+00 0.  1.
         11    1    3    3    0    0  0.18687905250E+02  0.16122046441E+02  0.75378791306E+00  0.24692638186E+02  0.51100000000E-03 0. -1.
        -11    1    3    3    0    0  0.25685835145E+01  0.24210324983E+01 -0.54928346144E+01  0.65291846345E+01  0.51100000000E-03 0.  1.
         12    1    3    3    0    0  0.93291935756E+01  0.77529739378E+01 -0.11281471023E+02  0.16565447356E+02  0.00000000000E+00 0. -1.
</event>
<event>
 7    1  0.2732193E-010  0.4778727E+02  0.7816164E-02  0.1312668E+00
        -11   -1    0    0    0    0  0.00000000000E+00  0.00000000000E+00  0.45593999997E+02  0.45594000000E+02  0.51100000000E-03 0. -1.
         11   -1    0    0    0    0 -0.00000000000E+00 -0.00000000000E+00 -0.45593999997E+02  0.45594000000E+02  0.51100000000E-03 0.  1.
    9900012    2    1    2    0    0 -0.41649140551E+02  0.87939028754E+01  0.84640085131E+01  0.47787273318E+02  0.20000010366E+02 0.  0.
        -12    1    1    2    0    0  0.41649140551E+02 -0.87939028754E+01 -0.84640085131E+01  0.43400726682E+02  0.00000000000E+00 0.  1.
         11    1    3    3    0    0 -0.32630764677E+02  0.62059250731E+01  0.37316840809E+01  0.33424628281E+02  0.51100000000E-03 0. -1.
        -11    1    3    3    0    0  0.45134640358E+00 -0.26038404451E+01  0.19888078146E+00  0.26501419709E+01  0.51100000000E-03 0.  1.
         12    1    3    3    0    0 -0.94697222779E+01  0.51918182473E+01  0.45334436508E+01  0.11712503066E+02  0.00000000000E+00 0. -1.
</event>
<event>
 7    1  0.2732193E-010  0.4778727E+02  0.7816164E-02  0.1312668E+00
        -11   -1    0    0    0    0  0.00000000000E+00  0.00000000000E+00  0.45593999997E+02  0.45594000000E+02  0.51100000000E-03 0.  1.
         11   -1    0    0    0    0 -0.00000000000E+00 -0.00000000000E+00 -0.45593999997E+02  0.45594000000E+02  0.51100000000E-03 0. -1.
    9900012    2    1    2    0    0  0.23838007203E+02  0.33452927084E+01 -0.36113457641E+02  0.47787269666E+02  0.19999993716E+02 0.  0.
        -12    1    1    2    0    0 -0.23838007203E+02 -0.33452927084E+01  0.36113457641E+02  0.43400730334E+02  0.00000000000E+00 0.  1.
         11    1    3    3    0    0  0.11075295398E+02 -0.10064880595E+01 -0.13250013535E+02  0.17298498354E+02  0.51100000000E-03 0. -1.
        -11    1    3    3    0    0  0.36374851028E+01  0.61351459168E+01 -0.16407720905E+01  0.73187052549E+01  0.51100000000E-03 0.  1.
        -12    1    3    3    0    0  0.91252267028E+01 -0.17833651489E+01 -0.21222672015E+02  0.23170066057E+02  0.00000000000E+00 0.  1.
</event>
<event>
 7    1  0.2732193E-010  0.4778727E+02  0.7816164E-02  0.1312668E+00
        -11   -1    0    0    0    0  0.00000000000E+00  0.00000000000E+00  0.45593999997E+02  0.45594000000E+02  0.51100000000E-03 0.  1.
         11   -1    0    0    0    0 -0.00000000000E+00 -0.00000000000E+00 -0.45593999997E+02  0.45594000000E+02  0.51100000000E-03 0. -1.
    9900012    2    1    2    0    0  0.27835539150E+02  0.31639009182E+02 -0.10381684790E+02  0.47787268199E+02  0.19999987027E+02 0.  0.
        -12    1    1    2    0    0 -0.27835539150E+02 -0.31639009182E+02  0.10381684790E+02  0.43400731801E+02  0.00000000000E+00 0.  1.
         11    1    3    3    0    0  0.49856727592E+01  0.81955218634E+01 -0.10719539495E+02  0.14385132558E+02  0.51100000000E-03 0. -1.
        -11    1    3    3    0    0  0.11751431799E+02  0.16261718890E+02 -0.11672124078E+01  0.20097314140E+02  0.51100000000E-03 0.  1.
        -12    1    3    3    0    0  0.11098434592E+02  0.71817684282E+01  0.15050671126E+01  0.13304821501E+02  0.00000000000E+00 0.  1.
</event>
<event>
 7    1  0.2732193E-010  0.4778727E+02  0.7816164E-02  0.1312668E+00
        -11   -1    0    0    0    0  0.00000000000E+00  0.00000000000E+00  0.45593999997E+02  0.45594000000E+02  0.51100000000E-03 0.  1.
         11   -1    0    0    0    0 -0.00000000000E+00 -0.00000000000E+00 -0.45593999997E+02  0.45594000000E+02  0.51100000000E-03 0. -1.
    9900012    2    1    2    0    0  0.19196754110E+02 -0.33927552103E+02 -0.19079544800E+02  0.47787272013E+02  0.20000004414E+02 0.  0.
        -12    1    1    2    0    0 -0.19196754110E+02  0.33927552103E+02  0.19079544800E+02  0.43400727987E+02  0.00000000000E+00 0.  1.
         11    1    3    3    0    0  0.12030226689E+00 -0.10984867624E+02 -0.12995587037E+02  0.17016670416E+02  0.51100000000E-03 0. -1.
        -11    1    3    3    0    0  0.18273499684E+02 -0.19952111952E+02 -0.52048051007E+01  0.27551725144E+02  0.51100000000E-03 0.  1.
        -12    1    3    3    0    0  0.80295215890E+00 -0.29905725269E+01 -0.87915266221E+00  0.32188764517E+01  0.00000000000E+00 0.  1.
</event>
<event>
 7    1  0.2732193E-010  0.4778727E+02  0.7816164E-02  0.1312668E+00
        -11   -1    0    0    0    0  0.00000000000E+00  0.00000000000E+00  0.45593999997E+02  0.45594000000E+02  0.51100000000E-03 0. -1.
         11   -1    0    0    0    0 -0.00000000000E+00 -0.00000000000E+00 -0.45593999997E+02  0.45594000000E+02  0.51100000000E-03 0.  1.
    9900012    2    1    2    0    0  0.32220613899E+02 -0.26562582564E+02  0.11827277576E+02  0.47787271350E+02  0.20000001393E+02 0.  0.
        -12    1    1    2    0    0 -0.32220613899E+02  0.26562582564E+02 -0.11827277576E+02  0.43400728650E+02  0.00000000000E+00 0.  1.
         11    1    3    3    0    0  0.18932562096E+02 -0.73092984294E+01  0.11227323518E+02  0.23193114165E+02  0.51100000000E-03 0. -1.
        -11    1    3    3    0    0  0.10314894764E+01 -0.14738052102E+01  0.23145823635E+01  0.29314440326E+01  0.51100000000E-03 0.  1.
         12    1    3    3    0    0  0.12256562326E+02 -0.17779478925E+02 -0.17146283051E+01  0.21662713152E+02  0.00000000000E+00 0. -1.
</event>
<event>
 7    1  0.2732193E-010  0.4778724E+02  0.7816164E-02  0.1312668E+00
        -11   -1    0    0    0    0  0.00000000000E+00  0.00000000000E+00  0.45593999997E+02  0.45594000000E+02  0.51100000000E-03 0.  1.
         11   -1    0    0    0    0 -0.00000000000E+00 -0.00000000000E+00 -0.45593999997E+02  0.45594000000E+02  0.51100000000E-03 0. -1.
    9900012    2    1    2    0    0  0.27696546420E+02 -0.17827978126E+01 -0.33366879526E+02  0.47787243083E+02  0.19999872513E+02 0.  0.
        -12    1    1    2    0    0 -0.27696546420E+02  0.17827978126E+01  0.33366879526E+02  0.43400756917E+02  0.00000000000E+00 0.  1.
         11    1    3    3    0    0  0.16898545724E+02  0.14766512893E+01 -0.19888822820E+02  0.26140134278E+02  0.51100000000E-03 0. -1.
        -11    1    3    3    0    0  0.39485659851E+01 -0.35926680920E+01  0.11773372828E+01  0.54666772995E+01  0.51100000000E-03 0.  1.
         12    1    3    3    0    0  0.68494347104E+01  0.33321899013E+00 -0.14655393989E+02  0.16180431506E+02  0.00000000000E+00 0. -1.
</event>
<event>
 7    1  0.2732193E-010  0.4778727E+02  0.7816164E-02  0.1312668E+00
        -11   -1    0    0    0    0  0.00000000000E+00  0.00000000000E+00  0.45593999997E+02  0.45594000000E+02  0.51100000000E-03 0.  1.
         11   -1    0    0    0    0 -0.00000000000E+00 -0.00000000000E+00 -0.45593999997E+02  0.45594000000E+02  0.51100000000E-03 0. -1.
    9900012    2    1    2    0    0 -0.13662019275E+02  0.34430444759E+02 -0.22616743047E+02  0.47787270017E+02  0.19999995317E+02 0.  0.
        -12    1    1    2    0    0  0.13662019275E+02 -0.34430444759E+02  0.22616743047E+02  0.43400729983E+02  0.00000000000E+00 0.  1.
         11    1    3    3    0    0 -0.67748304108E+01  0.14028503818E+02 -0.19099073633E+02  0.24646944240E+02  0.51100000000E-03 0.  1.
        -11    1    3    3    0    0 -0.71063923487E+00  0.67461879514E+01 -0.44677322721E+01  0.81226037644E+01  0.51100000000E-03 0. -1.
         12    1    3    3    0    0 -0.61765496288E+01  0.13655752990E+02  0.95006285790E+00  0.15017722013E+02  0.00000000000E+00 0. -1.
</event>
<event>
 7    1  0.2732193E-010  0.4778728E+02  0.7816164E-02  0.1312668E+00
        -11   -1    0    0    0    0  0.00000000000E+00  0.00000000000E+00  0.45593999997E+02  0.45594000000E+02  0.51100000000E-03 0. -1.
         11   -1    0    0    0    0 -0.00000000000E+00 -0.00000000000E+00 -0.45593999997E+02  0.45594000000E+02  0.51100000000E-03 0.  1.
    9900012    2    1    2    0    0  0.77920704234E+01  0.25629723867E+02  0.34147084999E+02  0.47787279719E+02  0.20000039553E+02 0.  0.
        -12    1    1    2    0    0 -0.77920704234E+01 -0.25629723867E+02 -0.34147084999E+02  0.43400720281E+02  0.00000000000E+00 0.  1.
         11    1    3    3    0    0  0.32946312989E+01  0.17165818457E+02  0.11575336697E+02  0.20964454169E+02  0.51100000000E-03 0. -1.
        -11    1    3    3    0    0  0.62981674151E+01  0.49953272255E+00  0.94244188592E+01  0.11346193936E+02  0.51100000000E-03 0.  1.
        -12    1    3    3    0    0 -0.18007282906E+01  0.79643726870E+01  0.13147329442E+02  0.15476631615E+02  0.00000000000E+00 0.  1.
</event>
<event>
 7    1  0.2732193E-010  0.4778727E+02  0.7816164E-02  0.1312668E+00
        -11   -1    0    0    0    0  0.00000000000E+00  0.00000000000E+00  0.45593999997E+02  0.45594000000E+02  0.51100000000E-03 0.  1.
         11   -1    0    0    0    0 -0.00000000000E+00 -0.00000000000E+00 -0.45593999997E+02  0.45594000000E+02  0.51100000000E-03 0. -1.
    9900012    2    1    2    0    0 -0.35570621835E+02 -0.21192559588E+02 -0.13008831253E+02  0.47787269474E+02  0.19999992839E+02 0.  0.
        -12    1    1    2    0    0  0.35570621835E+02  0.21192559588E+02  0.13008831253E+02  0.43400730526E+02  0.00000000000E+00 0.  1.
         11    1    3    3    0    0 -0.23183047690E+02 -0.14559879789E+02 -0.90892545457E+00  0.27391055938E+02  0.51100000000E-03 0. -1.
        -11    1    3    3    0    0 -0.13107542457E+02 -0.44868301847E+01 -0.11620799591E+02  0.18082651846E+02  0.51100000000E-03 0.  1.
         12    1    3    3    0    0  0.71996831146E+00 -0.21458496143E+01 -0.47910620719E+00  0.23135616902E+01  0.00000000000E+00 0. -1.
</event>
<event>
 7    1  0.2732193E-010  0.4778727E+02  0.7816164E-02  0.1312668E+00
        -11   -1    0    0    0    0  0.00000000000E+00  0.00000000000E+00  0.45593999997E+02  0.45594000000E+02  0.51100000000E-03 0. -1.
         11   -1    0    0    0    0 -0.00000000000E+00 -0.00000000000E+00 -0.45593999997E+02  0.45594000000E+02  0.51100000000E-03 0.  1.
    9900012    2    1    2    0    0 -0.30002019366E+02 -0.30138893790E+01 -0.31215680756E+02  0.47787269357E+02  0.19999992307E+02 0.  0.
        -12    1    1    2    0    0  0.30002019366E+02  0.30138893790E+01  0.31215680756E+02  0.43400730643E+02  0.00000000000E+00 0.  1.
         11    1    3    3    0    0 -0.98712620283E+01 -0.32160713605E+01 -0.29307541932E+01  0.10787689717E+02  0.51100000000E-03 0. -1.
        -11    1    3    3    0    0 -0.14195992129E+02  0.59654202831E+01 -0.16163297963E+02  0.22324081907E+02  0.51100000000E-03 0.  1.
        -12    1    3    3    0    0 -0.59347652093E+01 -0.57632383017E+01 -0.12121628600E+02  0.14675497734E+02  0.00000000000E+00 0.  1.
</event>
<event>
 7    1  0.2732193E-010  0.4778728E+02  0.7816164E-02  0.1312668E+00
        -11   -1    0    0    0    0  0.00000000000E+00  0.00000000000E+00  0.45593999997E+02  0.45594000000E+02  0.51100000000E-03 0.  1.
         11   -1    0    0    0    0 -0.00000000000E+00 -0.00000000000E+00 -0.45593999997E+02  0.45594000000E+02  0.51100000000E-03 0. -1.
    9900012    2    1    2    0    0 -0.19756641481E+02  0.14787475805E+02 -0.35701935253E+02  0.47787279912E+02  0.20000040432E+02 0.  0.
        -12    1    1    2    0    0  0.19756641481E+02 -0.14787475805E+02  0.35701935253E+02  0.43400720088E+02  0.00000000000E+00 0.  1.
         11    1    3    3    0    0 -0.10434797281E+02 -0.12014597969E+00 -0.96464330159E+01  0.14211020355E+02  0.51100000000E-03 0. -1.
        -11    1    3    3    0    0 -0.49178555743E+01  0.10859452156E+02 -0.24724078837E+02  0.27448006834E+02  0.51100000000E-03 0.  1.
        -12    1    3    3    0    0 -0.44039886261E+01  0.40481696287E+01 -0.13314234003E+01  0.61282527226E+01  0.00000000000E+00 0.  1.
</event>
<event>
 7    1  0.2732193E-010  0.4778727E+02  0.7816164E-02  0.1312668E+00
        -11   -1    0    0    0    0  0.00000000000E+00  0.00000000000E+00  0.45593999997E+02  0.45594000000E+02  0.51100000000E-03 0.  1.
         11   -1    0    0    0    0 -0.00000000000E+00 -0.00000000000E+00 -0.45593999997E+02  0.45594000000E+02  0.51100000000E-03 0. -1.
    9900012    2    1    2    0    0  0.29438415724E+02 -0.31889337967E+02 -0.27024582890E+00  0.47787271560E+02  0.20000002353E+02 0.  0.
        -12    1    1    2    0    0 -0.29438415724E+02  0.31889337967E+02  0.27024582890E+00  0.43400728440E+02  0.00000000000E+00 0.  1.
         11    1    3    3    0    0  0.13295906764E+02 -0.16870633830E+02 -0.35570239515E+01  0.21772731619E+02  0.51100000000E-03 0. -1.
        -11    1    3    3    0    0  0.14670743469E+02 -0.47373420946E+01  0.17611406400E+01  0.15516917885E+02  0.51100000000E-03 0.  1.
        -12    1    3    3    0    0  0.14717654907E+01 -0.10281362042E+02  0.15256374826E+01  0.10497622056E+02  0.00000000000E+00 0.  1.
</event>
<event>
 7    1  0.2732193E-010  0.4778727E+02  0.7816164E-02  0.1312668E+00
        -11   -1    0    0    0    0  0.00000000000E+00  0.00000000000E+00  0.45593999997E+02  0.45594000000E+02  0.51100000000E-03 0.  1.
         11   -1    0    0    0    0 -0.00000000000E+00 -0.00000000000E+00 -0.45593999997E+02  0.45594000000E+02  0.51100000000E-03 0. -1.
    9900012    2    1    2    0    0  0.53135865570E+01 -0.77828908476E+01 -0.42365261233E+02  0.47787274759E+02  0.20000016938E+02 0.  0.
        -12    1    1    2    0    0 -0.53135865570E+01  0.77828908476E+01  0.42365261233E+02  0.43400725241E+02  0.00000000000E+00 0.  1.
         11    1    3    3    0    0  0.22355592776E+00 -0.13409827120E+02 -0.28372678980E+02  0.31382835331E+02  0.51100000000E-03 0. -1.
        -11    1    3    3    0    0 -0.27836196611E+00  0.18995554705E+01 -0.21833956579E+01  0.29074066158E+01  0.51100000000E-03 0.  1.
         12    1    3    3    0    0  0.53683925954E+01  0.37273808024E+01 -0.11809186596E+02  0.13497032813E+02  0.00000000000E+00 0. -1.
</event>
<event>
 7    1  0.2732193E-010  0.4778728E+02  0.7816164E-02  0.1312668E+00
        -11   -1    0    0    0    0  0.00000000000E+00  0.00000000000E+00  0.45593999997E+02  0.45594000000E+02  0.51100000000E-03 0. -1.
         11   -1    0    0    0    0 -0.00000000000E+00 -0.00000000000E+00 -0.45593999997E+02  0.45594000000E+02  0.51100000000E-03 0.  1.
    9900012    2    1    2    0    0 -0.23537313721E+02  0.36382846305E+02  0.24302025418E+01  0.47787279651E+02  0.20000039238E+02 0.  0.
        -12    1    1    2    0    0  0.23537313721E+02 -0.36382846305E+02 -0.24302025418E+01  0.43400720349E+02  0.00000000000E+00 0.  1.
         11    1    3    3    0    0 -0.14827219217E+02  0.24795321558E+02 -0.21986856854E+00  0.28891222600E+02  0.51100000000E-03 0. -1.
        -11    1    3    3    0    0 -0.47151510979E+00 -0.23960229066E+01  0.75354259585E+00  0.25555975764E+01  0.51100000000E-03 0.  1.
        -12    1    3    3    0    0 -0.82385793946E+01  0.13983547654E+02  0.18965285145E+01  0.16340459474E+02  0.00000000000E+00 0.  1.
</event>
<event>
 7    1  0.2732193E-010  0.4778727E+02  0.7816164E-02  0.1312668E+00
        -11   -1    0    0    0    0  0.00000000000E+00  0.00000000000E+00  0.45593999997E+02  0.45594000000E+02  0.51100000000E-03 0.  1.
         11   -1    0    0    0    0 -0.00000000000E+00 -0.00000000000E+00 -0.45593999997E+02  0.45594000000E+02  0.51100000000E-03 0. -1.
    9900012    2    1    2    0    0 -0.89415022274E+01  0.70329545257E+01 -0.41883294078E+02  0.47787271501E+02  0.20000002081E+02 0.  0.
        -12    1    1    2    0    0  0.89415022274E+01 -0.70329545257E+01  0.41883294078E+02  0.43400728499E+02  0.00000000000E+00 0.  1.
         11    1    3    3    0    0 -0.10246967962E+02 -0.23665126577E+01 -0.32263694840E+02  0.33934447683E+02  0.51100000000E-03 0. -1.
        -11    1    3    3    0    0  0.14560026880E+01  0.44105979227E+01 -0.28757774341E+01  0.54629125908E+01  0.51100000000E-03 0.  1.
         12    1    3    3    0    0 -0.15053695356E+00  0.49888692606E+01 -0.67438218038E+01  0.83899112269E+01  0.00000000000E+00 0. -1.
</event>
<event>
 7    1  0.2732193E-010  0.4778727E+02  0.7816164E-02  0.1312668E+00
        -11   -1    0    0    0    0  0.00000000000E+00  0.00000000000E+00  0.45593999997E+02  0.45594000000E+02  0.51100000000E-03 0.  1.
         11   -1    0    0    0    0 -0.00000000000E+00 -0.00000000000E+00 -0.45593999997E+02  0.45594000000E+02  0.51100000000E-03 0. -1.
    9900012    2    1    2    0    0  0.20205395891E+02 -0.87536420850E+01 -0.37399719935E+02  0.47787270466E+02  0.19999997363E+02 0.  0.
        -12    1    1    2    0    0 -0.20205395891E+02  0.87536420850E+01  0.37399719935E+02  0.43400729534E+02  0.00000000000E+00 0.  1.
         11    1    3    3    0    0  0.12044628969E+02 -0.59106365076E+01 -0.16892125250E+02  0.21572032974E+02  0.51100000000E-03 0. -1.
        -11    1    3    3    0    0 -0.85591493530E+00 -0.30184172911E+01  0.66043108891E+00  0.32061819668E+01  0.51100000000E-03 0.  1.
        -12    1    3    3    0    0  0.90166818571E+01  0.17541171378E+00 -0.21168025774E+02  0.23009055525E+02  0.00000000000E+00 0.  1.
</event>
<event>
 7    1  0.2732193E-010  0.4778727E+02  0.7816164E-02  0.1312668E+00
        -11   -1    0    0    0    0  0.00000000000E+00  0.00000000000E+00  0.45593999997E+02  0.45594000000E+02  0.51100000000E-03 0.  1.
         11   -1    0    0    0    0 -0.00000000000E+00 -0.00000000000E+00 -0.45593999997E+02  0.45594000000E+02  0.51100000000E-03 0. -1.
    9900012    2    1    2    0    0  0.68481534180E+01 -0.34245193701E+02 -0.25768064672E+02  0.47787266667E+02  0.19999980043E+02 0.  0.
        -12    1    1    2    0    0 -0.68481534180E+01  0.34245193701E+02  0.25768064672E+02  0.43400733333E+02  0.00000000000E+00 0.  1.
         11    1    3    3    0    0 -0.27183861082E+01 -0.18649307267E+02 -0.96419897996E+01  0.21169654039E+02  0.51100000000E-03 0. -1.
        -11    1    3    3    0    0  0.74829292922E+01 -0.51278388798E+01 -0.26974025929E+01  0.94638757060E+01  0.51100000000E-03 0.  1.
         12    1    3    3    0    0  0.20836102340E+01 -0.10468047554E+02 -0.13428672280E+02  0.17153736922E+02  0.00000000000E+00 0. -1.
</event>
<event>
 7    1  0.2732193E-010  0.4778730E+02  0.7816164E-02  0.1312668E+00
        -11   -1    0    0    0    0  0.00000000000E+00  0.00000000000E+00  0.45593999997E+02  0.45594000000E+02  0.51100000000E-03 0.  1.
         11   -1    0    0    0    0 -0.00000000000E+00 -0.00000000000E+00 -0.45593999997E+02  0.45594000000E+02  0.51100000000E-03 0. -1.
    9900012    2    1    2    0    0 -0.61282349957E+01  0.25248343946E+02 -0.34764735478E+02  0.47787297597E+02  0.20000121065E+02 0.  0.
        -12    1    1    2    0    0  0.61282349957E+01 -0.25248343946E+02  0.34764735478E+02  0.43400702403E+02  0.00000000000E+00 0.  1.
         11    1    3    3    0    0 -0.22038256704E+01  0.21097545688E+02 -0.17815828162E+02  0.27701390127E+02  0.51100000000E-03 0. -1.
        -11    1    3    3    0    0 -0.68717477147E+01  0.33716659325E+01 -0.10996198776E+02  0.13397963860E+02  0.51100000000E-03 0.  1.
        -12    1    3    3    0    0  0.29473383893E+01  0.77913232580E+00 -0.59527085399E+01  0.66879436095E+01  0.00000000000E+00 0.  1.
</event>
<event>
 7    1  0.2732193E-010  0.4778728E+02  0.7816164E-02  0.1312668E+00
        -11   -1    0    0    0    0  0.00000000000E+00  0.00000000000E+00  0.45593999997E+02  0.45594000000E+02  0.51100000000E-03 0. -1.
         11   -1    0    0    0    0 -0.00000000000E+00 -0.00000000000E+00 -0.45593999997E+02  0.45594000000E+02  0.51100000000E-03 0.  1.
    9900012    2    1    2    0    0 -0.97475591110E+01  0.38982670816E+02  0.16399966203E+02  0.47787280835E+02  0.20000044641E+02 0.  0.
        -12    1    1    2    0    0  0.97475591110E+01 -0.38982670816E+02 -0.16399966203E+02  0.43400719165E+02  0.00000000000E+00 0.  1.
         11    1    3    3    0    0 -0.11415332014E+02  0.24688790622E+02  0.56081513590E+01  0.27772244225E+02  0.51100000000E-03 0. -1.
        -11    1    3    3    0    0  0.26349271532E+01  0.21010343054E+00  0.25260495223E+01  0.36562153936E+01  0.51100000000E-03 0.  1.
         12    1    3    3    0    0 -0.96715425042E+00  0.14083776763E+02  0.82657653218E+01  0.16358821217E+02  0.00000000000E+00 0. -1.
</event>
<event>
 7    1  0.2732193E-010  0.4778727E+02  0.7816164E-02  0.1312668E+00
        -11   -1    0    0    0    0  0.00000000000E+00  0.00000000000E+00  0.45593999997E+02  0.45594000000E+02  0.51100000000E-03 0.  1.
         11   -1    0    0    0    0 -0.00000000000E+00 -0.00000000000E+00 -0.45593999997E+02  0.45594000000E+02  0.51100000000E-03 0. -1.
    9900012    2    1    2    0    0 -0.27905891027E+02  0.79297064089E+01 -0.32280092361E+02  0.47787270046E+02  0.19999995446E+02 0.  0.
        -12    1    1    2    0    0  0.27905891027E+02 -0.79297064089E+01  0.32280092361E+02  0.43400729954E+02  0.00000000000E+00 0.  1.
         11    1    3    3    0    0 -0.67089583392E+00 -0.56879173155E+00  0.18392114558E+01  0.20387065247E+01  0.51100000000E-03 0. -1.
        -11    1    3    3    0    0 -0.12135211026E+00 -0.14526291950E+01 -0.83380861701E+00  0.16793138431E+01  0.51100000000E-03 0.  1.
         12    1    3    3    0    0 -0.27113643083E+02  0.99511273354E+01 -0.33285495199E+02  0.44069249678E+02  0.00000000000E+00 0. -1.
</event>
<event>
 7    1  0.2732193E-010  0.4778727E+02  0.7816164E-02  0.1312668E+00
        -11   -1    0    0    0    0  0.00000000000E+00  0.00000000000E+00  0.45593999997E+02  0.45594000000E+02  0.51100000000E-03 0. -1.
         11   -1    0    0    0    0 -0.00000000000E+00 -0.00000000000E+00 -0.45593999997E+02  0.45594000000E+02  0.51100000000E-03 0.  1.
    9900012    2    1    2    0    0 -0.13120359421E+01  0.41964336553E+02  0.10995280622E+02  0.47787272165E+02  0.20000005108E+02 0.  0.
        -12    1    1    2    0    0  0.13120359421E+01 -0.41964336553E+02 -0.10995280622E+02  0.43400727835E+02  0.00000000000E+00 0.  1.
         11    1    3    3    0    0 -0.10010074387E+00  0.46073917113E+01  0.13334135185E+01  0.47975066871E+01  0.51100000000E-03 0. -1.
        -11    1    3    3    0    0 -0.84088537583E+00  0.38643169618E+02  0.60310302789E+01  0.39120007321E+02  0.51100000000E-03 0.  1.
        -12    1    3    3    0    0 -0.37104982238E+00 -0.12862247759E+01  0.36308368242E+01  0.38697581564E+01  0.00000000000E+00 0.  1.
</event>
<event>
 7    1  0.2732193E-010  0.4778727E+02  0.7816164E-02  0.1312668E+00
        -11   -1    0    0    0    0  0.00000000000E+00  0.00000000000E+00  0.45593999997E+02  0.45594000000E+02  0.51100000000E-03 0. -1.
         11   -1    0    0    0    0 -0.00000000000E+00 -0.00000000000E+00 -0.45593999997E+02  0.45594000000E+02  0.51100000000E-03 0.  1.
    9900012    2    1    2    0    0  0.33822166218E+02 -0.60539503983E-01  0.27197080060E+02  0.47787265485E+02  0.19999974650E+02 0.  0.
        -12    1    1    2    0    0 -0.33822166218E+02  0.60539503983E-01 -0.27197080060E+02  0.43400734515E+02  0.00000000000E+00 0.  1.
         11    1    3    3    0    0  0.35346128201E+02  0.13891050540E+01  0.26255040450E+02  0.44052304604E+02  0.51100000000E-03 0. -1.
        -11    1    3    3    0    0 -0.13504755359E+01  0.32544522304E+00 -0.46320919175E+00  0.14643298067E+01  0.51100000000E-03 0.  1.
         12    1    3    3    0    0 -0.17348644742E+00 -0.17750897810E+01  0.14052488020E+01  0.22706310738E+01  0.00000000000E+00 0. -1.
</event>
<event>
 7    1  0.2732193E-010  0.4778727E+02  0.7816164E-02  0.1312668E+00
        -11   -1    0    0    0    0  0.00000000000E+00  0.00000000000E+00  0.45593999997E+02  0.45594000000E+02  0.51100000000E-03 0.  1.
         11   -1    0    0    0    0 -0.00000000000E+00 -0.00000000000E+00 -0.45593999997E+02  0.45594000000E+02  0.51100000000E-03 0. -1.
    9900012    2    1    2    0    0  0.31923400665E+02 -0.29392893086E+02 -0.76009594494E+00  0.47787269363E+02  0.19999992333E+02 0.  0.
        -12    1    1    2    0    0 -0.31923400665E+02  0.29392893086E+02  0.76009594494E+00  0.43400730637E+02  0.00000000000E+00 0.  1.
         11    1    3    3    0    0  0.10741129187E+01 -0.13448645321E+01 -0.44942135330E+01  0.48125185416E+01  0.51100000000E-03 0.  1.
        -11    1    3    3    0    0  0.13110776807E+02 -0.16503050306E+02 -0.16328962238E+01  0.21140233874E+02  0.51100000000E-03 0. -1.
         12    1    3    3    0    0  0.17738510939E+02 -0.11544978247E+02  0.53670138119E+01  0.21834516947E+02  0.00000000000E+00 0. -1.
</event>
<event>
 7    1  0.2732193E-010  0.4778727E+02  0.7816164E-02  0.1312668E+00
        -11   -1    0    0    0    0  0.00000000000E+00  0.00000000000E+00  0.45593999997E+02  0.45594000000E+02  0.51100000000E-03 0. -1.
         11   -1    0    0    0    0 -0.00000000000E+00 -0.00000000000E+00 -0.45593999997E+02  0.45594000000E+02  0.51100000000E-03 0.  1.
    9900012    2    1    2    0    0  0.38710652790E+01 -0.16180171165E+02  0.40085407955E+02  0.47787274012E+02  0.20000013532E+02 0.  0.
        -12    1    1    2    0    0 -0.38710652790E+01  0.16180171165E+02 -0.40085407955E+02  0.43400725988E+02  0.00000000000E+00 0.  1.
         11    1    3    3    0    0 -0.22359999933E+01 -0.16782022840E+02  0.30323457831E+02  0.34729642694E+02  0.51100000000E-03 0. -1.
        -11    1    3    3    0    0  0.37859702156E+01  0.21314267216E+01  0.92659255771E+01  0.10233959517E+02  0.51100000000E-03 0.  1.
         12    1    3    3    0    0  0.23210950567E+01 -0.15295750471E+01  0.49602454677E+00  0.28236718007E+01  0.00000000000E+00 0. -1.
</event>
<event>
 7    1  0.2732193E-010  0.4778727E+02  0.7816164E-02  0.1312668E+00
        -11   -1    0    0    0    0  0.00000000000E+00  0.00000000000E+00  0.45593999997E+02  0.45594000000E+02  0.51100000000E-03 0.  1.
         11   -1    0    0    0    0 -0.00000000000E+00 -0.00000000000E+00 -0.45593999997E+02  0.45594000000E+02  0.51100000000E-03 0. -1.
    9900012    2    1    2    0    0  0.20249341442E+02 -0.44245687135E+01 -0.38131494486E+02  0.47787268337E+02  0.19999987655E+02 0.  0.
        -12    1    1    2    0    0 -0.20249341442E+02  0.44245687135E+01  0.38131494486E+02  0.43400731663E+02  0.00000000000E+00 0.  1.
         11    1    3    3    0    0  0.69568495726E+01 -0.95485072741E+00 -0.34392248112E+01  0.78190641033E+01  0.51100000000E-03 0.  1.
        -11    1    3    3    0    0  0.11802835714E+01  0.48676506275E+01 -0.10952112348E+02  0.12043083371E+02  0.51100000000E-03 0. -1.
        -12    1    3    3    0    0  0.12112208298E+02 -0.83373686135E+01 -0.23740157327E+02  0.27925120862E+02  0.00000000000E+00 0.  1.
</event>
<event>
 7    1  0.2732193E-010  0.4778727E+02  0.7816164E-02  0.1312668E+00
        -11   -1    0    0    0    0  0.00000000000E+00  0.00000000000E+00  0.45593999997E+02  0.45594000000E+02  0.51100000000E-03 0. -1.
         11   -1    0    0    0    0 -0.00000000000E+00 -0.00000000000E+00 -0.45593999997E+02  0.45594000000E+02  0.51100000000E-03 0.  1.
    9900012    2    1    2    0    0 -0.19355544425E+02 -0.68390511114E+01  0.38238905793E+02  0.47787266869E+02  0.19999980961E+02 0.  0.
        -12    1    1    2    0    0  0.19355544425E+02  0.68390511114E+01 -0.38238905793E+02  0.43400733131E+02  0.00000000000E+00 0.  1.
         11    1    3    3    0    0 -0.15030127335E+02 -0.65131956827E+01  0.22530253385E+02  0.27855677403E+02  0.51100000000E-03 0. -1.
        -11    1    3    3    0    0 -0.34507580050E+01  0.41186872985E+01  0.14158678187E+02  0.15143958668E+02  0.51100000000E-03 0.  1.
         12    1    3    3    0    0 -0.87465908526E+00 -0.44445427272E+01  0.15499742202E+01  0.47876307975E+01  0.00000000000E+00 0. -1.
</event>
<event>
 7    1  0.2732193E-010  0.4778727E+02  0.7816164E-02  0.1312668E+00
        -11   -1    0    0    0    0  0.00000000000E+00  0.00000000000E+00  0.45593999997E+02  0.45594000000E+02  0.51100000000E-03 0.  1.
         11   -1    0    0    0    0 -0.00000000000E+00 -0.00000000000E+00 -0.45593999997E+02  0.45594000000E+02  0.51100000000E-03 0. -1.
    9900012    2    1    2    0    0 -0.71711274510E+01  0.21127817207E+02 -0.37226514764E+02  0.47787272698E+02  0.20000007539E+02 0.  0.
        -12    1    1    2    0    0  0.71711274510E+01 -0.21127817207E+02  0.37226514764E+02  0.43400727302E+02  0.00000000000E+00 0.  1.
         11    1    3    3    0    0 -0.46348649531E+01  0.71840663205E+01 -0.23652714188E+02  0.25150420886E+02  0.51100000000E-03 0. -1.
        -11    1    3    3    0    0 -0.62030020345E+01  0.12408523911E+02 -0.88155602582E+01  0.16436629911E+02  0.51100000000E-03 0.  1.
        -12    1    3    3    0    0  0.36667395366E+01  0.15352269753E+01 -0.47582403181E+01  0.62002219008E+01  0.00000000000E+00 0.  1.
</event>
<event>
 7    1  0.2732193E-010  0.4778727E+02  0.7816164E-02  0.1312668E+00
        -11   -1    0    0    0    0  0.00000000000E+00  0.00000000000E+00  0.45593999997E+02  0.45594000000E+02  0.51100000000E-03 0.  1.
         11   -1    0    0    0    0 -0.00000000000E+00 -0.00000000000E+00 -0.45593999997E+02  0.45594000000E+02  0.51100000000E-03 0. -1.
    9900012    2    1    2    0    0 -0.16622085351E+02  0.39017059305E+02 -0.92194677863E+01  0.47787271614E+02  0.20000002596E+02 0.  0.
        -12    1    1    2    0    0  0.16622085351E+02 -0.39017059305E+02  0.92194677863E+01  0.43400728386E+02  0.00000000000E+00 0.  1.
         11    1    3    3    0    0 -0.17003570132E+02  0.25915161650E+02 -0.40299052442E+01  0.31256313556E+02  0.51100000000E-03 0. -1.
        -11    1    3    3    0    0  0.13180307566E+01  0.13960053425E+02 -0.57336351507E+01  0.15149088059E+02  0.51100000000E-03 0.  1.
        -12    1    3    3    0    0 -0.93654597590E+00 -0.85815577052E+00  0.54407260855E+00  0.13818699993E+01  0.00000000000E+00 0.  1.
</event>
<event>
 7    1  0.2732193E-010  0.4778725E+02  0.7816164E-02  0.1312668E+00
        -11   -1    0    0    0    0  0.00000000000E+00  0.00000000000E+00  0.45593999997E+02  0.45594000000E+02  0.51100000000E-03 0.  1.
         11   -1    0    0    0    0 -0.00000000000E+00 -0.00000000000E+00 -0.45593999997E+02  0.45594000000E+02  0.51100000000E-03 0. -1.
    9900012    2    1    2    0    0 -0.16400530393E+02  0.15336568776E+02 -0.37140780801E+02  0.47787247270E+02  0.19999891603E+02 0.  0.
        -12    1    1    2    0    0  0.16400530393E+02 -0.15336568776E+02  0.37140780801E+02  0.43400752730E+02  0.00000000000E+00 0.  1.
         11    1    3    3    0    0 -0.19730684343E+02  0.11649539984E+02 -0.22169725245E+02  0.31882728933E+02  0.51100000000E-03 0. -1.
        -11    1    3    3    0    0  0.14560181494E+01  0.11055674234E+01 -0.84436983312E+01  0.86393466158E+01  0.51100000000E-03 0.  1.
         12    1    3    3    0    0  0.18741358011E+01  0.25814613683E+01 -0.65273572253E+01  0.72651717216E+01  0.00000000000E+00 0. -1.
</event>
<event>
 7    1  0.2732193E-010  0.4778727E+02  0.7816164E-02  0.1312668E+00
        -11   -1    0    0    0    0  0.00000000000E+00  0.00000000000E+00  0.45593999997E+02  0.45594000000E+02  0.51100000000E-03 0.  1.
         11   -1    0    0    0    0 -0.00000000000E+00 -0.00000000000E+00 -0.45593999997E+02  0.45594000000E+02  0.51100000000E-03 0. -1.
    9900012    2    1    2    0    0 -0.33391156885E+02 -0.93874278801E+01 -0.26086970212E+02  0.47787272181E+02  0.20000005183E+02 0.  0.
        -12    1    1    2    0    0  0.33391156885E+02  0.93874278801E+01  0.26086970212E+02  0.43400727819E+02  0.00000000000E+00 0.  1.
         11    1    3    3    0    0 -0.20392041469E+02  0.26106069704E+01 -0.69672436717E+01  0.21706982947E+02  0.51100000000E-03 0.  1.
        -11    1    3    3    0    0 -0.84549553866E+01 -0.86217421374E+01 -0.12910748721E+02  0.17677899787E+02  0.51100000000E-03 0. -1.
        -12    1    3    3    0    0 -0.45441600296E+01 -0.33762927132E+01 -0.62089778193E+01  0.84023894470E+01  0.00000000000E+00 0.  1.
</event>
<event>
 7    1  0.2732193E-010  0.4778727E+02  0.7816164E-02  0.1312668E+00
        -11   -1    0    0    0    0  0.00000000000E+00  0.00000000000E+00  0.45593999997E+02  0.45594000000E+02  0.51100000000E-03 0.  1.
         11   -1    0    0    0    0 -0.00000000000E+00 -0.00000000000E+00 -0.45593999997E+02  0.45594000000E+02  0.51100000000E-03 0. -1.
    9900012    2    1    2    0    0 -0.26123573432E+02 -0.26070182214E+02 -0.22836981181E+02  0.47787271907E+02  0.20000003934E+02 0.  0.
        -12    1    1    2    0    0  0.26123573432E+02  0.26070182214E+02  0.22836981181E+02  0.43400728093E+02  0.00000000000E+00 0.  1.
         11    1    3    3    0    0 -0.87067779423E+01 -0.13927725339E+02 -0.17736120733E+02  0.24173528790E+02  0.51100000000E-03 0. -1.
        -11    1    3    3    0    0 -0.34618312121E+01 -0.40517933817E+00 -0.40578003096E+01  0.53492232381E+01  0.51100000000E-03 0.  1.
         12    1    3    3    0    0 -0.13954964277E+02 -0.11737277537E+02 -0.10430601386E+01  0.18264519879E+02  0.00000000000E+00 0. -1.
</event>
<event>
 7    1  0.2732193E-010  0.4778731E+02  0.7816164E-02  0.1312668E+00
        -11   -1    0    0    0    0  0.00000000000E+00  0.00000000000E+00  0.45593999997E+02  0.45594000000E+02  0.51100000000E-03 0.  1.
         11   -1    0    0    0    0 -0.00000000000E+00 -0.00000000000E+00 -0.45593999997E+02  0.45594000000E+02  0.51100000000E-03 0. -1.
    9900012    2    1    2    0    0 -0.32316414021E+01  0.13998249874E+02 -0.40953947514E+02  0.47787305044E+02  0.20000155016E+02 0.  0.
        -12    1    1    2    0    0  0.32316414021E+01 -0.13998249874E+02  0.40953947514E+02  0.43400694956E+02  0.00000000000E+00 0.  1.
         11    1    3    3    0    0  0.48224244532E+01  0.45036024216E+01 -0.54446731469E+01  0.85546875055E+01  0.51100000000E-03 0. -1.
        -11    1    3    3    0    0 -0.23557468902E+01  0.37065470037E+01 -0.21332842627E+01  0.48825132982E+01  0.51100000000E-03 0.  1.
         12    1    3    3    0    0 -0.56983189651E+01  0.57881004484E+01 -0.33375990105E+02  0.34350104240E+02  0.00000000000E+00 0. -1.
</event>
<event>
 7    1  0.2732193E-010  0.4778729E+02  0.7816164E-02  0.1312668E+00
        -11   -1    0    0    0    0  0.00000000000E+00  0.00000000000E+00  0.45593999997E+02  0.45594000000E+02  0.51100000000E-03 0. -1.
         11   -1    0    0    0    0 -0.00000000000E+00 -0.00000000000E+00 -0.45593999997E+02  0.45594000000E+02  0.51100000000E-03 0.  1.
    9900012    2    1    2    0    0  0.30431009368E+02 -0.69793058235E+01  0.30147379143E+02  0.47787291364E+02  0.20000092644E+02 0.  0.
        -12    1    1    2    0    0 -0.30431009368E+02  0.69793058235E+01 -0.30147379143E+02  0.43400708636E+02  0.00000000000E+00 0.  1.
         11    1    3    3    0    0  0.13962136345E+02  0.59602168525E+01  0.14495262399E+02  0.20989951608E+02  0.51100000000E-03 0. -1.
        -11    1    3    3    0    0  0.14189644620E+02 -0.11812785715E+02  0.15727494166E+02  0.24253700620E+02  0.51100000000E-03 0.  1.
        -12    1    3    3    0    0  0.22792284038E+01 -0.11267369606E+01 -0.75377421939E-01  0.25436391354E+01  0.00000000000E+00 0.  1.
</event>
<event>
 7    1  0.2732193E-010  0.4778726E+02  0.7816164E-02  0.1312668E+00
        -11   -1    0    0    0    0  0.00000000000E+00  0.00000000000E+00  0.45593999997E+02  0.45594000000E+02  0.51100000000E-03 0.  1.
         11   -1    0    0    0    0 -0.00000000000E+00 -0.00000000000E+00 -0.45593999997E+02  0.45594000000E+02  0.51100000000E-03 0. -1.
    9900012    2    1    2    0    0 -0.13879860590E+02  0.29938937181E+02 -0.28189253870E+02  0.47787256650E+02  0.19999934371E+02 0.  0.
        -12    1    1    2    0    0  0.13879860590E+02 -0.29938937181E+02  0.28189253870E+02  0.43400743350E+02  0.00000000000E+00 0.  1.
         11    1    3    3    0    0 -0.10573434059E+02  0.18330142792E+02 -0.73883888691E+01  0.22413833517E+02  0.51100000000E-03 0. -1.
        -11    1    3    3    0    0 -0.28697675966E+01  0.12871226625E+02 -0.19113027082E+02  0.23220935498E+02  0.51100000000E-03 0.  1.
        -12    1    3    3    0    0 -0.43665893435E+00 -0.12624322367E+01 -0.16878379196E+01  0.21524876353E+01  0.00000000000E+00 0.  1.
</event>
<event>
 7    1  0.2732193E-010  0.4778727E+02  0.7816164E-02  0.1312668E+00
        -11   -1    0    0    0    0  0.00000000000E+00  0.00000000000E+00  0.45593999997E+02  0.45594000000E+02  0.51100000000E-03 0. -1.
         11   -1    0    0    0    0 -0.00000000000E+00 -0.00000000000E+00 -0.45593999997E+02  0.45594000000E+02  0.51100000000E-03 0.  1.
    9900012    2    1    2    0    0  0.31505428747E+02  0.73141645802E+01  0.28940181340E+02  0.47787272586E+02  0.20000007030E+02 0.  0.
        -12    1    1    2    0    0 -0.31505428747E+02 -0.73141645802E+01 -0.28940181340E+02  0.43400727414E+02  0.00000000000E+00 0.  1.
         11    1    3    3    0    0  0.14397515317E+02 -0.18227856469E+01  0.19632590011E+02  0.24414126764E+02  0.51100000000E-03 0. -1.
        -11    1    3    3    0    0  0.17882937316E+02  0.75137345697E+01  0.94343320130E+01  0.21569939152E+02  0.51100000000E-03 0.  1.
        -12    1    3    3    0    0 -0.77502388596E+00  0.16232156574E+01 -0.12674068453E+00  0.18032066701E+01  0.00000000000E+00 0.  1.
</event>
<event>
 7    1  0.2732193E-010  0.4778728E+02  0.7816164E-02  0.1312668E+00
        -11   -1    0    0    0    0  0.00000000000E+00  0.00000000000E+00  0.45593999997E+02  0.45594000000E+02  0.51100000000E-03 0. -1.
         11   -1    0    0    0    0 -0.00000000000E+00 -0.00000000000E+00 -0.45593999997E+02  0.45594000000E+02  0.51100000000E-03 0.  1.
    9900012    2    1    2    0    0  0.30241060167E+02  0.26696915978E+02  0.16011741815E+02  0.47787275136E+02  0.20000018654E+02 0.  0.
        -12    1    1    2    0    0 -0.30241060167E+02 -0.26696915978E+02 -0.16011741815E+02  0.43400724864E+02  0.00000000000E+00 0.  1.
         11    1    3    3    0    0  0.26902873833E+01  0.37561739520E+01  0.50919370684E+00  0.46482004533E+01  0.51100000000E-03 0. -1.
        -11    1    3    3    0    0  0.21622279535E+02  0.25805342188E+02  0.12679743030E+02  0.35975193415E+02  0.51100000000E-03 0.  1.
        -12    1    3    3    0    0  0.59284932497E+01 -0.28646001617E+01  0.28228050788E+01  0.71638812672E+01  0.00000000000E+00 0.  1.
</event>
<event>
 7    1  0.2732193E-010  0.4778723E+02  0.7816164E-02  0.1312668E+00
        -11   -1    0    0    0    0  0.00000000000E+00  0.00000000000E+00  0.45593999997E+02  0.45594000000E+02  0.51100000000E-03 0. -1.
         11   -1    0    0    0    0 -0.00000000000E+00 -0.00000000000E+00 -0.45593999997E+02  0.45594000000E+02  0.51100000000E-03 0.  1.
    9900012    2    1    2    0    0 -0.31590366869E+02 -0.80909947978E+01  0.28639335256E+02  0.47787228122E+02  0.19999804298E+02 0.  0.
        -12    1    1    2    0    0  0.31590366869E+02  0.80909947978E+01 -0.28639335256E+02  0.43400771878E+02  0.00000000000E+00 0.  1.
         11    1    3    3    0    0 -0.14965927323E+02 -0.10174953377E+02  0.61882883683E+01  0.19125992001E+02  0.51100000000E-03 0. -1.
        -11    1    3    3    0    0 -0.12379143808E+02  0.23581004194E+01  0.20302029751E+02  0.23895109359E+02  0.51100000000E-03 0.  1.
         12    1    3    3    0    0 -0.42452957388E+01 -0.27414184069E+00  0.21490171362E+01  0.47661267619E+01  0.00000000000E+00 0. -1.
</event>
<event>
 7    1  0.2732193E-010  0.4778728E+02  0.7816164E-02  0.1312668E+00
        -11   -1    0    0    0    0  0.00000000000E+00  0.00000000000E+00  0.45593999997E+02  0.45594000000E+02  0.51100000000E-03 0.  1.
         11   -1    0    0    0    0 -0.00000000000E+00 -0.00000000000E+00 -0.45593999997E+02  0.45594000000E+02  0.51100000000E-03 0. -1.
    9900012    2    1    2    0    0 -0.38400947764E+01 -0.10638077197E+02 -0.41901165852E+02  0.47787277493E+02  0.20000029403E+02 0.  0.
        -12    1    1    2    0    0  0.38400947764E+01  0.10638077197E+02  0.41901165852E+02  0.43400722507E+02  0.00000000000E+00 0.  1.
         11    1    3    3    0    0  0.41576253688E+01 -0.20008675798E+01 -0.15407457326E+01  0.48644853225E+01  0.51100000000E-03 0.  1.
        -11    1    3    3    0    0 -0.33639491086E+01 -0.93334593934E+01 -0.27683992150E+02  0.29408043788E+02  0.51100000000E-03 0. -1.
        -12    1    3    3    0    0 -0.46337710367E+01  0.69624977652E+00 -0.12676427970E+02  0.13514748383E+02  0.00000000000E+00 0.  1.
</event>
<event>
 7    1  0.2732193E-010  0.4778726E+02  0.7816164E-02  0.1312668E+00
        -11   -1    0    0    0    0  0.00000000000E+00  0.00000000000E+00  0.45593999997E+02  0.45594000000E+02  0.51100000000E-03 0. -1.
         11   -1    0    0    0    0 -0.00000000000E+00 -0.00000000000E+00 -0.45593999997E+02  0.45594000000E+02  0.51100000000E-03 0.  1.
    9900012    2    1    2    0    0 -0.73480143469E+01 -0.92389788845E+01  0.41764479976E+02  0.47787264599E+02  0.19999970614E+02 0.  0.
        -12    1    1    2    0    0  0.73480143469E+01  0.92389788845E+01 -0.41764479976E+02  0.43400735401E+02  0.00000000000E+00 0.  1.
         11    1    3    3    0    0 -0.13476006507E+02 -0.73354643217E+01  0.31143825303E+02  0.34718145731E+02  0.51100000000E-03 0. -1.
        -11    1    3    3    0    0  0.54645275535E+01 -0.29520872455E+01  0.97237051468E+01  0.11538038071E+02  0.51100000000E-03 0.  1.
        -12    1    3    3    0    0  0.66346460709E+00  0.10485726828E+01  0.89694952566E+00  0.15310807972E+01  0.00000000000E+00 0.  1.
</event>
<event>
 7    1  0.2732193E-010  0.4778727E+02  0.7816164E-02  0.1312668E+00
        -11   -1    0    0    0    0  0.00000000000E+00  0.00000000000E+00  0.45593999997E+02  0.45594000000E+02  0.51100000000E-03 0.  1.
         11   -1    0    0    0    0 -0.00000000000E+00 -0.00000000000E+00 -0.45593999997E+02  0.45594000000E+02  0.51100000000E-03 0. -1.
    9900012    2    1    2    0    0 -0.22128596521E+02 -0.21253070818E+02 -0.30696178594E+02  0.47787272086E+02  0.20000004751E+02 0.  0.
        -12    1    1    2    0    0  0.22128596521E+02  0.21253070818E+02  0.30696178594E+02  0.43400727914E+02  0.00000000000E+00 0.  1.
         11    1    3    3    0    0 -0.25951236141E+01 -0.11259950205E+02 -0.10053116584E+02  0.15316210317E+02  0.51100000000E-03 0. -1.
        -11    1    3    3    0    0 -0.18461067584E+02 -0.41225099533E+01 -0.13947005298E+02  0.23501597003E+02  0.51100000000E-03 0.  1.
        -12    1    3    3    0    0 -0.10724053229E+01 -0.58706106601E+01 -0.66960567114E+01  0.89694647656E+01  0.00000000000E+00 0.  1.
</event>
<event>
 7    1  0.2732193E-010  0.4778727E+02  0.7816164E-02  0.1312668E+00
        -11   -1    0    0    0    0  0.00000000000E+00  0.00000000000E+00  0.45593999997E+02  0.45594000000E+02  0.51100000000E-03 0.  1.
         11   -1    0    0    0    0 -0.00000000000E+00 -0.00000000000E+00 -0.45593999997E+02  0.45594000000E+02  0.51100000000E-03 0. -1.
    9900012    2    1    2    0    0  0.28197153329E+02 -0.32796986136E+02 -0.35918878774E+01  0.47787269431E+02  0.19999992642E+02 0.  0.
        -12    1    1    2    0    0 -0.28197153329E+02  0.32796986136E+02  0.35918878774E+01  0.43400730569E+02  0.00000000000E+00 0.  1.
         11    1    3    3    0    0  0.61539427969E+01 -0.16524415849E+02 -0.63224197865E+01  0.18732333633E+02  0.51100000000E-03 0. -1.
        -11    1    3    3    0    0  0.10430793174E+02 -0.62410789210E+01  0.56991804258E+01  0.13425094790E+02  0.51100000000E-03 0.  1.
        -12    1    3    3    0    0  0.11612417358E+02 -0.10031491365E+02 -0.29686485166E+01  0.15629841008E+02  0.00000000000E+00 0.  1.
</event>
<event>
 7    1  0.2732193E-010  0.4778727E+02  0.7816164E-02  0.1312668E+00
        -11   -1    0    0    0    0  0.00000000000E+00  0.00000000000E+00  0.45593999997E+02  0.45594000000E+02  0.51100000000E-03 0.  1.
         11   -1    0    0    0    0 -0.00000000000E+00 -0.00000000000E+00 -0.45593999997E+02  0.45594000000E+02  0.51100000000E-03 0. -1.
    9900012    2    1    2    0    0 -0.24109562108E+02 -0.35137856656E+01 -0.35916648780E+02  0.47787270348E+02  0.19999996825E+02 0.  0.
        -12    1    1    2    0    0  0.24109562108E+02  0.35137856656E+01  0.35916648780E+02  0.43400729652E+02  0.00000000000E+00 0.  1.
         11    1    3    3    0    0 -0.19297776150E+02  0.11099392959E+01 -0.31764190009E+02  0.37183328210E+02  0.51100000000E-03 0. -1.
        -11    1    3    3    0    0 -0.11354262819E+01  0.47067652826E+00  0.16462426332E+01  0.20544693486E+01  0.51100000000E-03 0.  1.
        -12    1    3    3    0    0 -0.36763596758E+01 -0.50944014898E+01 -0.57987014039E+01  0.85494727894E+01  0.00000000000E+00 0.  1.
</event>
<event>
 7    1  0.2732193E-010  0.4778727E+02  0.7816164E-02  0.1312668E+00
        -11   -1    0    0    0    0  0.00000000000E+00  0.00000000000E+00  0.45593999997E+02  0.45594000000E+02  0.51100000000E-03 0.  1.
         11   -1    0    0    0    0 -0.00000000000E+00 -0.00000000000E+00 -0.45593999997E+02  0.45594000000E+02  0.51100000000E-03 0. -1.
    9900012    2    1    2    0    0  0.17435543030E+01  0.36920195580E+02 -0.22748246500E+02  0.47787267954E+02  0.19999985910E+02 0.  0.
        -12    1    1    2    0    0 -0.17435543030E+01 -0.36920195580E+02  0.22748246500E+02  0.43400732046E+02  0.00000000000E+00 0.  1.
         11    1    3    3    0    0  0.76996158383E+00  0.11664318738E+02 -0.83382879763E+01  0.14358837665E+02  0.51100000000E-03 0. -1.
        -11    1    3    3    0    0  0.62792101409E+01  0.69730543126E+01 -0.10336334312E+02  0.13960364383E+02  0.51100000000E-03 0.  1.
        -12    1    3    3    0    0 -0.53056174217E+01  0.18282822530E+02 -0.40736242116E+01  0.19468065906E+02  0.00000000000E+00 0.  1.
</event>
<event>
 7    1  0.2732193E-010  0.4778727E+02  0.7816164E-02  0.1312668E+00
        -11   -1    0    0    0    0  0.00000000000E+00  0.00000000000E+00  0.45593999997E+02  0.45594000000E+02  0.51100000000E-03 0.  1.
         11   -1    0    0    0    0 -0.00000000000E+00 -0.00000000000E+00 -0.45593999997E+02  0.45594000000E+02  0.51100000000E-03 0. -1.
    9900012    2    1    2    0    0 -0.26412941639E+02 -0.25257548127E+02 -0.23410165122E+02  0.47787273572E+02  0.20000011524E+02 0.  0.
        -12    1    1    2    0    0  0.26412941639E+02  0.25257548127E+02  0.23410165122E+02  0.43400726428E+02  0.00000000000E+00 0.  1.
         11    1    3    3    0    0 -0.71530191870E+01 -0.63854091347E+01 -0.99417837273E+01  0.13812248088E+02  0.51100000000E-03 0.  1.
        -11    1    3    3    0    0 -0.10838115441E+02 -0.18293744178E+02 -0.14094161017E+02  0.25510217510E+02  0.51100000000E-03 0. -1.
        -12    1    3    3    0    0 -0.84218070111E+01 -0.57839481427E+00  0.62577962241E+00  0.84648079735E+01  0.00000000000E+00 0.  1.
</event>
<event>
 7    1  0.2732193E-010  0.4778727E+02  0.7816164E-02  0.1312668E+00
        -11   -1    0    0    0    0  0.00000000000E+00  0.00000000000E+00  0.45593999997E+02  0.45594000000E+02  0.51100000000E-03 0.  1.
         11   -1    0    0    0    0 -0.00000000000E+00 -0.00000000000E+00 -0.45593999997E+02  0.45594000000E+02  0.51100000000E-03 0. -1.
    9900012    2    1    2    0    0 -0.71637963650E+01 -0.42208455243E+02 -0.71238827349E+01  0.47787269850E+02  0.19999994554E+02 0.  0.
        -12    1    1    2    0    0  0.71637963650E+01  0.42208455243E+02  0.71238827349E+01  0.43400730150E+02  0.00000000000E+00 0.  1.
         11    1    3    3    0    0  0.38931608985E+01 -0.19868417779E+02 -0.21047404149E+00  0.20247346158E+02  0.51100000000E-03 0. -1.
        -11    1    3    3    0    0 -0.54780608607E+01 -0.85153265593E+01  0.17828330237E+01  0.10280974227E+02  0.51100000000E-03 0.  1.
         12    1    3    3    0    0 -0.55788964027E+01 -0.13824710904E+02 -0.86962417171E+01  0.17258949465E+02  0.00000000000E+00 0. -1.
</event>
<event>
 7    1  0.2732193E-010  0.4778727E+02  0.7816164E-02  0.1312668E+00
        -11   -1    0    0    0    0  0.00000000000E+00  0.00000000000E+00  0.45593999997E+02  0.45594000000E+02  0.51100000000E-03 0.  1.
         11   -1    0    0    0    0 -0.00000000000E+00 -0.00000000000E+00 -0.45593999997E+02  0.45594000000E+02  0.51100000000E-03 0. -1.
    9900012    2    1    2    0    0  0.31834509540E+01  0.42854293697E+01 -0.43071151610E+02  0.47787269984E+02  0.19999995167E+02 0.  0.
        -12    1    1    2    0    0 -0.31834509540E+01 -0.42854293697E+01  0.43071151610E+02  0.43400730016E+02  0.00000000000E+00 0.  1.
         11    1    3    3    0    0  0.49166484517E+01  0.10737702272E+02 -0.29294669548E+02  0.31585587635E+02  0.51100000000E-03 0. -1.
        -11    1    3    3    0    0 -0.46228285230E+00 -0.37588936207E+01 -0.12315101121E+02  0.12884281221E+02  0.51100000000E-03 0.  1.
         12    1    3    3    0    0 -0.12709146454E+01 -0.26933792817E+01 -0.14613809410E+01  0.33174011283E+01  0.00000000000E+00 0. -1.
</event>
<event>
 7    1  0.2732193E-010  0.4778727E+02  0.7816164E-02  0.1312668E+00
        -11   -1    0    0    0    0  0.00000000000E+00  0.00000000000E+00  0.45593999997E+02  0.45594000000E+02  0.51100000000E-03 0.  1.
         11   -1    0    0    0    0 -0.00000000000E+00 -0.00000000000E+00 -0.45593999997E+02  0.45594000000E+02  0.51100000000E-03 0. -1.
    9900012    2    1    2    0    0 -0.38145233749E+02  0.11702318486E+02 -0.17076890289E+02  0.47787270771E+02  0.19999998751E+02 0.  0.
        -12    1    1    2    0    0  0.38145233749E+02 -0.11702318486E+02  0.17076890289E+02  0.43400729229E+02  0.00000000000E+00 0.  1.
         11    1    3    3    0    0 -0.27185122732E+02  0.13478369960E+02 -0.54149907432E+01  0.30822386016E+02  0.51100000000E-03 0. -1.
        -11    1    3    3    0    0 -0.10886727799E+02 -0.25776940188E+01 -0.95664610468E+01  0.14720140144E+02  0.51100000000E-03 0.  1.
        -12    1    3    3    0    0 -0.73383218478E-01  0.80164254455E+00 -0.20954384989E+01  0.22447446110E+01  0.00000000000E+00 0.  1.
</event>
<event>
 7    1  0.2732193E-010  0.4778727E+02  0.7816164E-02  0.1312668E+00
        -11   -1    0    0    0    0  0.00000000000E+00  0.00000000000E+00  0.45593999997E+02  0.45594000000E+02  0.51100000000E-03 0.  1.
         11   -1    0    0    0    0 -0.00000000000E+00 -0.00000000000E+00 -0.45593999997E+02  0.45594000000E+02  0.51100000000E-03 0. -1.
    9900012    2    1    2    0    0  0.35124429686E+02 -0.24899632480E+02 -0.54686172571E+01  0.47787273818E+02  0.20000012646E+02 0.  0.
        -12    1    1    2    0    0 -0.35124429686E+02  0.24899632480E+02  0.54686172571E+01  0.43400726182E+02  0.00000000000E+00 0.  1.
         11    1    3    3    0    0  0.77916212155E+01 -0.14095401671E+01 -0.96808604769E+00  0.79770518054E+01  0.51100000000E-03 0. -1.
        -11    1    3    3    0    0  0.29166405529E+02 -0.22022945782E+02 -0.59823423329E+01  0.37033468275E+02  0.51100000000E-03 0.  1.
        -12    1    3    3    0    0 -0.18335970584E+01 -0.14671465309E+01  0.14818111235E+01  0.27767537380E+01  0.00000000000E+00 0.  1.
</event>
<event>
 7    1  0.2732193E-010  0.4778727E+02  0.7816164E-02  0.1312668E+00
        -11   -1    0    0    0    0  0.00000000000E+00  0.00000000000E+00  0.45593999997E+02  0.45594000000E+02  0.51100000000E-03 0. -1.
         11   -1    0    0    0    0 -0.00000000000E+00 -0.00000000000E+00 -0.45593999997E+02  0.45594000000E+02  0.51100000000E-03 0.  1.
    9900012    2    1    2    0    0 -0.22584518847E+02 -0.36843685791E+02 -0.40131791808E+01  0.47787270958E+02  0.19999999606E+02 0.  0.
        -12    1    1    2    0    0  0.22584518847E+02  0.36843685791E+02  0.40131791808E+01  0.43400729042E+02  0.00000000000E+00 0.  1.
         11    1    3    3    0    0 -0.70693814998E+01 -0.17197033204E+02  0.47855035864E+01  0.19199352870E+02  0.51100000000E-03 0. -1.
        -11    1    3    3    0    0 -0.16514979729E+02 -0.14570251691E+02 -0.69648607612E+01  0.23098616310E+02  0.51100000000E-03 0.  1.
         12    1    3    3    0    0  0.99984238145E+00 -0.50764008970E+01 -0.18338220059E+01  0.54893017774E+01  0.00000000000E+00 0. -1.
</event>
<event>
 7    1  0.2732193E-010  0.4778727E+02  0.7816164E-02  0.1312668E+00
        -11   -1    0    0    0    0  0.00000000000E+00  0.00000000000E+00  0.45593999997E+02  0.45594000000E+02  0.51100000000E-03 0.  1.
         11   -1    0    0    0    0 -0.00000000000E+00 -0.00000000000E+00 -0.45593999997E+02  0.45594000000E+02  0.51100000000E-03 0. -1.
    9900012    2    1    2    0    0  0.26557632016E+02 -0.23937619405E+02 -0.24602960114E+02  0.47787273192E+02  0.20000009792E+02 0.  0.
        -12    1    1    2    0    0 -0.26557632016E+02  0.23937619405E+02  0.24602960114E+02  0.43400726808E+02  0.00000000000E+00 0.  1.
         11    1    3    3    0    0  0.14301745466E+02 -0.13212707833E+02 -0.19279761066E+02  0.27401181702E+02  0.51100000000E-03 0. -1.
        -11    1    3    3    0    0  0.77689662741E+01  0.22696210043E+00 -0.12665533289E+01  0.78748019885E+01  0.51100000000E-03 0.  1.
        -12    1    3    3    0    0  0.44869202759E+01 -0.10951873672E+02 -0.40566457193E+01  0.12511289502E+02  0.00000000000E+00 0.  1.
</event>
<event>
 7    1  0.2732193E-010  0.4778727E+02  0.7816164E-02  0.1312668E+00
        -11   -1    0    0    0    0  0.00000000000E+00  0.00000000000E+00  0.45593999997E+02  0.45594000000E+02  0.51100000000E-03 0.  1.
         11   -1    0    0    0    0 -0.00000000000E+00 -0.00000000000E+00 -0.45593999997E+02  0.45594000000E+02  0.51100000000E-03 0. -1.
    9900012    2    1    2    0    0  0.24306494638E+02  0.48992513532E+00 -0.35952437703E+02  0.47787268612E+02  0.19999988912E+02 0.  0.
        -12    1    1    2    0    0 -0.24306494638E+02 -0.48992513532E+00  0.35952437703E+02  0.43400731388E+02  0.00000000000E+00 0.  1.
         11    1    3    3    0    0 -0.15238418856E+01 -0.19781309263E+01 -0.70311225222E+01  0.74613524403E+01  0.51100000000E-03 0. -1.
        -11    1    3    3    0    0  0.19299545214E+02  0.48894145689E+01 -0.15598129551E+02  0.25291905149E+02  0.51100000000E-03 0.  1.
         12    1    3    3    0    0  0.65307913095E+01 -0.24213585073E+01 -0.13323185629E+02  0.15034011023E+02  0.00000000000E+00 0. -1.
</event>
<event>
 7    1  0.2732193E-010  0.4778727E+02  0.7816164E-02  0.1312668E+00
        -11   -1    0    0    0    0  0.00000000000E+00  0.00000000000E+00  0.45593999997E+02  0.45594000000E+02  0.51100000000E-03 0.  1.
         11   -1    0    0    0    0 -0.00000000000E+00 -0.00000000000E+00 -0.45593999997E+02  0.45594000000E+02  0.51100000000E-03 0. -1.
    9900012    2    1    2    0    0 -0.37631667586E+02  0.20412732672E+02 -0.71275106655E+01  0.47787268800E+02  0.19999989766E+02 0.  0.
        -12    1    1    2    0    0  0.37631667586E+02 -0.20412732672E+02  0.71275106655E+01  0.43400731200E+02  0.00000000000E+00 0.  1.
         11    1    3    3    0    0 -0.24749746567E+02  0.19750487390E+02 -0.46906345120E+01  0.32009900962E+02  0.51100000000E-03 0. -1.
        -11    1    3    3    0    0 -0.78733215294E+01 -0.16565991065E+01 -0.52253403512E+01  0.95936278097E+01  0.51100000000E-03 0.  1.
         12    1    3    3    0    0 -0.50085994898E+01  0.23188443889E+01  0.27884641977E+01  0.61837400277E+01  0.00000000000E+00 0. -1.
</event>
<event>
 7    1  0.2732193E-010  0.4778727E+02  0.7816164E-02  0.1312668E+00
        -11   -1    0    0    0    0  0.00000000000E+00  0.00000000000E+00  0.45593999997E+02  0.45594000000E+02  0.51100000000E-03 0. -1.
         11   -1    0    0    0    0 -0.00000000000E+00 -0.00000000000E+00 -0.45593999997E+02  0.45594000000E+02  0.51100000000E-03 0.  1.
    9900012    2    1    2    0    0 -0.42005670881E+01  0.75861403963E+01  0.42525631703E+02  0.47787266807E+02  0.19999980681E+02 0.  0.
        -12    1    1    2    0    0  0.42005670881E+01 -0.75861403963E+01 -0.42525631703E+02  0.43400733193E+02  0.00000000000E+00 0.  1.
         11    1    3    3    0    0 -0.91334286918E+01  0.48171018513E+01  0.32742321087E+02  0.34331961499E+02  0.51100000000E-03 0. -1.
        -11    1    3    3    0    0  0.37743978067E+01 -0.14948016447E+00  0.69620640994E+00  0.38409799204E+01  0.51100000000E-03 0.  1.
        -12    1    3    3    0    0  0.11584637970E+01  0.29185187095E+01  0.90871042052E+01  0.96143253878E+01  0.00000000000E+00 0.  1.
</event>
<event>
 7    1  0.2732193E-010  0.4778727E+02  0.7816164E-02  0.1312668E+00
        -11   -1    0    0    0    0  0.00000000000E+00  0.00000000000E+00  0.45593999997E+02  0.45594000000E+02  0.51100000000E-03 0. -1.
         11   -1    0    0    0    0 -0.00000000000E+00 -0.00000000000E+00 -0.45593999997E+02  0.45594000000E+02  0.51100000000E-03 0.  1.
    9900012    2    1    2    0    0 -0.32979050614E+02  0.25733400392E+02  0.11567100990E+02  0.47787268434E+02  0.19999988096E+02 0.  0.
        -12    1    1    2    0    0  0.32979050614E+02 -0.25733400392E+02 -0.11567100990E+02  0.43400731566E+02  0.00000000000E+00 0.  1.
         11    1    3    3    0    0 -0.55554501694E+01  0.13675034675E+02  0.86840744704E+00  0.14785930194E+02  0.51100000000E-03 0. -1.
        -11    1    3    3    0    0 -0.10652309914E+01  0.28981318401E+01  0.23317739691E+01  0.38692448012E+01  0.51100000000E-03 0.  1.
         12    1    3    3    0    0 -0.26358369453E+02  0.91602338771E+01  0.83669195743E+01  0.29132093438E+02  0.00000000000E+00 0. -1.
</event>
<event>
 7    1  0.2732193E-010  0.4778727E+02  0.7816164E-02  0.1312668E+00
        -11   -1    0    0    0    0  0.00000000000E+00  0.00000000000E+00  0.45593999997E+02  0.45594000000E+02  0.51100000000E-03 0.  1.
         11   -1    0    0    0    0 -0.00000000000E+00 -0.00000000000E+00 -0.45593999997E+02  0.45594000000E+02  0.51100000000E-03 0. -1.
    9900012    2    1    2    0    0 -0.70849375983E+01 -0.31415444325E+02 -0.29094621343E+02  0.47787268738E+02  0.19999989486E+02 0.  0.
        -12    1    1    2    0    0  0.70849375983E+01  0.31415444325E+02  0.29094621343E+02  0.43400731262E+02  0.00000000000E+00 0.  1.
         11    1    3    3    0    0 -0.28559150425E+01 -0.16268902063E+02 -0.10722642229E+02  0.19692853569E+02  0.51100000000E-03 0. -1.
        -11    1    3    3    0    0  0.89967572962E+00 -0.13508592051E+01 -0.11910139519E+02  0.12020218826E+02  0.51100000000E-03 0.  1.
        -12    1    3    3    0    0 -0.51286982854E+01 -0.13795683057E+02 -0.64618395957E+01  0.16074196343E+02  0.00000000000E+00 0.  1.
</event>
<event>
 7    1  0.2732193E-010  0.4778727E+02  0.7816164E-02  0.1312668E+00
        -11   -1    0    0    0    0  0.00000000000E+00  0.00000000000E+00  0.45593999997E+02  0.45594000000E+02  0.51100000000E-03 0.  1.
         11   -1    0    0    0    0 -0.00000000000E+00 -0.00000000000E+00 -0.45593999997E+02  0.45594000000E+02  0.51100000000E-03 0. -1.
    9900012    2    1    2    0    0 -0.36710805391E+02  0.16845994554E+02 -0.15879315382E+02  0.47787269338E+02  0.19999992219E+02 0.  0.
        -12    1    1    2    0    0  0.36710805391E+02 -0.16845994554E+02  0.15879315382E+02  0.43400730662E+02  0.00000000000E+00 0.  1.
         11    1    3    3    0    0 -0.53511088052E+01 -0.72435620748E+00 -0.75751703493E+01  0.93028094382E+01  0.51100000000E-03 0.  1.
        -11    1    3    3    0    0 -0.25310913913E+02  0.17297511084E+02 -0.99123869610E+01  0.32219585167E+02  0.51100000000E-03 0. -1.
        -12    1    3    3    0    0 -0.60487826733E+01  0.27283967786E+00  0.16082419280E+01  0.62648747328E+01  0.00000000000E+00 0.  1.
</event>
<event>
 7    1  0.2732193E-010  0.4778727E+02  0.7816164E-02  0.1312668E+00
        -11   -1    0    0    0    0  0.00000000000E+00  0.00000000000E+00  0.45593999997E+02  0.45594000000E+02  0.51100000000E-03 0.  1.
         11   -1    0    0    0    0 -0.00000000000E+00 -0.00000000000E+00 -0.45593999997E+02  0.45594000000E+02  0.51100000000E-03 0. -1.
    9900012    2    1    2    0    0  0.20450282184E+01  0.24273045209E+02 -0.35920200232E+02  0.47787266725E+02  0.19999980305E+02 0.  0.
        -12    1    1    2    0    0 -0.20450282184E+01 -0.24273045209E+02  0.35920200232E+02  0.43400733275E+02  0.00000000000E+00 0.  1.
         11    1    3    3    0    0  0.23096591769E+01  0.18987818061E+02 -0.31556898485E+02  0.36901349603E+02  0.51100000000E-03 0. -1.
        -11    1    3    3    0    0 -0.17452373546E+01 -0.78866996332E+00  0.14083999629E+01  0.23772766881E+01  0.51100000000E-03 0.  1.
         12    1    3    3    0    0  0.14806063962E+01  0.60738971105E+01 -0.57717017099E+01  0.85086404341E+01  0.00000000000E+00 0. -1.
</event>
<event>
 7    1  0.2732193E-010  0.4778727E+02  0.7816164E-02  0.1312668E+00
        -11   -1    0    0    0    0  0.00000000000E+00  0.00000000000E+00  0.45593999997E+02  0.45594000000E+02  0.51100000000E-03 0. -1.
         11   -1    0    0    0    0 -0.00000000000E+00 -0.00000000000E+00 -0.45593999997E+02  0.45594000000E+02  0.51100000000E-03 0.  1.
    9900012    2    1    2    0    0 -0.12631569876E+02  0.29160935839E+02 -0.29558526271E+02  0.47787271758E+02  0.20000003255E+02 0.  0.
        -12    1    1    2    0    0  0.12631569876E+02 -0.29160935839E+02  0.29558526271E+02  0.43400728242E+02  0.00000000000E+00 0.  1.
         11    1    3    3    0    0 -0.62748110047E+01 -0.10683613186E+01 -0.49276683993E+01  0.80496313683E+01  0.51100000000E-03 0. -1.
        -11    1    3    3    0    0 -0.37708557885E+00  0.11637764209E+02 -0.87161417654E+01  0.14544788650E+02  0.51100000000E-03 0.  1.
         12    1    3    3    0    0 -0.59796732925E+01  0.18591532949E+02 -0.15914716107E+02  0.25192851741E+02  0.00000000000E+00 0. -1.
</event>
<event>
 7    1  0.2732193E-010  0.4778727E+02  0.7816164E-02  0.1312668E+00
        -11   -1    0    0    0    0  0.00000000000E+00  0.00000000000E+00  0.45593999997E+02  0.45594000000E+02  0.51100000000E-03 0. -1.
         11   -1    0    0    0    0 -0.00000000000E+00 -0.00000000000E+00 -0.45593999997E+02  0.45594000000E+02  0.51100000000E-03 0.  1.
    9900012    2    1    2    0    0  0.40391129116E+02  0.31797462704E+01  0.15558563995E+02  0.47787274071E+02  0.20000013799E+02 0.  0.
        -12    1    1    2    0    0 -0.40391129116E+02 -0.31797462704E+01 -0.15558563995E+02  0.43400725929E+02  0.00000000000E+00 0.  1.
         11    1    3    3    0    0  0.30059355291E+02 -0.33170963775E+01  0.12466110226E+02  0.32710424536E+02  0.51100000000E-03 0. -1.
        -11    1    3    3    0    0  0.92082690395E+01  0.68590355963E+01  0.52438690187E+01  0.12622866179E+02  0.51100000000E-03 0.  1.
         12    1    3    3    0    0  0.11235047852E+01 -0.36219294836E+00 -0.21514152502E+01  0.24539833563E+01  0.00000000000E+00 0. -1.
</event>
<event>
 7    1  0.2732193E-010  0.4778727E+02  0.7816164E-02  0.1312668E+00
        -11   -1    0    0    0    0  0.00000000000E+00  0.00000000000E+00  0.45593999997E+02  0.45594000000E+02  0.51100000000E-03 0.  1.
         11   -1    0    0    0    0 -0.00000000000E+00 -0.00000000000E+00 -0.45593999997E+02  0.45594000000E+02  0.51100000000E-03 0. -1.
    9900012    2    1    2    0    0  0.27445183971E+02  0.94433403711E+01 -0.32267758556E+02  0.47787273707E+02  0.20000012139E+02 0.  0.
        -12    1    1    2    0    0 -0.27445183971E+02 -0.94433403711E+01  0.32267758556E+02  0.43400726293E+02  0.00000000000E+00 0.  1.
         11    1    3    3    0    0  0.15408372108E+02  0.45314679017E+01 -0.26693032744E+02  0.31152369568E+02  0.51100000000E-03 0. -1.
        -11    1    3    3    0    0  0.12599930663E+02  0.46563357415E+01 -0.27090105357E+01  0.13703227853E+02  0.51100000000E-03 0.  1.
        -12    1    3    3    0    0 -0.56311880007E+00  0.25553672788E+00 -0.28657152761E+01  0.29316762860E+01  0.00000000000E+00 0.  1.
</event>
<event>
 7    1  0.2732193E-010  0.4778728E+02  0.7816164E-02  0.1312668E+00
        -11   -1    0    0    0    0  0.00000000000E+00  0.00000000000E+00  0.45593999997E+02  0.45594000000E+02  0.51100000000E-03 0.  1.
         11   -1    0    0    0    0 -0.00000000000E+00 -0.00000000000E+00 -0.45593999997E+02  0.45594000000E+02  0.51100000000E-03 0. -1.
    9900012    2    1    2    0    0  0.24499350180E+02  0.33857471875E+02 -0.11707957838E+02  0.47787276069E+02  0.20000022908E+02 0.  0.
        -12    1    1    2    0    0 -0.24499350180E+02 -0.33857471875E+02  0.11707957838E+02  0.43400723931E+02  0.00000000000E+00 0.  1.
         11    1    3    3    0    0  0.31592436931E+01  0.96469954758E+01 -0.49623670696E+01  0.11299134021E+02  0.51100000000E-03 0. -1.
        -11    1    3    3    0    0  0.83924334476E+01  0.25917305678E+01 -0.70874645432E+01  0.11286370560E+02  0.51100000000E-03 0.  1.
        -12    1    3    3    0    0  0.12947673040E+02  0.21618745831E+02  0.34187377478E+00  0.25201771488E+02  0.00000000000E+00 0.  1.
</event>
<event>
 7    1  0.2732193E-010  0.4778727E+02  0.7816164E-02  0.1312668E+00
        -11   -1    0    0    0    0  0.00000000000E+00  0.00000000000E+00  0.45593999997E+02  0.45594000000E+02  0.51100000000E-03 0.  1.
         11   -1    0    0    0    0 -0.00000000000E+00 -0.00000000000E+00 -0.45593999997E+02  0.45594000000E+02  0.51100000000E-03 0. -1.
    9900012    2    1    2    0    0 -0.28449133375E+02  0.25891843173E+02  0.20096830756E+02  0.47787270293E+02  0.19999996572E+02 0.  0.
        -12    1    1    2    0    0  0.28449133375E+02 -0.25891843173E+02 -0.20096830756E+02  0.43400729707E+02  0.00000000000E+00 0.  1.
         11    1    3    3    0    0 -0.91667424204E+01  0.25682472765E+01 -0.19900951784E+01  0.97255097427E+01  0.51100000000E-03 0.  1.
        -11    1    3    3    0    0 -0.14126227047E+02  0.15248088767E+02  0.18515232152E+02  0.27836456734E+02  0.51100000000E-03 0. -1.
         12    1    3    3    0    0 -0.51561639077E+01  0.80755071296E+01  0.35716937831E+01  0.10225303816E+02  0.00000000000E+00 0. -1.
</event>
<event>
 7    1  0.2732193E-010  0.4778727E+02  0.7816164E-02  0.1312668E+00
        -11   -1    0    0    0    0  0.00000000000E+00  0.00000000000E+00  0.45593999997E+02  0.45594000000E+02  0.51100000000E-03 0.  1.
         11   -1    0    0    0    0 -0.00000000000E+00 -0.00000000000E+00 -0.45593999997E+02  0.45594000000E+02  0.51100000000E-03 0. -1.
    9900012    2    1    2    0    0 -0.22884387355E+02 -0.32727638276E+02 -0.16994984926E+02  0.47787274149E+02  0.20000014156E+02 0.  0.
        -12    1    1    2    0    0  0.22884387355E+02  0.32727638276E+02  0.16994984926E+02  0.43400725851E+02  0.00000000000E+00 0.  1.
         11    1    3    3    0    0 -0.14993964772E+02 -0.82131824121E+01 -0.52197253051E+01  0.17875146921E+02  0.51100000000E-03 0. -1.
        -11    1    3    3    0    0 -0.25752715302E+01 -0.18577267944E+02 -0.11371754164E+02  0.21933164403E+02  0.51100000000E-03 0.  1.
        -12    1    3    3    0    0 -0.53151510525E+01 -0.59371879201E+01 -0.40350545686E+00  0.79789628250E+01  0.00000000000E+00 0.  1.
</event>
<event>
 7    1  0.2732193E-010  0.4778727E+02  0.7816164E-02  0.1312668E+00
        -11   -1    0    0    0    0  0.00000000000E+00  0.00000000000E+00  0.45593999997E+02  0.45594000000E+02  0.51100000000E-03 0. -1.
         11   -1    0    0    0    0 -0.00000000000E+00 -0.00000000000E+00 -0.45593999997E+02  0.45594000000E+02  0.51100000000E-03 0.  1.
    9900012    2    1    2    0    0 -0.27668498758E+01  0.38971152928E+02  0.18900190211E+02  0.47787269490E+02  0.19999992915E+02 0.  0.
        -12    1    1    2    0    0  0.27668498758E+01 -0.38971152928E+02 -0.18900190211E+02  0.43400730510E+02  0.00000000000E+00 0.  1.
         11    1    3    3    0    0 -0.74295067499E+01  0.28426183332E+02  0.14333727345E+02  0.32690995843E+02  0.51100000000E-03 0. -1.
        -11    1    3    3    0    0  0.13034605862E+01 -0.14349453680E+01  0.44014170879E+00  0.19879141566E+01  0.51100000000E-03 0.  1.
         12    1    3    3    0    0  0.33591962879E+01  0.11979914964E+02  0.41263211577E+01  0.13108359490E+02  0.00000000000E+00 0. -1.
</event>
<event>
 7    1  0.2732193E-010  0.4778726E+02  0.7816164E-02  0.1312668E+00
        -11   -1    0    0    0    0  0.00000000000E+00  0.00000000000E+00  0.45593999997E+02  0.45594000000E+02  0.51100000000E-03 0.  1.
         11   -1    0    0    0    0 -0.00000000000E+00 -0.00000000000E+00 -0.45593999997E+02  0.45594000000E+02  0.51100000000E-03 0. -1.
    9900012    2    1    2    0    0 -0.40057777567E+02 -0.15515684726E+02  0.61856200174E+01  0.47787263703E+02  0.19999966526E+02 0.  0.
        -12    1    1    2    0    0  0.40057777567E+02  0.15515684726E+02 -0.61856200174E+01  0.43400736297E+02  0.00000000000E+00 0.  1.
         11    1    3    3    0    0 -0.32924461554E+02 -0.19626967752E+02  0.79141802885E+01  0.39139140022E+02  0.51100000000E-03 0. -1.
        -11    1    3    3    0    0 -0.51884591829E+01  0.20013490737E+01 -0.15499367498E+01  0.57730244237E+01  0.51100000000E-03 0.  1.
         12    1    3    3    0    0 -0.19448568306E+01  0.21099339526E+01 -0.17862352132E+00  0.28750992571E+01  0.00000000000E+00 0. -1.
</event>
<event>
 7    1  0.2732193E-010  0.4778727E+02  0.7816164E-02  0.1312668E+00
        -11   -1    0    0    0    0  0.00000000000E+00  0.00000000000E+00  0.45593999997E+02  0.45594000000E+02  0.51100000000E-03 0. -1.
         11   -1    0    0    0    0 -0.00000000000E+00 -0.00000000000E+00 -0.45593999997E+02  0.45594000000E+02  0.51100000000E-03 0.  1.
    9900012    2    1    2    0    0  0.33279527496E+02  0.21848228074E+02  0.17284418357E+02  0.47787272607E+02  0.20000007126E+02 0.  0.
        -12    1    1    2    0    0 -0.33279527496E+02 -0.21848228074E+02 -0.17284418357E+02  0.43400727393E+02  0.00000000000E+00 0.  1.
         11    1    3    3    0    0  0.15190177830E+02  0.12070425156E+02  0.44200869973E+01  0.19899091318E+02  0.51100000000E-03 0. -1.
        -11    1    3    3    0    0  0.10304238686E+01  0.37777058624E+01  0.83910873393E+01  0.92597614402E+01  0.51100000000E-03 0.  1.
        -12    1    3    3    0    0  0.17058925797E+02  0.60000970554E+01  0.44732440202E+01  0.18628419849E+02  0.00000000000E+00 0.  1.
</event>
<event>
 7    1  0.2732193E-010  0.4778727E+02  0.7816164E-02  0.1312668E+00
        -11   -1    0    0    0    0  0.00000000000E+00  0.00000000000E+00  0.45593999997E+02  0.45594000000E+02  0.51100000000E-03 0. -1.
         11   -1    0    0    0    0 -0.00000000000E+00 -0.00000000000E+00 -0.45593999997E+02  0.45594000000E+02  0.51100000000E-03 0.  1.
    9900012    2    1    2    0    0  0.24130787963E+02 -0.30385273580E+02  0.19443854086E+02  0.47787271435E+02  0.20000001781E+02 0.  0.
        -12    1    1    2    0    0 -0.24130787963E+02  0.30385273580E+02 -0.19443854086E+02  0.43400728565E+02  0.00000000000E+00 0.  1.
         11    1    3    3    0    0  0.13270086758E+02 -0.20267905730E+02  0.21289697795E+01  0.24319040232E+02  0.51100000000E-03 0.  1.
        -11    1    3    3    0    0  0.18381479180E+01 -0.48709604170E+00  0.28360068852E+00  0.19226231908E+01  0.51100000000E-03 0. -1.
         12    1    3    3    0    0  0.90225532875E+01 -0.96302718085E+01  0.17031283618E+02  0.21545608012E+02  0.00000000000E+00 0. -1.
</event>
<event>
 7    1  0.2732193E-010  0.4778727E+02  0.7816164E-02  0.1312668E+00
        -11   -1    0    0    0    0  0.00000000000E+00  0.00000000000E+00  0.45593999997E+02  0.45594000000E+02  0.51100000000E-03 0. -1.
         11   -1    0    0    0    0 -0.00000000000E+00 -0.00000000000E+00 -0.45593999997E+02  0.45594000000E+02  0.51100000000E-03 0.  1.
    9900012    2    1    2    0    0 -0.12164214201E+02  0.37614202419E+02  0.17911655311E+02  0.47787265827E+02  0.19999976212E+02 0.  0.
        -12    1    1    2    0    0  0.12164214201E+02 -0.37614202419E+02 -0.17911655311E+02  0.43400734173E+02  0.00000000000E+00 0.  1.
         11    1    3    3    0    0 -0.69684381736E+01  0.79940879825E+00  0.17023565079E+01  0.72177699428E+01  0.51100000000E-03 0. -1.
        -11    1    3    3    0    0 -0.44855362126E+01  0.30593285008E+02  0.13798639810E+02  0.33859586287E+02  0.51100000000E-03 0.  1.
         12    1    3    3    0    0 -0.71023981466E+00  0.62215086130E+01  0.24106589933E+01  0.67099095968E+01  0.00000000000E+00 0. -1.
</event>
<event>
 7    1  0.2732193E-010  0.4778727E+02  0.7816164E-02  0.1312668E+00
        -11   -1    0    0    0    0  0.00000000000E+00  0.00000000000E+00  0.45593999997E+02  0.45594000000E+02  0.51100000000E-03 0.  1.
         11   -1    0    0    0    0 -0.00000000000E+00 -0.00000000000E+00 -0.45593999997E+02  0.45594000000E+02  0.51100000000E-03 0. -1.
    9900012    2    1    2    0    0  0.66047626598E+01  0.40275821502E+02 -0.14760037500E+02  0.47787269655E+02  0.19999993666E+02 0.  0.
        -12    1    1    2    0    0 -0.66047626598E+01 -0.40275821502E+02  0.14760037500E+02  0.43400730345E+02  0.00000000000E+00 0.  1.
         11    1    3    3    0    0  0.11814350192E+01  0.10318117225E+02 -0.10991450461E+02  0.15121882001E+02  0.51100000000E-03 0. -1.
        -11    1    3    3    0    0  0.60352072390E+01  0.28124554114E+02 -0.38336156481E+00  0.28767364094E+02  0.51100000000E-03 0.  1.
        -12    1    3    3    0    0 -0.61187959838E+00  0.18331501629E+01 -0.33852254747E+01  0.38980235604E+01  0.00000000000E+00 0.  1.
</event>
<event>
 7    1  0.2732193E-010  0.4778727E+02  0.7816164E-02  0.1312668E+00
        -11   -1    0    0    0    0  0.00000000000E+00  0.00000000000E+00  0.45593999997E+02  0.45594000000E+02  0.51100000000E-03 0.  1.
         11   -1    0    0    0    0 -0.00000000000E+00 -0.00000000000E+00 -0.45593999997E+02  0.45594000000E+02  0.51100000000E-03 0. -1.
    9900012    2    1    2    0    0  0.46985781922E+01 -0.23148113300E+02 -0.36410317958E+02  0.47787273737E+02  0.20000012277E+02 0.  0.
        -12    1    1    2    0    0 -0.46985781922E+01  0.23148113300E+02  0.36410317958E+02  0.43400726263E+02  0.00000000000E+00 0.  1.
         11    1    3    3    0    0 -0.31891829260E+01 -0.34568021091E+01 -0.20584242838E+02  0.21114720506E+02  0.51100000000E-03 0. -1.
        -11    1    3    3    0    0  0.78143443568E+01 -0.17659598085E+02 -0.13388588415E+02  0.23498503830E+02  0.51100000000E-03 0.  1.
        -12    1    3    3    0    0  0.73416761343E-01 -0.20317131060E+01 -0.24374867049E+01  0.31740494014E+01  0.00000000000E+00 0.  1.
</event>
<event>
 7    1  0.2732193E-010  0.4778727E+02  0.7816164E-02  0.1312668E+00
        -11   -1    0    0    0    0  0.00000000000E+00  0.00000000000E+00  0.45593999997E+02  0.45594000000E+02  0.51100000000E-03 0. -1.
         11   -1    0    0    0    0 -0.00000000000E+00 -0.00000000000E+00 -0.45593999997E+02  0.45594000000E+02  0.51100000000E-03 0.  1.
    9900012    2    1    2    0    0  0.18332397863E+02  0.38893681889E+02 -0.59015085310E+01  0.47787272987E+02  0.20000008858E+02 0.  0.
        -12    1    1    2    0    0 -0.18332397863E+02 -0.38893681889E+02  0.59015085310E+01  0.43400727013E+02  0.00000000000E+00 0.  1.
         11    1    3    3    0    0  0.22999424180E+01  0.47488202181E+01  0.28054235043E+01  0.59759041065E+01  0.51100000000E-03 0. -1.
        -11    1    3    3    0    0  0.11162579349E+02  0.25129818149E+02  0.12475632313E+01  0.27525757977E+02  0.51100000000E-03 0.  1.
        -12    1    3    3    0    0  0.48698760965E+01  0.90150435220E+01 -0.99544952666E+01  0.14285610904E+02  0.00000000000E+00 0.  1.
</event>
<event>
 7    1  0.2732193E-010  0.4778730E+02  0.7816164E-02  0.1312668E+00
        -11   -1    0    0    0    0  0.00000000000E+00  0.00000000000E+00  0.45593999997E+02  0.45594000000E+02  0.51100000000E-03 0.  1.
         11   -1    0    0    0    0 -0.00000000000E+00 -0.00000000000E+00 -0.45593999997E+02  0.45594000000E+02  0.51100000000E-03 0. -1.
    9900012    2    1    2    0    0 -0.30555388920E+02  0.30810360987E+02 -0.84315522829E+00  0.47787296700E+02  0.20000116974E+02 0.  0.
        -12    1    1    2    0    0  0.30555388920E+02 -0.30810360987E+02  0.84315522829E+00  0.43400703300E+02  0.00000000000E+00 0.  1.
         11    1    3    3    0    0 -0.10577778647E+02  0.20378666470E+02 -0.76432791088E+00  0.22973107008E+02  0.51100000000E-03 0. -1.
        -11    1    3    3    0    0 -0.15707256478E+02  0.44764890538E+01 -0.35367703136E+01  0.16711241870E+02  0.51100000000E-03 0.  1.
        -12    1    3    3    0    0 -0.42703537953E+01  0.59552054632E+01  0.34579429961E+01  0.81029478223E+01  0.00000000000E+00 0.  1.
</event>
<event>
 7    1  0.2732193E-010  0.4778727E+02  0.7816164E-02  0.1312668E+00
        -11   -1    0    0    0    0  0.00000000000E+00  0.00000000000E+00  0.45593999997E+02  0.45594000000E+02  0.51100000000E-03 0. -1.
         11   -1    0    0    0    0 -0.00000000000E+00 -0.00000000000E+00 -0.45593999997E+02  0.45594000000E+02  0.51100000000E-03 0.  1.
    9900012    2    1    2    0    0  0.28755678550E+02  0.32497180141E+02 -0.81697298176E+00  0.47787271771E+02  0.20000003314E+02 0.  0.
        -12    1    1    2    0    0 -0.28755678550E+02 -0.32497180141E+02  0.81697298176E+00  0.43400728229E+02  0.00000000000E+00 0.  1.
         11    1    3    3    0    0  0.10739538455E+01  0.14222438820E+02  0.51747556997E+00  0.14272313200E+02  0.51100000000E-03 0. -1.
        -11    1    3    3    0    0  0.14220733912E+02  0.96193363921E+01 -0.29862182680E+01  0.17426370977E+02  0.51100000000E-03 0.  1.
         12    1    3    3    0    0  0.13460990793E+02  0.86554049280E+01  0.16517697163E+01  0.16088587594E+02  0.00000000000E+00 0. -1.
</event>
<event>
 7    1  0.2732193E-010  0.4778727E+02  0.7816164E-02  0.1312668E+00
        -11   -1    0    0    0    0  0.00000000000E+00  0.00000000000E+00  0.45593999997E+02  0.45594000000E+02  0.51100000000E-03 0. -1.
         11   -1    0    0    0    0 -0.00000000000E+00 -0.00000000000E+00 -0.45593999997E+02  0.45594000000E+02  0.51100000000E-03 0.  1.
    9900012    2    1    2    0    0 -0.35320201564E+02  0.23740470928E+02 -0.85144901570E+01  0.47787272574E+02  0.20000006976E+02 0.  0.
        -12    1    1    2    0    0  0.35320201564E+02 -0.23740470928E+02  0.85144901570E+01  0.43400727426E+02  0.00000000000E+00 0.  1.
         11    1    3    3    0    0 -0.12616085440E+02  0.64357421016E+01 -0.10185391252E+02  0.17444958683E+02  0.51100000000E-03 0. -1.
        -11    1    3    3    0    0 -0.54372759200E+01  0.71546355515E+01 -0.35205454691E+01  0.96512703809E+01  0.51100000000E-03 0.  1.
         12    1    3    3    0    0 -0.17266840204E+02  0.10150093275E+02  0.51914465639E+01  0.20691043510E+02  0.00000000000E+00 0. -1.
</event>
<event>
 7    1  0.2732193E-010  0.4778727E+02  0.7816164E-02  0.1312668E+00
        -11   -1    0    0    0    0  0.00000000000E+00  0.00000000000E+00  0.45593999997E+02  0.45594000000E+02  0.51100000000E-03 0.  1.
         11   -1    0    0    0    0 -0.00000000000E+00 -0.00000000000E+00 -0.45593999997E+02  0.45594000000E+02  0.51100000000E-03 0. -1.
    9900012    2    1    2    0    0 -0.39975641048E+01  0.17446859513E+02 -0.39537953382E+02  0.47787272088E+02  0.20000004759E+02 0.  0.
        -12    1    1    2    0    0  0.39975641048E+01 -0.17446859513E+02  0.39537953382E+02  0.43400727912E+02  0.00000000000E+00 0.  1.
         11    1    3    3    0    0  0.29871655439E+01  0.15873136212E+02 -0.31254661464E+02  0.35181436506E+02  0.51100000000E-03 0. -1.
        -11    1    3    3    0    0 -0.25267443152E+01 -0.12226384027E+01 -0.17536120045E-01  0.28070606111E+01  0.51100000000E-03 0.  1.
         12    1    3    3    0    0 -0.44579853336E+01  0.27963617042E+01 -0.82657557981E+01  0.97987749709E+01  0.00000000000E+00 0. -1.
</event>
<event>
 7    1  0.2732193E-010  0.4778726E+02  0.7816164E-02  0.1312668E+00
        -11   -1    0    0    0    0  0.00000000000E+00  0.00000000000E+00  0.45593999997E+02  0.45594000000E+02  0.51100000000E-03 0.  1.
         11   -1    0    0    0    0 -0.00000000000E+00 -0.00000000000E+00 -0.45593999997E+02  0.45594000000E+02  0.51100000000E-03 0. -1.
    9900012    2    1    2    0    0 -0.11451529970E+02 -0.35835344083E+02 -0.21640578020E+02  0.47787262204E+02  0.19999959693E+02 0.  0.
        -12    1    1    2    0    0  0.11451529970E+02  0.35835344083E+02  0.21640578020E+02  0.43400737796E+02  0.00000000000E+00 0.  1.
         11    1    3    3    0    0 -0.50757683986E+01 -0.27104902360E+02 -0.21642180263E+02  0.35054573504E+02  0.51100000000E-03 0. -1.
        -11    1    3    3    0    0 -0.59630906757E+00 -0.34063184458E+01  0.27391041614E+01  0.44114942736E+01  0.51100000000E-03 0.  1.
         12    1    3    3    0    0 -0.57794525043E+01 -0.53241232778E+01 -0.27375019180E+01  0.83211944261E+01  0.00000000000E+00 0. -1.
</event>
<event>
 7    1  0.2732193E-010  0.4778727E+02  0.7816164E-02  0.1312668E+00
        -11   -1    0    0    0    0  0.00000000000E+00  0.00000000000E+00  0.45593999997E+02  0.45594000000E+02  0.51100000000E-03 0.  1.
         11   -1    0    0    0    0 -0.00000000000E+00 -0.00000000000E+00 -0.45593999997E+02  0.45594000000E+02  0.51100000000E-03 0. -1.
    9900012    2    1    2    0    0  0.42210400351E+02  0.10066073839E+02 -0.76132639079E+00  0.47787270073E+02  0.19999995572E+02 0.  0.
        -12    1    1    2    0    0 -0.42210400351E+02 -0.10066073839E+02  0.76132639079E+00  0.43400729927E+02  0.00000000000E+00 0.  1.
         11    1    3    3    0    0  0.19219148908E+02  0.23023704717E+01  0.29833588162E+01  0.19585122533E+02  0.51100000000E-03 0. -1.
        -11    1    3    3    0    0  0.47905974434E+01 -0.23966177707E+01  0.31897040873E+01  0.62344055875E+01  0.51100000000E-03 0.  1.
        -12    1    3    3    0    0  0.18200653999E+02  0.10160321138E+02 -0.69343892943E+01  0.21967741953E+02  0.00000000000E+00 0.  1.
</event>
<event>
 7    1  0.2732193E-010  0.4778727E+02  0.7816164E-02  0.1312668E+00
        -11   -1    0    0    0    0  0.00000000000E+00  0.00000000000E+00  0.45593999997E+02  0.45594000000E+02  0.51100000000E-03 0.  1.
         11   -1    0    0    0    0 -0.00000000000E+00 -0.00000000000E+00 -0.45593999997E+02  0.45594000000E+02  0.51100000000E-03 0. -1.
    9900012    2    1    2    0    0 -0.95623088434E+01 -0.30014784548E+01 -0.42227677109E+02  0.47787270313E+02  0.19999996664E+02 0.  0.
        -12    1    1    2    0    0  0.95623088434E+01  0.30014784548E+01  0.42227677109E+02  0.43400729687E+02  0.00000000000E+00 0.  1.
         11    1    3    3    0    0 -0.90774027559E+00  0.33966544747E+01 -0.23945001213E+02  0.24201742445E+02  0.51100000000E-03 0. -1.
        -11    1    3    3    0    0 -0.49523859193E+01  0.22897514250E+01 -0.66063923649E+01  0.85681683120E+01  0.51100000000E-03 0.  1.
         12    1    3    3    0    0 -0.37021826485E+01 -0.86878843545E+01 -0.11676283531E+02  0.15017359555E+02  0.00000000000E+00 0. -1.
</event>
<event>
 7    1  0.2732193E-010  0.4778727E+02  0.7816164E-02  0.1312668E+00
        -11   -1    0    0    0    0  0.00000000000E+00  0.00000000000E+00  0.45593999997E+02  0.45594000000E+02  0.51100000000E-03 0.  1.
         11   -1    0    0    0    0 -0.00000000000E+00 -0.00000000000E+00 -0.45593999997E+02  0.45594000000E+02  0.51100000000E-03 0. -1.
    9900012    2    1    2    0    0 -0.20896747326E+02 -0.16335547344E+02 -0.34352569398E+02  0.47787272125E+02  0.20000004927E+02 0.  0.
        -12    1    1    2    0    0  0.20896747326E+02  0.16335547344E+02  0.34352569398E+02  0.43400727875E+02  0.00000000000E+00 0.  1.
         11    1    3    3    0    0 -0.82763253064E+01 -0.12906733733E+02 -0.26855209948E+02  0.30923836079E+02  0.51100000000E-03 0. -1.
        -11    1    3    3    0    0 -0.49137440804E+01  0.63300422004E-01 -0.67779575777E+01  0.83719529990E+01  0.51100000000E-03 0.  1.
         12    1    3    3    0    0 -0.77066779390E+01 -0.34921140336E+01 -0.71940187147E+00  0.84914830467E+01  0.00000000000E+00 0. -1.
</event>
<event>
 7    1  0.2732193E-010  0.4778728E+02  0.7816164E-02  0.1312668E+00
        -11   -1    0    0    0    0  0.00000000000E+00  0.00000000000E+00  0.45593999997E+02  0.45594000000E+02  0.51100000000E-03 0. -1.
         11   -1    0    0    0    0 -0.00000000000E+00 -0.00000000000E+00 -0.45593999997E+02  0.45594000000E+02  0.51100000000E-03 0.  1.
    9900012    2    1    2    0    0 -0.31392229094E+02  0.91476089219E+01  0.28538945160E+02  0.47787283562E+02  0.20000057070E+02 0.  0.
        -12    1    1    2    0    0  0.31392229094E+02 -0.91476089219E+01 -0.28538945160E+02  0.43400716438E+02  0.00000000000E+00 0.  1.
         11    1    3    3    0    0  0.78542827878E+00  0.25733165968E+01  0.65678396858E+01  0.70975611507E+01  0.51100000000E-03 0. -1.
        -11    1    3    3    0    0 -0.59295593803E+00  0.21884782140E+01  0.22616089293E+01  0.32024847928E+01  0.51100000000E-03 0.  1.
         12    1    3    3    0    0 -0.31584701435E+02  0.43858141110E+01  0.19709496545E+02  0.37487237618E+02  0.00000000000E+00 0. -1.
</event>
<event>
 7    1  0.2732193E-010  0.4778727E+02  0.7816164E-02  0.1312668E+00
        -11   -1    0    0    0    0  0.00000000000E+00  0.00000000000E+00  0.45593999997E+02  0.45594000000E+02  0.51100000000E-03 0.  1.
         11   -1    0    0    0    0 -0.00000000000E+00 -0.00000000000E+00 -0.45593999997E+02  0.45594000000E+02  0.51100000000E-03 0. -1.
    9900012    2    1    2    0    0 -0.17771896982E+02  0.99968856994E+01 -0.38312467022E+02  0.47787272180E+02  0.20000005176E+02 0.  0.
        -12    1    1    2    0    0  0.17771896982E+02 -0.99968856994E+01  0.38312467022E+02  0.43400727820E+02  0.00000000000E+00 0.  1.
         11    1    3    3    0    0 -0.11286693419E+02  0.79769054083E+00 -0.27024029363E+02  0.29297165764E+02  0.51100000000E-03 0. -1.
        -11    1    3    3    0    0 -0.83059742337E+01  0.68547404420E+01 -0.57544851856E+01  0.12210273318E+02  0.51100000000E-03 0.  1.
         12    1    3    3    0    0  0.18207706703E+01  0.23444547165E+01 -0.55339524733E+01  0.62798330971E+01  0.00000000000E+00 0. -1.
</event>
<event>
 7    1  0.2732193E-010  0.4778727E+02  0.7816164E-02  0.1312668E+00
        -11   -1    0    0    0    0  0.00000000000E+00  0.00000000000E+00  0.45593999997E+02  0.45594000000E+02  0.51100000000E-03 0.  1.
         11   -1    0    0    0    0 -0.00000000000E+00 -0.00000000000E+00 -0.45593999997E+02  0.45594000000E+02  0.51100000000E-03 0. -1.
    9900012    2    1    2    0    0  0.34909360232E+02  0.20255210250E+02 -0.15958893285E+02  0.47787271331E+02  0.20000001308E+02 0.  0.
        -12    1    1    2    0    0 -0.34909360232E+02 -0.20255210250E+02  0.15958893285E+02  0.43400728669E+02  0.00000000000E+00 0.  1.
         11    1    3    3    0    0  0.24611939035E+02  0.12888538831E+02 -0.32378489727E+01  0.27970442301E+02  0.51100000000E-03 0. -1.
        -11    1    3    3    0    0  0.13578174490E+01  0.59540202990E+01 -0.58127666798E+01  0.84310309382E+01  0.51100000000E-03 0.  1.
         12    1    3    3    0    0  0.89396037478E+01  0.14126511205E+01 -0.69082776321E+01  0.11385798092E+02  0.00000000000E+00 0. -1.
</event>
<event>
 7    1  0.2732193E-010  0.4778726E+02  0.7816164E-02  0.1312668E+00
        -11   -1    0    0    0    0  0.00000000000E+00  0.00000000000E+00  0.45593999997E+02  0.45594000000E+02  0.51100000000E-03 0. -1.
         11   -1    0    0    0    0 -0.00000000000E+00 -0.00000000000E+00 -0.45593999997E+02  0.45594000000E+02  0.51100000000E-03 0.  1.
    9900012    2    1    2    0    0  0.75169786762E+01  0.40848633230E+02  0.12590014897E+02  0.47787259450E+02  0.19999947135E+02 0.  0.
        -12    1    1    2    0    0 -0.75169786762E+01 -0.40848633230E+02 -0.12590014897E+02  0.43400740550E+02  0.00000000000E+00 0.  1.
         11    1    3    3    0    0  0.76226342271E+01  0.12977396083E+02  0.12585407539E+02  0.19619119370E+02  0.51100000000E-03 0. -1.
        -11    1    3    3    0    0 -0.68473649692E+00  0.11832501654E+02 -0.19098023187E+01  0.12005178242E+02  0.51100000000E-03 0.  1.
         12    1    3    3    0    0  0.57908094609E+00  0.16038735493E+02  0.19144096763E+01  0.16162961838E+02  0.00000000000E+00 0. -1.
</event>
<event>
 7    1  0.2732193E-010  0.4778727E+02  0.7816164E-02  0.1312668E+00
        -11   -1    0    0    0    0  0.00000000000E+00  0.00000000000E+00  0.45593999997E+02  0.45594000000E+02  0.51100000000E-03 0.  1.
         11   -1    0    0    0    0 -0.00000000000E+00 -0.00000000000E+00 -0.45593999997E+02  0.45594000000E+02  0.51100000000E-03 0. -1.
    9900012    2    1    2    0    0  0.14316346040E+02  0.39654962731E+02 -0.10302884456E+02  0.47787271189E+02  0.20000000661E+02 0.  0.
        -12    1    1    2    0    0 -0.14316346040E+02 -0.39654962731E+02  0.10302884456E+02  0.43400728811E+02  0.00000000000E+00 0.  1.
         11    1    3    3    0    0  0.95302114563E+01  0.44414662732E+01 -0.37352996838E+01  0.11158136809E+02  0.51100000000E-03 0. -1.
        -11    1    3    3    0    0  0.35541536854E+01  0.28810546721E+02 -0.29657305318E+01  0.29180047440E+02  0.51100000000E-03 0.  1.
        -12    1    3    3    0    0  0.12319808982E+01  0.64029497373E+01 -0.36018542404E+01  0.74490869401E+01  0.00000000000E+00 0.  1.
</event>
<event>
 7    1  0.2732193E-010  0.4778727E+02  0.7816164E-02  0.1312668E+00
        -11   -1    0    0    0    0  0.00000000000E+00  0.00000000000E+00  0.45593999997E+02  0.45594000000E+02  0.51100000000E-03 0.  1.
         11   -1    0    0    0    0 -0.00000000000E+00 -0.00000000000E+00 -0.45593999997E+02  0.45594000000E+02  0.51100000000E-03 0. -1.
    9900012    2    1    2    0    0 -0.20383038724E+02  0.19713456860E+02 -0.32856270876E+02  0.47787272069E+02  0.20000004672E+02 0.  0.
        -12    1    1    2    0    0  0.20383038724E+02 -0.19713456860E+02  0.32856270876E+02  0.43400727931E+02  0.00000000000E+00 0.  1.
         11    1    3    3    0    0 -0.14293680540E+02  0.48110226375E+01 -0.20984186281E+02  0.25841658545E+02  0.51100000000E-03 0. -1.
        -11    1    3    3    0    0  0.15429011132E+01 -0.17050322780E+00 -0.12015584408E+01  0.19629972347E+01  0.51100000000E-03 0.  1.
         12    1    3    3    0    0 -0.76322592974E+01  0.15072937450E+02 -0.10670526154E+02  0.19982616290E+02  0.00000000000E+00 0. -1.
</event>
<event>
 7    1  0.2732193E-010  0.4778726E+02  0.7816164E-02  0.1312668E+00
        -11   -1    0    0    0    0  0.00000000000E+00  0.00000000000E+00  0.45593999997E+02  0.45594000000E+02  0.51100000000E-03 0. -1.
         11   -1    0    0    0    0 -0.00000000000E+00 -0.00000000000E+00 -0.45593999997E+02  0.45594000000E+02  0.51100000000E-03 0.  1.
    9900012    2    1    2    0    0  0.40771834388E+02 -0.87544278079E+01  0.12026705376E+02  0.47787261206E+02  0.19999955144E+02 0.  0.
        -12    1    1    2    0    0 -0.40771834388E+02  0.87544278079E+01 -0.12026705376E+02  0.43400738794E+02  0.00000000000E+00 0.  1.
         11    1    3    3    0    0  0.37226829449E+02 -0.72394739667E+01  0.16638545421E+02  0.41413621046E+02  0.51100000000E-03 0. -1.
        -11    1    3    3    0    0  0.32352043524E+01 -0.73967114429E+00 -0.26682238133E+01  0.42582953376E+01  0.51100000000E-03 0.  1.
         12    1    3    3    0    0  0.30980058718E+00 -0.77528269690E+00 -0.19436162318E+01  0.21153448230E+01  0.00000000000E+00 0. -1.
</event>
<event>
 7    1  0.2732193E-010  0.4778727E+02  0.7816164E-02  0.1312668E+00
        -11   -1    0    0    0    0  0.00000000000E+00  0.00000000000E+00  0.45593999997E+02  0.45594000000E+02  0.51100000000E-03 0.  1.
         11   -1    0    0    0    0 -0.00000000000E+00 -0.00000000000E+00 -0.45593999997E+02  0.45594000000E+02  0.51100000000E-03 0. -1.
    9900012    2    1    2    0    0 -0.30675774587E+02 -0.21985738117E+01 -0.30623298763E+02  0.47787270739E+02  0.19999998605E+02 0.  0.
        -12    1    1    2    0    0  0.30675774587E+02  0.21985738117E+01  0.30623298763E+02  0.43400729261E+02  0.00000000000E+00 0.  1.
         11    1    3    3    0    0 -0.17187334274E+02  0.77565519748E+01 -0.12471473303E+02  0.22607658096E+02  0.51100000000E-03 0. -1.
        -11    1    3    3    0    0 -0.12455620130E+02 -0.83089267997E+01 -0.13587639713E+02  0.20218919126E+02  0.51100000000E-03 0.  1.
         12    1    3    3    0    0 -0.10328201832E+01 -0.16461989868E+01 -0.45641857469E+01  0.49606935167E+01  0.00000000000E+00 0. -1.
</event>
<event>
 7    1  0.2732193E-010  0.4778725E+02  0.7816164E-02  0.1312668E+00
        -11   -1    0    0    0    0  0.00000000000E+00  0.00000000000E+00  0.45593999997E+02  0.45594000000E+02  0.51100000000E-03 0. -1.
         11   -1    0    0    0    0 -0.00000000000E+00 -0.00000000000E+00 -0.45593999997E+02  0.45594000000E+02  0.51100000000E-03 0.  1.
    9900012    2    1    2    0    0 -0.97367222396E+01 -0.39173127158E+02  0.15946394479E+02  0.47787249451E+02  0.19999901548E+02 0.  0.
        -12    1    1    2    0    0  0.97367222396E+01  0.39173127158E+02 -0.15946394479E+02  0.43400750549E+02  0.00000000000E+00 0.  1.
         11    1    3    3    0    0 -0.21197503102E+01 -0.11993040088E+02  0.11682722374E+02  0.16876384514E+02  0.51100000000E-03 0. -1.
        -11    1    3    3    0    0 -0.91996242192E+00 -0.16498722900E+02 -0.23228397491E+01  0.16686814344E+02  0.51100000000E-03 0.  1.
        -12    1    3    3    0    0 -0.66970095075E+01 -0.10681364170E+02  0.65865118541E+01  0.14224050593E+02  0.00000000000E+00 0.  1.
</event>
<event>
 7    1  0.2732193E-010  0.4778727E+02  0.7816164E-02  0.1312668E+00
        -11   -1    0    0    0    0  0.00000000000E+00  0.00000000000E+00  0.45593999997E+02  0.45594000000E+02  0.51100000000E-03 0. -1.
         11   -1    0    0    0    0 -0.00000000000E+00 -0.00000000000E+00 -0.45593999997E+02  0.45594000000E+02  0.51100000000E-03 0.  1.
    9900012    2    1    2    0    0  0.64477335868E+01 -0.38225903063E+01  0.42748543223E+02  0.47787269445E+02  0.19999992705E+02 0.  0.
        -12    1    1    2    0    0 -0.64477335868E+01  0.38225903063E+01 -0.42748543223E+02  0.43400730555E+02  0.00000000000E+00 0.  1.
         11    1    3    3    0    0 -0.27702019014E+01 -0.32651762715E+01  0.15698175687E+01  0.45606712356E+01  0.51100000000E-03 0. -1.
        -11    1    3    3    0    0  0.95843992614E+01 -0.31970757142E+01  0.27656186153E+02  0.29443957532E+02  0.51100000000E-03 0.  1.
         12    1    3    3    0    0 -0.36646377326E+00  0.26396616795E+01  0.13522539501E+02  0.13782640677E+02  0.00000000000E+00 0. -1.
</event>
<event>
 7    1  0.2732193E-010  0.4778728E+02  0.7816164E-02  0.1312668E+00
        -11   -1    0    0    0    0  0.00000000000E+00  0.00000000000E+00  0.45593999997E+02  0.45594000000E+02  0.51100000000E-03 0.  1.
         11   -1    0    0    0    0 -0.00000000000E+00 -0.00000000000E+00 -0.45593999997E+02  0.45594000000E+02  0.51100000000E-03 0. -1.
    9900012    2    1    2    0    0  0.63221889935E+01  0.32132388716E+02 -0.28480900787E+02  0.47787283555E+02  0.20000057041E+02 0.  0.
        -12    1    1    2    0    0 -0.63221889935E+01 -0.32132388716E+02  0.28480900787E+02  0.43400716445E+02  0.00000000000E+00 0.  1.
         11    1    3    3    0    0  0.27211109015E+01 -0.47766632856E+00 -0.89637858451E+01  0.93798756174E+01  0.51100000000E-03 0.  1.
        -11    1    3    3    0    0  0.41372434067E+01  0.23452269471E+02 -0.12789479867E+02  0.27031398815E+02  0.51100000000E-03 0. -1.
        -12    1    3    3    0    0 -0.53616531465E+00  0.91577855736E+01 -0.67276350757E+01  0.11376009123E+02  0.00000000000E+00 0.  1.
</event>
<event>
 7    1  0.2732193E-010  0.4778730E+02  0.7816164E-02  0.1312668E+00
        -11   -1    0    0    0    0  0.00000000000E+00  0.00000000000E+00  0.45593999997E+02  0.45594000000E+02  0.51100000000E-03 0.  1.
         11   -1    0    0    0    0 -0.00000000000E+00 -0.00000000000E+00 -0.45593999997E+02  0.45594000000E+02  0.51100000000E-03 0. -1.
    9900012    2    1    2    0    0  0.91951132274E+01  0.59064760119E+00 -0.42411344121E+02  0.47787296296E+02  0.20000115131E+02 0.  0.
        -12    1    1    2    0    0 -0.91951132274E+01 -0.59064760119E+00  0.42411344121E+02  0.43400703704E+02  0.00000000000E+00 0.  1.
         11    1    3    3    0    0 -0.26181399010E+01  0.17285337567E+01 -0.23183869160E+02  0.23395176318E+02  0.51100000000E-03 0. -1.
        -11    1    3    3    0    0  0.10229049542E+02 -0.43039778174E+01 -0.16664050808E+02  0.20021195498E+02  0.51100000000E-03 0.  1.
         12    1    3    3    0    0  0.15842035860E+01  0.31660916619E+01 -0.25634241535E+01  0.43709244793E+01  0.00000000000E+00 0. -1.
</event>
<event>
 7    1  0.2732193E-010  0.4778727E+02  0.7816164E-02  0.1312668E+00
        -11   -1    0    0    0    0  0.00000000000E+00  0.00000000000E+00  0.45593999997E+02  0.45594000000E+02  0.51100000000E-03 0. -1.
         11   -1    0    0    0    0 -0.00000000000E+00 -0.00000000000E+00 -0.45593999997E+02  0.45594000000E+02  0.51100000000E-03 0.  1.
    9900012    2    1    2    0    0  0.31358510215E+01 -0.25986172634E+01  0.43209222221E+02  0.47787271225E+02  0.20000000822E+02 0.  0.
        -12    1    1    2    0    0 -0.31358510215E+01  0.25986172634E+01 -0.43209222221E+02  0.43400728775E+02  0.00000000000E+00 0.  1.
         11    1    3    3    0    0  0.15748984525E+01  0.77031896007E+01  0.17268159911E+02  0.18973897389E+02  0.51100000000E-03 0. -1.
        -11    1    3    3    0    0  0.20124356642E+01 -0.10775840827E+02  0.25937336216E+02  0.28158729607E+02  0.51100000000E-03 0.  1.
         12    1    3    3    0    0 -0.45148309523E+00  0.47403396264E+00  0.37260940402E-02  0.65464422917E+00  0.00000000000E+00 0. -1.
</event>
<event>
 7    1  0.2732193E-010  0.4778727E+02  0.7816164E-02  0.1312668E+00
        -11   -1    0    0    0    0  0.00000000000E+00  0.00000000000E+00  0.45593999997E+02  0.45594000000E+02  0.51100000000E-03 0.  1.
         11   -1    0    0    0    0 -0.00000000000E+00 -0.00000000000E+00 -0.45593999997E+02  0.45594000000E+02  0.51100000000E-03 0. -1.
    9900012    2    1    2    0    0  0.83397749641E+01  0.32783170732E+02 -0.27190718967E+02  0.47787270425E+02  0.19999997175E+02 0.  0.
        -12    1    1    2    0    0 -0.83397749641E+01 -0.32783170732E+02  0.27190718967E+02  0.43400729575E+02  0.00000000000E+00 0.  1.
         11    1    3    3    0    0  0.60425421475E+01  0.22669779430E+02 -0.15672701509E+02  0.28214620109E+02  0.51100000000E-03 0. -1.
        -11    1    3    3    0    0 -0.12251040887E+01  0.39673440523E+01  0.17705066870E+01  0.45139110589E+01  0.51100000000E-03 0.  1.
        -12    1    3    3    0    0  0.35223369054E+01  0.61460472496E+01 -0.13288524145E+02  0.15058739257E+02  0.00000000000E+00 0.  1.
</event>
<event>
 7    1  0.2732193E-010  0.4778727E+02  0.7816164E-02  0.1312668E+00
        -11   -1    0    0    0    0  0.00000000000E+00  0.00000000000E+00  0.45593999997E+02  0.45594000000E+02  0.51100000000E-03 0.  1.
         11   -1    0    0    0    0 -0.00000000000E+00 -0.00000000000E+00 -0.45593999997E+02  0.45594000000E+02  0.51100000000E-03 0. -1.
    9900012    2    1    2    0    0 -0.36718110653E+02 -0.55516061318E+01 -0.22462925129E+02  0.47787274362E+02  0.20000015126E+02 0.  0.
        -12    1    1    2    0    0  0.36718110653E+02  0.55516061318E+01  0.22462925129E+02  0.43400725638E+02  0.00000000000E+00 0.  1.
         11    1    3    3    0    0 -0.31357935145E+02 -0.76243029070E+01 -0.13532043152E+02  0.34993803501E+02  0.51100000000E-03 0. -1.
        -11    1    3    3    0    0 -0.14845861069E+01  0.43901676903E+01 -0.42193263544E+01  0.62673984558E+01  0.51100000000E-03 0.  1.
        -12    1    3    3    0    0 -0.38755894009E+01 -0.23174709151E+01 -0.47115556230E+01  0.65260724050E+01  0.00000000000E+00 0.  1.
</event>
<event>
 7    1  0.2732193E-010  0.4778727E+02  0.7816164E-02  0.1312668E+00
        -11   -1    0    0    0    0  0.00000000000E+00  0.00000000000E+00  0.45593999997E+02  0.45594000000E+02  0.51100000000E-03 0. -1.
         11   -1    0    0    0    0 -0.00000000000E+00 -0.00000000000E+00 -0.45593999997E+02  0.45594000000E+02  0.51100000000E-03 0.  1.
    9900012    2    1    2    0    0  0.44909400816E+00 -0.40937956139E+02  0.14405049328E+02  0.47787269771E+02  0.19999994196E+02 0.  0.
        -12    1    1    2    0    0 -0.44909400816E+00  0.40937956139E+02 -0.14405049328E+02  0.43400730229E+02  0.00000000000E+00 0.  1.
         11    1    3    3    0    0  0.22742474096E+01 -0.73093296296E+00 -0.24441390451E+01  0.34176424929E+01  0.51100000000E-03 0.  1.
        -11    1    3    3    0    0 -0.49116026844E+01 -0.25883508651E+02  0.97908387881E+01  0.28105878130E+02  0.51100000000E-03 0. -1.
        -12    1    3    3    0    0  0.30864492829E+01 -0.14323514525E+02  0.70583495846E+01  0.16263749149E+02  0.00000000000E+00 0.  1.
</event>
<event>
 7    1  0.2732193E-010  0.4778734E+02  0.7816164E-02  0.1312667E+00
        -11   -1    0    0    0    0  0.00000000000E+00  0.00000000000E+00  0.45593999997E+02  0.45594000000E+02  0.51100000000E-03 0. -1.
         11   -1    0    0    0    0 -0.00000000000E+00 -0.00000000000E+00 -0.45593999997E+02  0.45594000000E+02  0.51100000000E-03 0.  1.
    9900012    2    1    2    0    0  0.39272070674E+02 -0.16357705890E+02 -0.85876418193E+01  0.47787335615E+02  0.20000294402E+02 0.  0.
        -12    1    1    2    0    0 -0.39272070674E+02  0.16357705890E+02  0.85876418193E+01  0.43400664385E+02  0.00000000000E+00 0.  1.
         11    1    3    3    0    0  0.55634037563E+01 -0.19052530560E+01 -0.32955471731E+00  0.58898265794E+01  0.51100000000E-03 0. -1.
        -11    1    3    3    0    0  0.14171367841E+02 -0.16049606561E+02 -0.54640904056E+01  0.22096918823E+02  0.51100000000E-03 0.  1.
        -12    1    3    3    0    0  0.19537299077E+02  0.15971537270E+01 -0.27939966964E+01  0.19800590213E+02  0.00000000000E+00 0.  1.
</event>
<event>
 7    1  0.2732193E-010  0.4778734E+02  0.7816164E-02  0.1312667E+00
        -11   -1    0    0    0    0  0.00000000000E+00  0.00000000000E+00  0.45593999997E+02  0.45594000000E+02  0.51100000000E-03 0. -1.
         11   -1    0    0    0    0 -0.00000000000E+00 -0.00000000000E+00 -0.45593999997E+02  0.45594000000E+02  0.51100000000E-03 0.  1.
    9900012    2    1    2    0    0 -0.21311161736E+02  0.35829235640E+02  0.12071369452E+02  0.47787335241E+02  0.20000292695E+02 0.  0.
        -12    1    1    2    0    0  0.21311161736E+02 -0.35829235640E+02 -0.12071369452E+02  0.43400664759E+02  0.00000000000E+00 0.  1.
         11    1    3    3    0    0 -0.11846838822E+02  0.25597495861E+02  0.16044023004E+02  0.32449808302E+02  0.51100000000E-03 0. -1.
        -11    1    3    3    0    0 -0.40174530898E+00  0.20119718030E+01 -0.21424687834E+01  0.29664124087E+01  0.51100000000E-03 0.  1.
         12    1    3    3    0    0 -0.90625776054E+01  0.82197679762E+01 -0.18301847681E+01  0.12371114530E+02  0.00000000000E+00 0. -1.
</event>
<event>
 7    1  0.2732193E-010  0.4778727E+02  0.7816164E-02  0.1312668E+00
        -11   -1    0    0    0    0  0.00000000000E+00  0.00000000000E+00  0.45593999997E+02  0.45594000000E+02  0.51100000000E-03 0.  1.
         11   -1    0    0    0    0 -0.00000000000E+00 -0.00000000000E+00 -0.45593999997E+02  0.45594000000E+02  0.51100000000E-03 0. -1.
    9900012    2    1    2    0    0 -0.14805929939E+02  0.15274181745E+00 -0.40796869792E+02  0.47787268714E+02  0.19999989372E+02 0.  0.
        -12    1    1    2    0    0  0.14805929939E+02 -0.15274181745E+00  0.40796869792E+02  0.43400731286E+02  0.00000000000E+00 0.  1.
         11    1    3    3    0    0 -0.77404889858E+01  0.49975560826E+01 -0.23347672868E+02  0.25099891736E+02  0.51100000000E-03 0. -1.
        -11    1    3    3    0    0  0.17191371787E+01 -0.10139280522E+01  0.73941822510E+00  0.21284318892E+01  0.51100000000E-03 0.  1.
         12    1    3    3    0    0 -0.87845781317E+01 -0.38308862129E+01 -0.18188615149E+02  0.20558945089E+02  0.00000000000E+00 0. -1.
</event>
<event>
 7    1  0.2732193E-010  0.4778727E+02  0.7816164E-02  0.1312668E+00
        -11   -1    0    0    0    0  0.00000000000E+00  0.00000000000E+00  0.45593999997E+02  0.45594000000E+02  0.51100000000E-03 0.  1.
         11   -1    0    0    0    0 -0.00000000000E+00 -0.00000000000E+00 -0.45593999997E+02  0.45594000000E+02  0.51100000000E-03 0. -1.
    9900012    2    1    2    0    0 -0.18134558179E+02  0.23469751577E+02 -0.31684880990E+02  0.47787272785E+02  0.20000007936E+02 0.  0.
        -12    1    1    2    0    0  0.18134558179E+02 -0.23469751577E+02  0.31684880990E+02  0.43400727215E+02  0.00000000000E+00 0.  1.
         11    1    3    3    0    0 -0.65311471118E+01  0.20043507903E+02 -0.13664646867E+02  0.25122115076E+02  0.51100000000E-03 0. -1.
        -11    1    3    3    0    0 -0.90597933999E+01 -0.49443787580E+00 -0.11955835191E+02  0.15008874729E+02  0.51100000000E-03 0.  1.
        -12    1    3    3    0    0 -0.25436176670E+01  0.39206815497E+01 -0.60643989329E+01  0.76562829799E+01  0.00000000000E+00 0.  1.
</event>
<event>
 7    1  0.2732193E-010  0.4778727E+02  0.7816164E-02  0.1312668E+00
        -11   -1    0    0    0    0  0.00000000000E+00  0.00000000000E+00  0.45593999997E+02  0.45594000000E+02  0.51100000000E-03 0. -1.
         11   -1    0    0    0    0 -0.00000000000E+00 -0.00000000000E+00 -0.45593999997E+02  0.45594000000E+02  0.51100000000E-03 0.  1.
    9900012    2    1    2    0    0 -0.13706696691E+02  0.40381767917E+02 -0.80661549815E+01  0.47787267628E+02  0.19999984422E+02 0.  0.
        -12    1    1    2    0    0  0.13706696691E+02 -0.40381767917E+02  0.80661549815E+01  0.43400732372E+02  0.00000000000E+00 0.  1.
         11    1    3    3    0    0 -0.11069787942E+02  0.27385357506E+02 -0.12153443027E+01  0.29563069409E+02  0.51100000000E-03 0. -1.
        -11    1    3    3    0    0 -0.45829194729E+01  0.82736061995E+01 -0.86415266778E+01  0.12811389231E+02  0.51100000000E-03 0.  1.
        -12    1    3    3    0    0  0.19460107241E+01  0.47228042110E+01  0.17907159990E+01  0.54128089882E+01  0.00000000000E+00 0.  1.
</event>
<event>
 7    1  0.2732193E-010  0.4778728E+02  0.7816164E-02  0.1312668E+00
        -11   -1    0    0    0    0  0.00000000000E+00  0.00000000000E+00  0.45593999997E+02  0.45594000000E+02  0.51100000000E-03 0. -1.
         11   -1    0    0    0    0 -0.00000000000E+00 -0.00000000000E+00 -0.45593999997E+02  0.45594000000E+02  0.51100000000E-03 0.  1.
    9900012    2    1    2    0    0  0.38617030070E+02 -0.18604442432E+02 -0.67987091806E+01  0.47787277239E+02  0.20000028245E+02 0.  0.
        -12    1    1    2    0    0 -0.38617030070E+02  0.18604442432E+02  0.67987091806E+01  0.43400722761E+02  0.00000000000E+00 0.  1.
         11    1    3    3    0    0  0.12054026858E+02  0.95549885811E+00  0.23200595847E+01  0.12312400996E+02  0.51100000000E-03 0. -1.
        -11    1    3    3    0    0  0.11797006946E+02 -0.11867939661E+02 -0.86073641956E+01  0.18817653503E+02  0.51100000000E-03 0.  1.
         12    1    3    3    0    0  0.14765996266E+02 -0.76920016283E+01 -0.51140456970E+00  0.16657222740E+02  0.00000000000E+00 0. -1.
</event>
<event>
 7    1  0.2732193E-010  0.4778727E+02  0.7816164E-02  0.1312668E+00
        -11   -1    0    0    0    0  0.00000000000E+00  0.00000000000E+00  0.45593999997E+02  0.45594000000E+02  0.51100000000E-03 0.  1.
         11   -1    0    0    0    0 -0.00000000000E+00 -0.00000000000E+00 -0.45593999997E+02  0.45594000000E+02  0.51100000000E-03 0. -1.
    9900012    2    1    2    0    0 -0.92351646184E+01 -0.25745563447E+01 -0.42328559287E+02  0.47787268011E+02  0.19999986169E+02 0.  0.
        -12    1    1    2    0    0  0.92351646184E+01  0.25745563447E+01  0.42328559287E+02  0.43400731989E+02  0.00000000000E+00 0.  1.
         11    1    3    3    0    0 -0.12534182873E+02  0.14234026088E+01 -0.17344429199E+02  0.21446702306E+02  0.51100000000E-03 0. -1.
        -11    1    3    3    0    0  0.35244383335E+01 -0.54019528168E+01 -0.16110126100E+02  0.17353354806E+02  0.51100000000E-03 0.  1.
         12    1    3    3    0    0 -0.22542007904E+00  0.14039938633E+01 -0.88740039875E+01  0.89872108994E+01  0.00000000000E+00 0. -1.
</event>
<event>
 7    1  0.2732193E-010  0.4778727E+02  0.7816164E-02  0.1312668E+00
        -11   -1    0    0    0    0  0.00000000000E+00  0.00000000000E+00  0.45593999997E+02  0.45594000000E+02  0.51100000000E-03 0. -1.
         11   -1    0    0    0    0 -0.00000000000E+00 -0.00000000000E+00 -0.45593999997E+02  0.45594000000E+02  0.51100000000E-03 0.  1.
    9900012    2    1    2    0    0 -0.42132880995E+02 -0.63999482081E+01  0.82148818456E+01  0.47787270953E+02  0.19999999585E+02 0.  0.
        -12    1    1    2    0    0  0.42132880995E+02  0.63999482081E+01 -0.82148818456E+01  0.43400729047E+02  0.00000000000E+00 0.  1.
         11    1    3    3    0    0 -0.15044936536E+02 -0.10111877507E+02  0.21534587407E+01  0.18254795723E+02  0.51100000000E-03 0.  1.
        -11    1    3    3    0    0 -0.12845557088E+02 -0.28106766801E+01  0.16119749739E+01  0.13247894318E+02  0.51100000000E-03 0. -1.
         12    1    3    3    0    0 -0.14242387372E+02  0.65226059788E+01  0.44494481310E+01  0.16284580912E+02  0.00000000000E+00 0. -1.
</event>
<event>
 7    1  0.2732193E-010  0.4778733E+02  0.7816164E-02  0.1312668E+00
        -11   -1    0    0    0    0  0.00000000000E+00  0.00000000000E+00  0.45593999997E+02  0.45594000000E+02  0.51100000000E-03 0.  1.
         11   -1    0    0    0    0 -0.00000000000E+00 -0.00000000000E+00 -0.45593999997E+02  0.45594000000E+02  0.51100000000E-03 0. -1.
    9900012    2    1    2    0    0 -0.19843143327E+00  0.37977139361E+02 -0.21007518618E+02  0.47787328029E+02  0.20000259813E+02 0.  0.
        -12    1    1    2    0    0  0.19843143327E+00 -0.37977139361E+02  0.21007518618E+02  0.43400671971E+02  0.00000000000E+00 0.  1.
         11    1    3    3    0    0 -0.13611193597E+01  0.20515855204E+02 -0.52248760028E+01  0.21214435891E+02  0.51100000000E-03 0. -1.
        -11    1    3    3    0    0 -0.22249420390E+01  0.34221774492E+01 -0.10379382143E+02  0.11153171724E+02  0.51100000000E-03 0.  1.
        -12    1    3    3    0    0  0.33876299655E+01  0.14039106708E+02 -0.54032604726E+01  0.15419720415E+02  0.00000000000E+00 0.  1.
</event>
<event>
 7    1  0.2732193E-010  0.4778727E+02  0.7816164E-02  0.1312668E+00
        -11   -1    0    0    0    0  0.00000000000E+00  0.00000000000E+00  0.45593999997E+02  0.45594000000E+02  0.51100000000E-03 0.  1.
         11   -1    0    0    0    0 -0.00000000000E+00 -0.00000000000E+00 -0.45593999997E+02  0.45594000000E+02  0.51100000000E-03 0. -1.
    9900012    2    1    2    0    0  0.64237799837E+01 -0.33353831529E+02 -0.27016300934E+02  0.47787267943E+02  0.19999985859E+02 0.  0.
        -12    1    1    2    0    0 -0.64237799837E+01  0.33353831529E+02  0.27016300934E+02  0.43400732057E+02  0.00000000000E+00 0.  1.
         11    1    3    3    0    0  0.46760163573E+01 -0.35319109674E+01 -0.13879377915E+02  0.15065744443E+02  0.51100000000E-03 0. -1.
        -11    1    3    3    0    0  0.22970367441E+01 -0.22841005406E+02 -0.97074743980E+01  0.24924344830E+02  0.51100000000E-03 0.  1.
         12    1    3    3    0    0 -0.54927311770E+00 -0.69809151552E+01 -0.34294486214E+01  0.77971786698E+01  0.00000000000E+00 0. -1.
</event>
<event>
 7    1  0.2732193E-010  0.4778728E+02  0.7816164E-02  0.1312668E+00
        -11   -1    0    0    0    0  0.00000000000E+00  0.00000000000E+00  0.45593999997E+02  0.45594000000E+02  0.51100000000E-03 0. -1.
         11   -1    0    0    0    0 -0.00000000000E+00 -0.00000000000E+00 -0.45593999997E+02  0.45594000000E+02  0.51100000000E-03 0.  1.
    9900012    2    1    2    0    0  0.29560855655E+02 -0.49157602170E+00  0.31773204593E+02  0.47787281526E+02  0.20000047787E+02 0.  0.
        -12    1    1    2    0    0 -0.29560855655E+02  0.49157602170E+00 -0.31773204593E+02  0.43400718474E+02  0.00000000000E+00 0.  1.
         11    1    3    3    0    0  0.98254417174E+01 -0.11892672103E+01  0.16387086324E+02  0.19143935329E+02  0.51100000000E-03 0. -1.
        -11    1    3    3    0    0  0.51343746315E+01 -0.14893660622E+01 -0.21126747194E+01  0.57483396607E+01  0.51100000000E-03 0.  1.
        -12    1    3    3    0    0  0.14601039306E+02  0.21870572509E+01  0.17498792988E+02  0.22895006536E+02  0.00000000000E+00 0.  1.
</event>
<event>
 7    1  0.2732193E-010  0.4778729E+02  0.7816164E-02  0.1312668E+00
        -11   -1    0    0    0    0  0.00000000000E+00  0.00000000000E+00  0.45593999997E+02  0.45594000000E+02  0.51100000000E-03 0. -1.
         11   -1    0    0    0    0 -0.00000000000E+00 -0.00000000000E+00 -0.45593999997E+02  0.45594000000E+02  0.51100000000E-03 0.  1.
    9900012    2    1    2    0    0 -0.43328469556E+02  0.23710719354E+01  0.80231584158E+00  0.47787286101E+02  0.20000068651E+02 0.  0.
        -12    1    1    2    0    0  0.43328469556E+02 -0.23710719354E+01 -0.80231584158E+00  0.43400713899E+02  0.00000000000E+00 0.  1.
         11    1    3    3    0    0 -0.55452148881E+01 -0.32035305107E+01  0.49878751752E+01  0.81173219052E+01  0.51100000000E-03 0. -1.
        -11    1    3    3    0    0 -0.26266304238E+02  0.83712985688E+01 -0.22304524305E+01  0.27658132554E+02  0.51100000000E-03 0.  1.
         12    1    3    3    0    0 -0.11516950430E+02 -0.27966961227E+01 -0.19551069031E+01  0.12011831642E+02  0.00000000000E+00 0. -1.
</event>
<event>
 7    1  0.2732193E-010  0.4778727E+02  0.7816164E-02  0.1312668E+00
        -11   -1    0    0    0    0  0.00000000000E+00  0.00000000000E+00  0.45593999997E+02  0.45594000000E+02  0.51100000000E-03 0.  1.
         11   -1    0    0    0    0 -0.00000000000E+00 -0.00000000000E+00 -0.45593999997E+02  0.45594000000E+02  0.51100000000E-03 0. -1.
    9900012    2    1    2    0    0 -0.23756081516E+02 -0.16372008922E+02 -0.32422665532E+02  0.47787270452E+02  0.19999997298E+02 0.  0.
        -12    1    1    2    0    0  0.23756081516E+02  0.16372008922E+02  0.32422665532E+02  0.43400729548E+02  0.00000000000E+00 0.  1.
         11    1    3    3    0    0 -0.63516043279E+01  0.38689041028E+01 -0.53889482334E+01  0.91843377452E+01  0.51100000000E-03 0. -1.
        -11    1    3    3    0    0 -0.56429111498E+01 -0.11422869894E+02 -0.10796387114E+02  0.16699891551E+02  0.51100000000E-03 0.  1.
         12    1    3    3    0    0 -0.11761566038E+02 -0.88180431315E+01 -0.16237330184E+02  0.21903041155E+02  0.00000000000E+00 0. -1.
</event>
<event>
 7    1  0.2732193E-010  0.4778726E+02  0.7816164E-02  0.1312668E+00
        -11   -1    0    0    0    0  0.00000000000E+00  0.00000000000E+00  0.45593999997E+02  0.45594000000E+02  0.51100000000E-03 0. -1.
         11   -1    0    0    0    0 -0.00000000000E+00 -0.00000000000E+00 -0.45593999997E+02  0.45594000000E+02  0.51100000000E-03 0.  1.
    9900012    2    1    2    0    0 -0.38985924913E+02 -0.40210048377E+01  0.18642778192E+02  0.47787262679E+02  0.19999961860E+02 0.  0.
        -12    1    1    2    0    0  0.38985924913E+02  0.40210048377E+01 -0.18642778192E+02  0.43400737321E+02  0.00000000000E+00 0.  1.
         11    1    3    3    0    0 -0.86680369544E+01 -0.36966910621E+00  0.10273381108E+02  0.13446705156E+02  0.51100000000E-03 0. -1.
        -11    1    3    3    0    0 -0.21221383291E+02 -0.86227887189E+01  0.50577120134E+01  0.23458048622E+02  0.51100000000E-03 0.  1.
        -12    1    3    3    0    0 -0.90965046676E+01  0.49714529875E+01  0.33116850703E+01  0.10882508901E+02  0.00000000000E+00 0.  1.
</event>
<event>
 7    1  0.2732193E-010  0.4778727E+02  0.7816164E-02  0.1312668E+00
        -11   -1    0    0    0    0  0.00000000000E+00  0.00000000000E+00  0.45593999997E+02  0.45594000000E+02  0.51100000000E-03 0.  1.
         11   -1    0    0    0    0 -0.00000000000E+00 -0.00000000000E+00 -0.45593999997E+02  0.45594000000E+02  0.51100000000E-03 0. -1.
    9900012    2    1    2    0    0 -0.62956113615E+01  0.23574848746E+01 -0.42876925205E+02  0.47787272214E+02  0.20000005331E+02 0.  0.
        -12    1    1    2    0    0  0.62956113615E+01 -0.23574848746E+01  0.42876925205E+02  0.43400727786E+02  0.00000000000E+00 0.  1.
         11    1    3    3    0    0 -0.45989804434E+01 -0.12863900333E+01 -0.36723130128E+02  0.37032333265E+02  0.51100000000E-03 0. -1.
        -11    1    3    3    0    0 -0.74195440062E-01 -0.24562843142E+01 -0.12217245116E+01  0.27443484908E+01  0.51100000000E-03 0.  1.
         12    1    3    3    0    0 -0.16224354781E+01  0.61001592221E+01 -0.49320705658E+01  0.80105904577E+01  0.00000000000E+00 0. -1.
</event>
<event>
 7    1  0.2732193E-010  0.4778727E+02  0.7816164E-02  0.1312668E+00
        -11   -1    0    0    0    0  0.00000000000E+00  0.00000000000E+00  0.45593999997E+02  0.45594000000E+02  0.51100000000E-03 0. -1.
         11   -1    0    0    0    0 -0.00000000000E+00 -0.00000000000E+00 -0.45593999997E+02  0.45594000000E+02  0.51100000000E-03 0.  1.
    9900012    2    1    2    0    0  0.97379602677E+00  0.21753643019E+02  0.37542698299E+02  0.47787268913E+02  0.19999990282E+02 0.  0.
        -12    1    1    2    0    0 -0.97379602677E+00 -0.21753643019E+02 -0.37542698299E+02  0.43400731087E+02  0.00000000000E+00 0.  1.
         11    1    3    3    0    0  0.13053642382E+01  0.13682519752E+02  0.36484441678E+02  0.38987559649E+02  0.51100000000E-03 0. -1.
        -11    1    3    3    0    0  0.44630226267E+00  0.76725951779E+01  0.14839805982E+01  0.78275220313E+01  0.51100000000E-03 0.  1.
         12    1    3    3    0    0 -0.77787047406E+00  0.39852808877E+00 -0.42572397653E+00  0.97218723307E+00  0.00000000000E+00 0. -1.
</event>
<event>
 7    1  0.2732193E-010  0.4778727E+02  0.7816164E-02  0.1312668E+00
        -11   -1    0    0    0    0  0.00000000000E+00  0.00000000000E+00  0.45593999997E+02  0.45594000000E+02  0.51100000000E-03 0.  1.
         11   -1    0    0    0    0 -0.00000000000E+00 -0.00000000000E+00 -0.45593999997E+02  0.45594000000E+02  0.51100000000E-03 0. -1.
    9900012    2    1    2    0    0  0.43859265546E+01  0.76519235256E+01 -0.42495114594E+02  0.47787273627E+02  0.20000011773E+02 0.  0.
        -12    1    1    2    0    0 -0.43859265546E+01 -0.76519235256E+01  0.42495114594E+02  0.43400726373E+02  0.00000000000E+00 0.  1.
         11    1    3    3    0    0  0.65653178320E+01  0.11598304729E+02 -0.25945797428E+02  0.29168621415E+02  0.51100000000E-03 0. -1.
        -11    1    3    3    0    0 -0.21070778106E+01 -0.16501004906E+01 -0.93304019283E+00  0.28342852347E+01  0.51100000000E-03 0.  1.
         12    1    3    3    0    0 -0.72313466821E-01 -0.22962807131E+01 -0.15616276974E+02  0.15784366977E+02  0.00000000000E+00 0. -1.
</event>
<event>
 7    1  0.2732193E-010  0.4778727E+02  0.7816164E-02  0.1312668E+00
        -11   -1    0    0    0    0  0.00000000000E+00  0.00000000000E+00  0.45593999997E+02  0.45594000000E+02  0.51100000000E-03 0.  1.
         11   -1    0    0    0    0 -0.00000000000E+00 -0.00000000000E+00 -0.45593999997E+02  0.45594000000E+02  0.51100000000E-03 0. -1.
    9900012    2    1    2    0    0  0.25882159821E+02 -0.29308924108E+02 -0.18834121899E+02  0.47787269856E+02  0.19999994581E+02 0.  0.
        -12    1    1    2    0    0 -0.25882159821E+02  0.29308924108E+02  0.18834121899E+02  0.43400730144E+02  0.00000000000E+00 0.  1.
         11    1    3    3    0    0  0.11475008783E+02 -0.19779179425E+02 -0.13111646752E+02  0.26359192820E+02  0.51100000000E-03 0. -1.
        -11    1    3    3    0    0  0.49180552514E+01  0.23325903096E+01 -0.11406732873E+01  0.55614189572E+01  0.51100000000E-03 0.  1.
        -12    1    3    3    0    0  0.94890957857E+01 -0.11862334993E+02 -0.45818018593E+01  0.15866658079E+02  0.00000000000E+00 0.  1.
</event>
<event>
 7    1  0.2732193E-010  0.4778727E+02  0.7816164E-02  0.1312668E+00
        -11   -1    0    0    0    0  0.00000000000E+00  0.00000000000E+00  0.45593999997E+02  0.45594000000E+02  0.51100000000E-03 0.  1.
         11   -1    0    0    0    0 -0.00000000000E+00 -0.00000000000E+00 -0.45593999997E+02  0.45594000000E+02  0.51100000000E-03 0. -1.
    9900012    2    1    2    0    0 -0.12866188643E+02  0.12180345036E+02 -0.39619743218E+02  0.47787266503E+02  0.19999979294E+02 0.  0.
        -12    1    1    2    0    0  0.12866188643E+02 -0.12180345036E+02  0.39619743218E+02  0.43400733497E+02  0.00000000000E+00 0.  1.
         11    1    3    3    0    0  0.23798878451E+01  0.81922100090E+01 -0.14698736073E+02  0.16994970238E+02  0.51100000000E-03 0. -1.
        -11    1    3    3    0    0 -0.78110917701E+01  0.64277899705E+01 -0.12093947630E+02  0.15766838874E+02  0.51100000000E-03 0.  1.
         12    1    3    3    0    0 -0.74349847185E+01 -0.24396549433E+01 -0.12827059514E+02  0.15025457390E+02  0.00000000000E+00 0. -1.
</event>
<event>
 7    1  0.2732193E-010  0.4778726E+02  0.7816164E-02  0.1312668E+00
        -11   -1    0    0    0    0  0.00000000000E+00  0.00000000000E+00  0.45593999997E+02  0.45594000000E+02  0.51100000000E-03 0.  1.
         11   -1    0    0    0    0 -0.00000000000E+00 -0.00000000000E+00 -0.45593999997E+02  0.45594000000E+02  0.51100000000E-03 0. -1.
    9900012    2    1    2    0    0 -0.15972309249E+02  0.39473437812E+02 -0.83879146942E+01  0.47787261891E+02  0.19999958267E+02 0.  0.
        -12    1    1    2    0    0  0.15972309249E+02 -0.39473437812E+02  0.83879146942E+01  0.43400738109E+02  0.00000000000E+00 0.  1.
         11    1    3    3    0    0  0.22334227562E+01  0.74066010643E+01  0.15712711105E+01  0.78939729983E+01  0.51100000000E-03 0. -1.
        -11    1    3    3    0    0 -0.18826229664E+02  0.32695696242E+02 -0.99111147068E+01  0.39008533312E+02  0.51100000000E-03 0.  1.
        -12    1    3    3    0    0  0.62049765888E+00 -0.62885949429E+00 -0.48071097924E-01  0.88475558133E+00  0.00000000000E+00 0.  1.
</event>
<event>
 7    1  0.2732193E-010  0.4778730E+02  0.7816164E-02  0.1312668E+00
        -11   -1    0    0    0    0  0.00000000000E+00  0.00000000000E+00  0.45593999997E+02  0.45594000000E+02  0.51100000000E-03 0. -1.
         11   -1    0    0    0    0 -0.00000000000E+00 -0.00000000000E+00 -0.45593999997E+02  0.45594000000E+02  0.51100000000E-03 0.  1.
    9900012    2    1    2    0    0  0.58530487290E+01 -0.48304338493E+01  0.42732070877E+02  0.47787295489E+02  0.20000111452E+02 0.  0.
        -12    1    1    2    0    0 -0.58530487290E+01  0.48304338493E+01 -0.42732070877E+02  0.43400704511E+02  0.00000000000E+00 0.  1.
         11    1    3    3    0    0 -0.42627250792E+01  0.49291485081E+01  0.97896608323E+01  0.11760305676E+02  0.51100000000E-03 0.  1.
        -11    1    3    3    0    0  0.91535377518E+01 -0.66822153176E+01  0.24678829533E+02  0.27156654475E+02  0.51100000000E-03 0. -1.
        -12    1    3    3    0    0  0.96223605632E+00 -0.30773670398E+01  0.82635805121E+01  0.88703353378E+01  0.00000000000E+00 0.  1.
</event>
<event>
 7    1  0.2732193E-010  0.4778727E+02  0.7816164E-02  0.1312668E+00
        -11   -1    0    0    0    0  0.00000000000E+00  0.00000000000E+00  0.45593999997E+02  0.45594000000E+02  0.51100000000E-03 0. -1.
         11   -1    0    0    0    0 -0.00000000000E+00 -0.00000000000E+00 -0.45593999997E+02  0.45594000000E+02  0.51100000000E-03 0.  1.
    9900012    2    1    2    0    0 -0.27028243155E+02  0.26623034520E+02  0.21078690266E+02  0.47787273296E+02  0.20000010268E+02 0.  0.
        -12    1    1    2    0    0  0.27028243155E+02 -0.26623034520E+02 -0.21078690266E+02  0.43400726704E+02  0.00000000000E+00 0.  1.
         11    1    3    3    0    0 -0.80306999071E+01  0.77997292872E+01  0.11103827180E+02  0.15767780321E+02  0.51100000000E-03 0. -1.
        -11    1    3    3    0    0  0.21661218591E+01  0.38427485800E+00 -0.85367013209E-01  0.22015991604E+01  0.51100000000E-03 0.  1.
        -12    1    3    3    0    0 -0.21163665107E+02  0.18439030374E+02  0.10060230099E+02  0.29817893815E+02  0.00000000000E+00 0.  1.
</event>
<event>
 7    1  0.2732193E-010  0.4778728E+02  0.7816164E-02  0.1312668E+00
        -11   -1    0    0    0    0  0.00000000000E+00  0.00000000000E+00  0.45593999997E+02  0.45594000000E+02  0.51100000000E-03 0.  1.
         11   -1    0    0    0    0 -0.00000000000E+00 -0.00000000000E+00 -0.45593999997E+02  0.45594000000E+02  0.51100000000E-03 0. -1.
    9900012    2    1    2    0    0 -0.11369299263E+02 -0.32024506867E+02 -0.26996162083E+02  0.47787276815E+02  0.20000026309E+02 0.  0.
        -12    1    1    2    0    0  0.11369299263E+02  0.32024506867E+02  0.26996162083E+02  0.43400723185E+02  0.00000000000E+00 0.  1.
         11    1    3    3    0    0  0.36675292413E+01 -0.16843844701E+02 -0.10461980371E+02  0.20164793789E+02  0.51100000000E-03 0. -1.
        -11    1    3    3    0    0 -0.41459055530E+00 -0.28264673080E+01 -0.12127984075E+01  0.31034952892E+01  0.51100000000E-03 0.  1.
         12    1    3    3    0    0 -0.14622237949E+02 -0.12354194859E+02 -0.15321383305E+02  0.24518987736E+02  0.00000000000E+00 0. -1.
</event>
<event>
 7    1  0.2732193E-010  0.4778727E+02  0.7816164E-02  0.1312668E+00
        -11   -1    0    0    0    0  0.00000000000E+00  0.00000000000E+00  0.45593999997E+02  0.45594000000E+02  0.51100000000E-03 0. -1.
         11   -1    0    0    0    0 -0.00000000000E+00 -0.00000000000E+00 -0.45593999997E+02  0.45594000000E+02  0.51100000000E-03 0.  1.
    9900012    2    1    2    0    0 -0.39227633337E+02  0.71359381425E+01 -0.17143354907E+02  0.47787269040E+02  0.19999990861E+02 0.  0.
        -12    1    1    2    0    0  0.39227633337E+02 -0.71359381425E+01  0.17143354907E+02  0.43400730960E+02  0.00000000000E+00 0.  1.
         11    1    3    3    0    0 -0.36512317182E+02  0.37288265558E+01 -0.99886284352E+01  0.38037168030E+02  0.51100000000E-03 0. -1.
        -11    1    3    3    0    0 -0.34250313490E+01  0.17286726319E+01 -0.69204798840E+01  0.79127865443E+01  0.51100000000E-03 0.  1.
         12    1    3    3    0    0  0.70971519392E+00  0.16784389548E+01 -0.23424658817E+00  0.18373144656E+01  0.00000000000E+00 0. -1.
</event>
<event>
 7    1  0.2732193E-010  0.4778727E+02  0.7816164E-02  0.1312668E+00
        -11   -1    0    0    0    0  0.00000000000E+00  0.00000000000E+00  0.45593999997E+02  0.45594000000E+02  0.51100000000E-03 0.  1.
         11   -1    0    0    0    0 -0.00000000000E+00 -0.00000000000E+00 -0.45593999997E+02  0.45594000000E+02  0.51100000000E-03 0. -1.
    9900012    2    1    2    0    0  0.36095746280E+02 -0.15685813532E+02 -0.18294152086E+02  0.47787266755E+02  0.19999980445E+02 0.  0.
        -12    1    1    2    0    0 -0.36095746280E+02  0.15685813532E+02  0.18294152086E+02  0.43400733245E+02  0.00000000000E+00 0.  1.
         11    1    3    3    0    0  0.19724849230E+02 -0.87984306668E+01 -0.27188165682E+01  0.21768647711E+02  0.51100000000E-03 0. -1.
        -11    1    3    3    0    0  0.15912001617E+02 -0.49468872954E+01 -0.16813170786E+02  0.23671632844E+02  0.51100000000E-03 0.  1.
        -12    1    3    3    0    0  0.45889543215E+00 -0.19404955698E+01  0.12378352685E+01  0.23469862006E+01  0.00000000000E+00 0.  1.
</event>
<event>
 7    1  0.2732193E-010  0.4778727E+02  0.7816164E-02  0.1312668E+00
        -11   -1    0    0    0    0  0.00000000000E+00  0.00000000000E+00  0.45593999997E+02  0.45594000000E+02  0.51100000000E-03 0.  1.
         11   -1    0    0    0    0 -0.00000000000E+00 -0.00000000000E+00 -0.45593999997E+02  0.45594000000E+02  0.51100000000E-03 0. -1.
    9900012    2    1    2    0    0  0.41666150765E+02  0.35783454300E+01 -0.11608210991E+02  0.47787271458E+02  0.20000001886E+02 0.  0.
        -12    1    1    2    0    0 -0.41666150765E+02 -0.35783454300E+01  0.11608210991E+02  0.43400728542E+02  0.00000000000E+00 0.  1.
         11    1    3    3    0    0  0.13102595027E+02  0.90907311712E+00 -0.97426724445E+01  0.16353106035E+02  0.51100000000E-03 0. -1.
        -11    1    3    3    0    0  0.23757051295E+02  0.71425344209E+01 -0.17081594657E+01  0.24866264158E+02  0.51100000000E-03 0.  1.
        -12    1    3    3    0    0  0.48065044434E+01 -0.44732621080E+01 -0.15737908050E+00  0.65679012649E+01  0.00000000000E+00 0.  1.
</event>
<event>
 7    1  0.2732193E-010  0.4778721E+02  0.7816164E-02  0.1312668E+00
        -11   -1    0    0    0    0  0.00000000000E+00  0.00000000000E+00  0.45593999997E+02  0.45594000000E+02  0.51100000000E-03 0. -1.
         11   -1    0    0    0    0 -0.00000000000E+00 -0.00000000000E+00 -0.45593999997E+02  0.45594000000E+02  0.51100000000E-03 0.  1.
    9900012    2    1    2    0    0  0.27084849572E+01 -0.28233957202E+02  0.32850214464E+02  0.47787207145E+02  0.19999708656E+02 0.  0.
        -12    1    1    2    0    0 -0.27084849572E+01  0.28233957202E+02 -0.32850214464E+02  0.43400792855E+02  0.00000000000E+00 0.  1.
         11    1    3    3    0    0 -0.20154671602E+01 -0.20151542264E+01  0.30639996168E+01  0.41846204539E+01  0.51100000000E-03 0. -1.
        -11    1    3    3    0    0 -0.20177278137E+01 -0.13758181104E+02  0.25074609506E+02  0.28672195851E+02  0.51100000000E-03 0.  1.
        -12    1    3    3    0    0  0.67416799312E+01 -0.12460621872E+02  0.47116053418E+01  0.14930390840E+02  0.00000000000E+00 0.  1.
</event>
<event>
 7    1  0.2732193E-010  0.4778727E+02  0.7816164E-02  0.1312668E+00
        -11   -1    0    0    0    0  0.00000000000E+00  0.00000000000E+00  0.45593999997E+02  0.45594000000E+02  0.51100000000E-03 0.  1.
         11   -1    0    0    0    0 -0.00000000000E+00 -0.00000000000E+00 -0.45593999997E+02  0.45594000000E+02  0.51100000000E-03 0. -1.
    9900012    2    1    2    0    0 -0.26672012929E+02  0.34888365505E+01 -0.34059575827E+02  0.47787274664E+02  0.20000016503E+02 0.  0.
        -12    1    1    2    0    0  0.26672012929E+02 -0.34888365505E+01  0.34059575827E+02  0.43400725336E+02  0.00000000000E+00 0.  1.
         11    1    3    3    0    0 -0.16489164151E+02  0.57609094424E+01 -0.28548210778E+02  0.33467610475E+02  0.51100000000E-03 0. -1.
        -11    1    3    3    0    0 -0.53446283112E+01  0.23923239094E+01 -0.38701147888E+00  0.58683936148E+01  0.51100000000E-03 0.  1.
         12    1    3    3    0    0 -0.48382204673E+01 -0.46643968013E+01 -0.51243535699E+01  0.84512705742E+01  0.00000000000E+00 0. -1.
</event>
<event>
 7    1  0.2732193E-010  0.4778727E+02  0.7816164E-02  0.1312668E+00
        -11   -1    0    0    0    0  0.00000000000E+00  0.00000000000E+00  0.45593999997E+02  0.45594000000E+02  0.51100000000E-03 0.  1.
         11   -1    0    0    0    0 -0.00000000000E+00 -0.00000000000E+00 -0.45593999997E+02  0.45594000000E+02  0.51100000000E-03 0. -1.
    9900012    2    1    2    0    0 -0.30576278241E+02 -0.30786571542E+02  0.94945811966E+00  0.47787271330E+02  0.20000001300E+02 0.  0.
        -12    1    1    2    0    0  0.30576278241E+02  0.30786571542E+02 -0.94945811966E+00  0.43400728670E+02  0.00000000000E+00 0.  1.
         11    1    3    3    0    0 -0.14476302684E+00  0.17311906932E+01  0.59652944679E+00  0.18367975371E+01  0.51100000000E-03 0.  1.
        -11    1    3    3    0    0 -0.17611290965E+02 -0.24875519125E+02  0.35560594542E+01  0.30685413152E+02  0.51100000000E-03 0. -1.
         12    1    3    3    0    0 -0.12820224249E+02 -0.76422431103E+01 -0.32031307813E+01  0.15265060641E+02  0.00000000000E+00 0. -1.
</event>
<event>
 7    1  0.2732193E-010  0.4778727E+02  0.7816164E-02  0.1312668E+00
        -11   -1    0    0    0    0  0.00000000000E+00  0.00000000000E+00  0.45593999997E+02  0.45594000000E+02  0.51100000000E-03 0. -1.
         11   -1    0    0    0    0 -0.00000000000E+00 -0.00000000000E+00 -0.45593999997E+02  0.45594000000E+02  0.51100000000E-03 0.  1.
    9900012    2    1    2    0    0 -0.11519101019E+01 -0.12875236498E+02  0.41430965122E+02  0.47787268638E+02  0.19999989029E+02 0.  0.
        -12    1    1    2    0    0  0.11519101019E+01  0.12875236498E+02 -0.41430965122E+02  0.43400731362E+02  0.00000000000E+00 0.  1.
         11    1    3    3    0    0  0.15877129851E+01 -0.17461967741E+01  0.77406136075E+01  0.80924121854E+01  0.51100000000E-03 0.  1.
        -11    1    3    3    0    0 -0.50403604247E+00 -0.67549331207E+00  0.27149563436E+02  0.27162642334E+02  0.51100000000E-03 0. -1.
        -12    1    3    3    0    0 -0.22355870445E+01 -0.10453546412E+02  0.65407880792E+01  0.12532214119E+02  0.00000000000E+00 0.  1.
</event>
<event>
 7    1  0.2732193E-010  0.4778727E+02  0.7816164E-02  0.1312668E+00
        -11   -1    0    0    0    0  0.00000000000E+00  0.00000000000E+00  0.45593999997E+02  0.45594000000E+02  0.51100000000E-03 0.  1.
         11   -1    0    0    0    0 -0.00000000000E+00 -0.00000000000E+00 -0.45593999997E+02  0.45594000000E+02  0.51100000000E-03 0. -1.
    9900012    2    1    2    0    0  0.36434668939E+01  0.43146052089E+02 -0.29608639619E+01  0.47787269853E+02  0.19999994569E+02 0.  0.
        -12    1    1    2    0    0 -0.36434668939E+01 -0.43146052089E+02  0.29608639619E+01  0.43400730147E+02  0.00000000000E+00 0.  1.
         11    1    3    3    0    0  0.55092928206E+01  0.33261805167E+01 -0.32778888275E+01  0.72222115477E+01  0.51100000000E-03 0. -1.
        -11    1    3    3    0    0  0.11438146616E+01  0.63863972895E+01 -0.23263474640E+01  0.68924796049E+01  0.51100000000E-03 0.  1.
         12    1    3    3    0    0 -0.30096405882E+01  0.33433474283E+02  0.26433723296E+01  0.33672578701E+02  0.00000000000E+00 0. -1.
</event>
<event>
 7    1  0.2732193E-010  0.4778726E+02  0.7816164E-02  0.1312668E+00
        -11   -1    0    0    0    0  0.00000000000E+00  0.00000000000E+00  0.45593999997E+02  0.45594000000E+02  0.51100000000E-03 0.  1.
         11   -1    0    0    0    0 -0.00000000000E+00 -0.00000000000E+00 -0.45593999997E+02  0.45594000000E+02  0.51100000000E-03 0. -1.
    9900012    2    1    2    0    0 -0.15681131776E+01 -0.39950025240E+02 -0.16886713503E+02  0.47787255899E+02  0.19999930945E+02 0.  0.
        -12    1    1    2    0    0  0.15681131776E+01  0.39950025240E+02  0.16886713503E+02  0.43400744101E+02  0.00000000000E+00 0.  1.
         11    1    3    3    0    0 -0.53204118171E+01 -0.38008482414E+01 -0.60593866988E+01  0.89145609361E+01  0.51100000000E-03 0. -1.
        -11    1    3    3    0    0  0.37864050704E+01 -0.26842054803E+02 -0.41630886378E+01  0.27425609868E+02  0.51100000000E-03 0.  1.
         12    1    3    3    0    0 -0.34106430852E-01 -0.93071221960E+01 -0.66642381663E+01  0.11447085094E+02  0.00000000000E+00 0. -1.
</event>
<event>
 7    1  0.2732193E-010  0.4778727E+02  0.7816164E-02  0.1312668E+00
        -11   -1    0    0    0    0  0.00000000000E+00  0.00000000000E+00  0.45593999997E+02  0.45594000000E+02  0.51100000000E-03 0.  1.
         11   -1    0    0    0    0 -0.00000000000E+00 -0.00000000000E+00 -0.45593999997E+02  0.45594000000E+02  0.51100000000E-03 0. -1.
    9900012    2    1    2    0    0 -0.47795828923E+01  0.37701208488E+02 -0.20961822267E+02  0.47787268130E+02  0.19999986711E+02 0.  0.
        -12    1    1    2    0    0  0.47795828923E+01 -0.37701208488E+02  0.20961822267E+02  0.43400731870E+02  0.00000000000E+00 0.  1.
         11    1    3    3    0    0 -0.10169189398E+02  0.16102520078E+02 -0.10553192450E+02  0.21773227528E+02  0.51100000000E-03 0. -1.
        -11    1    3    3    0    0  0.23960506801E+01  0.66253408253E+01  0.77374409231E+00  0.70876568832E+01  0.51100000000E-03 0.  1.
         12    1    3    3    0    0  0.29935558253E+01  0.14973347585E+02 -0.11182373910E+02  0.18926383718E+02  0.00000000000E+00 0. -1.
</event>
<event>
 7    1  0.2732193E-010  0.4778727E+02  0.7816164E-02  0.1312668E+00
        -11   -1    0    0    0    0  0.00000000000E+00  0.00000000000E+00  0.45593999997E+02  0.45594000000E+02  0.51100000000E-03 0.  1.
         11   -1    0    0    0    0 -0.00000000000E+00 -0.00000000000E+00 -0.45593999997E+02  0.45594000000E+02  0.51100000000E-03 0. -1.
    9900012    2    1    2    0    0 -0.22961258030E+02 -0.61201208889E+01 -0.36317325025E+02  0.47787270202E+02  0.19999996158E+02 0.  0.
        -12    1    1    2    0    0  0.22961258030E+02  0.61201208889E+01  0.36317325025E+02  0.43400729798E+02  0.00000000000E+00 0.  1.
         11    1    3    3    0    0 -0.16549917840E+02 -0.70638874611E+01 -0.22193970922E+02  0.28572200337E+02  0.51100000000E-03 0. -1.
        -11    1    3    3    0    0 -0.41082635587E+01 -0.45979766471E+01 -0.37095840099E+01  0.71958482824E+01  0.51100000000E-03 0.  1.
         12    1    3    3    0    0 -0.23030766313E+01  0.55417432194E+01 -0.10413770094E+02  0.12019221582E+02  0.00000000000E+00 0. -1.
</event>
<event>
 7    1  0.2732193E-010  0.4778728E+02  0.7816164E-02  0.1312668E+00
        -11   -1    0    0    0    0  0.00000000000E+00  0.00000000000E+00  0.45593999997E+02  0.45594000000E+02  0.51100000000E-03 0. -1.
         11   -1    0    0    0    0 -0.00000000000E+00 -0.00000000000E+00 -0.45593999997E+02  0.45594000000E+02  0.51100000000E-03 0.  1.
    9900012    2    1    2    0    0 -0.81157068056E+01 -0.42361461261E+02  0.48233452798E+01  0.47787277001E+02  0.20000027160E+02 0.  0.
        -12    1    1    2    0    0  0.81157068056E+01  0.42361461261E+02 -0.48233452798E+01  0.43400722999E+02  0.00000000000E+00 0.  1.
         11    1    3    3    0    0 -0.10219707544E+02 -0.36316209811E+02  0.71859081422E+01  0.38405036042E+02  0.51100000000E-03 0. -1.
        -11    1    3    3    0    0  0.12607738534E+01  0.10196880429E+01  0.52376174863E+00  0.17040073487E+01  0.51100000000E-03 0.  1.
         12    1    3    3    0    0  0.84322688470E+00 -0.70649394927E+01 -0.28863246111E+01  0.76782336104E+01  0.00000000000E+00 0. -1.
</event>
<event>
 7    1  0.2732193E-010  0.4778729E+02  0.7816164E-02  0.1312668E+00
        -11   -1    0    0    0    0  0.00000000000E+00  0.00000000000E+00  0.45593999997E+02  0.45594000000E+02  0.51100000000E-03 0. -1.
         11   -1    0    0    0    0 -0.00000000000E+00 -0.00000000000E+00 -0.45593999997E+02  0.45594000000E+02  0.51100000000E-03 0.  1.
    9900012    2    1    2    0    0  0.39107850453E+02 -0.17130525697E+02  0.77937594649E+01  0.47787290740E+02  0.20000089800E+02 0.  0.
        -12    1    1    2    0    0 -0.39107850453E+02  0.17130525697E+02 -0.77937594649E+01  0.43400709260E+02  0.00000000000E+00 0.  1.
         11    1    3    3    0    0  0.17674666632E+02 -0.42956129302E+01  0.72151025116E+01  0.19567928749E+02  0.51100000000E-03 0. -1.
        -11    1    3    3    0    0 -0.10454959573E+01 -0.14391959731E+01 -0.22395192780E+01  0.28600338640E+01  0.51100000000E-03 0.  1.
        -12    1    3    3    0    0  0.22478679778E+02 -0.11395716793E+02  0.28181762314E+01  0.25359328127E+02  0.00000000000E+00 0.  1.
</event>
<event>
 7    1  0.2732193E-010  0.4778728E+02  0.7816164E-02  0.1312668E+00
        -11   -1    0    0    0    0  0.00000000000E+00  0.00000000000E+00  0.45593999997E+02  0.45594000000E+02  0.51100000000E-03 0.  1.
         11   -1    0    0    0    0 -0.00000000000E+00 -0.00000000000E+00 -0.45593999997E+02  0.45594000000E+02  0.51100000000E-03 0. -1.
    9900012    2    1    2    0    0 -0.45989085688E+01  0.42323816093E+02 -0.84360738821E+01  0.47787277526E+02  0.20000029553E+02 0.  0.
        -12    1    1    2    0    0  0.45989085688E+01 -0.42323816093E+02  0.84360738821E+01  0.43400722474E+02  0.00000000000E+00 0.  1.
         11    1    3    3    0    0  0.35347189516E+01  0.11106563336E+02 -0.73726661225E+01  0.13791526138E+02  0.51100000000E-03 0. -1.
        -11    1    3    3    0    0 -0.50367506261E+01  0.13558860946E+02  0.46273941195E+01  0.15186320938E+02  0.51100000000E-03 0.  1.
         12    1    3    3    0    0 -0.30968768943E+01  0.17658391810E+02 -0.56908018791E+01  0.18809430450E+02  0.00000000000E+00 0. -1.
</event>
<event>
 7    1  0.2732193E-010  0.4778728E+02  0.7816164E-02  0.1312668E+00
        -11   -1    0    0    0    0  0.00000000000E+00  0.00000000000E+00  0.45593999997E+02  0.45594000000E+02  0.51100000000E-03 0.  1.
         11   -1    0    0    0    0 -0.00000000000E+00 -0.00000000000E+00 -0.45593999997E+02  0.45594000000E+02  0.51100000000E-03 0. -1.
    9900012    2    1    2    0    0 -0.40083147676E+02 -0.52609117797E+01 -0.15788825203E+02  0.47787275102E+02  0.20000018501E+02 0.  0.
        -12    1    1    2    0    0  0.40083147676E+02  0.52609117797E+01  0.15788825203E+02  0.43400724898E+02  0.00000000000E+00 0.  1.
         11    1    3    3    0    0 -0.32720003864E+00 -0.47304745757E+01 -0.15650463534E+01  0.49933776070E+01  0.51100000000E-03 0.  1.
        -11    1    3    3    0    0 -0.19612745954E+02 -0.11262739323E+01 -0.34601012667E+01  0.19947445899E+02  0.51100000000E-03 0. -1.
         12    1    3    3    0    0 -0.20143201683E+02  0.59583672831E+00 -0.10763677583E+02  0.22846451597E+02  0.00000000000E+00 0. -1.
</event>
<event>
 7    1  0.2732193E-010  0.4778727E+02  0.7816164E-02  0.1312668E+00
        -11   -1    0    0    0    0  0.00000000000E+00  0.00000000000E+00  0.45593999997E+02  0.45594000000E+02  0.51100000000E-03 0.  1.
         11   -1    0    0    0    0 -0.00000000000E+00 -0.00000000000E+00 -0.45593999997E+02  0.45594000000E+02  0.51100000000E-03 0. -1.
    9900012    2    1    2    0    0 -0.12525284928E+02  0.28663637052E+02 -0.30085489165E+02  0.47787268326E+02  0.19999987607E+02 0.  0.
        -12    1    1    2    0    0  0.12525284928E+02 -0.28663637052E+02  0.30085489165E+02  0.43400731674E+02  0.00000000000E+00 0.  1.
         11    1    3    3    0    0 -0.11895398676E+02  0.17608542163E+02 -0.21810272780E+02  0.30450767901E+02  0.51100000000E-03 0. -1.
        -11    1    3    3    0    0  0.17209089102E+01 -0.77369115817E+00  0.98764942302E+00  0.21296894444E+01  0.51100000000E-03 0.  1.
         12    1    3    3    0    0 -0.23507951618E+01  0.11828786047E+02 -0.92628658075E+01  0.15206810981E+02  0.00000000000E+00 0. -1.
</event>
<event>
 7    1  0.2732193E-010  0.4778727E+02  0.7816164E-02  0.1312668E+00
        -11   -1    0    0    0    0  0.00000000000E+00  0.00000000000E+00  0.45593999997E+02  0.45594000000E+02  0.51100000000E-03 0.  1.
         11   -1    0    0    0    0 -0.00000000000E+00 -0.00000000000E+00 -0.45593999997E+02  0.45594000000E+02  0.51100000000E-03 0. -1.
    9900012    2    1    2    0    0 -0.17799713591E+02  0.33023740169E+02 -0.21822600072E+02  0.47787273133E+02  0.20000009523E+02 0.  0.
        -12    1    1    2    0    0  0.17799713591E+02 -0.33023740169E+02  0.21822600072E+02  0.43400726867E+02  0.00000000000E+00 0.  1.
         11    1    3    3    0    0 -0.69334694920E+01  0.23489343735E+02 -0.10544869634E+02  0.26664893477E+02  0.51100000000E-03 0. -1.
        -11    1    3    3    0    0  0.12626201977E+01  0.90636038809E-03 -0.37495245268E+01  0.39564055686E+01  0.51100000000E-03 0.  1.
         12    1    3    3    0    0 -0.12128864297E+02  0.95334900739E+01 -0.75282059111E+01  0.17165974087E+02  0.00000000000E+00 0. -1.
</event>
<event>
 7    1  0.2732193E-010  0.4778722E+02  0.7816164E-02  0.1312668E+00
        -11   -1    0    0    0    0  0.00000000000E+00  0.00000000000E+00  0.45593999997E+02  0.45594000000E+02  0.51100000000E-03 0.  1.
         11   -1    0    0    0    0 -0.00000000000E+00 -0.00000000000E+00 -0.45593999997E+02  0.45594000000E+02  0.51100000000E-03 0. -1.
    9900012    2    1    2    0    0  0.12543509205E+02  0.95636435174E+00 -0.41537613578E+02  0.47787221231E+02  0.19999772881E+02 0.  0.
        -12    1    1    2    0    0 -0.12543509205E+02 -0.95636435174E+00  0.41537613578E+02  0.43400778769E+02  0.00000000000E+00 0.  1.
         11    1    3    3    0    0  0.46555937519E+01 -0.18973910262E+01 -0.34893743003E+01  0.61196714910E+01  0.51100000000E-03 0. -1.
        -11    1    3    3    0    0  0.11589404656E+02  0.48465913703E+01 -0.25355023712E+02  0.28296306754E+02  0.51100000000E-03 0.  1.
        -12    1    3    3    0    0 -0.37014892030E+01 -0.19928359924E+01 -0.12693215566E+02  0.13371242987E+02  0.00000000000E+00 0.  1.
</event>
<event>
 7    1  0.2732193E-010  0.4778727E+02  0.7816164E-02  0.1312668E+00
        -11   -1    0    0    0    0  0.00000000000E+00  0.00000000000E+00  0.45593999997E+02  0.45594000000E+02  0.51100000000E-03 0. -1.
         11   -1    0    0    0    0 -0.00000000000E+00 -0.00000000000E+00 -0.45593999997E+02  0.45594000000E+02  0.51100000000E-03 0.  1.
    9900012    2    1    2    0    0  0.47169704756E+01 -0.36364307698E+02  0.23216599759E+02  0.47787272020E+02  0.20000004448E+02 0.  0.
        -12    1    1    2    0    0 -0.47169704756E+01  0.36364307698E+02 -0.23216599759E+02  0.43400727980E+02  0.00000000000E+00 0.  1.
         11    1    3    3    0    0  0.69370122328E+01 -0.15477016758E+02  0.17795746019E+02  0.24583505916E+02  0.51100000000E-03 0. -1.
        -11    1    3    3    0    0 -0.23820129140E+01 -0.19811902126E+02  0.25290266930E+01  0.20114209595E+02  0.51100000000E-03 0.  1.
        -12    1    3    3    0    0  0.16197115675E+00 -0.10753888139E+01  0.28918270464E+01  0.30895565091E+01  0.00000000000E+00 0.  1.
</event>
<event>
 7    1  0.2732193E-010  0.4778727E+02  0.7816164E-02  0.1312668E+00
        -11   -1    0    0    0    0  0.00000000000E+00  0.00000000000E+00  0.45593999997E+02  0.45594000000E+02  0.51100000000E-03 0.  1.
         11   -1    0    0    0    0 -0.00000000000E+00 -0.00000000000E+00 -0.45593999997E+02  0.45594000000E+02  0.51100000000E-03 0. -1.
    9900012    2    1    2    0    0  0.38428740364E+02  0.15727999664E+02 -0.12628741561E+02  0.47787272209E+02  0.20000005308E+02 0.  0.
        -12    1    1    2    0    0 -0.38428740364E+02 -0.15727999664E+02  0.12628741561E+02  0.43400727791E+02  0.00000000000E+00 0.  1.
         11    1    3    3    0    0 -0.21965405625E+00 -0.16766351754E+01 -0.26447043584E+01  0.31390786579E+01  0.51100000000E-03 0. -1.
        -11    1    3    3    0    0  0.30791540331E+02  0.10423121221E+02 -0.45772924566E+01  0.32828524463E+02  0.51100000000E-03 0.  1.
        -12    1    3    3    0    0  0.78568540893E+01  0.69815136189E+01 -0.54067447459E+01  0.11819669088E+02  0.00000000000E+00 0.  1.
</event>
<event>
 7    1  0.2732193E-010  0.4778728E+02  0.7816164E-02  0.1312668E+00
        -11   -1    0    0    0    0  0.00000000000E+00  0.00000000000E+00  0.45593999997E+02  0.45594000000E+02  0.51100000000E-03 0.  1.
         11   -1    0    0    0    0 -0.00000000000E+00 -0.00000000000E+00 -0.45593999997E+02  0.45594000000E+02  0.51100000000E-03 0. -1.
    9900012    2    1    2    0    0  0.10540671649E+02 -0.10937191360E+02 -0.40655804437E+02  0.47787281710E+02  0.20000048628E+02 0.  0.
        -12    1    1    2    0    0 -0.10540671649E+02  0.10937191360E+02  0.40655804437E+02  0.43400718290E+02  0.00000000000E+00 0.  1.
         11    1    3    3    0    0  0.20194018411E+01  0.31575468604E+01 -0.16797342573E+02  0.17210427181E+02  0.51100000000E-03 0. -1.
        -11    1    3    3    0    0  0.33005793619E+01 -0.37014500646E+01 -0.11920449573E+01  0.51005419464E+01  0.51100000000E-03 0.  1.
         12    1    3    3    0    0  0.52206904456E+01 -0.10393288155E+02 -0.22666416907E+02  0.25476312583E+02  0.00000000000E+00 0. -1.
</event>
<event>
 7    1  0.2732193E-010  0.4778727E+02  0.7816164E-02  0.1312668E+00
        -11   -1    0    0    0    0  0.00000000000E+00  0.00000000000E+00  0.45593999997E+02  0.45594000000E+02  0.51100000000E-03 0. -1.
         11   -1    0    0    0    0 -0.00000000000E+00 -0.00000000000E+00 -0.45593999997E+02  0.45594000000E+02  0.51100000000E-03 0.  1.
    9900012    2    1    2    0    0  0.35992238837E+02 -0.22827720009E+02  0.81900995319E+01  0.47787265125E+02  0.19999973013E+02 0.  0.
        -12    1    1    2    0    0 -0.35992238837E+02  0.22827720009E+02 -0.81900995319E+01  0.43400734875E+02  0.00000000000E+00 0.  1.
         11    1    3    3    0    0  0.96819594205E+01 -0.60261140431E+01  0.10469079737E+02  0.15480827480E+02  0.51100000000E-03 0. -1.
        -11    1    3    3    0    0  0.26586161789E+02 -0.15252396429E+02 -0.20946433857E+01  0.30722095089E+02  0.51100000000E-03 0.  1.
        -12    1    3    3    0    0 -0.27588237224E+00 -0.15492095366E+01 -0.18433681921E+00  0.15843425559E+01  0.00000000000E+00 0.  1.
</event>
<event>
 7    1  0.2732193E-010  0.4778726E+02  0.7816164E-02  0.1312668E+00
        -11   -1    0    0    0    0  0.00000000000E+00  0.00000000000E+00  0.45593999997E+02  0.45594000000E+02  0.51100000000E-03 0. -1.
         11   -1    0    0    0    0 -0.00000000000E+00 -0.00000000000E+00 -0.45593999997E+02  0.45594000000E+02  0.51100000000E-03 0.  1.
    9900012    2    1    2    0    0 -0.28079009821E+02 -0.32895361225E+02  0.36178637099E+01  0.47787256683E+02  0.19999934519E+02 0.  0.
        -12    1    1    2    0    0  0.28079009821E+02  0.32895361225E+02 -0.36178637099E+01  0.43400743317E+02  0.00000000000E+00 0.  1.
         11    1    3    3    0    0 -0.11761958524E+02 -0.69486139542E+01  0.84186751089E+01  0.16046837540E+02  0.51100000000E-03 0. -1.
        -11    1    3    3    0    0 -0.12053119419E+02 -0.14408508550E+02 -0.49952452881E+01  0.19437985547E+02  0.51100000000E-03 0.  1.
         12    1    3    3    0    0 -0.42639318791E+01 -0.11538238721E+02  0.19443388903E+00  0.12302433596E+02  0.00000000000E+00 0. -1.
</event>
<event>
 7    1  0.2732193E-010  0.4778727E+02  0.7816164E-02  0.1312668E+00
        -11   -1    0    0    0    0  0.00000000000E+00  0.00000000000E+00  0.45593999997E+02  0.45594000000E+02  0.51100000000E-03 0. -1.
         11   -1    0    0    0    0 -0.00000000000E+00 -0.00000000000E+00 -0.45593999997E+02  0.45594000000E+02  0.51100000000E-03 0.  1.
    9900012    2    1    2    0    0 -0.32142154689E+02  0.60294529165E+00  0.29157193993E+02  0.47787267142E+02  0.19999982206E+02 0.  0.
        -12    1    1    2    0    0  0.32142154689E+02 -0.60294529165E+00 -0.29157193993E+02  0.43400732858E+02  0.00000000000E+00 0.  1.
         11    1    3    3    0    0 -0.33001003112E+02 -0.14908024753E+01  0.26093723500E+02  0.42097162669E+02  0.51100000000E-03 0. -1.
        -11    1    3    3    0    0  0.19762979334E+01 -0.13871937251E+00  0.36605828103E+00  0.20146948931E+01  0.51100000000E-03 0.  1.
         12    1    3    3    0    0 -0.11174495106E+01  0.22324671395E+01  0.26974122118E+01  0.36754095796E+01  0.00000000000E+00 0. -1.
</event>
<event>
 7    1  0.2732193E-010  0.4778726E+02  0.7816164E-02  0.1312668E+00
        -11   -1    0    0    0    0  0.00000000000E+00  0.00000000000E+00  0.45593999997E+02  0.45594000000E+02  0.51100000000E-03 0.  1.
         11   -1    0    0    0    0 -0.00000000000E+00 -0.00000000000E+00 -0.45593999997E+02  0.45594000000E+02  0.51100000000E-03 0. -1.
    9900012    2    1    2    0    0 -0.45090033595E+01 -0.27691993736E+02 -0.33112629706E+02  0.47787264126E+02  0.19999968458E+02 0.  0.
        -12    1    1    2    0    0  0.45090033595E+01  0.27691993736E+02  0.33112629706E+02  0.43400735874E+02  0.00000000000E+00 0.  1.
         11    1    3    3    0    0  0.43194665162E+01 -0.10248995564E+02 -0.88522390090E+01  0.14214845647E+02  0.51100000000E-03 0. -1.
        -11    1    3    3    0    0 -0.83413559102E+01 -0.18993792005E+02 -0.24294856947E+02  0.31946555800E+02  0.51100000000E-03 0.  1.
        -12    1    3    3    0    0 -0.48711396555E+00  0.15507938328E+01  0.34466250876E-01  0.16258626786E+01  0.00000000000E+00 0.  1.
</event>
<event>
 7    1  0.2732193E-010  0.4778728E+02  0.7816164E-02  0.1312668E+00
        -11   -1    0    0    0    0  0.00000000000E+00  0.00000000000E+00  0.45593999997E+02  0.45594000000E+02  0.51100000000E-03 0. -1.
         11   -1    0    0    0    0 -0.00000000000E+00 -0.00000000000E+00 -0.45593999997E+02  0.45594000000E+02  0.51100000000E-03 0.  1.
    9900012    2    1    2    0    0 -0.21875227872E+02 -0.37376655419E+02  0.28430505998E+01  0.47787275335E+02  0.20000019562E+02 0.  0.
        -12    1    1    2    0    0  0.21875227872E+02  0.37376655419E+02 -0.28430505998E+01  0.43400724665E+02  0.00000000000E+00 0.  1.
         11    1    3    3    0    0 -0.78188293932E+00 -0.19353442240E+02  0.42958272287E+01  0.19839889095E+02  0.51100000000E-03 0. -1.
        -11    1    3    3    0    0 -0.15726080397E+00  0.89643063497E-01 -0.14627554318E+00  0.23273082080E+00  0.51100000000E-03 0.  1.
         12    1    3    3    0    0 -0.20936084129E+02 -0.18112856242E+02 -0.13065010858E+01  0.27714655419E+02  0.00000000000E+00 0. -1.
</event>
<event>
 7    1  0.2732193E-010  0.4778727E+02  0.7816164E-02  0.1312668E+00
        -11   -1    0    0    0    0  0.00000000000E+00  0.00000000000E+00  0.45593999997E+02  0.45594000000E+02  0.51100000000E-03 0.  1.
         11   -1    0    0    0    0 -0.00000000000E+00 -0.00000000000E+00 -0.45593999997E+02  0.45594000000E+02  0.51100000000E-03 0. -1.
    9900012    2    1    2    0    0  0.24549864123E+01  0.13420490382E+02 -0.41200568803E+02  0.47787269706E+02  0.19999993896E+02 0.  0.
        -12    1    1    2    0    0 -0.24549864123E+01 -0.13420490382E+02  0.41200568803E+02  0.43400730294E+02  0.00000000000E+00 0.  1.
         11    1    3    3    0    0 -0.24138648444E+01  0.93165024164E+01 -0.10612905908E+02  0.14326818657E+02  0.51100000000E-03 0. -1.
        -11    1    3    3    0    0  0.67734877947E-01  0.39453351685E+01 -0.27428770142E+02  0.27711147385E+02  0.51100000000E-03 0.  1.
        -12    1    3    3    0    0  0.48011163787E+01  0.15865279753E+00 -0.31588927526E+01  0.57493036634E+01  0.00000000000E+00 0.  1.
</event>
<event>
 7    1  0.2732193E-010  0.4778728E+02  0.7816164E-02  0.1312668E+00
        -11   -1    0    0    0    0  0.00000000000E+00  0.00000000000E+00  0.45593999997E+02  0.45594000000E+02  0.51100000000E-03 0.  1.
         11   -1    0    0    0    0 -0.00000000000E+00 -0.00000000000E+00 -0.45593999997E+02  0.45594000000E+02  0.51100000000E-03 0. -1.
    9900012    2    1    2    0    0  0.14739754100E+02  0.31807580765E+02 -0.25585933521E+02  0.47787279508E+02  0.20000038591E+02 0.  0.
        -12    1    1    2    0    0 -0.14739754100E+02 -0.31807580765E+02  0.25585933521E+02  0.43400720492E+02  0.00000000000E+00 0.  1.
         11    1    3    3    0    0  0.32732877026E+01  0.19861409227E+02 -0.17826273149E+02  0.26888027141E+02  0.51100000000E-03 0. -1.
        -11    1    3    3    0    0  0.83477664094E+01  0.10353148052E+02 -0.10089161731E+02  0.16693234058E+02  0.51100000000E-03 0.  1.
         12    1    3    3    0    0  0.31186999881E+01  0.15930234854E+01  0.23295013590E+01  0.42060183098E+01  0.00000000000E+00 0. -1.
</event>
<event>
 7    1  0.2732193E-010  0.4778727E+02  0.7816164E-02  0.1312668E+00
        -11   -1    0    0    0    0  0.00000000000E+00  0.00000000000E+00  0.45593999997E+02  0.45594000000E+02  0.51100000000E-03 0.  1.
         11   -1    0    0    0    0 -0.00000000000E+00 -0.00000000000E+00 -0.45593999997E+02  0.45594000000E+02  0.51100000000E-03 0. -1.
    9900012    2    1    2    0    0 -0.24595928867E+02 -0.28407246689E+02 -0.21718471076E+02  0.47787269969E+02  0.19999995098E+02 0.  0.
        -12    1    1    2    0    0  0.24595928867E+02  0.28407246689E+02  0.21718471076E+02  0.43400730031E+02  0.00000000000E+00 0.  1.
         11    1    3    3    0    0 -0.82176441780E+01 -0.13040189320E+02 -0.17417448715E+02  0.23258197122E+02  0.51100000000E-03 0. -1.
        -11    1    3    3    0    0 -0.16992157715E+02 -0.14719117147E+02 -0.26293389075E+01  0.22634028734E+02  0.51100000000E-03 0.  1.
        -12    1    3    3    0    0  0.61387302520E+00 -0.64794022164E+00 -0.16716834537E+01  0.18950441133E+01  0.00000000000E+00 0.  1.
</event>
<event>
 7    1  0.2732193E-010  0.4778727E+02  0.7816164E-02  0.1312668E+00
        -11   -1    0    0    0    0  0.00000000000E+00  0.00000000000E+00  0.45593999997E+02  0.45594000000E+02  0.51100000000E-03 0. -1.
         11   -1    0    0    0    0 -0.00000000000E+00 -0.00000000000E+00 -0.45593999997E+02  0.45594000000E+02  0.51100000000E-03 0.  1.
    9900012    2    1    2    0    0  0.12946242094E+02 -0.19250847231E+02  0.36680006846E+02  0.47787271830E+02  0.20000003582E+02 0.  0.
        -12    1    1    2    0    0 -0.12946242094E+02  0.19250847231E+02 -0.36680006846E+02  0.43400728170E+02  0.00000000000E+00 0.  1.
         11    1    3    3    0    0  0.72645026795E+01 -0.17447474397E+02  0.16746102211E+02  0.25251124758E+02  0.51100000000E-03 0. -1.
        -11    1    3    3    0    0  0.70317480712E+01  0.12220830732E+01  0.14714548710E+02  0.16354109941E+02  0.51100000000E-03 0.  1.
         12    1    3    3    0    0 -0.13500086566E+01 -0.30254559073E+01  0.52193559248E+01  0.61820371310E+01  0.00000000000E+00 0. -1.
</event>
<event>
 7    1  0.2732193E-010  0.4778727E+02  0.7816164E-02  0.1312668E+00
        -11   -1    0    0    0    0  0.00000000000E+00  0.00000000000E+00  0.45593999997E+02  0.45594000000E+02  0.51100000000E-03 0.  1.
         11   -1    0    0    0    0 -0.00000000000E+00 -0.00000000000E+00 -0.45593999997E+02  0.45594000000E+02  0.51100000000E-03 0. -1.
    9900012    2    1    2    0    0  0.22244416592E+01  0.66133223415E+00 -0.43338641540E+02  0.47787270150E+02  0.19999995920E+02 0.  0.
        -12    1    1    2    0    0 -0.22244416592E+01 -0.66133223415E+00  0.43338641540E+02  0.43400729850E+02  0.00000000000E+00 0.  1.
         11    1    3    3    0    0  0.45777495077E+01  0.26395240490E+01 -0.53114493067E+01  0.74922874851E+01  0.51100000000E-03 0. -1.
        -11    1    3    3    0    0 -0.57725542703E+01 -0.58097905284E+01 -0.23035537454E+02  0.24448149927E+02  0.51100000000E-03 0.  1.
         12    1    3    3    0    0  0.34192464218E+01  0.38315987136E+01 -0.14991654779E+02  0.15846832737E+02  0.00000000000E+00 0. -1.
</event>
<event>
 7    1  0.2732193E-010  0.4778726E+02  0.7816164E-02  0.1312668E+00
        -11   -1    0    0    0    0  0.00000000000E+00  0.00000000000E+00  0.45593999997E+02  0.45594000000E+02  0.51100000000E-03 0.  1.
         11   -1    0    0    0    0 -0.00000000000E+00 -0.00000000000E+00 -0.45593999997E+02  0.45594000000E+02  0.51100000000E-03 0. -1.
    9900012    2    1    2    0    0  0.10112465275E+01  0.42874026087E+02  0.66648151346E+01  0.47787256997E+02  0.19999935951E+02 0.  0.
        -12    1    1    2    0    0 -0.10112465275E+01 -0.42874026087E+02 -0.66648151346E+01  0.43400743003E+02  0.00000000000E+00 0.  1.
         11    1    3    3    0    0  0.93282534193E+00  0.38102692089E+00 -0.20130976839E+01  0.22512012746E+01  0.51100000000E-03 0. -1.
        -11    1    3    3    0    0  0.49527493490E+01  0.33028492394E+02  0.98646889359E+01  0.34824174420E+02  0.51100000000E-03 0.  1.
        -12    1    3    3    0    0 -0.48743281634E+01  0.94645067718E+01 -0.11867761175E+01  0.10711881302E+02  0.00000000000E+00 0.  1.
</event>
<event>
 7    1  0.2732193E-010  0.4778727E+02  0.7816164E-02  0.1312668E+00
        -11   -1    0    0    0    0  0.00000000000E+00  0.00000000000E+00  0.45593999997E+02  0.45594000000E+02  0.51100000000E-03 0. -1.
         11   -1    0    0    0    0 -0.00000000000E+00 -0.00000000000E+00 -0.45593999997E+02  0.45594000000E+02  0.51100000000E-03 0.  1.
    9900012    2    1    2    0    0  0.23769506571E+02 -0.31689445920E+02  0.17731684773E+02  0.47787273390E+02  0.20000010694E+02 0.  0.
        -12    1    1    2    0    0 -0.23769506571E+02  0.31689445920E+02 -0.17731684773E+02  0.43400726610E+02  0.00000000000E+00 0.  1.
         11    1    3    3    0    0  0.18480377870E+01 -0.46728120295E+01  0.60927407822E+01  0.78975886463E+01  0.51100000000E-03 0. -1.
        -11    1    3    3    0    0  0.16452607083E+02 -0.24627565069E+02  0.14829106064E+02  0.33122615053E+02  0.51100000000E-03 0.  1.
        -12    1    3    3    0    0  0.54688617015E+01 -0.23890688218E+01 -0.31901620725E+01  0.67670696903E+01  0.00000000000E+00 0.  1.
</event>
<event>
 7    1  0.2732193E-010  0.4778727E+02  0.7816164E-02  0.1312668E+00
        -11   -1    0    0    0    0  0.00000000000E+00  0.00000000000E+00  0.45593999997E+02  0.45594000000E+02  0.51100000000E-03 0.  1.
         11   -1    0    0    0    0 -0.00000000000E+00 -0.00000000000E+00 -0.45593999997E+02  0.45594000000E+02  0.51100000000E-03 0. -1.
    9900012    2    1    2    0    0 -0.44343319715E+00 -0.16266032058E+02 -0.40234843250E+02  0.47787273701E+02  0.20000012112E+02 0.  0.
        -12    1    1    2    0    0  0.44343319715E+00  0.16266032058E+02  0.40234843250E+02  0.43400726299E+02  0.00000000000E+00 0.  1.
         11    1    3    3    0    0 -0.88097702949E+01 -0.10586093483E+02 -0.14451596411E+02  0.19963117667E+02  0.51100000000E-03 0. -1.
        -11    1    3    3    0    0  0.50148084438E+00 -0.44672569075E+00 -0.51070661617E+00  0.84372293378E+00  0.51100000000E-03 0.  1.
         12    1    3    3    0    0  0.78648562533E+01 -0.52332128846E+01 -0.25272540223E+02  0.26980433100E+02  0.00000000000E+00 0. -1.
</event>
<event>
 7    1  0.2732193E-010  0.4778728E+02  0.7816164E-02  0.1312668E+00
        -11   -1    0    0    0    0  0.00000000000E+00  0.00000000000E+00  0.45593999997E+02  0.45594000000E+02  0.51100000000E-03 0.  1.
         11   -1    0    0    0    0 -0.00000000000E+00 -0.00000000000E+00 -0.45593999997E+02  0.45594000000E+02  0.51100000000E-03 0. -1.
    9900012    2    1    2    0    0 -0.87496966619E+01  0.27105062410E+01 -0.42423092644E+02  0.47787276213E+02  0.20000023566E+02 0.  0.
        -12    1    1    2    0    0  0.87496966619E+01 -0.27105062410E+01  0.42423092644E+02  0.43400723787E+02  0.00000000000E+00 0.  1.
         11    1    3    3    0    0 -0.41094055017E+01  0.19217155172E+01 -0.11560002879E+01  0.46815105504E+01  0.51100000000E-03 0. -1.
        -11    1    3    3    0    0 -0.90867402971E+00  0.36565645989E+01 -0.35326526825E+02  0.35526886311E+02  0.51100000000E-03 0.  1.
         12    1    3    3    0    0 -0.37316171305E+01 -0.28677738751E+01 -0.59405655307E+01  0.75788793519E+01  0.00000000000E+00 0. -1.
</event>
<event>
 7    1  0.2732193E-010  0.4778727E+02  0.7816164E-02  0.1312668E+00
        -11   -1    0    0    0    0  0.00000000000E+00  0.00000000000E+00  0.45593999997E+02  0.45594000000E+02  0.51100000000E-03 0.  1.
         11   -1    0    0    0    0 -0.00000000000E+00 -0.00000000000E+00 -0.45593999997E+02  0.45594000000E+02  0.51100000000E-03 0. -1.
    9900012    2    1    2    0    0 -0.14566633167E+02  0.39127924405E+02 -0.11850831938E+02  0.47787268581E+02  0.19999988769E+02 0.  0.
        -12    1    1    2    0    0  0.14566633167E+02 -0.39127924405E+02  0.11850831938E+02  0.43400731419E+02  0.00000000000E+00 0.  1.
         11    1    3    3    0    0 -0.92343884224E+01  0.19479876747E+02 -0.11227332625E+02  0.24306224013E+02  0.51100000000E-03 0. -1.
        -11    1    3    3    0    0 -0.65971803842E+01  0.54040662178E+01  0.24116861971E+01  0.88624461230E+01  0.51100000000E-03 0.  1.
         12    1    3    3    0    0  0.12649356392E+01  0.14243981440E+02 -0.30351855094E+01  0.14618598446E+02  0.00000000000E+00 0. -1.
</event>
<event>
 7    1  0.2732193E-010  0.4778727E+02  0.7816164E-02  0.1312668E+00
        -11   -1    0    0    0    0  0.00000000000E+00  0.00000000000E+00  0.45593999997E+02  0.45594000000E+02  0.51100000000E-03 0.  1.
         11   -1    0    0    0    0 -0.00000000000E+00 -0.00000000000E+00 -0.45593999997E+02  0.45594000000E+02  0.51100000000E-03 0. -1.
    9900012    2    1    2    0    0  0.14268154062E+02  0.37064537272E+02 -0.17500376769E+02  0.47787270391E+02  0.19999997022E+02 0.  0.
        -12    1    1    2    0    0 -0.14268154062E+02 -0.37064537272E+02  0.17500376769E+02  0.43400729609E+02  0.00000000000E+00 0.  1.
         11    1    3    3    0    0  0.44844516841E+01  0.48469993600E+01 -0.50193042962E+01  0.82944032685E+01  0.51100000000E-03 0. -1.
        -11    1    3    3    0    0  0.12452464272E+02  0.15891088292E+02 -0.29576527416E+01  0.20404368737E+02  0.51100000000E-03 0.  1.
        -12    1    3    3    0    0 -0.26687618946E+01  0.16326449619E+02 -0.95234197316E+01  0.19088498385E+02  0.00000000000E+00 0.  1.
</event>
<event>
 7    1  0.2732193E-010  0.4778727E+02  0.7816164E-02  0.1312668E+00
        -11   -1    0    0    0    0  0.00000000000E+00  0.00000000000E+00  0.45593999997E+02  0.45594000000E+02  0.51100000000E-03 0.  1.
         11   -1    0    0    0    0 -0.00000000000E+00 -0.00000000000E+00 -0.45593999997E+02  0.45594000000E+02  0.51100000000E-03 0. -1.
    9900012    2    1    2    0    0  0.21309178365E+02 -0.40808795120E+01 -0.37588406070E+02  0.47787274994E+02  0.20000018009E+02 0.  0.
        -12    1    1    2    0    0 -0.21309178365E+02  0.40808795120E+01  0.37588406070E+02  0.43400725006E+02  0.00000000000E+00 0.  1.
         11    1    3    3    0    0  0.37088235563E+00 -0.27575355149E+00  0.19755845820E+01  0.20289229765E+01  0.51100000000E-03 0. -1.
        -11    1    3    3    0    0  0.10150063706E+00  0.14767768058E+01 -0.29535695830E+01  0.33037472143E+01  0.51100000000E-03 0.  1.
         12    1    3    3    0    0  0.20836795372E+02 -0.52819027663E+01 -0.36610421069E+02  0.42454604803E+02  0.00000000000E+00 0. -1.
</event>
<event>
 7    1  0.2732193E-010  0.4778728E+02  0.7816164E-02  0.1312668E+00
        -11   -1    0    0    0    0  0.00000000000E+00  0.00000000000E+00  0.45593999997E+02  0.45594000000E+02  0.51100000000E-03 0. -1.
         11   -1    0    0    0    0 -0.00000000000E+00 -0.00000000000E+00 -0.45593999997E+02  0.45594000000E+02  0.51100000000E-03 0.  1.
    9900012    2    1    2    0    0  0.32156767393E+02  0.28997306086E+02 -0.29532038606E+01  0.47787275784E+02  0.20000021610E+02 0.  0.
        -12    1    1    2    0    0 -0.32156767393E+02 -0.28997306086E+02  0.29532038606E+01  0.43400724216E+02  0.00000000000E+00 0.  1.
         11    1    3    3    0    0  0.39624458553E+01  0.49031269003E+01  0.57965203510E+01  0.85639523000E+01  0.51100000000E-03 0. -1.
        -11    1    3    3    0    0  0.26804297985E+02  0.22226820072E+02 -0.10433248792E+02  0.36350441560E+02  0.51100000000E-03 0.  1.
        -12    1    3    3    0    0  0.13900235530E+01  0.18673591130E+01  0.16835245805E+01  0.28728819238E+01  0.00000000000E+00 0.  1.
</event>
<event>
 7    1  0.2732193E-010  0.4778727E+02  0.7816164E-02  0.1312668E+00
        -11   -1    0    0    0    0  0.00000000000E+00  0.00000000000E+00  0.45593999997E+02  0.45594000000E+02  0.51100000000E-03 0.  1.
         11   -1    0    0    0    0 -0.00000000000E+00 -0.00000000000E+00 -0.45593999997E+02  0.45594000000E+02  0.51100000000E-03 0. -1.
    9900012    2    1    2    0    0  0.16141253171E+02  0.40135790764E+02 -0.34931070483E+01  0.47787267851E+02  0.19999985442E+02 0.  0.
        -12    1    1    2    0    0 -0.16141253171E+02 -0.40135790764E+02  0.34931070483E+01  0.43400732149E+02  0.00000000000E+00 0.  1.
         11    1    3    3    0    0  0.14384117370E+02  0.23848297060E+02 -0.23256492727E+01  0.27947320980E+02  0.51100000000E-03 0. -1.
        -11    1    3    3    0    0  0.53692694553E+00 -0.16889508324E+01 -0.32985528310E+00  0.18026786259E+01  0.51100000000E-03 0.  1.
         12    1    3    3    0    0  0.12202088557E+01  0.17976444537E+02 -0.83760249245E+00  0.18037268246E+02  0.00000000000E+00 0. -1.
</event>
<event>
 7    1  0.2732193E-010  0.4778727E+02  0.7816164E-02  0.1312668E+00
        -11   -1    0    0    0    0  0.00000000000E+00  0.00000000000E+00  0.45593999997E+02  0.45594000000E+02  0.51100000000E-03 0. -1.
         11   -1    0    0    0    0 -0.00000000000E+00 -0.00000000000E+00 -0.45593999997E+02  0.45594000000E+02  0.51100000000E-03 0.  1.
    9900012    2    1    2    0    0 -0.22097003256E+02  0.35742106898E+02  0.10855756456E+02  0.47787271819E+02  0.20000003534E+02 0.  0.
        -12    1    1    2    0    0  0.22097003256E+02 -0.35742106898E+02 -0.10855756456E+02  0.43400728181E+02  0.00000000000E+00 0.  1.
         11    1    3    3    0    0 -0.19603207592E+02  0.20190605855E+02  0.11850405362E+02  0.30534872199E+02  0.51100000000E-03 0. -1.
        -11    1    3    3    0    0  0.78944790140E+00  0.44500784378E+00 -0.15363862442E+01  0.17837440743E+01  0.51100000000E-03 0.  1.
         12    1    3    3    0    0 -0.32832435650E+01  0.15106493199E+02  0.54173733883E+00  0.15468655547E+02  0.00000000000E+00 0. -1.
</event>
<event>
 7    1  0.2732193E-010  0.4778727E+02  0.7816164E-02  0.1312668E+00
        -11   -1    0    0    0    0  0.00000000000E+00  0.00000000000E+00  0.45593999997E+02  0.45594000000E+02  0.51100000000E-03 0.  1.
         11   -1    0    0    0    0 -0.00000000000E+00 -0.00000000000E+00 -0.45593999997E+02  0.45594000000E+02  0.51100000000E-03 0. -1.
    9900012    2    1    2    0    0 -0.41955819466E+02  0.49114519410E+01 -0.99604214411E+01  0.47787272558E+02  0.20000006900E+02 0.  0.
        -12    1    1    2    0    0  0.41955819466E+02 -0.49114519410E+01  0.99604214411E+01  0.43400727442E+02  0.00000000000E+00 0.  1.
         11    1    3    3    0    0 -0.81546823537E+01 -0.47156364761E+01 -0.42910103277E+01  0.10351272461E+02  0.51100000000E-03 0. -1.
        -11    1    3    3    0    0 -0.29768224521E+02  0.74984475669E+01 -0.87643573007E+01  0.31924721866E+02  0.51100000000E-03 0.  1.
        -12    1    3    3    0    0 -0.40329125912E+01  0.21286408502E+01  0.30949461874E+01  0.55112782310E+01  0.00000000000E+00 0.  1.
</event>
<event>
 7    1  0.2732193E-010  0.4778728E+02  0.7816164E-02  0.1312668E+00
        -11   -1    0    0    0    0  0.00000000000E+00  0.00000000000E+00  0.45593999997E+02  0.45594000000E+02  0.51100000000E-03 0. -1.
         11   -1    0    0    0    0 -0.00000000000E+00 -0.00000000000E+00 -0.45593999997E+02  0.45594000000E+02  0.51100000000E-03 0.  1.
    9900012    2    1    2    0    0 -0.35813294209E+02 -0.31194563253E+01  0.24316648587E+02  0.47787280555E+02  0.20000043362E+02 0.  0.
        -12    1    1    2    0    0  0.35813294209E+02  0.31194563253E+01 -0.24316648587E+02  0.43400719445E+02  0.00000000000E+00 0.  1.
         11    1    3    3    0    0 -0.37070950254E+02 -0.19716624275E+01  0.21453544293E+02  0.42876536339E+02  0.51100000000E-03 0. -1.
        -11    1    3    3    0    0  0.13730717791E+01  0.10807418421E+01  0.14378636082E+01  0.22629142840E+01  0.51100000000E-03 0.  1.
         12    1    3    3    0    0 -0.11541573426E+00 -0.22285357399E+01  0.14252406855E+01  0.26478299318E+01  0.00000000000E+00 0. -1.
</event>
<event>
 7    1  0.2732193E-010  0.4778726E+02  0.7816164E-02  0.1312668E+00
        -11   -1    0    0    0    0  0.00000000000E+00  0.00000000000E+00  0.45593999997E+02  0.45594000000E+02  0.51100000000E-03 0.  1.
         11   -1    0    0    0    0 -0.00000000000E+00 -0.00000000000E+00 -0.45593999997E+02  0.45594000000E+02  0.51100000000E-03 0. -1.
    9900012    2    1    2    0    0 -0.20195317442E+02  0.84028411924E+01 -0.37485538596E+02  0.47787260484E+02  0.19999951849E+02 0.  0.
        -12    1    1    2    0    0  0.20195317442E+02 -0.84028411924E+01  0.37485538596E+02  0.43400739516E+02  0.00000000000E+00 0.  1.
         11    1    3    3    0    0 -0.15723790901E+02  0.83161214716E+00 -0.20097148397E+02  0.25530854921E+02  0.51100000000E-03 0. -1.
        -11    1    3    3    0    0 -0.40928895208E+01  0.86604616343E+01 -0.71496800018E+01  0.11952960501E+02  0.51100000000E-03 0.  1.
         12    1    3    3    0    0 -0.37863702079E+00 -0.10892325890E+01 -0.10238710198E+02  0.10303445062E+02  0.00000000000E+00 0. -1.
</event>
<event>
 7    1  0.2732193E-010  0.4778727E+02  0.7816164E-02  0.1312668E+00
        -11   -1    0    0    0    0  0.00000000000E+00  0.00000000000E+00  0.45593999997E+02  0.45594000000E+02  0.51100000000E-03 0.  1.
         11   -1    0    0    0    0 -0.00000000000E+00 -0.00000000000E+00 -0.45593999997E+02  0.45594000000E+02  0.51100000000E-03 0. -1.
    9900012    2    1    2    0    0  0.39623654776E+01  0.41216110082E+02 -0.13005978728E+02  0.47787267827E+02  0.19999985329E+02 0.  0.
        -12    1    1    2    0    0 -0.39623654776E+01 -0.41216110082E+02  0.13005978728E+02  0.43400732173E+02  0.00000000000E+00 0.  1.
         11    1    3    3    0    0 -0.56533989589E+01  0.15550506779E+02 -0.85676069499E+01  0.18632849218E+02  0.51100000000E-03 0. -1.
        -11    1    3    3    0    0  0.44514644521E+01  0.61135222592E+01  0.21900957936E+01  0.78731956681E+01  0.51100000000E-03 0.  1.
         12    1    3    3    0    0  0.51642999844E+01  0.19552081044E+02 -0.66284675721E+01  0.21281222940E+02  0.00000000000E+00 0. -1.
</event>
<event>
 7    1  0.2732193E-010  0.4778727E+02  0.7816164E-02  0.1312668E+00
        -11   -1    0    0    0    0  0.00000000000E+00  0.00000000000E+00  0.45593999997E+02  0.45594000000E+02  0.51100000000E-03 0.  1.
         11   -1    0    0    0    0 -0.00000000000E+00 -0.00000000000E+00 -0.45593999997E+02  0.45594000000E+02  0.51100000000E-03 0. -1.
    9900012    2    1    2    0    0  0.12294759230E+02  0.26005175106E+02 -0.32499121411E+02  0.47787272709E+02  0.20000007592E+02 0.  0.
        -12    1    1    2    0    0 -0.12294759230E+02 -0.26005175106E+02  0.32499121411E+02  0.43400727291E+02  0.00000000000E+00 0.  1.
         11    1    3    3    0    0  0.67314208002E+01  0.40324733619E+00 -0.36072548766E+01  0.76476743138E+01  0.51100000000E-03 0. -1.
        -11    1    3    3    0    0 -0.11838768702E+00 -0.66293168176E+00  0.12210287431E-01  0.67353055711E+00  0.51100000000E-03 0.  1.
         12    1    3    3    0    0  0.56817261170E+01  0.26264859452E+02 -0.28904076822E+02  0.39466067839E+02  0.00000000000E+00 0. -1.
</event>
<event>
 7    1  0.2732193E-010  0.4778724E+02  0.7816164E-02  0.1312668E+00
        -11   -1    0    0    0    0  0.00000000000E+00  0.00000000000E+00  0.45593999997E+02  0.45594000000E+02  0.51100000000E-03 0.  1.
         11   -1    0    0    0    0 -0.00000000000E+00 -0.00000000000E+00 -0.45593999997E+02  0.45594000000E+02  0.51100000000E-03 0. -1.
    9900012    2    1    2    0    0 -0.12841543882E+02  0.41220627020E+02 -0.44249944097E+01  0.47787240597E+02  0.19999861178E+02 0.  0.
        -12    1    1    2    0    0  0.12841543882E+02 -0.41220627020E+02  0.44249944097E+01  0.43400759403E+02  0.00000000000E+00 0.  1.
         11    1    3    3    0    0 -0.11631546015E+01  0.26641257935E+02  0.44582614123E+00  0.26670363968E+02  0.51100000000E-03 0. -1.
        -11    1    3    3    0    0 -0.10469039585E+02  0.13253427963E+02 -0.70431092598E+01  0.18299167492E+02  0.51100000000E-03 0.  1.
         12    1    3    3    0    0 -0.12093496960E+01  0.13259411225E+01  0.21722887088E+01  0.28177091372E+01  0.00000000000E+00 0. -1.
</event>
<event>
 7    1  0.2732193E-010  0.4778728E+02  0.7816164E-02  0.1312668E+00
        -11   -1    0    0    0    0  0.00000000000E+00  0.00000000000E+00  0.45593999997E+02  0.45594000000E+02  0.51100000000E-03 0. -1.
         11   -1    0    0    0    0 -0.00000000000E+00 -0.00000000000E+00 -0.45593999997E+02  0.45594000000E+02  0.51100000000E-03 0.  1.
    9900012    2    1    2    0    0  0.69910529475E+01 -0.12873637695E+02  0.40853610929E+02  0.47787275412E+02  0.20000019914E+02 0.  0.
        -12    1    1    2    0    0 -0.69910529475E+01  0.12873637695E+02 -0.40853610929E+02  0.43400724588E+02  0.00000000000E+00 0.  1.
         11    1    3    3    0    0  0.50529431649E+01 -0.84781344091E+01  0.47057748499E+01  0.10934135306E+02  0.51100000000E-03 0. -1.
        -11    1    3    3    0    0  0.34771157057E+01 -0.19488296236E+01  0.25920804436E+02  0.26225490908E+02  0.51100000000E-03 0.  1.
         12    1    3    3    0    0 -0.15390059231E+01 -0.24466736623E+01  0.10227031643E+02  0.10627649198E+02  0.00000000000E+00 0. -1.
</event>
<event>
 7    1  0.2732193E-010  0.4778727E+02  0.7816164E-02  0.1312668E+00
        -11   -1    0    0    0    0  0.00000000000E+00  0.00000000000E+00  0.45593999997E+02  0.45594000000E+02  0.51100000000E-03 0.  1.
         11   -1    0    0    0    0 -0.00000000000E+00 -0.00000000000E+00 -0.45593999997E+02  0.45594000000E+02  0.51100000000E-03 0. -1.
    9900012    2    1    2    0    0 -0.12279248794E+02  0.25301003882E+02 -0.33056052899E+02  0.47787269803E+02  0.19999994341E+02 0.  0.
        -12    1    1    2    0    0  0.12279248794E+02 -0.25301003882E+02  0.33056052899E+02  0.43400730197E+02  0.00000000000E+00 0.  1.
         11    1    3    3    0    0 -0.73688988599E+01  0.10223684853E+02 -0.87869138350E+01  0.15363406438E+02  0.51100000000E-03 0. -1.
        -11    1    3    3    0    0 -0.29983595845E+01  0.20442262745E+00 -0.13829901416E+02  0.14152671912E+02  0.51100000000E-03 0.  1.
        -12    1    3    3    0    0 -0.19119903496E+01  0.14872896401E+02 -0.10439237648E+02  0.18271191453E+02  0.00000000000E+00 0.  1.
</event>
<event>
 7    1  0.2732193E-010  0.4778727E+02  0.7816164E-02  0.1312668E+00
        -11   -1    0    0    0    0  0.00000000000E+00  0.00000000000E+00  0.45593999997E+02  0.45594000000E+02  0.51100000000E-03 0. -1.
         11   -1    0    0    0    0 -0.00000000000E+00 -0.00000000000E+00 -0.45593999997E+02  0.45594000000E+02  0.51100000000E-03 0.  1.
    9900012    2    1    2    0    0 -0.38198848138E+02  0.84416288493E+01 -0.18793886202E+02  0.47787271259E+02  0.20000000979E+02 0.  0.
        -12    1    1    2    0    0  0.38198848138E+02 -0.84416288493E+01  0.18793886202E+02  0.43400728741E+02  0.00000000000E+00 0.  1.
         11    1    3    3    0    0 -0.87838005804E+01  0.17920691100E+00 -0.89748807258E+00  0.88313505680E+01  0.51100000000E-03 0. -1.
        -11    1    3    3    0    0 -0.12525901416E+02 -0.25061175800E+01 -0.11107169544E+01  0.12822344716E+02  0.51100000000E-03 0.  1.
        -12    1    3    3    0    0 -0.16889146142E+02  0.10768539518E+02 -0.16785681175E+02  0.26133575975E+02  0.00000000000E+00 0.  1.
</event>
<event>
 7    1  0.2732193E-010  0.4778727E+02  0.7816164E-02  0.1312668E+00
        -11   -1    0    0    0    0  0.00000000000E+00  0.00000000000E+00  0.45593999997E+02  0.45594000000E+02  0.51100000000E-03 0.  1.
         11   -1    0    0    0    0 -0.00000000000E+00 -0.00000000000E+00 -0.45593999997E+02  0.45594000000E+02  0.51100000000E-03 0. -1.
    9900012    2    1    2    0    0  0.79716308580E+01  0.27659166323E+02 -0.32481486709E+02  0.47787270063E+02  0.19999995527E+02 0.  0.
        -12    1    1    2    0    0 -0.79716308580E+01 -0.27659166323E+02  0.32481486709E+02  0.43400729937E+02  0.00000000000E+00 0.  1.
         11    1    3    3    0    0  0.70522671858E+01  0.12222095325E+02 -0.10269907347E+02  0.17452366137E+02  0.51100000000E-03 0. -1.
        -11    1    3    3    0    0 -0.45012251683E+01  0.29568641499E+01 -0.15655759935E+01  0.56084848283E+01  0.51100000000E-03 0.  1.
        -12    1    3    3    0    0  0.54205888405E+01  0.12480206848E+02 -0.20646003368E+02  0.24726419098E+02  0.00000000000E+00 0.  1.
</event>
<event>
 7    1  0.2732193E-010  0.4778727E+02  0.7816164E-02  0.1312668E+00
        -11   -1    0    0    0    0  0.00000000000E+00  0.00000000000E+00  0.45593999997E+02  0.45594000000E+02  0.51100000000E-03 0.  1.
         11   -1    0    0    0    0 -0.00000000000E+00 -0.00000000000E+00 -0.45593999997E+02  0.45594000000E+02  0.51100000000E-03 0. -1.
    9900012    2    1    2    0    0  0.35567416255E+02  0.20196087614E+02 -0.14515517057E+02  0.47787270865E+02  0.19999999183E+02 0.  0.
        -12    1    1    2    0    0 -0.35567416255E+02 -0.20196087614E+02  0.14515517057E+02  0.43400729135E+02  0.00000000000E+00 0.  1.
         11    1    3    3    0    0  0.23136745923E+02  0.52090541050E+01 -0.80548491729E+01  0.25046433918E+02  0.51100000000E-03 0. -1.
        -11    1    3    3    0    0  0.10915977828E+02  0.15608143579E+02 -0.35112505909E+01  0.19367539825E+02  0.51100000000E-03 0.  1.
         12    1    3    3    0    0  0.15146925046E+01 -0.62111006928E+00 -0.29494172931E+01  0.33732971216E+01  0.00000000000E+00 0. -1.
</event>
<event>
 7    1  0.2732193E-010  0.4778727E+02  0.7816164E-02  0.1312668E+00
        -11   -1    0    0    0    0  0.00000000000E+00  0.00000000000E+00  0.45593999997E+02  0.45594000000E+02  0.51100000000E-03 0.  1.
         11   -1    0    0    0    0 -0.00000000000E+00 -0.00000000000E+00 -0.45593999997E+02  0.45594000000E+02  0.51100000000E-03 0. -1.
    9900012    2    1    2    0    0 -0.19660852503E+02 -0.74803105481E+00 -0.38684811704E+02  0.47787270419E+02  0.19999997149E+02 0.  0.
        -12    1    1    2    0    0  0.19660852503E+02  0.74803105481E+00  0.38684811704E+02  0.43400729581E+02  0.00000000000E+00 0.  1.
         11    1    3    3    0    0 -0.21719900241E+02  0.19239716377E+00 -0.22932424299E+02  0.31586186342E+02  0.51100000000E-03 0. -1.
        -11    1    3    3    0    0  0.20282849735E+01 -0.10331602952E+01 -0.55557045970E+01  0.60039332074E+01  0.51100000000E-03 0.  1.
         12    1    3    3    0    0  0.30762764030E-01  0.92732076659E-01 -0.10196682808E+02  0.10197150870E+02  0.00000000000E+00 0. -1.
</event>
<event>
 7    1  0.2732193E-010  0.4778727E+02  0.7816164E-02  0.1312668E+00
        -11   -1    0    0    0    0  0.00000000000E+00  0.00000000000E+00  0.45593999997E+02  0.45594000000E+02  0.51100000000E-03 0.  1.
         11   -1    0    0    0    0 -0.00000000000E+00 -0.00000000000E+00 -0.45593999997E+02  0.45594000000E+02  0.51100000000E-03 0. -1.
    9900012    2    1    2    0    0  0.67589869885E+01 -0.38910330814E+02 -0.17997924208E+02  0.47787273912E+02  0.20000013074E+02 0.  0.
        -12    1    1    2    0    0 -0.67589869885E+01  0.38910330814E+02  0.17997924208E+02  0.43400726088E+02  0.00000000000E+00 0.  1.
         11    1    3    3    0    0 -0.15866190042E+01 -0.81757622022E+01 -0.49683313535E+01  0.96976679748E+01  0.51100000000E-03 0. -1.
        -11    1    3    3    0    0  0.32122260117E+01 -0.30421519289E+02 -0.10376019254E+02  0.32302461325E+02  0.51100000000E-03 0.  1.
        -12    1    3    3    0    0  0.51333799811E+01 -0.31304932229E+00 -0.26535736009E+01  0.57871446123E+01  0.00000000000E+00 0.  1.
</event>
<event>
 7    1  0.2732193E-010  0.4778727E+02  0.7816164E-02  0.1312668E+00
        -11   -1    0    0    0    0  0.00000000000E+00  0.00000000000E+00  0.45593999997E+02  0.45594000000E+02  0.51100000000E-03 0.  1.
         11   -1    0    0    0    0 -0.00000000000E+00 -0.00000000000E+00 -0.45593999997E+02  0.45594000000E+02  0.51100000000E-03 0. -1.
    9900012    2    1    2    0    0  0.28685997056E+02 -0.27304551182E+02 -0.17753827720E+02  0.47787270271E+02  0.19999996474E+02 0.  0.
        -12    1    1    2    0    0 -0.28685997056E+02  0.27304551182E+02  0.17753827720E+02  0.43400729729E+02  0.00000000000E+00 0.  1.
         11    1    3    3    0    0  0.10512832230E+02 -0.76550011429E+01  0.41057758326E-01  0.13004628791E+02  0.51100000000E-03 0. -1.
        -11    1    3    3    0    0  0.13440336296E+02 -0.13227362893E+02 -0.18935539557E+02  0.26723780186E+02  0.51100000000E-03 0.  1.
        -12    1    3    3    0    0  0.47328285294E+01 -0.64221871459E+01  0.11406540790E+01  0.80588612939E+01  0.00000000000E+00 0.  1.
</event>
<event>
 7    1  0.2732193E-010  0.4778728E+02  0.7816164E-02  0.1312668E+00
        -11   -1    0    0    0    0  0.00000000000E+00  0.00000000000E+00  0.45593999997E+02  0.45594000000E+02  0.51100000000E-03 0.  1.
         11   -1    0    0    0    0 -0.00000000000E+00 -0.00000000000E+00 -0.45593999997E+02  0.45594000000E+02  0.51100000000E-03 0. -1.
    9900012    2    1    2    0    0  0.30120705972E+02  0.59005405588E+01 -0.30684679548E+02  0.47787275742E+02  0.20000021417E+02 0.  0.
        -12    1    1    2    0    0 -0.30120705972E+02 -0.59005405588E+01  0.30684679548E+02  0.43400724258E+02  0.00000000000E+00 0.  1.
         11    1    3    3    0    0  0.12361538756E+02  0.61301493118E+01 -0.21747872351E+02  0.25755704670E+02  0.51100000000E-03 0. -1.
        -11    1    3    3    0    0  0.12102047156E+02 -0.45705080069E+01 -0.66346203328E+01  0.14538475712E+02  0.51100000000E-03 0.  1.
        -12    1    3    3    0    0  0.56571200602E+01  0.43408992539E+01 -0.23021868645E+01  0.74930953595E+01  0.00000000000E+00 0.  1.
</event>
<event>
 7    1  0.2732193E-010  0.4778727E+02  0.7816164E-02  0.1312668E+00
        -11   -1    0    0    0    0  0.00000000000E+00  0.00000000000E+00  0.45593999997E+02  0.45594000000E+02  0.51100000000E-03 0.  1.
         11   -1    0    0    0    0 -0.00000000000E+00 -0.00000000000E+00 -0.45593999997E+02  0.45594000000E+02  0.51100000000E-03 0. -1.
    9900012    2    1    2    0    0 -0.24706251604E+01  0.16852156480E+01 -0.43297566547E+02  0.47787271788E+02  0.20000003391E+02 0.  0.
        -12    1    1    2    0    0  0.24706251604E+01 -0.16852156480E+01  0.43297566547E+02  0.43400728212E+02  0.00000000000E+00 0.  1.
         11    1    3    3    0    0 -0.36977031310E+01  0.45409578850E+01 -0.19167872371E+02  0.20042470867E+02  0.51100000000E-03 0. -1.
        -11    1    3    3    0    0 -0.10706806036E+01 -0.20508980545E+01  0.98345963525E+00  0.25139078942E+01  0.51100000000E-03 0.  1.
        -12    1    3    3    0    0  0.22977585743E+01 -0.80484418249E+00 -0.25113153811E+02  0.25230893027E+02  0.00000000000E+00 0.  1.
</event>
<event>
 7    1  0.2732193E-010  0.4778727E+02  0.7816164E-02  0.1312668E+00
        -11   -1    0    0    0    0  0.00000000000E+00  0.00000000000E+00  0.45593999997E+02  0.45594000000E+02  0.51100000000E-03 0. -1.
         11   -1    0    0    0    0 -0.00000000000E+00 -0.00000000000E+00 -0.45593999997E+02  0.45594000000E+02  0.51100000000E-03 0.  1.
    9900012    2    1    2    0    0  0.83579474781E+01 -0.38098206487E+02  0.19034037530E+02  0.47787271800E+02  0.20000003444E+02 0.  0.
        -12    1    1    2    0    0 -0.83579474781E+01  0.38098206487E+02 -0.19034037530E+02  0.43400728200E+02  0.00000000000E+00 0.  1.
         11    1    3    3    0    0  0.26276151780E+00 -0.21574862700E+02  0.38770647515E+01  0.21922029456E+02  0.51100000000E-03 0. -1.
        -11    1    3    3    0    0 -0.20262609340E+01 -0.34235537549E+01  0.10476205507E+01  0.41138744225E+01  0.51100000000E-03 0.  1.
         12    1    3    3    0    0  0.10121446894E+02 -0.13099790033E+02  0.14109352228E+02  0.21751367921E+02  0.00000000000E+00 0. -1.
</event>
<event>
 7    1  0.2732193E-010  0.4778727E+02  0.7816164E-02  0.1312668E+00
        -11   -1    0    0    0    0  0.00000000000E+00  0.00000000000E+00  0.45593999997E+02  0.45594000000E+02  0.51100000000E-03 0. -1.
         11   -1    0    0    0    0 -0.00000000000E+00 -0.00000000000E+00 -0.45593999997E+02  0.45594000000E+02  0.51100000000E-03 0.  1.
    9900012    2    1    2    0    0  0.55790146414E+01  0.12213468849E+02  0.41271407238E+02  0.47787270961E+02  0.19999999620E+02 0.  0.
        -12    1    1    2    0    0 -0.55790146414E+01 -0.12213468849E+02 -0.41271407238E+02  0.43400729039E+02  0.00000000000E+00 0.  1.
         11    1    3    3    0    0  0.10149370784E+02 -0.36890718798E+00  0.20115991863E+02  0.22534394793E+02  0.51100000000E-03 0. -1.
        -11    1    3    3    0    0 -0.29533579017E+01  0.37063991954E+01  0.65282475112E+01  0.80670771485E+01  0.51100000000E-03 0.  1.
         12    1    3    3    0    0 -0.16169982407E+01  0.88759768415E+01  0.14627167864E+02  0.17185799019E+02  0.00000000000E+00 0. -1.
</event>
<event>
 7    1  0.2732193E-010  0.4778727E+02  0.7816164E-02  0.1312668E+00
        -11   -1    0    0    0    0  0.00000000000E+00  0.00000000000E+00  0.45593999997E+02  0.45594000000E+02  0.51100000000E-03 0.  1.
         11   -1    0    0    0    0 -0.00000000000E+00 -0.00000000000E+00 -0.45593999997E+02  0.45594000000E+02  0.51100000000E-03 0. -1.
    9900012    2    1    2    0    0 -0.10733813142E+02  0.87967943778E+01 -0.41122070010E+02  0.47787274456E+02  0.20000015553E+02 0.  0.
        -12    1    1    2    0    0  0.10733813142E+02 -0.87967943778E+01  0.41122070010E+02  0.43400725544E+02  0.00000000000E+00 0.  1.
         11    1    3    3    0    0 -0.50745292047E+01  0.66634525538E+01 -0.32322244615E+02  0.33389817966E+02  0.51100000000E-03 0. -1.
        -11    1    3    3    0    0  0.18408749990E+01  0.10887438791E+00  0.83206791076E+00  0.20231192904E+01  0.51100000000E-03 0.  1.
        -12    1    3    3    0    0 -0.75001589361E+01  0.20244674361E+01 -0.96318933051E+01  0.12374337199E+02  0.00000000000E+00 0.  1.
</event>
<event>
 7    1  0.2732193E-010  0.4778728E+02  0.7816164E-02  0.1312668E+00
        -11   -1    0    0    0    0  0.00000000000E+00  0.00000000000E+00  0.45593999997E+02  0.45594000000E+02  0.51100000000E-03 0.  1.
         11   -1    0    0    0    0 -0.00000000000E+00 -0.00000000000E+00 -0.45593999997E+02  0.45594000000E+02  0.51100000000E-03 0. -1.
    9900012    2    1    2    0    0 -0.12903997556E+02 -0.41377460483E+02 -0.22394905603E+01  0.47787277576E+02  0.20000029779E+02 0.  0.
        -12    1    1    2    0    0  0.12903997556E+02  0.41377460483E+02  0.22394905603E+01  0.43400722424E+02  0.00000000000E+00 0.  1.
         11    1    3    3    0    0 -0.94935349795E+01 -0.13331653256E+02 -0.76245838362E+01  0.18055316776E+02  0.51100000000E-03 0. -1.
        -11    1    3    3    0    0 -0.15196688900E+01 -0.14013610906E+01  0.18750411802E+01  0.27908755132E+01  0.51100000000E-03 0.  1.
         12    1    3    3    0    0 -0.18907936863E+01 -0.26644446137E+02  0.35100520956E+01  0.26941085287E+02  0.00000000000E+00 0. -1.
</event>
<event>
 7    1  0.2732193E-010  0.4778727E+02  0.7816164E-02  0.1312668E+00
        -11   -1    0    0    0    0  0.00000000000E+00  0.00000000000E+00  0.45593999997E+02  0.45594000000E+02  0.51100000000E-03 0.  1.
         11   -1    0    0    0    0 -0.00000000000E+00 -0.00000000000E+00 -0.45593999997E+02  0.45594000000E+02  0.51100000000E-03 0. -1.
    9900012    2    1    2    0    0  0.11055952910E+02  0.27161021888E+02 -0.31994812793E+02  0.47787271315E+02  0.20000001233E+02 0.  0.
        -12    1    1    2    0    0 -0.11055952910E+02 -0.27161021888E+02  0.31994812793E+02  0.43400728685E+02  0.00000000000E+00 0.  1.
         11    1    3    3    0    0 -0.16760539043E+01  0.93217625278E+01 -0.18837726859E+02  0.21084695084E+02  0.51100000000E-03 0. -1.
        -11    1    3    3    0    0  0.37842055828E+01  0.10860854940E+02 -0.41929572973E+01  0.12241702214E+02  0.51100000000E-03 0.  1.
         12    1    3    3    0    0  0.89478012315E+01  0.69784044197E+01 -0.89641286365E+01  0.14460874017E+02  0.00000000000E+00 0. -1.
</event>
<event>
 7    1  0.2732193E-010  0.4778727E+02  0.7816164E-02  0.1312668E+00
        -11   -1    0    0    0    0  0.00000000000E+00  0.00000000000E+00  0.45593999997E+02  0.45594000000E+02  0.51100000000E-03 0. -1.
         11   -1    0    0    0    0 -0.00000000000E+00 -0.00000000000E+00 -0.45593999997E+02  0.45594000000E+02  0.51100000000E-03 0.  1.
    9900012    2    1    2    0    0 -0.11932402984E+02  0.41585083194E+02  0.34527760243E+01  0.47787273652E+02  0.20000011889E+02 0.  0.
        -12    1    1    2    0    0  0.11932402984E+02 -0.41585083194E+02 -0.34527760243E+01  0.43400726348E+02  0.00000000000E+00 0.  1.
         11    1    3    3    0    0 -0.18676490890E+01  0.21049799929E+02 -0.70542096183E+01  0.22278780572E+02  0.51100000000E-03 0. -1.
        -11    1    3    3    0    0 -0.31954151567E+01  0.74916687940E+01  0.59219782768E+01  0.10070035070E+02  0.51100000000E-03 0.  1.
         12    1    3    3    0    0 -0.68693387386E+01  0.13043614472E+02  0.45850073659E+01  0.15438458010E+02  0.00000000000E+00 0. -1.
</event>
<event>
 7    1  0.2732193E-010  0.4778727E+02  0.7816164E-02  0.1312668E+00
        -11   -1    0    0    0    0  0.00000000000E+00  0.00000000000E+00  0.45593999997E+02  0.45594000000E+02  0.51100000000E-03 0. -1.
         11   -1    0    0    0    0 -0.00000000000E+00 -0.00000000000E+00 -0.45593999997E+02  0.45594000000E+02  0.51100000000E-03 0.  1.
    9900012    2    1    2    0    0  0.38589947487E+02  0.96518870617E+01 -0.17357421914E+02  0.47787273434E+02  0.20000010897E+02 0.  0.
        -12    1    1    2    0    0 -0.38589947487E+02 -0.96518870617E+01  0.17357421914E+02  0.43400726566E+02  0.00000000000E+00 0.  1.
         11    1    3    3    0    0  0.13759701794E+02  0.16971658320E+01 -0.38795557353E+01  0.14396552305E+02  0.51100000000E-03 0. -1.
        -11    1    3    3    0    0  0.69364798830E+01  0.80700729902E+01  0.54675245857E+00  0.10655504200E+02  0.51100000000E-03 0.  1.
        -12    1    3    3    0    0  0.17893765810E+02 -0.11535176054E+00 -0.14024618638E+02  0.22735216930E+02  0.00000000000E+00 0.  1.
</event>
<event>
 7    1  0.2732193E-010  0.4778727E+02  0.7816164E-02  0.1312668E+00
        -11   -1    0    0    0    0  0.00000000000E+00  0.00000000000E+00  0.45593999997E+02  0.45594000000E+02  0.51100000000E-03 0.  1.
         11   -1    0    0    0    0 -0.00000000000E+00 -0.00000000000E+00 -0.45593999997E+02  0.45594000000E+02  0.51100000000E-03 0. -1.
    9900012    2    1    2    0    0  0.19683567494E+02  0.79658304005E+01 -0.37851364572E+02  0.47787273241E+02  0.20000010015E+02 0.  0.
        -12    1    1    2    0    0 -0.19683567494E+02 -0.79658304005E+01  0.37851364572E+02  0.43400726759E+02  0.00000000000E+00 0.  1.
         11    1    3    3    0    0  0.36863303938E+01 -0.26005967809E+01 -0.20339835621E+02  0.20834131821E+02  0.51100000000E-03 0. -1.
        -11    1    3    3    0    0 -0.57343516200E+00  0.61083849705E+00  0.45369423556E-01  0.83905315696E+00  0.51100000000E-03 0.  1.
         12    1    3    3    0    0  0.16570672262E+02  0.99555886844E+01 -0.17556898375E+02  0.26114088263E+02  0.00000000000E+00 0. -1.
</event>
<event>
 7    1  0.2732193E-010  0.4778727E+02  0.7816164E-02  0.1312668E+00
        -11   -1    0    0    0    0  0.00000000000E+00  0.00000000000E+00  0.45593999997E+02  0.45594000000E+02  0.51100000000E-03 0.  1.
         11   -1    0    0    0    0 -0.00000000000E+00 -0.00000000000E+00 -0.45593999997E+02  0.45594000000E+02  0.51100000000E-03 0. -1.
    9900012    2    1    2    0    0 -0.28272752202E+02 -0.29373782020E+02 -0.14881376591E+02  0.47787274701E+02  0.20000016674E+02 0.  0.
        -12    1    1    2    0    0  0.28272752202E+02  0.29373782020E+02  0.14881376591E+02  0.43400725299E+02  0.00000000000E+00 0.  1.
         11    1    3    3    0    0 -0.59233800830E+01 -0.16925842250E+02  0.82956770786E-01  0.17932580672E+02  0.51100000000E-03 0. -1.
        -11    1    3    3    0    0 -0.12287362363E+02 -0.88232486677E+01 -0.92034034550E+01  0.17706824286E+02  0.51100000000E-03 0.  1.
         12    1    3    3    0    0 -0.10062009755E+02 -0.36246911025E+01 -0.57609299066E+01  0.12147869743E+02  0.00000000000E+00 0. -1.
</event>
<event>
 7    1  0.2732193E-010  0.4778727E+02  0.7816164E-02  0.1312668E+00
        -11   -1    0    0    0    0  0.00000000000E+00  0.00000000000E+00  0.45593999997E+02  0.45594000000E+02  0.51100000000E-03 0.  1.
         11   -1    0    0    0    0 -0.00000000000E+00 -0.00000000000E+00 -0.45593999997E+02  0.45594000000E+02  0.51100000000E-03 0. -1.
    9900012    2    1    2    0    0  0.89862920798E+01  0.17269132404E+01 -0.42425080017E+02  0.47787273173E+02  0.20000009703E+02 0.  0.
        -12    1    1    2    0    0 -0.89862920798E+01 -0.17269132404E+01  0.42425080017E+02  0.43400726827E+02  0.00000000000E+00 0.  1.
         11    1    3    3    0    0 -0.39318548928E+01 -0.26588941017E+01 -0.51673717947E+01  0.70164757726E+01  0.51100000000E-03 0. -1.
        -11    1    3    3    0    0 -0.12047072781E+01  0.18503164657E+01 -0.49877421843E+01  0.54545910028E+01  0.51100000000E-03 0.  1.
         12    1    3    3    0    0  0.14122854251E+02  0.25354908764E+01 -0.32269966038E+02  0.35316206397E+02  0.00000000000E+00 0. -1.
</event>
<event>
 7    1  0.2732193E-010  0.4778727E+02  0.7816164E-02  0.1312668E+00
        -11   -1    0    0    0    0  0.00000000000E+00  0.00000000000E+00  0.45593999997E+02  0.45594000000E+02  0.51100000000E-03 0.  1.
         11   -1    0    0    0    0 -0.00000000000E+00 -0.00000000000E+00 -0.45593999997E+02  0.45594000000E+02  0.51100000000E-03 0. -1.
    9900012    2    1    2    0    0  0.22980334739E+02 -0.36743016955E+02 -0.23405847964E+01  0.47787269397E+02  0.19999992490E+02 0.  0.
        -12    1    1    2    0    0 -0.22980334739E+02  0.36743016955E+02  0.23405847964E+01  0.43400730603E+02  0.00000000000E+00 0.  1.
         11    1    3    3    0    0  0.99440715396E+01 -0.24126148788E+02  0.39569468351E+01  0.26393428020E+02  0.51100000000E-03 0. -1.
        -11    1    3    3    0    0  0.92469597239E+01 -0.11028237825E+02 -0.85176175216E+01  0.16723579227E+02  0.51100000000E-03 0.  1.
        -12    1    3    3    0    0  0.37893034751E+01 -0.15886303415E+01  0.22200858901E+01  0.46702621498E+01  0.00000000000E+00 0.  1.
</event>
<event>
 7    1  0.2732193E-010  0.4778727E+02  0.7816164E-02  0.1312668E+00
        -11   -1    0    0    0    0  0.00000000000E+00  0.00000000000E+00  0.45593999997E+02  0.45594000000E+02  0.51100000000E-03 0. -1.
         11   -1    0    0    0    0 -0.00000000000E+00 -0.00000000000E+00 -0.45593999997E+02  0.45594000000E+02  0.51100000000E-03 0.  1.
    9900012    2    1    2    0    0  0.52243920539E+00  0.33395190606E+02  0.27714832236E+02  0.47787267009E+02  0.19999981600E+02 0.  0.
        -12    1    1    2    0    0 -0.52243920539E+00 -0.33395190606E+02 -0.27714832236E+02  0.43400732991E+02  0.00000000000E+00 0.  1.
         11    1    3    3    0    0  0.64942307247E+01  0.21160589159E+02  0.19279904264E+02  0.29354050401E+02  0.51100000000E-03 0. -1.
        -11    1    3    3    0    0 -0.78984347207E+01  0.11869239063E+02  0.64675909523E+01  0.15655473163E+02  0.51100000000E-03 0.  1.
        -12    1    3    3    0    0  0.19266432014E+01  0.36536238426E+00  0.19673370193E+01  0.27777434448E+01  0.00000000000E+00 0.  1.
</event>
<event>
 7    1  0.2732193E-010  0.4778727E+02  0.7816164E-02  0.1312668E+00
        -11   -1    0    0    0    0  0.00000000000E+00  0.00000000000E+00  0.45593999997E+02  0.45594000000E+02  0.51100000000E-03 0.  1.
         11   -1    0    0    0    0 -0.00000000000E+00 -0.00000000000E+00 -0.45593999997E+02  0.45594000000E+02  0.51100000000E-03 0. -1.
    9900012    2    1    2    0    0 -0.15144404224E+02  0.32560913935E+02 -0.24373285986E+02  0.47787272295E+02  0.20000005701E+02 0.  0.
        -12    1    1    2    0    0  0.15144404224E+02 -0.32560913935E+02  0.24373285986E+02  0.43400727705E+02  0.00000000000E+00 0.  1.
         11    1    3    3    0    0 -0.19559909709E+01  0.12502183613E+02 -0.15194821719E+02  0.19774051257E+02  0.51100000000E-03 0. -1.
        -11    1    3    3    0    0 -0.82725467386E+01  0.36224568296E+01 -0.12603603853E+01  0.91184281314E+01  0.51100000000E-03 0.  1.
        -12    1    3    3    0    0 -0.49158665142E+01  0.16436273492E+02 -0.79181038820E+01  0.18894792907E+02  0.00000000000E+00 0.  1.
</event>
<event>
 7    1  0.2732193E-010  0.4778727E+02  0.7816164E-02  0.1312668E+00
        -11   -1    0    0    0    0  0.00000000000E+00  0.00000000000E+00  0.45593999997E+02  0.45594000000E+02  0.51100000000E-03 0.  1.
         11   -1    0    0    0    0 -0.00000000000E+00 -0.00000000000E+00 -0.45593999997E+02  0.45594000000E+02  0.51100000000E-03 0. -1.
    9900012    2    1    2    0    0 -0.28823259612E+02 -0.30781472488E+02 -0.10263711669E+02  0.47787272812E+02  0.20000008058E+02 0.  0.
        -12    1    1    2    0    0  0.28823259612E+02  0.30781472488E+02  0.10263711669E+02  0.43400727188E+02  0.00000000000E+00 0.  1.
         11    1    3    3    0    0 -0.14930311617E+02 -0.46507386827E+01 -0.69721238379E+01  0.17121743087E+02  0.51100000000E-03 0. -1.
        -11    1    3    3    0    0 -0.33107863579E+01 -0.14020385699E+02 -0.15527739019E+01  0.14489431615E+02  0.51100000000E-03 0.  1.
         12    1    3    3    0    0 -0.10582161638E+02 -0.12110348106E+02 -0.17388139292E+01  0.16176098110E+02  0.00000000000E+00 0. -1.
</event>
<event>
 7    1  0.2732193E-010  0.4778727E+02  0.7816164E-02  0.1312668E+00
        -11   -1    0    0    0    0  0.00000000000E+00  0.00000000000E+00  0.45593999997E+02  0.45594000000E+02  0.51100000000E-03 0.  1.
         11   -1    0    0    0    0 -0.00000000000E+00 -0.00000000000E+00 -0.45593999997E+02  0.45594000000E+02  0.51100000000E-03 0. -1.
    9900012    2    1    2    0    0  0.89579811392E+01 -0.16026757669E+02 -0.39325829061E+02  0.47787271679E+02  0.20000002893E+02 0.  0.
        -12    1    1    2    0    0 -0.89579811392E+01  0.16026757669E+02  0.39325829061E+02  0.43400728321E+02  0.00000000000E+00 0.  1.
         11    1    3    3    0    0  0.12512833144E+01 -0.61321718813E+01 -0.12768211244E+02  0.14219580182E+02  0.51100000000E-03 0. -1.
        -11    1    3    3    0    0 -0.24882701962E+01 -0.34339295566E+01 -0.18678586026E+02  0.19153927456E+02  0.51100000000E-03 0.  1.
        -12    1    3    3    0    0  0.10194968021E+02 -0.64606562313E+01 -0.78790317908E+01  0.14413764042E+02  0.00000000000E+00 0.  1.
</event>
<event>
 7    1  0.2732193E-010  0.4778727E+02  0.7816164E-02  0.1312668E+00
        -11   -1    0    0    0    0  0.00000000000E+00  0.00000000000E+00  0.45593999997E+02  0.45594000000E+02  0.51100000000E-03 0. -1.
         11   -1    0    0    0    0 -0.00000000000E+00 -0.00000000000E+00 -0.45593999997E+02  0.45594000000E+02  0.51100000000E-03 0.  1.
    9900012    2    1    2    0    0  0.12688759011E+02 -0.39913076052E+02 -0.11382666527E+02  0.47787270254E+02  0.19999996398E+02 0.  0.
        -12    1    1    2    0    0 -0.12688759011E+02  0.39913076052E+02  0.11382666527E+02  0.43400729746E+02  0.00000000000E+00 0.  1.
         11    1    3    3    0    0 -0.12707674806E+01 -0.17514175807E+02 -0.92289875191E+01  0.19837727065E+02  0.51100000000E-03 0. -1.
        -11    1    3    3    0    0  0.88566023405E+01 -0.67862885479E+01 -0.28274961560E+01  0.11510336748E+02  0.51100000000E-03 0.  1.
        -12    1    3    3    0    0  0.51029241510E+01 -0.15612611697E+02  0.67381714821E+00  0.16439206442E+02  0.00000000000E+00 0.  1.
</event>
<event>
 7    1  0.2732193E-010  0.4778727E+02  0.7816164E-02  0.1312668E+00
        -11   -1    0    0    0    0  0.00000000000E+00  0.00000000000E+00  0.45593999997E+02  0.45594000000E+02  0.51100000000E-03 0.  1.
         11   -1    0    0    0    0 -0.00000000000E+00 -0.00000000000E+00 -0.45593999997E+02  0.45594000000E+02  0.51100000000E-03 0. -1.
    9900012    2    1    2    0    0 -0.36715470696E+02  0.20639248195E+02  0.10469915824E+02  0.47787268534E+02  0.19999988553E+02 0.  0.
        -12    1    1    2    0    0  0.36715470696E+02 -0.20639248195E+02 -0.10469915824E+02  0.43400731466E+02  0.00000000000E+00 0.  1.
         11    1    3    3    0    0 -0.78641335196E+01  0.63767612797E+01 -0.51241608608E-01  0.10124737349E+02  0.51100000000E-03 0. -1.
        -11    1    3    3    0    0 -0.16691388013E+02  0.25841934813E+01 -0.14991092331E+01  0.16956645261E+02  0.51100000000E-03 0.  1.
        -12    1    3    3    0    0 -0.12159949163E+02  0.11678293434E+02  0.12020266665E+02  0.20705885924E+02  0.00000000000E+00 0.  1.
</event>
<event>
 7    1  0.2732193E-010  0.4778729E+02  0.7816164E-02  0.1312668E+00
        -11   -1    0    0    0    0  0.00000000000E+00  0.00000000000E+00  0.45593999997E+02  0.45594000000E+02  0.51100000000E-03 0.  1.
         11   -1    0    0    0    0 -0.00000000000E+00 -0.00000000000E+00 -0.45593999997E+02  0.45594000000E+02  0.51100000000E-03 0. -1.
    9900012    2    1    2    0    0  0.21398472880E+02  0.11659443742E+02 -0.35913563763E+02  0.47787293414E+02  0.20000101992E+02 0.  0.
        -12    1    1    2    0    0 -0.21398472880E+02 -0.11659443742E+02  0.35913563763E+02  0.43400706586E+02  0.00000000000E+00 0.  1.
         11    1    3    3    0    0  0.13295116131E+02 -0.19662518226E+01 -0.11436998039E+02  0.17647412943E+02  0.51100000000E-03 0. -1.
        -11    1    3    3    0    0  0.33260951750E+01  0.11067044545E+02 -0.20052787214E+02  0.23144257590E+02  0.51100000000E-03 0.  1.
        -12    1    3    3    0    0  0.47772615743E+01  0.25586510202E+01 -0.44237785100E+01  0.69956228814E+01  0.00000000000E+00 0.  1.
</event>
<event>
 7    1  0.2732193E-010  0.4778727E+02  0.7816164E-02  0.1312668E+00
        -11   -1    0    0    0    0  0.00000000000E+00  0.00000000000E+00  0.45593999997E+02  0.45594000000E+02  0.51100000000E-03 0.  1.
         11   -1    0    0    0    0 -0.00000000000E+00 -0.00000000000E+00 -0.45593999997E+02  0.45594000000E+02  0.51100000000E-03 0. -1.
    9900012    2    1    2    0    0 -0.11873713621E+02  0.21460584176E+02 -0.35806167986E+02  0.47787269428E+02  0.19999992631E+02 0.  0.
        -12    1    1    2    0    0  0.11873713621E+02 -0.21460584176E+02  0.35806167986E+02  0.43400730572E+02  0.00000000000E+00 0.  1.
         11    1    3    3    0    0 -0.17000108435E+01  0.16505759587E+01 -0.13822723135E+02  0.14024340019E+02  0.51100000000E-03 0. -1.
        -11    1    3    3    0    0 -0.10984992146E+02  0.20586170871E+02 -0.22598173195E+02  0.32482886503E+02  0.51100000000E-03 0.  1.
         12    1    3    3    0    0  0.81128936811E+00 -0.77616265314E+00  0.61472834417E+00  0.12800429056E+01  0.00000000000E+00 0. -1.
</event>
<event>
 7    1  0.2732193E-010  0.4778727E+02  0.7816164E-02  0.1312668E+00
        -11   -1    0    0    0    0  0.00000000000E+00  0.00000000000E+00  0.45593999997E+02  0.45594000000E+02  0.51100000000E-03 0.  1.
         11   -1    0    0    0    0 -0.00000000000E+00 -0.00000000000E+00 -0.45593999997E+02  0.45594000000E+02  0.51100000000E-03 0. -1.
    9900012    2    1    2    0    0  0.42400428695E+02 -0.87252690731E+01 -0.31139278362E+01  0.47787271660E+02  0.20000002805E+02 0.  0.
        -12    1    1    2    0    0 -0.42400428695E+02  0.87252690731E+01  0.31139278362E+01  0.43400728340E+02  0.00000000000E+00 0.  1.
         11    1    3    3    0    0  0.49859304088E+01 -0.31252757529E+01 -0.32146060586E+01  0.67052623324E+01  0.51100000000E-03 0.  1.
        -11    1    3    3    0    0  0.21643218989E+02 -0.54545334010E+01 -0.75368683276E+01  0.23558124868E+02  0.51100000000E-03 0. -1.
        -12    1    3    3    0    0  0.15771279297E+02 -0.14545991918E+00  0.76375465500E+01  0.17523884459E+02  0.00000000000E+00 0.  1.
</event>
<event>
 7    1  0.2732193E-010  0.4778728E+02  0.7816164E-02  0.1312668E+00
        -11   -1    0    0    0    0  0.00000000000E+00  0.00000000000E+00  0.45593999997E+02  0.45594000000E+02  0.51100000000E-03 0.  1.
         11   -1    0    0    0    0 -0.00000000000E+00 -0.00000000000E+00 -0.45593999997E+02  0.45594000000E+02  0.51100000000E-03 0. -1.
    9900012    2    1    2    0    0 -0.24481086321E+02  0.19153676104E+01 -0.35785892867E+02  0.47787281701E+02  0.20000048589E+02 0.  0.
        -12    1    1    2    0    0  0.24481086321E+02 -0.19153676104E+01  0.35785892867E+02  0.43400718299E+02  0.00000000000E+00 0.  1.
         11    1    3    3    0    0 -0.12068523682E+02  0.60139304671E+00 -0.14310859866E+02  0.18729966573E+02  0.51100000000E-03 0. -1.
        -11    1    3    3    0    0  0.31952567526E+01  0.17151239630E+01 -0.21594959889E+01  0.42207510126E+01  0.51100000000E-03 0.  1.
        -12    1    3    3    0    0 -0.15607819392E+02 -0.40114939932E+00 -0.19315537012E+02  0.24836564116E+02  0.00000000000E+00 0.  1.
</event>
<event>
 7    1  0.2732193E-010  0.4778727E+02  0.7816164E-02  0.1312668E+00
        -11   -1    0    0    0    0  0.00000000000E+00  0.00000000000E+00  0.45593999997E+02  0.45594000000E+02  0.51100000000E-03 0.  1.
         11   -1    0    0    0    0 -0.00000000000E+00 -0.00000000000E+00 -0.45593999997E+02  0.45594000000E+02  0.51100000000E-03 0. -1.
    9900012    2    1    2    0    0 -0.25066455740E+02  0.34262586377E+02 -0.90206119568E+01  0.47787268801E+02  0.19999989770E+02 0.  0.
        -12    1    1    2    0    0  0.25066455740E+02 -0.34262586377E+02  0.90206119568E+01  0.43400731199E+02  0.00000000000E+00 0.  1.
         11    1    3    3    0    0 -0.60204847438E+01  0.55097571323E+01  0.63074443509E+00  0.81854443380E+01  0.51100000000E-03 0. -1.
        -11    1    3    3    0    0 -0.29553600181E+01 -0.20896461482E+01 -0.83424049652E+00  0.37143951497E+01  0.51100000000E-03 0.  1.
        -12    1    3    3    0    0 -0.16090610978E+02  0.30842475393E+02 -0.88171158953E+01  0.35887429313E+02  0.00000000000E+00 0.  1.
</event>
<event>
 7    1  0.2732193E-010  0.4778727E+02  0.7816164E-02  0.1312668E+00
        -11   -1    0    0    0    0  0.00000000000E+00  0.00000000000E+00  0.45593999997E+02  0.45594000000E+02  0.51100000000E-03 0. -1.
         11   -1    0    0    0    0 -0.00000000000E+00 -0.00000000000E+00 -0.45593999997E+02  0.45594000000E+02  0.51100000000E-03 0.  1.
    9900012    2    1    2    0    0  0.33498293632E+02  0.12323922214E+02 -0.24690251249E+02  0.47787271415E+02  0.20000001688E+02 0.  0.
        -12    1    1    2    0    0 -0.33498293632E+02 -0.12323922214E+02  0.24690251249E+02  0.43400728585E+02  0.00000000000E+00 0.  1.
         11    1    3    3    0    0  0.10979268765E+02  0.19679463686E+01  0.55251119662E+00  0.11167919431E+02  0.51100000000E-03 0. -1.
        -11    1    3    3    0    0  0.19332953050E+02  0.45550881027E+01 -0.17954347928E+02  0.26774437642E+02  0.51100000000E-03 0.  1.
         12    1    3    3    0    0  0.31860718170E+01  0.58008877428E+01 -0.72884145171E+01  0.98449143419E+01  0.00000000000E+00 0. -1.
</event>
<event>
 7    1  0.2732193E-010  0.4778727E+02  0.7816164E-02  0.1312668E+00
        -11   -1    0    0    0    0  0.00000000000E+00  0.00000000000E+00  0.45593999997E+02  0.45594000000E+02  0.51100000000E-03 0.  1.
         11   -1    0    0    0    0 -0.00000000000E+00 -0.00000000000E+00 -0.45593999997E+02  0.45594000000E+02  0.51100000000E-03 0. -1.
    9900012    2    1    2    0    0 -0.38706939204E+02 -0.35938719146E+01 -0.19299748079E+02  0.47787270354E+02  0.19999996854E+02 0.  0.
        -12    1    1    2    0    0  0.38706939204E+02  0.35938719146E+01  0.19299748079E+02  0.43400729646E+02  0.00000000000E+00 0.  1.
         11    1    3    3    0    0 -0.37242598213E+02 -0.54685541404E+00 -0.20714561100E+02  0.42619282189E+02  0.51100000000E-03 0. -1.
        -11    1    3    3    0    0  0.10018411363E+01 -0.16787360337E+01  0.12952963704E+01  0.23451296939E+01  0.51100000000E-03 0.  1.
         12    1    3    3    0    0 -0.24661821273E+01 -0.13682804669E+01  0.11951665059E+00  0.28228584716E+01  0.00000000000E+00 0. -1.
</event>
<event>
 7    1  0.2732193E-010  0.4778727E+02  0.7816164E-02  0.1312668E+00
        -11   -1    0    0    0    0  0.00000000000E+00  0.00000000000E+00  0.45593999997E+02  0.45594000000E+02  0.51100000000E-03 0.  1.
         11   -1    0    0    0    0 -0.00000000000E+00 -0.00000000000E+00 -0.45593999997E+02  0.45594000000E+02  0.51100000000E-03 0. -1.
    9900012    2    1    2    0    0 -0.31632923126E+02 -0.23349893749E+02 -0.18378355181E+02  0.47787270712E+02  0.19999998483E+02 0.  0.
        -12    1    1    2    0    0  0.31632923126E+02  0.23349893749E+02  0.18378355181E+02  0.43400729288E+02  0.00000000000E+00 0.  1.
         11    1    3    3    0    0  0.24753853164E+01 -0.25143948400E+01 -0.27942024138E+01  0.45008089569E+01  0.51100000000E-03 0. -1.
        -11    1    3    3    0    0 -0.21521399436E+02 -0.13853259696E+02 -0.70294219649E+01  0.26542347509E+02  0.51100000000E-03 0.  1.
        -12    1    3    3    0    0 -0.12586909006E+02 -0.69822392136E+01 -0.85547308019E+01  0.16744114245E+02  0.00000000000E+00 0.  1.
</event>
<event>
 7    1  0.2732193E-010  0.4778727E+02  0.7816164E-02  0.1312668E+00
        -11   -1    0    0    0    0  0.00000000000E+00  0.00000000000E+00  0.45593999997E+02  0.45594000000E+02  0.51100000000E-03 0.  1.
         11   -1    0    0    0    0 -0.00000000000E+00 -0.00000000000E+00 -0.45593999997E+02  0.45594000000E+02  0.51100000000E-03 0. -1.
    9900012    2    1    2    0    0 -0.17264153769E+02  0.36742595024E+02 -0.15347758500E+02  0.47787274367E+02  0.20000015151E+02 0.  0.
        -12    1    1    2    0    0  0.17264153769E+02 -0.36742595024E+02  0.15347758500E+02  0.43400725633E+02  0.00000000000E+00 0.  1.
         11    1    3    3    0    0 -0.39543582270E+01  0.95256054271E+01 -0.37673252141E+01  0.10980293588E+02  0.51100000000E-03 0. -1.
        -11    1    3    3    0    0 -0.74987786118E+01  0.70962500122E+01  0.36076495869E+01  0.10936342200E+02  0.51100000000E-03 0.  1.
        -12    1    3    3    0    0 -0.58110169305E+01  0.20120739585E+02 -0.15188082873E+02  0.25870638580E+02  0.00000000000E+00 0.  1.
</event>
<event>
 7    1  0.2732193E-010  0.4778727E+02  0.7816164E-02  0.1312668E+00
        -11   -1    0    0    0    0  0.00000000000E+00  0.00000000000E+00  0.45593999997E+02  0.45594000000E+02  0.51100000000E-03 0.  1.
         11   -1    0    0    0    0 -0.00000000000E+00 -0.00000000000E+00 -0.45593999997E+02  0.45594000000E+02  0.51100000000E-03 0. -1.
    9900012    2    1    2    0    0  0.29099999974E+02  0.14979826644E+02  0.28502948005E+02  0.47787271322E+02  0.20000001268E+02 0.  0.
        -12    1    1    2    0    0 -0.29099999974E+02 -0.14979826644E+02 -0.28502948005E+02  0.43400728678E+02  0.00000000000E+00 0.  1.
         11    1    3    3    0    0  0.18911976619E+02  0.81636104201E+01  0.16057147052E+02  0.26117797887E+02  0.51100000000E-03 0. -1.
        -11    1    3    3    0    0 -0.17062027255E+01  0.83609113704E+00 -0.14766026621E+01  0.24063523875E+01  0.51100000000E-03 0.  1.
        -12    1    3    3    0    0  0.11894226081E+02  0.59801250864E+01  0.13922403615E+02  0.19263121048E+02  0.00000000000E+00 0.  1.
</event>
<event>
 7    1  0.2732193E-010  0.4778728E+02  0.7816164E-02  0.1312668E+00
        -11   -1    0    0    0    0  0.00000000000E+00  0.00000000000E+00  0.45593999997E+02  0.45594000000E+02  0.51100000000E-03 0.  1.
         11   -1    0    0    0    0 -0.00000000000E+00 -0.00000000000E+00 -0.45593999997E+02  0.45594000000E+02  0.51100000000E-03 0. -1.
    9900012    2    1    2    0    0 -0.53012155222E+01 -0.42323306987E+02 -0.80160898411E+01  0.47787275390E+02  0.20000019812E+02 0.  0.
        -12    1    1    2    0    0  0.53012155222E+01  0.42323306987E+02  0.80160898411E+01  0.43400724610E+02  0.00000000000E+00 0.  1.
         11    1    3    3    0    0  0.39682903782E+00 -0.26624403099E+01  0.71734822439E+00  0.27857943975E+01  0.51100000000E-03 0. -1.
        -11    1    3    3    0    0  0.18597886874E+01 -0.33752898237E+02 -0.32701684066E+01  0.33961904467E+02  0.51100000000E-03 0.  1.
        -12    1    3    3    0    0 -0.75578332475E+01 -0.59079684403E+01 -0.54632696590E+01  0.11039576525E+02  0.00000000000E+00 0.  1.
</event>
<event>
 7    1  0.2732193E-010  0.4778727E+02  0.7816164E-02  0.1312668E+00
        -11   -1    0    0    0    0  0.00000000000E+00  0.00000000000E+00  0.45593999997E+02  0.45594000000E+02  0.51100000000E-03 0. -1.
         11   -1    0    0    0    0 -0.00000000000E+00 -0.00000000000E+00 -0.45593999997E+02  0.45594000000E+02  0.51100000000E-03 0.  1.
    9900012    2    1    2    0    0 -0.26410619487E+02  0.23775324915E+02  0.24916583821E+02  0.47787273672E+02  0.20000011980E+02 0.  0.
        -12    1    1    2    0    0  0.26410619487E+02 -0.23775324915E+02 -0.24916583821E+02  0.43400726328E+02  0.00000000000E+00 0.  1.
         11    1    3    3    0    0 -0.25085995641E+02  0.16535609236E+02  0.15902452398E+02  0.33994433995E+02  0.51100000000E-03 0. -1.
        -11    1    3    3    0    0 -0.19719413637E+01  0.85913598155E+01  0.83903486033E+01  0.12169550779E+02  0.51100000000E-03 0.  1.
         12    1    3    3    0    0  0.64731751760E+00 -0.13516441365E+01  0.62378281957E+00  0.16232888980E+01  0.00000000000E+00 0. -1.
</event>
<event>
 7    1  0.2732193E-010  0.4778728E+02  0.7816164E-02  0.1312668E+00
        -11   -1    0    0    0    0  0.00000000000E+00  0.00000000000E+00  0.45593999997E+02  0.45594000000E+02  0.51100000000E-03 0.  1.
         11   -1    0    0    0    0 -0.00000000000E+00 -0.00000000000E+00 -0.45593999997E+02  0.45594000000E+02  0.51100000000E-03 0. -1.
    9900012    2    1    2    0    0 -0.85073566744E+01 -0.24194770120E+02 -0.35012295022E+02  0.47787276257E+02  0.20000023765E+02 0.  0.
        -12    1    1    2    0    0  0.85073566744E+01  0.24194770120E+02  0.35012295022E+02  0.43400723743E+02  0.00000000000E+00 0.  1.
         11    1    3    3    0    0 -0.10275112819E+02 -0.83588744690E+01 -0.20284082957E+02  0.24225869386E+02  0.51100000000E-03 0. -1.
        -11    1    3    3    0    0  0.72912044031E+00 -0.16408310851E+02 -0.15107877926E+02  0.22316188234E+02  0.51100000000E-03 0.  1.
        -12    1    3    3    0    0  0.10386357042E+01  0.57241519975E+00  0.37966586163E+00  0.12452186368E+01  0.00000000000E+00 0.  1.
</event>
<event>
 7    1  0.2732193E-010  0.4778727E+02  0.7816164E-02  0.1312668E+00
        -11   -1    0    0    0    0  0.00000000000E+00  0.00000000000E+00  0.45593999997E+02  0.45594000000E+02  0.51100000000E-03 0.  1.
         11   -1    0    0    0    0 -0.00000000000E+00 -0.00000000000E+00 -0.45593999997E+02  0.45594000000E+02  0.51100000000E-03 0. -1.
    9900012    2    1    2    0    0  0.90593582416E+01  0.36873664670E+02 -0.21021039451E+02  0.47787271693E+02  0.20000002957E+02 0.  0.
        -12    1    1    2    0    0 -0.90593582416E+01 -0.36873664670E+02  0.21021039451E+02  0.43400728307E+02  0.00000000000E+00 0.  1.
         11    1    3    3    0    0  0.55594236146E+01  0.14941606057E+02 -0.10684813640E+02  0.19191769728E+02  0.51100000000E-03 0. -1.
        -11    1    3    3    0    0  0.43297625449E+01  0.15340532216E+02  0.42866589352E+00  0.15945611530E+02  0.51100000000E-03 0.  1.
        -12    1    3    3    0    0 -0.82982791785E+00  0.65915263979E+01 -0.10764891704E+02  0.12649890436E+02  0.00000000000E+00 0.  1.
</event>
<event>
 7    1  0.2732193E-010  0.4778727E+02  0.7816164E-02  0.1312668E+00
        -11   -1    0    0    0    0  0.00000000000E+00  0.00000000000E+00  0.45593999997E+02  0.45594000000E+02  0.51100000000E-03 0. -1.
         11   -1    0    0    0    0 -0.00000000000E+00 -0.00000000000E+00 -0.45593999997E+02  0.45594000000E+02  0.51100000000E-03 0.  1.
    9900012    2    1    2    0    0  0.40395438374E+02 -0.94912831572E+01  0.12717987715E+02  0.47787272945E+02  0.20000008665E+02 0.  0.
        -12    1    1    2    0    0 -0.40395438374E+02  0.94912831572E+01 -0.12717987715E+02  0.43400727055E+02  0.00000000000E+00 0.  1.
         11    1    3    3    0    0  0.15751855172E+02 -0.56238528989E+01  0.14170555038E+00  0.16726288994E+02  0.51100000000E-03 0. -1.
        -11    1    3    3    0    0  0.63918699265E+01  0.33474571772E+01  0.82568858857E+01  0.10965292313E+02  0.51100000000E-03 0.  1.
         12    1    3    3    0    0  0.18251713275E+02 -0.72148874354E+01  0.43193962788E+01  0.20095691638E+02  0.00000000000E+00 0. -1.
</event>
<event>
 7    1  0.2732193E-010  0.4778728E+02  0.7816164E-02  0.1312668E+00
        -11   -1    0    0    0    0  0.00000000000E+00  0.00000000000E+00  0.45593999997E+02  0.45594000000E+02  0.51100000000E-03 0.  1.
         11   -1    0    0    0    0 -0.00000000000E+00 -0.00000000000E+00 -0.45593999997E+02  0.45594000000E+02  0.51100000000E-03 0. -1.
    9900012    2    1    2    0    0 -0.20683572712E+02  0.72404674894E-01 -0.38155043634E+02  0.47787276766E+02  0.20000026085E+02 0.  0.
        -12    1    1    2    0    0  0.20683572712E+02 -0.72404674894E-01  0.38155043634E+02  0.43400723234E+02  0.00000000000E+00 0.  1.
         11    1    3    3    0    0 -0.19062572345E+01 -0.45618869208E+00  0.10979567473E+01  0.22466495158E+01  0.51100000000E-03 0. -1.
        -11    1    3    3    0    0 -0.58816828055E+01 -0.59918916299E+01 -0.11352539594E+02  0.14120096084E+02  0.51100000000E-03 0.  1.
         12    1    3    3    0    0 -0.12895632672E+02  0.65204849969E+01 -0.27900460787E+02  0.31420531166E+02  0.00000000000E+00 0. -1.
</event>
<event>
 7    1  0.2732193E-010  0.4778727E+02  0.7816164E-02  0.1312668E+00
        -11   -1    0    0    0    0  0.00000000000E+00  0.00000000000E+00  0.45593999997E+02  0.45594000000E+02  0.51100000000E-03 0.  1.
         11   -1    0    0    0    0 -0.00000000000E+00 -0.00000000000E+00 -0.45593999997E+02  0.45594000000E+02  0.51100000000E-03 0. -1.
    9900012    2    1    2    0    0 -0.10354026179E+02 -0.26746606356E+02 -0.32573553300E+02  0.47787272077E+02  0.20000004707E+02 0.  0.
        -12    1    1    2    0    0  0.10354026179E+02  0.26746606356E+02  0.32573553300E+02  0.43400727923E+02  0.00000000000E+00 0.  1.
         11    1    3    3    0    0 -0.77939898144E+01 -0.13545574602E+02 -0.18317776187E+02  0.24078409275E+02  0.51100000000E-03 0. -1.
        -11    1    3    3    0    0  0.11337040655E+01  0.25338029575E+01 -0.18856245649E+01  0.33557447157E+01  0.51100000000E-03 0.  1.
        -12    1    3    3    0    0 -0.36937404306E+01 -0.15734834712E+02 -0.12370152548E+02  0.20353118086E+02  0.00000000000E+00 0.  1.
</event>
<event>
 7    1  0.2732193E-010  0.4778727E+02  0.7816164E-02  0.1312668E+00
        -11   -1    0    0    0    0  0.00000000000E+00  0.00000000000E+00  0.45593999997E+02  0.45594000000E+02  0.51100000000E-03 0.  1.
         11   -1    0    0    0    0 -0.00000000000E+00 -0.00000000000E+00 -0.45593999997E+02  0.45594000000E+02  0.51100000000E-03 0. -1.
    9900012    2    1    2    0    0 -0.16574793293E+02  0.36483944132E+02  0.16667972066E+02  0.47787271378E+02  0.20000001521E+02 0.  0.
        -12    1    1    2    0    0  0.16574793293E+02 -0.36483944132E+02 -0.16667972066E+02  0.43400728622E+02  0.00000000000E+00 0.  1.
         11    1    3    3    0    0 -0.15181396379E+02  0.29813144032E+02  0.19497707693E+02  0.38722848018E+02  0.51100000000E-03 0. -1.
        -11    1    3    3    0    0  0.16811273001E+01  0.45301012682E+01 -0.11989528688E+01  0.49785032632E+01  0.51100000000E-03 0.  1.
         12    1    3    3    0    0 -0.30745242140E+01  0.21406988317E+01 -0.16307827583E+01  0.40859200965E+01  0.00000000000E+00 0. -1.
</event>
<event>
 7    1  0.2732193E-010  0.4778727E+02  0.7816164E-02  0.1312668E+00
        -11   -1    0    0    0    0  0.00000000000E+00  0.00000000000E+00  0.45593999997E+02  0.45594000000E+02  0.51100000000E-03 0.  1.
         11   -1    0    0    0    0 -0.00000000000E+00 -0.00000000000E+00 -0.45593999997E+02  0.45594000000E+02  0.51100000000E-03 0. -1.
    9900012    2    1    2    0    0  0.15845511395E+02 -0.68147640210E+01 -0.39825896544E+02  0.47787271025E+02  0.19999999912E+02 0.  0.
        -12    1    1    2    0    0 -0.15845511395E+02  0.68147640210E+01  0.39825896544E+02  0.43400728975E+02  0.00000000000E+00 0.  1.
         11    1    3    3    0    0 -0.12523995640E+01 -0.55585572466E+00 -0.11838051100E+02  0.11917085817E+02  0.51100000000E-03 0. -1.
        -11    1    3    3    0    0  0.12212411029E+02 -0.93064186795E+01 -0.14141327185E+02  0.20874135829E+02  0.51100000000E-03 0.  1.
        -12    1    3    3    0    0  0.48854999300E+01  0.30475103831E+01 -0.13846518259E+02  0.14996049379E+02  0.00000000000E+00 0.  1.
</event>
<event>
 7    1  0.2732193E-010  0.4778727E+02  0.7816164E-02  0.1312668E+00
        -11   -1    0    0    0    0  0.00000000000E+00  0.00000000000E+00  0.45593999997E+02  0.45594000000E+02  0.51100000000E-03 0.  1.
         11   -1    0    0    0    0 -0.00000000000E+00 -0.00000000000E+00 -0.45593999997E+02  0.45594000000E+02  0.51100000000E-03 0. -1.
    9900012    2    1    2    0    0 -0.39806959856E+02  0.79616117060E+01 -0.15350631584E+02  0.47787271850E+02  0.20000003672E+02 0.  0.
        -12    1    1    2    0    0  0.39806959856E+02 -0.79616117060E+01  0.15350631584E+02  0.43400728150E+02  0.00000000000E+00 0.  1.
         11    1    3    3    0    0 -0.10018548989E+02 -0.61910918626E+00 -0.33789213716E+01  0.10591115613E+02  0.51100000000E-03 0. -1.
        -11    1    3    3    0    0 -0.16235254940E+02  0.81352554761E+00  0.18210490827E+01  0.16357308666E+02  0.51100000000E-03 0.  1.
        -12    1    3    3    0    0 -0.13553155927E+02  0.77671953446E+01 -0.13792759295E+02  0.20838847571E+02  0.00000000000E+00 0.  1.
</event>
<event>
 7    1  0.2732193E-010  0.4778727E+02  0.7816164E-02  0.1312668E+00
        -11   -1    0    0    0    0  0.00000000000E+00  0.00000000000E+00  0.45593999997E+02  0.45594000000E+02  0.51100000000E-03 0.  1.
         11   -1    0    0    0    0 -0.00000000000E+00 -0.00000000000E+00 -0.45593999997E+02  0.45594000000E+02  0.51100000000E-03 0. -1.
    9900012    2    1    2    0    0  0.40579981354E+02 -0.14765984337E+02  0.43421250463E+01  0.47787271549E+02  0.20000002302E+02 0.  0.
        -12    1    1    2    0    0 -0.40579981354E+02  0.14765984337E+02 -0.43421250463E+01  0.43400728451E+02  0.00000000000E+00 0.  1.
         11    1    3    3    0    0  0.31878686766E+02 -0.56902345196E+01  0.43360106371E+01  0.32671553794E+02  0.51100000000E-03 0. -1.
        -11    1    3    3    0    0  0.21957776144E+01 -0.40804597109E+01 -0.38761588873E+01  0.60412083862E+01  0.51100000000E-03 0.  1.
        -12    1    3    3    0    0  0.65055169735E+01 -0.49952901064E+01  0.38822732965E+01  0.90745093690E+01  0.00000000000E+00 0.  1.
</event>
<event>
 7    1  0.2732193E-010  0.4778727E+02  0.7816164E-02  0.1312668E+00
        -11   -1    0    0    0    0  0.00000000000E+00  0.00000000000E+00  0.45593999997E+02  0.45594000000E+02  0.51100000000E-03 0.  1.
         11   -1    0    0    0    0 -0.00000000000E+00 -0.00000000000E+00 -0.45593999997E+02  0.45594000000E+02  0.51100000000E-03 0. -1.
    9900012    2    1    2    0    0  0.20230624865E+02 -0.37670221358E+02  0.74363573789E+01  0.47787272234E+02  0.20000005422E+02 0.  0.
        -12    1    1    2    0    0 -0.20230624865E+02  0.37670221358E+02 -0.74363573789E+01  0.43400727766E+02  0.00000000000E+00 0.  1.
         11    1    3    3    0    0  0.16173053435E+02 -0.28404641793E+02  0.61888631924E+01  0.33267001078E+02  0.51100000000E-03 0. -1.
        -11    1    3    3    0    0  0.86369088386E+00  0.53419504135E+00  0.37738179211E+01  0.39080721907E+01  0.51100000000E-03 0.  1.
        -12    1    3    3    0    0  0.31938805457E+01 -0.97997746058E+01 -0.25263237346E+01  0.10612198965E+02  0.00000000000E+00 0.  1.
</event>
<event>
 7    1  0.2732193E-010  0.4778726E+02  0.7816164E-02  0.1312668E+00
        -11   -1    0    0    0    0  0.00000000000E+00  0.00000000000E+00  0.45593999997E+02  0.45594000000E+02  0.51100000000E-03 0.  1.
         11   -1    0    0    0    0 -0.00000000000E+00 -0.00000000000E+00 -0.45593999997E+02  0.45594000000E+02  0.51100000000E-03 0. -1.
    9900012    2    1    2    0    0  0.82906122793E+01  0.24041613586E+02  0.35169461573E+02  0.47787257344E+02  0.19999937532E+02 0.  0.
        -12    1    1    2    0    0 -0.82906122793E+01 -0.24041613586E+02 -0.35169461573E+02  0.43400742656E+02  0.00000000000E+00 0.  1.
         11    1    3    3    0    0  0.63311616801E+01  0.29782757243E+01  0.74447500203E+01  0.10216557034E+02  0.51100000000E-03 0. -1.
        -11    1    3    3    0    0 -0.12816150872E+00  0.66700436806E+01  0.20040274101E+02  0.21121517331E+02  0.51100000000E-03 0.  1.
        -12    1    3    3    0    0  0.20876121079E+01  0.14393294181E+02  0.76844374524E+01  0.16449182978E+02  0.00000000000E+00 0.  1.
</event>
<event>
 7    1  0.2732193E-010  0.4778727E+02  0.7816164E-02  0.1312668E+00
        -11   -1    0    0    0    0  0.00000000000E+00  0.00000000000E+00  0.45593999997E+02  0.45594000000E+02  0.51100000000E-03 0.  1.
         11   -1    0    0    0    0 -0.00000000000E+00 -0.00000000000E+00 -0.45593999997E+02  0.45594000000E+02  0.51100000000E-03 0. -1.
    9900012    2    1    2    0    0  0.32846781002E+02  0.27033457127E+02  0.85967683541E+01  0.47787271290E+02  0.20000001121E+02 0.  0.
        -12    1    1    2    0    0 -0.32846781002E+02 -0.27033457127E+02 -0.85967683541E+01  0.43400728710E+02  0.00000000000E+00 0.  1.
         11    1    3    3    0    0  0.17932989654E+02  0.10833734215E+02  0.18697249655E+01  0.21034680571E+02  0.51100000000E-03 0. -1.
        -11    1    3    3    0    0  0.78877585752E+01  0.10825828547E+02  0.10614555135E+02  0.17090467520E+02  0.51100000000E-03 0.  1.
        -12    1    3    3    0    0  0.70260327721E+01  0.53738943640E+01 -0.38875117463E+01  0.96621231998E+01  0.00000000000E+00 0.  1.
</event>
<event>
 7    1  0.2732193E-010  0.4778727E+02  0.7816164E-02  0.1312668E+00
        -11   -1    0    0    0    0  0.00000000000E+00  0.00000000000E+00  0.45593999997E+02  0.45594000000E+02  0.51100000000E-03 0. -1.
         11   -1    0    0    0    0 -0.00000000000E+00 -0.00000000000E+00 -0.45593999997E+02  0.45594000000E+02  0.51100000000E-03 0.  1.
    9900012    2    1    2    0    0  0.48754187245E+01  0.17520353501E+02  0.39406733786E+02  0.47787272331E+02  0.20000005865E+02 0.  0.
        -12    1    1    2    0    0 -0.48754187245E+01 -0.17520353501E+02 -0.39406733786E+02  0.43400727669E+02  0.00000000000E+00 0.  1.
         11    1    3    3    0    0  0.74720721468E+01  0.13317548242E+02  0.13850723183E+02  0.20616291768E+02  0.51100000000E-03 0. -1.
        -11    1    3    3    0    0  0.23124658260E+01  0.11282780097E+01  0.14110784213E+02  0.14343456377E+02  0.51100000000E-03 0.  1.
         12    1    3    3    0    0 -0.49091192483E+01  0.30745272497E+01  0.11445226390E+02  0.12827524185E+02  0.00000000000E+00 0. -1.
</event>
<event>
 7    1  0.2732193E-010  0.4778726E+02  0.7816164E-02  0.1312668E+00
        -11   -1    0    0    0    0  0.00000000000E+00  0.00000000000E+00  0.45593999997E+02  0.45594000000E+02  0.51100000000E-03 0.  1.
         11   -1    0    0    0    0 -0.00000000000E+00 -0.00000000000E+00 -0.45593999997E+02  0.45594000000E+02  0.51100000000E-03 0. -1.
    9900012    2    1    2    0    0 -0.80626515047E+01 -0.21796676265E+01 -0.42589511986E+02  0.47787264621E+02  0.19999970713E+02 0.  0.
        -12    1    1    2    0    0  0.80626515047E+01  0.21796676265E+01  0.42589511986E+02  0.43400735379E+02  0.00000000000E+00 0.  1.
         11    1    3    3    0    0 -0.39725017166E+01  0.70448793482E+01 -0.14369511712E+02  0.16489207441E+02  0.51100000000E-03 0. -1.
        -11    1    3    3    0    0 -0.51583560716E+01 -0.10565830176E+02 -0.23522662903E+02  0.26297548840E+02  0.51100000000E-03 0.  1.
        -12    1    3    3    0    0  0.10682062835E+01  0.13412832012E+01 -0.46973373705E+01  0.50005083403E+01  0.00000000000E+00 0.  1.
</event>
<event>
 7    1  0.2732193E-010  0.4778727E+02  0.7816164E-02  0.1312668E+00
        -11   -1    0    0    0    0  0.00000000000E+00  0.00000000000E+00  0.45593999997E+02  0.45594000000E+02  0.51100000000E-03 0. -1.
         11   -1    0    0    0    0 -0.00000000000E+00 -0.00000000000E+00 -0.45593999997E+02  0.45594000000E+02  0.51100000000E-03 0.  1.
    9900012    2    1    2    0    0 -0.20669695094E+02  0.34733869469E+02  0.15809663027E+02  0.47787269263E+02  0.19999991876E+02 0.  0.
        -12    1    1    2    0    0  0.20669695094E+02 -0.34733869469E+02 -0.15809663027E+02  0.43400730737E+02  0.00000000000E+00 0.  1.
         11    1    3    3    0    0 -0.28160275904E+01  0.19708392209E+02  0.43722880797E+01  0.20383023283E+02  0.51100000000E-03 0. -1.
        -11    1    3    3    0    0 -0.12650893019E+02  0.69286197412E+01  0.10276004363E+02  0.17710085590E+02  0.51100000000E-03 0.  1.
        -12    1    3    3    0    0 -0.52027744847E+01  0.80968575183E+01  0.11613705838E+01  0.96941603887E+01  0.00000000000E+00 0.  1.
</event>
<event>
 7    1  0.2732193E-010  0.4778727E+02  0.7816164E-02  0.1312668E+00
        -11   -1    0    0    0    0  0.00000000000E+00  0.00000000000E+00  0.45593999997E+02  0.45594000000E+02  0.51100000000E-03 0.  1.
         11   -1    0    0    0    0 -0.00000000000E+00 -0.00000000000E+00 -0.45593999997E+02  0.45594000000E+02  0.51100000000E-03 0. -1.
    9900012    2    1    2    0    0 -0.43352547954E+01 -0.42647140524E+02  0.67860665062E+01  0.47787265817E+02  0.19999976167E+02 0.  0.
        -12    1    1    2    0    0  0.43352547954E+01  0.42647140524E+02 -0.67860665062E+01  0.43400734183E+02  0.00000000000E+00 0.  1.
         11    1    3    3    0    0  0.50004488980E+01 -0.29951142954E+02  0.75489457319E+01  0.31289967008E+02  0.51100000000E-03 0. -1.
        -11    1    3    3    0    0 -0.94713030885E+01 -0.11650273638E+02 -0.16690385764E+01  0.15106956942E+02  0.51100000000E-03 0.  1.
        -12    1    3    3    0    0  0.13559939507E+00 -0.10457239320E+01  0.90615935074E+00  0.13903418669E+01  0.00000000000E+00 0.  1.
</event>
<event>
 7    1  0.2732193E-010  0.4778727E+02  0.7816164E-02  0.1312668E+00
        -11   -1    0    0    0    0  0.00000000000E+00  0.00000000000E+00  0.45593999997E+02  0.45594000000E+02  0.51100000000E-03 0.  1.
         11   -1    0    0    0    0 -0.00000000000E+00 -0.00000000000E+00 -0.45593999997E+02  0.45594000000E+02  0.51100000000E-03 0. -1.
    9900012    2    1    2    0    0 -0.34355017415E+02 -0.15394215644E+02 -0.21595696267E+02  0.47787271963E+02  0.20000004189E+02 0.  0.
        -12    1    1    2    0    0  0.34355017415E+02  0.15394215644E+02  0.21595696267E+02  0.43400728037E+02  0.00000000000E+00 0.  1.
         11    1    3    3    0    0 -0.12946064085E+02  0.89122954789E+00 -0.90520407591E+01  0.15821956502E+02  0.51100000000E-03 0. -1.
        -11    1    3    3    0    0 -0.16953608561E+02 -0.17449488056E+02 -0.83078729009E+01  0.25708563341E+02  0.51100000000E-03 0.  1.
        -12    1    3    3    0    0 -0.44553447688E+01  0.11640428637E+01 -0.42357826070E+01  0.62567521200E+01  0.00000000000E+00 0.  1.
</event>
<event>
 7    1  0.2732193E-010  0.4778728E+02  0.7816164E-02  0.1312668E+00
        -11   -1    0    0    0    0  0.00000000000E+00  0.00000000000E+00  0.45593999997E+02  0.45594000000E+02  0.51100000000E-03 0.  1.
         11   -1    0    0    0    0 -0.00000000000E+00 -0.00000000000E+00 -0.45593999997E+02  0.45594000000E+02  0.51100000000E-03 0. -1.
    9900012    2    1    2    0    0  0.21348375709E+02 -0.17442029184E+02 -0.33520816324E+02  0.47787278180E+02  0.20000032534E+02 0.  0.
        -12    1    1    2    0    0 -0.21348375709E+02  0.17442029184E+02  0.33520816324E+02  0.43400721820E+02  0.00000000000E+00 0.  1.
         11    1    3    3    0    0  0.12923377147E+02 -0.24584058862E+01 -0.65081605631E+01  0.14676974844E+02  0.51100000000E-03 0. -1.
        -11    1    3    3    0    0 -0.47766641721E+00 -0.72225574434E+01 -0.11922255016E+02  0.13947532619E+02  0.51100000000E-03 0.  1.
         12    1    3    3    0    0  0.89026649791E+01 -0.77610658550E+01 -0.15090400745E+02  0.19162770717E+02  0.00000000000E+00 0. -1.
</event>
<event>
 7    1  0.2732193E-010  0.4778728E+02  0.7816164E-02  0.1312668E+00
        -11   -1    0    0    0    0  0.00000000000E+00  0.00000000000E+00  0.45593999997E+02  0.45594000000E+02  0.51100000000E-03 0. -1.
         11   -1    0    0    0    0 -0.00000000000E+00 -0.00000000000E+00 -0.45593999997E+02  0.45594000000E+02  0.51100000000E-03 0.  1.
    9900012    2    1    2    0    0 -0.35965652208E+02  0.24284537644E+02  0.59654352619E+00  0.47787276832E+02  0.20000026388E+02 0.  0.
        -12    1    1    2    0    0  0.35965652208E+02 -0.24284537644E+02 -0.59654352619E+00  0.43400723168E+02  0.00000000000E+00 0.  1.
         11    1    3    3    0    0 -0.85712157541E+01  0.63179931828E+01 -0.82454105213E+01  0.13467352089E+02  0.51100000000E-03 0. -1.
        -11    1    3    3    0    0 -0.21891949107E+02  0.12648823947E+02  0.50622882779E+01  0.25785207888E+02  0.51100000000E-03 0.  1.
         12    1    3    3    0    0 -0.55024873468E+01  0.53177205138E+01  0.37796657696E+01  0.85347168550E+01  0.00000000000E+00 0. -1.
</event>
<event>
 7    1  0.2732193E-010  0.4778727E+02  0.7816164E-02  0.1312668E+00
        -11   -1    0    0    0    0  0.00000000000E+00  0.00000000000E+00  0.45593999997E+02  0.45594000000E+02  0.51100000000E-03 0. -1.
         11   -1    0    0    0    0 -0.00000000000E+00 -0.00000000000E+00 -0.45593999997E+02  0.45594000000E+02  0.51100000000E-03 0.  1.
    9900012    2    1    2    0    0  0.24272244946E+02  0.25245393875E+02 -0.25634973829E+02  0.47787266483E+02  0.19999979202E+02 0.  0.
        -12    1    1    2    0    0 -0.24272244946E+02 -0.25245393875E+02  0.25634973829E+02  0.43400733517E+02  0.00000000000E+00 0.  1.
         11    1    3    3    0    0  0.11476402891E+02  0.21703628862E+02 -0.16635793350E+02  0.29656448705E+02  0.51100000000E-03 0.  1.
        -11    1    3    3    0    0  0.13227168369E+02  0.50592297401E+01 -0.81413658322E+01  0.16335104116E+02  0.51100000000E-03 0. -1.
         12    1    3    3    0    0 -0.43132631408E+00 -0.15174647272E+01 -0.85781464626E+00  0.17957136617E+01  0.00000000000E+00 0. -1.
</event>
<event>
 7    1  0.2732193E-010  0.4778727E+02  0.7816164E-02  0.1312668E+00
        -11   -1    0    0    0    0  0.00000000000E+00  0.00000000000E+00  0.45593999997E+02  0.45594000000E+02  0.51100000000E-03 0. -1.
         11   -1    0    0    0    0 -0.00000000000E+00 -0.00000000000E+00 -0.45593999997E+02  0.45594000000E+02  0.51100000000E-03 0.  1.
    9900012    2    1    2    0    0 -0.30040055834E+02 -0.13170593950E+02  0.28421007246E+02  0.47787272444E+02  0.20000006380E+02 0.  0.
        -12    1    1    2    0    0  0.30040055834E+02  0.13170593950E+02 -0.28421007246E+02  0.43400727556E+02  0.00000000000E+00 0.  1.
         11    1    3    3    0    0 -0.96666717912E+01  0.50522319352E+01  0.68733596134E+01  0.12892349037E+02  0.51100000000E-03 0. -1.
        -11    1    3    3    0    0 -0.16270089788E+02 -0.13131793305E+02  0.16363719794E+02  0.26550539408E+02  0.51100000000E-03 0.  1.
         12    1    3    3    0    0 -0.41032942551E+01 -0.50910325808E+01  0.51839278383E+01  0.83443839986E+01  0.00000000000E+00 0. -1.
</event>
<event>
 7    1  0.2732193E-010  0.4778728E+02  0.7816164E-02  0.1312668E+00
        -11   -1    0    0    0    0  0.00000000000E+00  0.00000000000E+00  0.45593999997E+02  0.45594000000E+02  0.51100000000E-03 0. -1.
         11   -1    0    0    0    0 -0.00000000000E+00 -0.00000000000E+00 -0.45593999997E+02  0.45594000000E+02  0.51100000000E-03 0.  1.
    9900012    2    1    2    0    0 -0.71982928420E+01 -0.33873689144E+02  0.26160667323E+02  0.47787277070E+02  0.20000027475E+02 0.  0.
        -12    1    1    2    0    0  0.71982928420E+01  0.33873689144E+02 -0.26160667323E+02  0.43400722930E+02  0.00000000000E+00 0.  1.
         11    1    3    3    0    0 -0.83734266893E+01 -0.13681689644E+02  0.19920793503E+02  0.25576178763E+02  0.51100000000E-03 0. -1.
        -11    1    3    3    0    0 -0.47391528698E+00 -0.35517266903E+01 -0.13738602297E+01  0.38375578658E+01  0.51100000000E-03 0.  1.
         12    1    3    3    0    0  0.16490491343E+01 -0.16640272809E+02  0.76137340495E+01  0.18373540442E+02  0.00000000000E+00 0. -1.
</event>
<event>
 7    1  0.2732193E-010  0.4778727E+02  0.7816164E-02  0.1312668E+00
        -11   -1    0    0    0    0  0.00000000000E+00  0.00000000000E+00  0.45593999997E+02  0.45594000000E+02  0.51100000000E-03 0. -1.
         11   -1    0    0    0    0 -0.00000000000E+00 -0.00000000000E+00 -0.45593999997E+02  0.45594000000E+02  0.51100000000E-03 0.  1.
    9900012    2    1    2    0    0 -0.20430532932E+01 -0.33055818423E+02  0.28049275944E+02  0.47787273285E+02  0.20000010217E+02 0.  0.
        -12    1    1    2    0    0  0.20430532932E+01  0.33055818423E+02 -0.28049275944E+02  0.43400726715E+02  0.00000000000E+00 0.  1.
         11    1    3    3    0    0 -0.20039992132E-01 -0.92137002775E+00  0.44182019289E+01  0.45132951238E+01  0.51100000000E-03 0.  1.
        -11    1    3    3    0    0 -0.15846280273E+01  0.15326691401E+01  0.12021627250E+00  0.22078434934E+01  0.51100000000E-03 0. -1.
        -12    1    3    3    0    0 -0.43838527370E+00 -0.33667117536E+02  0.23510857742E+02  0.41066134668E+02  0.00000000000E+00 0.  1.
</event>
<event>
 7    1  0.2732193E-010  0.4778728E+02  0.7816164E-02  0.1312668E+00
        -11   -1    0    0    0    0  0.00000000000E+00  0.00000000000E+00  0.45593999997E+02  0.45594000000E+02  0.51100000000E-03 0.  1.
         11   -1    0    0    0    0 -0.00000000000E+00 -0.00000000000E+00 -0.45593999997E+02  0.45594000000E+02  0.51100000000E-03 0. -1.
    9900012    2    1    2    0    0 -0.59891462678E+01  0.76983345102E+01 -0.42290517686E+02  0.47787284414E+02  0.20000060955E+02 0.  0.
        -12    1    1    2    0    0  0.59891462678E+01 -0.76983345102E+01  0.42290517686E+02  0.43400715586E+02  0.00000000000E+00 0.  1.
         11    1    3    3    0    0  0.54557615235E+01  0.55702054893E+00 -0.66344550192E+01  0.86076477249E+01  0.51100000000E-03 0. -1.
        -11    1    3    3    0    0 -0.57824731898E+01  0.84839918836E+01 -0.20094698510E+02  0.22565726732E+02  0.51100000000E-03 0.  1.
         12    1    3    3    0    0 -0.56624346015E+01 -0.13426779224E+01 -0.15561364157E+02  0.16613909957E+02  0.00000000000E+00 0. -1.
</event>
<event>
 7    1  0.2732193E-010  0.4778726E+02  0.7816164E-02  0.1312668E+00
        -11   -1    0    0    0    0  0.00000000000E+00  0.00000000000E+00  0.45593999997E+02  0.45594000000E+02  0.51100000000E-03 0.  1.
         11   -1    0    0    0    0 -0.00000000000E+00 -0.00000000000E+00 -0.45593999997E+02  0.45594000000E+02  0.51100000000E-03 0. -1.
    9900012    2    1    2    0    0 -0.23690990947E+02 -0.19041726707E+02 -0.30980222185E+02  0.47787256058E+02  0.19999931673E+02 0.  0.
        -12    1    1    2    0    0  0.23690990947E+02  0.19041726707E+02  0.30980222185E+02  0.43400743942E+02  0.00000000000E+00 0.  1.
         11    1    3    3    0    0 -0.25704257992E+02 -0.16307933703E+02 -0.30054212300E+02  0.42777485408E+02  0.51100000000E-03 0. -1.
        -11    1    3    3    0    0  0.21955640475E+01 -0.19849066225E+00  0.23176214881E+00  0.22166673148E+01  0.51100000000E-03 0.  1.
         12    1    3    3    0    0 -0.18229700273E+00 -0.25353023418E+01 -0.11577720333E+01  0.27931033355E+01  0.00000000000E+00 0. -1.
</event>
<event>
 7    1  0.2732193E-010  0.4778727E+02  0.7816164E-02  0.1312668E+00
        -11   -1    0    0    0    0  0.00000000000E+00  0.00000000000E+00  0.45593999997E+02  0.45594000000E+02  0.51100000000E-03 0.  1.
         11   -1    0    0    0    0 -0.00000000000E+00 -0.00000000000E+00 -0.45593999997E+02  0.45594000000E+02  0.51100000000E-03 0. -1.
    9900012    2    1    2    0    0  0.59649568963E+01  0.13045324860E+02 -0.40961714819E+02  0.47787270831E+02  0.19999999028E+02 0.  0.
        -12    1    1    2    0    0 -0.59649568963E+01 -0.13045324860E+02  0.40961714819E+02  0.43400729169E+02  0.00000000000E+00 0.  1.
         11    1    3    3    0    0 -0.31823994664E+01  0.79348038876E+01 -0.24241462044E+02  0.25704810083E+02  0.51100000000E-03 0. -1.
        -11    1    3    3    0    0  0.55725276651E+01  0.49296826284E+01 -0.32046276486E+01  0.81008934089E+01  0.51100000000E-03 0.  1.
        -12    1    3    3    0    0  0.35748286976E+01  0.18083834403E+00 -0.13515625126E+02  0.13981567340E+02  0.00000000000E+00 0.  1.
</event>
<event>
 7    1  0.2732193E-010  0.4778727E+02  0.7816164E-02  0.1312668E+00
        -11   -1    0    0    0    0  0.00000000000E+00  0.00000000000E+00  0.45593999997E+02  0.45594000000E+02  0.51100000000E-03 0.  1.
         11   -1    0    0    0    0 -0.00000000000E+00 -0.00000000000E+00 -0.45593999997E+02  0.45594000000E+02  0.51100000000E-03 0. -1.
    9900012    2    1    2    0    0 -0.16817203928E-01 -0.28708746338E+02 -0.32548900528E+02  0.47787270459E+02  0.19999997332E+02 0.  0.
        -12    1    1    2    0    0  0.16817203928E-01  0.28708746338E+02  0.32548900528E+02  0.43400729541E+02  0.00000000000E+00 0.  1.
         11    1    3    3    0    0 -0.33854467827E+01 -0.14854979095E+02 -0.11655027792E+02  0.19182578735E+02  0.51100000000E-03 0. -1.
        -11    1    3    3    0    0 -0.84898138039E+00  0.87561392291E+00  0.12047508583E+01  0.17143202787E+01  0.51100000000E-03 0.  1.
        -12    1    3    3    0    0  0.42176109592E+01 -0.14729381166E+02 -0.22098623594E+02  0.26890371446E+02  0.00000000000E+00 0.  1.
</event>
<event>
 7    1  0.2732193E-010  0.4778727E+02  0.7816164E-02  0.1312668E+00
        -11   -1    0    0    0    0  0.00000000000E+00  0.00000000000E+00  0.45593999997E+02  0.45594000000E+02  0.51100000000E-03 0.  1.
         11   -1    0    0    0    0 -0.00000000000E+00 -0.00000000000E+00 -0.45593999997E+02  0.45594000000E+02  0.51100000000E-03 0. -1.
    9900012    2    1    2    0    0 -0.71767254092E+01  0.93564811779E+01 -0.41768096736E+02  0.47787273824E+02  0.20000012674E+02 0.  0.
        -12    1    1    2    0    0  0.71767254092E+01 -0.93564811779E+01  0.41768096736E+02  0.43400726176E+02  0.00000000000E+00 0.  1.
         11    1    3    3    0    0 -0.94105784559E+01  0.10291959616E+02 -0.29805986937E+02  0.32907146293E+02  0.51100000000E-03 0. -1.
        -11    1    3    3    0    0  0.15822638887E+00 -0.10425439313E+01  0.11754861331E+01  0.15791457656E+01  0.51100000000E-03 0.  1.
         12    1    3    3    0    0  0.20756266578E+01  0.10706549291E+00 -0.13137595933E+02  0.13300981766E+02  0.00000000000E+00 0. -1.
</event>
<event>
 7    1  0.2732193E-010  0.4778727E+02  0.7816164E-02  0.1312668E+00
        -11   -1    0    0    0    0  0.00000000000E+00  0.00000000000E+00  0.45593999997E+02  0.45594000000E+02  0.51100000000E-03 0.  1.
         11   -1    0    0    0    0 -0.00000000000E+00 -0.00000000000E+00 -0.45593999997E+02  0.45594000000E+02  0.51100000000E-03 0. -1.
    9900012    2    1    2    0    0 -0.19490944059E+02 -0.13064043564E+02 -0.36511056510E+02  0.47787269798E+02  0.19999994317E+02 0.  0.
        -12    1    1    2    0    0  0.19490944059E+02  0.13064043564E+02  0.36511056510E+02  0.43400730202E+02  0.00000000000E+00 0.  1.
         11    1    3    3    0    0 -0.14553754456E+02 -0.12234209415E+02 -0.20646624237E+02  0.28067253898E+02  0.51100000000E-03 0. -1.
        -11    1    3    3    0    0  0.30578664662E+01  0.89199924835E-01 -0.75618616060E+01  0.81572210440E+01  0.51100000000E-03 0.  1.
        -12    1    3    3    0    0 -0.79950560693E+01 -0.91903407416E+00 -0.83025706678E+01  0.11562794856E+02  0.00000000000E+00 0.  1.
</event>
<event>
 7    1  0.2732193E-010  0.4778727E+02  0.7816164E-02  0.1312668E+00
        -11   -1    0    0    0    0  0.00000000000E+00  0.00000000000E+00  0.45593999997E+02  0.45594000000E+02  0.51100000000E-03 0.  1.
         11   -1    0    0    0    0 -0.00000000000E+00 -0.00000000000E+00 -0.45593999997E+02  0.45594000000E+02  0.51100000000E-03 0. -1.
    9900012    2    1    2    0    0  0.28214745620E+02 -0.32914201231E+02 -0.20510595012E+01  0.47787270074E+02  0.19999995575E+02 0.  0.
        -12    1    1    2    0    0 -0.28214745620E+02  0.32914201231E+02  0.20510595012E+01  0.43400729926E+02  0.00000000000E+00 0.  1.
         11    1    3    3    0    0  0.24242335748E+02 -0.20390822422E+02 -0.45124012077E+01  0.31997472502E+02  0.51100000000E-03 0. -1.
        -11    1    3    3    0    0 -0.15349793816E+01 -0.63242043448E+01 -0.13776192555E+01  0.66520340776E+01  0.51100000000E-03 0.  1.
         12    1    3    3    0    0  0.55073892530E+01 -0.61991744637E+01  0.38389609620E+01  0.91377634946E+01  0.00000000000E+00 0. -1.
</event>
<event>
 7    1  0.2732193E-010  0.4778727E+02  0.7816164E-02  0.1312668E+00
        -11   -1    0    0    0    0  0.00000000000E+00  0.00000000000E+00  0.45593999997E+02  0.45594000000E+02  0.51100000000E-03 0.  1.
         11   -1    0    0    0    0 -0.00000000000E+00 -0.00000000000E+00 -0.45593999997E+02  0.45594000000E+02  0.51100000000E-03 0. -1.
    9900012    2    1    2    0    0 -0.21537043351E+01  0.16497037440E+02 -0.40085315930E+02  0.47787271437E+02  0.20000001788E+02 0.  0.
        -12    1    1    2    0    0  0.21537043351E+01 -0.16497037440E+02  0.40085315930E+02  0.43400728563E+02  0.00000000000E+00 0.  1.
         11    1    3    3    0    0  0.31564293822E+00  0.15773271552E+01 -0.27537641781E+02  0.27584584582E+02  0.51100000000E-03 0. -1.
        -11    1    3    3    0    0 -0.33580947197E+00  0.11531196933E+02 -0.10905251013E+02  0.15874689623E+02  0.51100000000E-03 0.  1.
        -12    1    3    3    0    0 -0.21335378014E+01  0.33885133514E+01 -0.16424231357E+01  0.43279972319E+01  0.00000000000E+00 0.  1.
</event>
<event>
 7    1  0.2732193E-010  0.4778727E+02  0.7816164E-02  0.1312668E+00
        -11   -1    0    0    0    0  0.00000000000E+00  0.00000000000E+00  0.45593999997E+02  0.45594000000E+02  0.51100000000E-03 0. -1.
         11   -1    0    0    0    0 -0.00000000000E+00 -0.00000000000E+00 -0.45593999997E+02  0.45594000000E+02  0.51100000000E-03 0.  1.
    9900012    2    1    2    0    0  0.32782136333E+01  0.19086656942E+02  0.38840391673E+02  0.47787272089E+02  0.20000004764E+02 0.  0.
        -12    1    1    2    0    0 -0.32782136333E+01 -0.19086656942E+02 -0.38840391673E+02  0.43400727911E+02  0.00000000000E+00 0.  1.
         11    1    3    3    0    0  0.80793102097E+01  0.92532820305E+01  0.11792488840E+02  0.17028249326E+02  0.51100000000E-03 0. -1.
        -11    1    3    3    0    0 -0.46843106389E+01  0.25776820722E+00  0.12407527043E+02  0.13264838416E+02  0.51100000000E-03 0.  1.
        -12    1    3    3    0    0 -0.11678593755E+00  0.95756067041E+01  0.14640375790E+02  0.17494184347E+02  0.00000000000E+00 0.  1.
</event>
<event>
 7    1  0.2732193E-010  0.4778725E+02  0.7816164E-02  0.1312668E+00
        -11   -1    0    0    0    0  0.00000000000E+00  0.00000000000E+00  0.45593999997E+02  0.45594000000E+02  0.51100000000E-03 0.  1.
         11   -1    0    0    0    0 -0.00000000000E+00 -0.00000000000E+00 -0.45593999997E+02  0.45594000000E+02  0.51100000000E-03 0. -1.
    9900012    2    1    2    0    0 -0.13276767532E+02 -0.10913167499E+02 -0.39852920847E+02  0.47787250225E+02  0.19999905076E+02 0.  0.
        -12    1    1    2    0    0  0.13276767532E+02  0.10913167499E+02  0.39852920847E+02  0.43400749775E+02  0.00000000000E+00 0.  1.
         11    1    3    3    0    0 -0.78949834429E+01  0.42253946321E+01 -0.95521764308E+01  0.13093082074E+02  0.51100000000E-03 0. -1.
        -11    1    3    3    0    0  0.28848946817E+00 -0.55051507841E+01 -0.12684615561E+02  0.13830740527E+02  0.51100000000E-03 0.  1.
         12    1    3    3    0    0 -0.56702735578E+01 -0.96334113473E+01 -0.17616128855E+02  0.20863427624E+02  0.00000000000E+00 0. -1.
</event>
<event>
 7    1  0.2732193E-010  0.4778727E+02  0.7816164E-02  0.1312668E+00
        -11   -1    0    0    0    0  0.00000000000E+00  0.00000000000E+00  0.45593999997E+02  0.45594000000E+02  0.51100000000E-03 0.  1.
         11   -1    0    0    0    0 -0.00000000000E+00 -0.00000000000E+00 -0.45593999997E+02  0.45594000000E+02  0.51100000000E-03 0. -1.
    9900012    2    1    2    0    0 -0.19033405787E+02  0.35181432278E+01 -0.38845528386E+02  0.47787274854E+02  0.20000017368E+02 0.  0.
        -12    1    1    2    0    0  0.19033405787E+02 -0.35181432278E+01  0.38845528386E+02  0.43400725146E+02  0.00000000000E+00 0.  1.
         11    1    3    3    0    0 -0.19888560189E+02  0.18570986670E+01 -0.23015425637E+02  0.30474800399E+02  0.51100000000E-03 0. -1.
        -11    1    3    3    0    0  0.18694400447E+01  0.26674165533E+01 -0.30810782869E+01  0.44836325475E+01  0.51100000000E-03 0.  1.
         12    1    3    3    0    0 -0.10142856430E+01 -0.10063719924E+01 -0.12749024461E+02  0.12828841907E+02  0.00000000000E+00 0. -1.
</event>
<event>
 7    1  0.2732193E-010  0.4778727E+02  0.7816164E-02  0.1312668E+00
        -11   -1    0    0    0    0  0.00000000000E+00  0.00000000000E+00  0.45593999997E+02  0.45594000000E+02  0.51100000000E-03 0. -1.
         11   -1    0    0    0    0 -0.00000000000E+00 -0.00000000000E+00 -0.45593999997E+02  0.45594000000E+02  0.51100000000E-03 0.  1.
    9900012    2    1    2    0    0  0.28648922138E+02 -0.20686709136E+02  0.25197669033E+02  0.47787271904E+02  0.20000003920E+02 0.  0.
        -12    1    1    2    0    0 -0.28648922138E+02  0.20686709136E+02 -0.25197669033E+02  0.43400728096E+02  0.00000000000E+00 0.  1.
         11    1    3    3    0    0  0.57792951431E+01 -0.89867865363E+00  0.14734334543E+01  0.60314908670E+01  0.51100000000E-03 0. -1.
        -11    1    3    3    0    0  0.20809020932E+02 -0.81208847621E+01  0.17475481955E+02  0.28361181063E+02  0.51100000000E-03 0.  1.
        -12    1    3    3    0    0  0.20606060627E+01 -0.11667145721E+02  0.62487536234E+01  0.13394599974E+02  0.00000000000E+00 0.  1.
</event>
<event>
 7    1  0.2732193E-010  0.4778727E+02  0.7816164E-02  0.1312668E+00
        -11   -1    0    0    0    0  0.00000000000E+00  0.00000000000E+00  0.45593999997E+02  0.45594000000E+02  0.51100000000E-03 0.  1.
         11   -1    0    0    0    0 -0.00000000000E+00 -0.00000000000E+00 -0.45593999997E+02  0.45594000000E+02  0.51100000000E-03 0. -1.
    9900012    2    1    2    0    0 -0.35209476647E+01  0.15489169453E+01 -0.43229933844E+02  0.47787269634E+02  0.19999993569E+02 0.  0.
        -12    1    1    2    0    0  0.35209476647E+01 -0.15489169453E+01  0.43229933844E+02  0.43400730366E+02  0.00000000000E+00 0.  1.
         11    1    3    3    0    0  0.50917133181E+01  0.50555411164E+01 -0.17458157860E+02  0.18875150771E+02  0.51100000000E-03 0. -1.
        -11    1    3    3    0    0 -0.80778024968E+01 -0.41487651702E+01 -0.26366445906E+02  0.27886423499E+02  0.51100000000E-03 0.  1.
         12    1    3    3    0    0 -0.53485848599E+00  0.64214099909E+00  0.59466992225E+00  0.10256953637E+01  0.00000000000E+00 0. -1.
</event>
<event>
 7    1  0.2732193E-010  0.4778727E+02  0.7816164E-02  0.1312668E+00
        -11   -1    0    0    0    0  0.00000000000E+00  0.00000000000E+00  0.45593999997E+02  0.45594000000E+02  0.51100000000E-03 0. -1.
         11   -1    0    0    0    0 -0.00000000000E+00 -0.00000000000E+00 -0.45593999997E+02  0.45594000000E+02  0.51100000000E-03 0.  1.
    9900012    2    1    2    0    0  0.67436683374E+01 -0.35706109823E+02  0.23732254001E+02  0.47787271650E+02  0.20000002761E+02 0.  0.
        -12    1    1    2    0    0 -0.67436683374E+01  0.35706109823E+02 -0.23732254001E+02  0.43400728350E+02  0.00000000000E+00 0.  1.
         11    1    3    3    0    0  0.22064363272E+01 -0.14175497864E+02  0.69041219224E+01  0.15921055265E+02  0.51100000000E-03 0. -1.
        -11    1    3    3    0    0  0.46114188070E+01  0.83377609146E+00  0.32435692879E+01  0.56992199441E+01  0.51100000000E-03 0.  1.
        -12    1    3    3    0    0 -0.74186796787E-01 -0.22364388050E+02  0.13584562791E+02  0.26166996441E+02  0.00000000000E+00 0.  1.
</event>
<event>
 7    1  0.2732193E-010  0.4778727E+02  0.7816164E-02  0.1312668E+00
        -11   -1    0    0    0    0  0.00000000000E+00  0.00000000000E+00  0.45593999997E+02  0.45594000000E+02  0.51100000000E-03 0.  1.
         11   -1    0    0    0    0 -0.00000000000E+00 -0.00000000000E+00 -0.45593999997E+02  0.45594000000E+02  0.51100000000E-03 0. -1.
    9900012    2    1    2    0    0  0.67611104250E+01  0.21257317591E+02 -0.37229519688E+02  0.47787270726E+02  0.19999998549E+02 0.  0.
        -12    1    1    2    0    0 -0.67611104250E+01 -0.21257317591E+02  0.37229519688E+02  0.43400729274E+02  0.00000000000E+00 0.  1.
         11    1    3    3    0    0  0.60468823239E+01  0.24278487039E+01 -0.27214117463E+01  0.70615378864E+01  0.51100000000E-03 0.  1.
        -11    1    3    3    0    0 -0.17463654599E+01  0.21819489907E+00 -0.41899173535E+00  0.18091311917E+01  0.51100000000E-03 0. -1.
         12    1    3    3    0    0  0.24605935609E+01  0.18611273988E+02 -0.34089116206E+02  0.38916601648E+02  0.00000000000E+00 0. -1.
</event>
<event>
 7    1  0.2732193E-010  0.4778727E+02  0.7816164E-02  0.1312668E+00
        -11   -1    0    0    0    0  0.00000000000E+00  0.00000000000E+00  0.45593999997E+02  0.45594000000E+02  0.51100000000E-03 0.  1.
         11   -1    0    0    0    0 -0.00000000000E+00 -0.00000000000E+00 -0.45593999997E+02  0.45594000000E+02  0.51100000000E-03 0. -1.
    9900012    2    1    2    0    0 -0.67400737536E+00  0.16443990508E+02 -0.40159234518E+02  0.47787271586E+02  0.20000002470E+02 0.  0.
        -12    1    1    2    0    0  0.67400737536E+00 -0.16443990508E+02  0.40159234518E+02  0.43400728414E+02  0.00000000000E+00 0.  1.
         11    1    3    3    0    0  0.56291758575E+01  0.12670933617E+01 -0.37911199159E+01  0.69040377244E+01  0.51100000000E-03 0.  1.
        -11    1    3    3    0    0 -0.15834644653E+01  0.27519239504E+01 -0.13917087102E+01  0.34665975447E+01  0.51100000000E-03 0. -1.
         12    1    3    3    0    0 -0.47197187675E+01  0.12424973196E+02 -0.34976405892E+02  0.37416636317E+02  0.00000000000E+00 0. -1.
</event>
<event>
 7    1  0.2732193E-010  0.4778727E+02  0.7816164E-02  0.1312668E+00
        -11   -1    0    0    0    0  0.00000000000E+00  0.00000000000E+00  0.45593999997E+02  0.45594000000E+02  0.51100000000E-03 0.  1.
         11   -1    0    0    0    0 -0.00000000000E+00 -0.00000000000E+00 -0.45593999997E+02  0.45594000000E+02  0.51100000000E-03 0. -1.
    9900012    2    1    2    0    0  0.25458837235E+02  0.22658632353E+01 -0.35076157331E+02  0.47787270252E+02  0.19999996387E+02 0.  0.
        -12    1    1    2    0    0 -0.25458837235E+02 -0.22658632353E+01  0.35076157331E+02  0.43400729748E+02  0.00000000000E+00 0.  1.
         11    1    3    3    0    0  0.12329475777E+02  0.80718279501E+01 -0.17947382411E+02  0.23222379617E+02  0.51100000000E-03 0. -1.
        -11    1    3    3    0    0  0.26483107783E+01  0.29371145188E+01 -0.36263020946E+01  0.53656554882E+01  0.51100000000E-03 0.  1.
         12    1    3    3    0    0  0.10481050680E+02 -0.87430792336E+01 -0.13502472825E+02  0.19199235147E+02  0.00000000000E+00 0. -1.
</event>
<event>
 7    1  0.2732193E-010  0.4778727E+02  0.7816164E-02  0.1312668E+00
        -11   -1    0    0    0    0  0.00000000000E+00  0.00000000000E+00  0.45593999997E+02  0.45594000000E+02  0.51100000000E-03 0.  1.
         11   -1    0    0    0    0 -0.00000000000E+00 -0.00000000000E+00 -0.45593999997E+02  0.45594000000E+02  0.51100000000E-03 0. -1.
    9900012    2    1    2    0    0  0.19475595030E+02 -0.24580096331E+01 -0.38707659504E+02  0.47787268239E+02  0.19999987208E+02 0.  0.
        -12    1    1    2    0    0 -0.19475595030E+02  0.24580096331E+01  0.38707659504E+02  0.43400731761E+02  0.00000000000E+00 0.  1.
         11    1    3    3    0    0  0.11234893720E+02  0.48162047411E+01 -0.30112913886E+02  0.32499326886E+02  0.51100000000E-03 0. -1.
        -11    1    3    3    0    0 -0.65040231023E-01 -0.35248665070E+01 -0.22065371426E+01  0.41590528425E+01  0.51100000000E-03 0.  1.
         12    1    3    3    0    0  0.83057415402E+01 -0.37493478672E+01 -0.63882084752E+01  0.11128888511E+02  0.00000000000E+00 0. -1.
</event>
<event>
 7    1  0.2732193E-010  0.4778727E+02  0.7816164E-02  0.1312668E+00
        -11   -1    0    0    0    0  0.00000000000E+00  0.00000000000E+00  0.45593999997E+02  0.45594000000E+02  0.51100000000E-03 0.  1.
         11   -1    0    0    0    0 -0.00000000000E+00 -0.00000000000E+00 -0.45593999997E+02  0.45594000000E+02  0.51100000000E-03 0. -1.
    9900012    2    1    2    0    0 -0.19699622936E+02 -0.86517631217E+01 -0.37692111367E+02  0.47787269497E+02  0.19999992944E+02 0.  0.
        -12    1    1    2    0    0  0.19699622936E+02  0.86517631217E+01  0.37692111367E+02  0.43400730503E+02  0.00000000000E+00 0.  1.
         11    1    3    3    0    0 -0.11836462315E+02 -0.71951683146E+00 -0.25863017864E+02  0.28451981265E+02  0.51100000000E-03 0. -1.
        -11    1    3    3    0    0  0.20937673819E+01 -0.33020987344E+01 -0.12954472245E+01  0.41189685206E+01  0.51100000000E-03 0.  1.
        -12    1    3    3    0    0 -0.99569280028E+01 -0.46301475558E+01 -0.10533646278E+02  0.15216319711E+02  0.00000000000E+00 0.  1.
</event>
<event>
 7    1  0.2732193E-010  0.4778726E+02  0.7816164E-02  0.1312668E+00
        -11   -1    0    0    0    0  0.00000000000E+00  0.00000000000E+00  0.45593999997E+02  0.45594000000E+02  0.51100000000E-03 0. -1.
         11   -1    0    0    0    0 -0.00000000000E+00 -0.00000000000E+00 -0.45593999997E+02  0.45594000000E+02  0.51100000000E-03 0.  1.
    9900012    2    1    2    0    0  0.95830420000E+01 -0.80246855137E+01  0.41561927812E+02  0.47787261354E+02  0.19999955817E+02 0.  0.
        -12    1    1    2    0    0 -0.95830420000E+01  0.80246855137E+01 -0.41561927812E+02  0.43400738646E+02  0.00000000000E+00 0.  1.
         11    1    3    3    0    0  0.61017879063E+01  0.18922149205E+01  0.11162973681E+02  0.12861736843E+02  0.51100000000E-03 0. -1.
        -11    1    3    3    0    0 -0.12582448030E+01  0.26399611874E+01  0.20852285215E+01  0.35917618661E+01  0.51100000000E-03 0.  1.
         12    1    3    3    0    0  0.47394988967E+01 -0.12556861622E+02  0.28313725610E+02  0.31333762645E+02  0.00000000000E+00 0. -1.
</event>
<event>
 7    1  0.2732193E-010  0.4778725E+02  0.7816164E-02  0.1312668E+00
        -11   -1    0    0    0    0  0.00000000000E+00  0.00000000000E+00  0.45593999997E+02  0.45594000000E+02  0.51100000000E-03 0.  1.
         11   -1    0    0    0    0 -0.00000000000E+00 -0.00000000000E+00 -0.45593999997E+02  0.45594000000E+02  0.51100000000E-03 0. -1.
    9900012    2    1    2    0    0 -0.32433046372E+02  0.88332232893E+01 -0.27453541846E+02  0.47787247811E+02  0.19999894069E+02 0.  0.
        -12    1    1    2    0    0  0.32433046372E+02 -0.88332232893E+01  0.27453541846E+02  0.43400752189E+02  0.00000000000E+00 0.  1.
         11    1    3    3    0    0 -0.19006952933E+02  0.12795485994E+02 -0.23897025311E+02  0.33106744639E+02  0.51100000000E-03 0. -1.
        -11    1    3    3    0    0 -0.13530829425E+02 -0.40039641322E+01 -0.34523261518E+01  0.14526996586E+02  0.51100000000E-03 0.  1.
        -12    1    3    3    0    0  0.10473598570E+00  0.41701427620E-01 -0.10419038356E+00  0.15350658550E+00  0.00000000000E+00 0.  1.
</event>
<event>
 7    1  0.2732193E-010  0.4778727E+02  0.7816164E-02  0.1312668E+00
        -11   -1    0    0    0    0  0.00000000000E+00  0.00000000000E+00  0.45593999997E+02  0.45594000000E+02  0.51100000000E-03 0.  1.
         11   -1    0    0    0    0 -0.00000000000E+00 -0.00000000000E+00 -0.45593999997E+02  0.45594000000E+02  0.51100000000E-03 0. -1.
    9900012    2    1    2    0    0  0.27745771268E+01 -0.17073455341E+02 -0.39804801530E+02  0.47787269817E+02  0.19999994405E+02 0.  0.
        -12    1    1    2    0    0 -0.27745771268E+01  0.17073455341E+02  0.39804801530E+02  0.43400730183E+02  0.00000000000E+00 0.  1.
         11    1    3    3    0    0 -0.13598228978E+01 -0.10433078657E+02 -0.76674511912E+01  0.13018757875E+02  0.51100000000E-03 0. -1.
        -11    1    3    3    0    0  0.76612832677E+01 -0.40904797140E+01 -0.18171861488E+02  0.20140601674E+02  0.51100000000E-03 0.  1.
         12    1    3    3    0    0 -0.35268832432E+01 -0.25498969707E+01 -0.13965488851E+02  0.14627910269E+02  0.00000000000E+00 0. -1.
</event>
<event>
 7    1  0.2732193E-010  0.4778727E+02  0.7816164E-02  0.1312668E+00
        -11   -1    0    0    0    0  0.00000000000E+00  0.00000000000E+00  0.45593999997E+02  0.45594000000E+02  0.51100000000E-03 0.  1.
         11   -1    0    0    0    0 -0.00000000000E+00 -0.00000000000E+00 -0.45593999997E+02  0.45594000000E+02  0.51100000000E-03 0. -1.
    9900012    2    1    2    0    0 -0.21742941512E+02 -0.25625542943E+00 -0.37560644574E+02  0.47787271973E+02  0.20000004235E+02 0.  0.
        -12    1    1    2    0    0  0.21742941512E+02  0.25625542943E+00  0.37560644574E+02  0.43400728027E+02  0.00000000000E+00 0.  1.
         11    1    3    3    0    0 -0.13834361059E+02  0.26690865252E+01 -0.86890242240E+01  0.16553329303E+02  0.51100000000E-03 0. -1.
        -11    1    3    3    0    0 -0.73589364116E+01 -0.55152159793E+01 -0.23754192920E+02  0.25472205126E+02  0.51100000000E-03 0.  1.
        -12    1    3    3    0    0 -0.54964404162E+00  0.25898740247E+01 -0.51174274294E+01  0.57617375445E+01  0.00000000000E+00 0.  1.
</event>
<event>
 7    1  0.2732193E-010  0.4778727E+02  0.7816164E-02  0.1312668E+00
        -11   -1    0    0    0    0  0.00000000000E+00  0.00000000000E+00  0.45593999997E+02  0.45594000000E+02  0.51100000000E-03 0.  1.
         11   -1    0    0    0    0 -0.00000000000E+00 -0.00000000000E+00 -0.45593999997E+02  0.45594000000E+02  0.51100000000E-03 0. -1.
    9900012    2    1    2    0    0 -0.30803372664E+02 -0.15655269655E+02 -0.26261914111E+02  0.47787269958E+02  0.19999995045E+02 0.  0.
        -12    1    1    2    0    0  0.30803372664E+02  0.15655269655E+02  0.26261914111E+02  0.43400730042E+02  0.00000000000E+00 0.  1.
         11    1    3    3    0    0 -0.12437276497E+02  0.18132716574E+01 -0.30676792179E+01  0.12937714513E+02  0.51100000000E-03 0. -1.
        -11    1    3    3    0    0 -0.44365167414E+01 -0.69902507945E+01 -0.50934865088E+01  0.97205911365E+01  0.51100000000E-03 0.  1.
         12    1    3    3    0    0 -0.13929579426E+02 -0.10478290518E+02 -0.18100748384E+02  0.25128964308E+02  0.00000000000E+00 0. -1.
</event>
<event>
 7    1  0.2732193E-010  0.4778727E+02  0.7816164E-02  0.1312668E+00
        -11   -1    0    0    0    0  0.00000000000E+00  0.00000000000E+00  0.45593999997E+02  0.45594000000E+02  0.51100000000E-03 0. -1.
         11   -1    0    0    0    0 -0.00000000000E+00 -0.00000000000E+00 -0.45593999997E+02  0.45594000000E+02  0.51100000000E-03 0.  1.
    9900012    2    1    2    0    0 -0.11742891782E+02  0.19608735284E+02 -0.36894784355E+02  0.47787272824E+02  0.20000008113E+02 0.  0.
        -12    1    1    2    0    0  0.11742891782E+02 -0.19608735284E+02  0.36894784355E+02  0.43400727176E+02  0.00000000000E+00 0.  1.
         11    1    3    3    0    0 -0.70338366501E+01  0.54267799788E+01 -0.95537059168E+01  0.13045999232E+02  0.51100000000E-03 0. -1.
        -11    1    3    3    0    0 -0.79781394145E+01  0.15658827262E+02 -0.20384457720E+02  0.26914228515E+02  0.51100000000E-03 0.  1.
        -12    1    3    3    0    0  0.32690842822E+01 -0.14768719575E+01 -0.69566207177E+01  0.78270450767E+01  0.00000000000E+00 0.  1.
</event>
<event>
 7    1  0.2732193E-010  0.4778727E+02  0.7816164E-02  0.1312668E+00
        -11   -1    0    0    0    0  0.00000000000E+00  0.00000000000E+00  0.45593999997E+02  0.45594000000E+02  0.51100000000E-03 0.  1.
         11   -1    0    0    0    0 -0.00000000000E+00 -0.00000000000E+00 -0.45593999997E+02  0.45594000000E+02  0.51100000000E-03 0. -1.
    9900012    2    1    2    0    0 -0.42791390132E+02  0.53250023125E+01 -0.49157582026E+01  0.47787269617E+02  0.19999993493E+02 0.  0.
        -12    1    1    2    0    0  0.42791390132E+02 -0.53250023125E+01  0.49157582026E+01  0.43400730383E+02  0.00000000000E+00 0.  1.
         11    1    3    3    0    0 -0.40702680557E+01  0.11593218037E+01 -0.42644377874E+01  0.60080395299E+01  0.51100000000E-03 0. -1.
        -11    1    3    3    0    0 -0.23839143625E+02 -0.18014528246E+01 -0.63952468406E+01  0.24747710671E+02  0.51100000000E-03 0.  1.
        -12    1    3    3    0    0 -0.14881978451E+02  0.59671333334E+01  0.57439264253E+01  0.17031519416E+02  0.00000000000E+00 0.  1.
</event>
<event>
 7    1  0.2732193E-010  0.4778727E+02  0.7816164E-02  0.1312668E+00
        -11   -1    0    0    0    0  0.00000000000E+00  0.00000000000E+00  0.45593999997E+02  0.45594000000E+02  0.51100000000E-03 0.  1.
         11   -1    0    0    0    0 -0.00000000000E+00 -0.00000000000E+00 -0.45593999997E+02  0.45594000000E+02  0.51100000000E-03 0. -1.
    9900012    2    1    2    0    0 -0.19768026214E+02  0.39109386563E+01 -0.38438950182E+02  0.47787271980E+02  0.20000004266E+02 0.  0.
        -12    1    1    2    0    0  0.19768026214E+02 -0.39109386563E+01  0.38438950182E+02  0.43400728020E+02  0.00000000000E+00 0.  1.
         11    1    3    3    0    0 -0.75426573097E+01  0.14480264381E+01 -0.71963397887E+01  0.10525006721E+02  0.51100000000E-03 0. -1.
        -11    1    3    3    0    0 -0.14946860174E+02 -0.44948076316E+00 -0.29146585689E+02  0.32758725854E+02  0.51100000000E-03 0.  1.
        -12    1    3    3    0    0  0.27214912700E+01  0.29123929814E+01 -0.20960247043E+01  0.45035394049E+01  0.00000000000E+00 0.  1.
</event>
<event>
 7    1  0.2732193E-010  0.4778727E+02  0.7816164E-02  0.1312668E+00
        -11   -1    0    0    0    0  0.00000000000E+00  0.00000000000E+00  0.45593999997E+02  0.45594000000E+02  0.51100000000E-03 0.  1.
         11   -1    0    0    0    0 -0.00000000000E+00 -0.00000000000E+00 -0.45593999997E+02  0.45594000000E+02  0.51100000000E-03 0. -1.
    9900012    2    1    2    0    0 -0.16392058298E+02 -0.62842126552E+01 -0.39691721179E+02  0.47787266895E+02  0.19999981080E+02 0.  0.
        -12    1    1    2    0    0  0.16392058298E+02  0.62842126552E+01  0.39691721179E+02  0.43400733105E+02  0.00000000000E+00 0.  1.
         11    1    3    3    0    0 -0.11042953150E+02 -0.53824852843E+01 -0.18335073556E+02  0.22070180893E+02  0.51100000000E-03 0. -1.
        -11    1    3    3    0    0 -0.15971277029E+01  0.12560217354E+01  0.14546011761E+01  0.24988542058E+01  0.51100000000E-03 0.  1.
        -12    1    3    3    0    0 -0.37519774456E+01 -0.21577491063E+01 -0.22811248799E+02  0.23218231796E+02  0.00000000000E+00 0.  1.
</event>
<event>
 7    1  0.2732193E-010  0.4778727E+02  0.7816164E-02  0.1312668E+00
        -11   -1    0    0    0    0  0.00000000000E+00  0.00000000000E+00  0.45593999997E+02  0.45594000000E+02  0.51100000000E-03 0.  1.
         11   -1    0    0    0    0 -0.00000000000E+00 -0.00000000000E+00 -0.45593999997E+02  0.45594000000E+02  0.51100000000E-03 0. -1.
    9900012    2    1    2    0    0 -0.30340916907E+02 -0.20581221161E+02 -0.23226393922E+02  0.47787270999E+02  0.19999999792E+02 0.  0.
        -12    1    1    2    0    0  0.30340916907E+02  0.20581221161E+02  0.23226393922E+02  0.43400729001E+02  0.00000000000E+00 0.  1.
         11    1    3    3    0    0 -0.25475948575E+02 -0.77147265188E+01 -0.13329075721E+02  0.29769199198E+02  0.51100000000E-03 0. -1.
        -11    1    3    3    0    0 -0.69372098793E+00 -0.84086594605E+01 -0.79949085042E+01  0.11623483341E+02  0.51100000000E-03 0.  1.
        -12    1    3    3    0    0 -0.41712473435E+01 -0.44578351815E+01 -0.19024096967E+01  0.63945884591E+01  0.00000000000E+00 0.  1.
</event>
<event>
 7    1  0.2732193E-010  0.4778727E+02  0.7816164E-02  0.1312668E+00
        -11   -1    0    0    0    0  0.00000000000E+00  0.00000000000E+00  0.45593999997E+02  0.45594000000E+02  0.51100000000E-03 0.  1.
         11   -1    0    0    0    0 -0.00000000000E+00 -0.00000000000E+00 -0.45593999997E+02  0.45594000000E+02  0.51100000000E-03 0. -1.
    9900012    2    1    2    0    0  0.35777018866E+02 -0.22884587412E+02 -0.89400096744E+01  0.47787271977E+02  0.20000004252E+02 0.  0.
        -12    1    1    2    0    0 -0.35777018866E+02  0.22884587412E+02  0.89400096744E+01  0.43400728023E+02  0.00000000000E+00 0.  1.
         11    1    3    3    0    0  0.24384397016E+02 -0.83412389236E+01 -0.77673265903E+01  0.26916657430E+02  0.51100000000E-03 0. -1.
        -11    1    3    3    0    0  0.57065069730E+01 -0.10886970978E+02 -0.48033981141E+01  0.13197082731E+02  0.51100000000E-03 0.  1.
         12    1    3    3    0    0  0.56861148771E+01 -0.36563775099E+01  0.36307150300E+01  0.76735318152E+01  0.00000000000E+00 0. -1.
</event>
<event>
 7    1  0.2732193E-010  0.4778727E+02  0.7816164E-02  0.1312668E+00
        -11   -1    0    0    0    0  0.00000000000E+00  0.00000000000E+00  0.45593999997E+02  0.45594000000E+02  0.51100000000E-03 0. -1.
         11   -1    0    0    0    0 -0.00000000000E+00 -0.00000000000E+00 -0.45593999997E+02  0.45594000000E+02  0.51100000000E-03 0.  1.
    9900012    2    1    2    0    0 -0.19035008027E+02 -0.30512600547E+02 -0.24295539476E+02  0.47787267734E+02  0.19999984908E+02 0.  0.
        -12    1    1    2    0    0  0.19035008027E+02  0.30512600547E+02  0.24295539476E+02  0.43400732266E+02  0.00000000000E+00 0.  1.
         11    1    3    3    0    0 -0.14203449850E+02 -0.20527325262E+02 -0.13847988212E+02  0.28546030334E+02  0.51100000000E-03 0. -1.
        -11    1    3    3    0    0 -0.97867019956E+00  0.87505486242E+00  0.19272138374E+01  0.23318811737E+01  0.51100000000E-03 0.  1.
        -12    1    3    3    0    0 -0.38528879779E+01 -0.10860330147E+02 -0.12374765101E+02  0.16909356226E+02  0.00000000000E+00 0.  1.
</event>
<event>
 7    1  0.2732193E-010  0.4778727E+02  0.7816164E-02  0.1312668E+00
        -11   -1    0    0    0    0  0.00000000000E+00  0.00000000000E+00  0.45593999997E+02  0.45594000000E+02  0.51100000000E-03 0.  1.
         11   -1    0    0    0    0 -0.00000000000E+00 -0.00000000000E+00 -0.45593999997E+02  0.45594000000E+02  0.51100000000E-03 0. -1.
    9900012    2    1    2    0    0 -0.28033289536E+02 -0.32710693847E+02  0.52696155025E+01  0.47787266576E+02  0.19999979627E+02 0.  0.
        -12    1    1    2    0    0  0.28033289536E+02  0.32710693847E+02 -0.52696155025E+01  0.43400733424E+02  0.00000000000E+00 0.  1.
         11    1    3    3    0    0 -0.65535032186E+01  0.12484144634E+01  0.31653220960E+00  0.66788573880E+01  0.51100000000E-03 0. -1.
        -11    1    3    3    0    0 -0.29082655732E+01 -0.51049805838E+01 -0.17818836325E+01  0.61395394734E+01  0.51100000000E-03 0.  1.
         12    1    3    3    0    0 -0.18571520744E+02 -0.28854127727E+02  0.67349669254E+01  0.34968869715E+02  0.00000000000E+00 0. -1.
</event>
<event>
 7    1  0.2732193E-010  0.4778727E+02  0.7816164E-02  0.1312668E+00
        -11   -1    0    0    0    0  0.00000000000E+00  0.00000000000E+00  0.45593999997E+02  0.45594000000E+02  0.51100000000E-03 0.  1.
         11   -1    0    0    0    0 -0.00000000000E+00 -0.00000000000E+00 -0.45593999997E+02  0.45594000000E+02  0.51100000000E-03 0. -1.
    9900012    2    1    2    0    0 -0.26786886584E+02  0.33796877807E+02  0.48843518831E+01  0.47787272637E+02  0.20000007259E+02 0.  0.
        -12    1    1    2    0    0  0.26786886584E+02 -0.33796877807E+02 -0.48843518831E+01  0.43400727363E+02  0.00000000000E+00 0.  1.
         11    1    3    3    0    0 -0.21392998274E+02  0.23869961398E+02 -0.17948132847E+00  0.32054136178E+02  0.51100000000E-03 0. -1.
        -11    1    3    3    0    0 -0.32718148233E+01 -0.12581601075E+01  0.13819803564E+01  0.37679714782E+01  0.51100000000E-03 0.  1.
         12    1    3    3    0    0 -0.21220734863E+01  0.11185076517E+02  0.36818528551E+01  0.11965164981E+02  0.00000000000E+00 0. -1.
</event>
<event>
 7    1  0.2732193E-010  0.4778724E+02  0.7816164E-02  0.1312668E+00
        -11   -1    0    0    0    0  0.00000000000E+00  0.00000000000E+00  0.45593999997E+02  0.45594000000E+02  0.51100000000E-03 0.  1.
         11   -1    0    0    0    0 -0.00000000000E+00 -0.00000000000E+00 -0.45593999997E+02  0.45594000000E+02  0.51100000000E-03 0. -1.
    9900012    2    1    2    0    0 -0.56592427961E+01 -0.40311520040E+02  0.15052587027E+02  0.47787239026E+02  0.19999854014E+02 0.  0.
        -12    1    1    2    0    0  0.56592427961E+01  0.40311520040E+02 -0.15052587027E+02  0.43400760974E+02  0.00000000000E+00 0.  1.
         11    1    3    3    0    0  0.42842480663E+01 -0.27512584793E+01 -0.12382338996E+01  0.52399836035E+01  0.51100000000E-03 0. -1.
        -11    1    3    3    0    0 -0.10073661865E+02 -0.35958514998E+02  0.14296512468E+02  0.39986044231E+02  0.51100000000E-03 0.  1.
        -12    1    3    3    0    0  0.13017100283E+00 -0.16017465626E+01  0.19943084587E+01  0.25612111919E+01  0.00000000000E+00 0.  1.
</event>
<event>
 7    1  0.2732193E-010  0.4778729E+02  0.7816164E-02  0.1312668E+00
        -11   -1    0    0    0    0  0.00000000000E+00  0.00000000000E+00  0.45593999997E+02  0.45594000000E+02  0.51100000000E-03 0.  1.
         11   -1    0    0    0    0 -0.00000000000E+00 -0.00000000000E+00 -0.45593999997E+02  0.45594000000E+02  0.51100000000E-03 0. -1.
    9900012    2    1    2    0    0 -0.24887150603E+02  0.16765988235E+02 -0.31355274038E+02  0.47787287602E+02  0.20000075493E+02 0.  0.
        -12    1    1    2    0    0  0.24887150603E+02 -0.16765988235E+02  0.31355274038E+02  0.43400712398E+02  0.00000000000E+00 0.  1.
         11    1    3    3    0    0 -0.16871370561E+02  0.10499021292E+02 -0.25850044295E+02  0.32605174175E+02  0.51100000000E-03 0. -1.
        -11    1    3    3    0    0 -0.87494161201E+01  0.30674039303E+01 -0.61446696372E+00  0.92918684464E+01  0.51100000000E-03 0.  1.
         12    1    3    3    0    0  0.73363607781E+00  0.31995630128E+01 -0.48907627793E+01  0.58902449805E+01  0.00000000000E+00 0. -1.
</event>
<event>
 7    1  0.2732193E-010  0.4778727E+02  0.7816164E-02  0.1312668E+00
        -11   -1    0    0    0    0  0.00000000000E+00  0.00000000000E+00  0.45593999997E+02  0.45594000000E+02  0.51100000000E-03 0.  1.
         11   -1    0    0    0    0 -0.00000000000E+00 -0.00000000000E+00 -0.45593999997E+02  0.45594000000E+02  0.51100000000E-03 0. -1.
    9900012    2    1    2    0    0  0.39264581126E+02 -0.12723394707E+01 -0.18447140783E+02  0.47787272105E+02  0.20000004838E+02 0.  0.
        -12    1    1    2    0    0 -0.39264581126E+02  0.12723394707E+01  0.18447140783E+02  0.43400727895E+02  0.00000000000E+00 0.  1.
         11    1    3    3    0    0  0.13345056593E+02 -0.57317368659E+01 -0.91927357337E+01  0.17188651300E+02  0.51100000000E-03 0. -1.
        -11    1    3    3    0    0  0.61741901305E+01  0.61876140587E+01 -0.41312298172E-01  0.87412183633E+01  0.51100000000E-03 0.  1.
        -12    1    3    3    0    0  0.19745334402E+02 -0.17282166635E+01 -0.92130927514E+01  0.21857402442E+02  0.00000000000E+00 0.  1.
</event>
<event>
 7    1  0.2732193E-010  0.4778728E+02  0.7816164E-02  0.1312668E+00
        -11   -1    0    0    0    0  0.00000000000E+00  0.00000000000E+00  0.45593999997E+02  0.45594000000E+02  0.51100000000E-03 0. -1.
         11   -1    0    0    0    0 -0.00000000000E+00 -0.00000000000E+00 -0.45593999997E+02  0.45594000000E+02  0.51100000000E-03 0.  1.
    9900012    2    1    2    0    0 -0.36969304666E+02 -0.22267306434E+01 -0.22625975967E+02  0.47787278746E+02  0.20000035116E+02 0.  0.
        -12    1    1    2    0    0  0.36969304666E+02  0.22267306434E+01  0.22625975967E+02  0.43400721254E+02  0.00000000000E+00 0.  1.
         11    1    3    3    0    0 -0.24989535186E+02 -0.92180858547E+01 -0.90894684116E+01  0.28143709989E+02  0.51100000000E-03 0. -1.
        -11    1    3    3    0    0 -0.43320181322E+00 -0.11302969882E+00 -0.13213203179E+01  0.13951082996E+01  0.51100000000E-03 0.  1.
         12    1    3    3    0    0 -0.11546567667E+02  0.71043849102E+01 -0.12215187238E+02  0.18248460458E+02  0.00000000000E+00 0. -1.
</event>
<event>
 7    1  0.2732193E-010  0.4778728E+02  0.7816164E-02  0.1312668E+00
        -11   -1    0    0    0    0  0.00000000000E+00  0.00000000000E+00  0.45593999997E+02  0.45594000000E+02  0.51100000000E-03 0. -1.
         11   -1    0    0    0    0 -0.00000000000E+00 -0.00000000000E+00 -0.45593999997E+02  0.45594000000E+02  0.51100000000E-03 0.  1.
    9900012    2    1    2    0    0  0.43562452106E+01 -0.23066167796E+02  0.36504760601E+02  0.47787279779E+02  0.20000039826E+02 0.  0.
        -12    1    1    2    0    0 -0.43562452106E+01  0.23066167796E+02 -0.36504760601E+02  0.43400720221E+02  0.00000000000E+00 0.  1.
         11    1    3    3    0    0 -0.25921484283E+01 -0.35753020329E+01  0.20060718496E+02  0.20541042937E+02  0.51100000000E-03 0. -1.
        -11    1    3    3    0    0  0.68108957810E+01 -0.13332901357E+02  0.14355973488E+02  0.20742433198E+02  0.51100000000E-03 0.  1.
         12    1    3    3    0    0  0.13749785788E+00 -0.61579644061E+01  0.20880686168E+01  0.65038036437E+01  0.00000000000E+00 0. -1.
</event>
<event>
 7    1  0.2732193E-010  0.4778727E+02  0.7816164E-02  0.1312668E+00
        -11   -1    0    0    0    0  0.00000000000E+00  0.00000000000E+00  0.45593999997E+02  0.45594000000E+02  0.51100000000E-03 0.  1.
         11   -1    0    0    0    0 -0.00000000000E+00 -0.00000000000E+00 -0.45593999997E+02  0.45594000000E+02  0.51100000000E-03 0. -1.
    9900012    2    1    2    0    0  0.24762807173E+02  0.32073926034E+02 -0.15546384551E+02  0.47787269327E+02  0.19999992171E+02 0.  0.
        -12    1    1    2    0    0 -0.24762807173E+02 -0.32073926034E+02  0.15546384551E+02  0.43400730673E+02  0.00000000000E+00 0.  1.
         11    1    3    3    0    0  0.45750416377E+01  0.57224605450E+00 -0.16369897281E+01  0.48926687160E+01  0.51100000000E-03 0. -1.
        -11    1    3    3    0    0  0.13107873806E+02  0.13934435173E+02 -0.14405387093E+02  0.23947860382E+02  0.51100000000E-03 0.  1.
        -12    1    3    3    0    0  0.70798917298E+01  0.17567244806E+02  0.49599227051E+00  0.18946740230E+02  0.00000000000E+00 0.  1.
</event>
<event>
 7    1  0.2732193E-010  0.4778727E+02  0.7816164E-02  0.1312668E+00
        -11   -1    0    0    0    0  0.00000000000E+00  0.00000000000E+00  0.45593999997E+02  0.45594000000E+02  0.51100000000E-03 0.  1.
         11   -1    0    0    0    0 -0.00000000000E+00 -0.00000000000E+00 -0.45593999997E+02  0.45594000000E+02  0.51100000000E-03 0. -1.
    9900012    2    1    2    0    0  0.31747342115E+02  0.29354050351E+02  0.37509630295E+01  0.47787265824E+02  0.19999976198E+02 0.  0.
        -12    1    1    2    0    0 -0.31747342115E+02 -0.29354050351E+02 -0.37509630295E+01  0.43400734176E+02  0.00000000000E+00 0.  1.
         11    1    3    3    0    0  0.25839167922E+02  0.22965060540E+02  0.77797671225E+01  0.35434183795E+02  0.51100000000E-03 0. -1.
        -11    1    3    3    0    0 -0.87705992471E+00  0.43981494271E+01 -0.70582452452E+00  0.45399494508E+01  0.51100000000E-03 0.  1.
         12    1    3    3    0    0  0.67852341180E+01  0.19908403840E+01 -0.33229795685E+01  0.78131325781E+01  0.00000000000E+00 0. -1.
</event>
<event>
 7    1  0.2732193E-010  0.4778726E+02  0.7816164E-02  0.1312668E+00
        -11   -1    0    0    0    0  0.00000000000E+00  0.00000000000E+00  0.45593999997E+02  0.45594000000E+02  0.51100000000E-03 0.  1.
         11   -1    0    0    0    0 -0.00000000000E+00 -0.00000000000E+00 -0.45593999997E+02  0.45594000000E+02  0.51100000000E-03 0. -1.
    9900012    2    1    2    0    0  0.43094799563E+02 -0.24057791413E+01 -0.45469137077E+01  0.47787263290E+02  0.19999964646E+02 0.  0.
        -12    1    1    2    0    0 -0.43094799563E+02  0.24057791413E+01  0.45469137077E+01  0.43400736710E+02  0.00000000000E+00 0.  1.
         11    1    3    3    0    0  0.28933221031E+02 -0.86383373817E+01 -0.16482183664E+01  0.30240184788E+02  0.51100000000E-03 0. -1.
        -11    1    3    3    0    0  0.15947850641E+01  0.41570010716E+01 -0.16526327278E+01  0.47492307276E+01  0.51100000000E-03 0.  1.
         12    1    3    3    0    0  0.12566793468E+02  0.20755571688E+01 -0.12460626135E+01  0.12797847775E+02  0.00000000000E+00 0. -1.
</event>
<event>
 7    1  0.2732193E-010  0.4778727E+02  0.7816164E-02  0.1312668E+00
        -11   -1    0    0    0    0  0.00000000000E+00  0.00000000000E+00  0.45593999997E+02  0.45594000000E+02  0.51100000000E-03 0.  1.
         11   -1    0    0    0    0 -0.00000000000E+00 -0.00000000000E+00 -0.45593999997E+02  0.45594000000E+02  0.51100000000E-03 0. -1.
    9900012    2    1    2    0    0 -0.42972437883E+02  0.17862619118E+01  0.58139570401E+01  0.47787271369E+02  0.20000001480E+02 0.  0.
        -12    1    1    2    0    0  0.42972437883E+02 -0.17862619118E+01 -0.58139570401E+01  0.43400728631E+02  0.00000000000E+00 0.  1.
         11    1    3    3    0    0 -0.17073293369E+02  0.41886317827E+01  0.19777500317E+01  0.17690491179E+02  0.51100000000E-03 0. -1.
        -11    1    3    3    0    0 -0.22918460340E+02 -0.64599996579E+01  0.60940139929E+01  0.24578942750E+02  0.51100000000E-03 0.  1.
        -12    1    3    3    0    0 -0.29806841741E+01  0.40576297870E+01 -0.22578069846E+01  0.55178374399E+01  0.00000000000E+00 0.  1.
</event>
<event>
 7    1  0.2732193E-010  0.4778728E+02  0.7816164E-02  0.1312668E+00
        -11   -1    0    0    0    0  0.00000000000E+00  0.00000000000E+00  0.45593999997E+02  0.45594000000E+02  0.51100000000E-03 0.  1.
         11   -1    0    0    0    0 -0.00000000000E+00 -0.00000000000E+00 -0.45593999997E+02  0.45594000000E+02  0.51100000000E-03 0. -1.
    9900012    2    1    2    0    0  0.14294378845E+02 -0.33025300504E+02 -0.24261556883E+02  0.47787275556E+02  0.20000020569E+02 0.  0.
        -12    1    1    2    0    0 -0.14294378845E+02  0.33025300504E+02  0.24261556883E+02  0.43400724444E+02  0.00000000000E+00 0.  1.
         11    1    3    3    0    0 -0.20497632441E+01 -0.11418966606E+02 -0.39145257698E+01  0.12244094086E+02  0.51100000000E-03 0.  1.
        -11    1    3    3    0    0  0.91221595762E+01 -0.16548133827E+02 -0.18678465389E+02  0.26569523858E+02  0.51100000000E-03 0. -1.
        -12    1    3    3    0    0  0.72219825129E+01 -0.50582000700E+01 -0.16685657242E+01  0.89736576122E+01  0.00000000000E+00 0.  1.
</event>
<event>
 7    1  0.2732193E-010  0.4778727E+02  0.7816164E-02  0.1312668E+00
        -11   -1    0    0    0    0  0.00000000000E+00  0.00000000000E+00  0.45593999997E+02  0.45594000000E+02  0.51100000000E-03 0.  1.
         11   -1    0    0    0    0 -0.00000000000E+00 -0.00000000000E+00 -0.45593999997E+02  0.45594000000E+02  0.51100000000E-03 0. -1.
    9900012    2    1    2    0    0  0.40443141301E+02  0.14520527112E+02  0.60934152377E+01  0.47787273103E+02  0.20000009388E+02 0.  0.
        -12    1    1    2    0    0 -0.40443141301E+02 -0.14520527112E+02 -0.60934152377E+01  0.43400726897E+02  0.00000000000E+00 0.  1.
         11    1    3    3    0    0  0.98087000889E+01  0.49885432855E+01  0.32755589816E+00  0.11009244056E+02  0.51100000000E-03 0. -1.
        -11    1    3    3    0    0  0.17037087734E+02  0.10774243212E+02  0.99735629643E+01  0.22490412040E+02  0.51100000000E-03 0.  1.
        -12    1    3    3    0    0  0.13597353478E+02 -0.12422593856E+01 -0.42077036248E+01  0.14287617008E+02  0.00000000000E+00 0.  1.
</event>
<event>
 7    1  0.2732193E-010  0.4778728E+02  0.7816164E-02  0.1312668E+00
        -11   -1    0    0    0    0  0.00000000000E+00  0.00000000000E+00  0.45593999997E+02  0.45594000000E+02  0.51100000000E-03 0. -1.
         11   -1    0    0    0    0 -0.00000000000E+00 -0.00000000000E+00 -0.45593999997E+02  0.45594000000E+02  0.51100000000E-03 0.  1.
    9900012    2    1    2    0    0 -0.40696712252E+02 -0.13542841742E+02 -0.66325969362E+01  0.47787282348E+02  0.20000051537E+02 0.  0.
        -12    1    1    2    0    0  0.40696712252E+02  0.13542841742E+02  0.66325969362E+01  0.43400717652E+02  0.00000000000E+00 0.  1.
         11    1    3    3    0    0 -0.36847549538E+02 -0.11516636565E+02 -0.11271702041E+02  0.40217236254E+02  0.51100000000E-03 0. -1.
        -11    1    3    3    0    0  0.39741725309E+00 -0.15907959117E+01  0.18438100454E+01  0.24674294013E+01  0.51100000000E-03 0.  1.
         12    1    3    3    0    0 -0.42465799674E+01 -0.43540926484E+00  0.27952950592E+01  0.51026166929E+01  0.00000000000E+00 0. -1.
</event>
<event>
 7    1  0.2732193E-010  0.4778726E+02  0.7816164E-02  0.1312668E+00
        -11   -1    0    0    0    0  0.00000000000E+00  0.00000000000E+00  0.45593999997E+02  0.45594000000E+02  0.51100000000E-03 0.  1.
         11   -1    0    0    0    0 -0.00000000000E+00 -0.00000000000E+00 -0.45593999997E+02  0.45594000000E+02  0.51100000000E-03 0. -1.
    9900012    2    1    2    0    0  0.15757667764E+02 -0.23627053202E+02 -0.32818936319E+02  0.47787259022E+02  0.19999945183E+02 0.  0.
        -12    1    1    2    0    0 -0.15757667764E+02  0.23627053202E+02  0.32818936319E+02  0.43400740978E+02  0.00000000000E+00 0.  1.
         11    1    3    3    0    0  0.81774044733E+01 -0.16656174201E+02 -0.23595245711E+02  0.30017223445E+02  0.51100000000E-03 0. -1.
        -11    1    3    3    0    0  0.66056370140E+01 -0.68723970368E+01 -0.11091579550E+01  0.95965886138E+01  0.51100000000E-03 0.  1.
         12    1    3    3    0    0  0.97462627714E+00 -0.98481963788E-01 -0.81145326526E+01  0.81734469624E+01  0.00000000000E+00 0. -1.
</event>
<event>
 7    1  0.2732193E-010  0.4778727E+02  0.7816164E-02  0.1312668E+00
        -11   -1    0    0    0    0  0.00000000000E+00  0.00000000000E+00  0.45593999997E+02  0.45594000000E+02  0.51100000000E-03 0.  1.
         11   -1    0    0    0    0 -0.00000000000E+00 -0.00000000000E+00 -0.45593999997E+02  0.45594000000E+02  0.51100000000E-03 0. -1.
    9900012    2    1    2    0    0  0.81518827934E+01  0.28771833953E+02 -0.31453959932E+02  0.47787271694E+02  0.20000002964E+02 0.  0.
        -12    1    1    2    0    0 -0.81518827934E+01 -0.28771833953E+02  0.31453959932E+02  0.43400728306E+02  0.00000000000E+00 0.  1.
         11    1    3    3    0    0 -0.27840719146E+01  0.21374768109E+02 -0.23367869846E+02  0.31791337020E+02  0.51100000000E-03 0.  1.
        -11    1    3    3    0    0  0.74679614113E+01  0.26942995711E+01 -0.42381587032E+01  0.89995381700E+01  0.51100000000E-03 0. -1.
        -12    1    3    3    0    0  0.34679932967E+01  0.47027662729E+01 -0.38479313827E+01  0.69963965046E+01  0.00000000000E+00 0.  1.
</event>
<event>
 7    1  0.2732193E-010  0.4778725E+02  0.7816164E-02  0.1312668E+00
        -11   -1    0    0    0    0  0.00000000000E+00  0.00000000000E+00  0.45593999997E+02  0.45594000000E+02  0.51100000000E-03 0.  1.
         11   -1    0    0    0    0 -0.00000000000E+00 -0.00000000000E+00 -0.45593999997E+02  0.45594000000E+02  0.51100000000E-03 0. -1.
    9900012    2    1    2    0    0  0.71023409266E+01 -0.28897050573E+02 -0.31593387721E+02  0.47787252010E+02  0.19999913212E+02 0.  0.
        -12    1    1    2    0    0 -0.71023409266E+01  0.28897050573E+02  0.31593387721E+02  0.43400747990E+02  0.00000000000E+00 0.  1.
         11    1    3    3    0    0  0.87394864593E+01 -0.20202709989E+02 -0.30558308244E+02  0.37660832671E+02  0.51100000000E-03 0. -1.
        -11    1    3    3    0    0 -0.45858606626E+00 -0.46229893480E+00  0.13298384376E+01  0.14807065937E+01  0.51100000000E-03 0.  1.
         12    1    3    3    0    0 -0.11785594664E+01 -0.82320416485E+01 -0.23649179146E+01  0.86457127446E+01  0.00000000000E+00 0. -1.
</event>
<event>
 7    1  0.2732193E-010  0.4778727E+02  0.7816164E-02  0.1312668E+00
        -11   -1    0    0    0    0  0.00000000000E+00  0.00000000000E+00  0.45593999997E+02  0.45594000000E+02  0.51100000000E-03 0.  1.
         11   -1    0    0    0    0 -0.00000000000E+00 -0.00000000000E+00 -0.45593999997E+02  0.45594000000E+02  0.51100000000E-03 0. -1.
    9900012    2    1    2    0    0  0.23913931401E+02  0.35789441483E+02 -0.55554572490E+01  0.47787270260E+02  0.19999996422E+02 0.  0.
        -12    1    1    2    0    0 -0.23913931401E+02 -0.35789441483E+02  0.55554572490E+01  0.43400729740E+02  0.00000000000E+00 0.  1.
         11    1    3    3    0    0  0.72251556015E+01  0.15242666393E+02 -0.22765568073E+01  0.17021294410E+02  0.51100000000E-03 0. -1.
        -11    1    3    3    0    0 -0.76873748958E+00  0.10176014452E+02 -0.21498996113E+01  0.10429012228E+02  0.51100000000E-03 0.  1.
        -12    1    3    3    0    0  0.17457513289E+02  0.10370760638E+02 -0.11290008305E+01  0.20336963621E+02  0.00000000000E+00 0.  1.
</event>
<event>
 7    1  0.2732193E-010  0.4778727E+02  0.7816164E-02  0.1312668E+00
        -11   -1    0    0    0    0  0.00000000000E+00  0.00000000000E+00  0.45593999997E+02  0.45594000000E+02  0.51100000000E-03 0.  1.
         11   -1    0    0    0    0 -0.00000000000E+00 -0.00000000000E+00 -0.45593999997E+02  0.45594000000E+02  0.51100000000E-03 0. -1.
    9900012    2    1    2    0    0 -0.15164355166E+02  0.13197815429E+02 -0.38464047650E+02  0.47787274645E+02  0.20000016416E+02 0.  0.
        -12    1    1    2    0    0  0.15164355166E+02 -0.13197815429E+02  0.38464047650E+02  0.43400725355E+02  0.00000000000E+00 0.  1.
         11    1    3    3    0    0 -0.53085521244E+01  0.41441847016E+01 -0.15445948347E+02  0.16850291187E+02  0.51100000000E-03 0. -1.
        -11    1    3    3    0    0 -0.66605565589E+01  0.13497221829E+02 -0.15177648868E+02  0.21375196753E+02  0.51100000000E-03 0.  1.
        -12    1    3    3    0    0 -0.31952464827E+01 -0.44435911020E+01 -0.78404504348E+01  0.95617867047E+01  0.00000000000E+00 0.  1.
</event>
<event>
 7    1  0.2732193E-010  0.4778727E+02  0.7816164E-02  0.1312668E+00
        -11   -1    0    0    0    0  0.00000000000E+00  0.00000000000E+00  0.45593999997E+02  0.45594000000E+02  0.51100000000E-03 0. -1.
         11   -1    0    0    0    0 -0.00000000000E+00 -0.00000000000E+00 -0.45593999997E+02  0.45594000000E+02  0.51100000000E-03 0.  1.
    9900012    2    1    2    0    0 -0.35864171583E+02  0.24384756004E+02 -0.16638712017E+01  0.47787267333E+02  0.19999983077E+02 0.  0.
        -12    1    1    2    0    0  0.35864171583E+02 -0.24384756004E+02  0.16638712017E+01  0.43400732667E+02  0.00000000000E+00 0.  1.
         11    1    3    3    0    0 -0.22928800930E+02  0.19454331049E+02  0.37597897996E+01  0.30304074450E+02  0.51100000000E-03 0. -1.
        -11    1    3    3    0    0  0.10578188009E+01  0.19919189854E+01 -0.12946912858E+01  0.26005667933E+01  0.51100000000E-03 0.  1.
         12    1    3    3    0    0 -0.13993189453E+02  0.29385059691E+01 -0.41289697156E+01  0.14882626089E+02  0.00000000000E+00 0. -1.
</event>
<event>
 7    1  0.2732193E-010  0.4778727E+02  0.7816164E-02  0.1312668E+00
        -11   -1    0    0    0    0  0.00000000000E+00  0.00000000000E+00  0.45593999997E+02  0.45594000000E+02  0.51100000000E-03 0. -1.
         11   -1    0    0    0    0 -0.00000000000E+00 -0.00000000000E+00 -0.45593999997E+02  0.45594000000E+02  0.51100000000E-03 0.  1.
    9900012    2    1    2    0    0  0.24320621112E+02 -0.10540949846E+02  0.34365957890E+02  0.47787270782E+02  0.19999998805E+02 0.  0.
        -12    1    1    2    0    0 -0.24320621112E+02  0.10540949846E+02 -0.34365957890E+02  0.43400729218E+02  0.00000000000E+00 0.  1.
         11    1    3    3    0    0  0.17405112645E+02 -0.42915528483E+01  0.14063436475E+02  0.22784547786E+02  0.51100000000E-03 0. -1.
        -11    1    3    3    0    0 -0.29471456622E+01 -0.21772737342E+01  0.33100691280E+01  0.49378888567E+01  0.51100000000E-03 0.  1.
        -12    1    3    3    0    0  0.98626541287E+01 -0.40721232630E+01  0.16992452287E+02  0.20064834140E+02  0.00000000000E+00 0.  1.
</event>
<event>
 7    1  0.2732193E-010  0.4778727E+02  0.7816164E-02  0.1312668E+00
        -11   -1    0    0    0    0  0.00000000000E+00  0.00000000000E+00  0.45593999997E+02  0.45594000000E+02  0.51100000000E-03 0.  1.
         11   -1    0    0    0    0 -0.00000000000E+00 -0.00000000000E+00 -0.45593999997E+02  0.45594000000E+02  0.51100000000E-03 0. -1.
    9900012    2    1    2    0    0  0.28789672620E+02 -0.11060377765E+02 -0.30535976445E+02  0.47787273471E+02  0.20000011062E+02 0.  0.
        -12    1    1    2    0    0 -0.28789672620E+02  0.11060377765E+02  0.30535976445E+02  0.43400726529E+02  0.00000000000E+00 0.  1.
         11    1    3    3    0    0  0.19922433192E+02 -0.15343922666E+01 -0.22683502883E+02  0.30229108608E+02  0.51100000000E-03 0. -1.
        -11    1    3    3    0    0 -0.34373860349E+00 -0.17939185028E+00  0.14318067932E+01  0.14833774360E+01  0.51100000000E-03 0.  1.
         12    1    3    3    0    0  0.92109780310E+01 -0.93465936478E+01 -0.92842803545E+01  0.16074787426E+02  0.00000000000E+00 0. -1.
</event>
<event>
 7    1  0.2732193E-010  0.4778726E+02  0.7816164E-02  0.1312668E+00
        -11   -1    0    0    0    0  0.00000000000E+00  0.00000000000E+00  0.45593999997E+02  0.45594000000E+02  0.51100000000E-03 0.  1.
         11   -1    0    0    0    0 -0.00000000000E+00 -0.00000000000E+00 -0.45593999997E+02  0.45594000000E+02  0.51100000000E-03 0. -1.
    9900012    2    1    2    0    0 -0.30146566721E+02  0.77301208121E+01 -0.30249854803E+02  0.47787263043E+02  0.19999963517E+02 0.  0.
        -12    1    1    2    0    0  0.30146566721E+02 -0.77301208121E+01  0.30249854803E+02  0.43400736957E+02  0.00000000000E+00 0.  1.
         11    1    3    3    0    0 -0.61657125443E+01  0.79335992535E+01 -0.12920401121E+02  0.16367491368E+02  0.51100000000E-03 0. -1.
        -11    1    3    3    0    0 -0.12256851425E+02 -0.51550790249E+01 -0.10714953080E+02  0.17076752220E+02  0.51100000000E-03 0.  1.
        -12    1    3    3    0    0 -0.11724002752E+02  0.49516005835E+01 -0.66145006009E+01  0.14343019455E+02  0.00000000000E+00 0.  1.
</event>
<event>
 7    1  0.2732193E-010  0.4778727E+02  0.7816164E-02  0.1312668E+00
        -11   -1    0    0    0    0  0.00000000000E+00  0.00000000000E+00  0.45593999997E+02  0.45594000000E+02  0.51100000000E-03 0.  1.
         11   -1    0    0    0    0 -0.00000000000E+00 -0.00000000000E+00 -0.45593999997E+02  0.45594000000E+02  0.51100000000E-03 0. -1.
    9900012    2    1    2    0    0 -0.12105490625E+02  0.19633037239E+02 -0.36764447756E+02  0.47787266443E+02  0.19999979020E+02 0.  0.
        -12    1    1    2    0    0  0.12105490625E+02 -0.19633037239E+02  0.36764447756E+02  0.43400733557E+02  0.00000000000E+00 0.  1.
         11    1    3    3    0    0 -0.75328683595E+01  0.71867429850E+01 -0.94337761207E+01  0.14049537808E+02  0.51100000000E-03 0. -1.
        -11    1    3    3    0    0  0.12868620181E+01  0.12355908470E+02 -0.11781791072E+02  0.17121188308E+02  0.51100000000E-03 0.  1.
        -12    1    3    3    0    0 -0.58594842836E+01  0.90385783887E-01 -0.15548880563E+02  0.16616540327E+02  0.00000000000E+00 0.  1.
</event>
<event>
 7    1  0.2732193E-010  0.4778727E+02  0.7816164E-02  0.1312668E+00
        -11   -1    0    0    0    0  0.00000000000E+00  0.00000000000E+00  0.45593999997E+02  0.45594000000E+02  0.51100000000E-03 0.  1.
         11   -1    0    0    0    0 -0.00000000000E+00 -0.00000000000E+00 -0.45593999997E+02  0.45594000000E+02  0.51100000000E-03 0. -1.
    9900012    2    1    2    0    0  0.14115190460E+02 -0.11794052850E+01 -0.41024304718E+02  0.47787272170E+02  0.20000005133E+02 0.  0.
        -12    1    1    2    0    0 -0.14115190460E+02  0.11794052850E+01  0.41024304718E+02  0.43400727830E+02  0.00000000000E+00 0.  1.
         11    1    3    3    0    0  0.10369934897E+02  0.36582593211E+01 -0.33848179269E+02  0.35589572225E+02  0.51100000000E-03 0. -1.
        -11    1    3    3    0    0  0.28747239771E+01 -0.69474184426E+01 -0.49002523124E+01  0.89745826615E+01  0.51100000000E-03 0.  1.
        -12    1    3    3    0    0  0.87053158639E+00  0.21097538365E+01 -0.22758731365E+01  0.32231172841E+01  0.00000000000E+00 0.  1.
</event>
<event>
 7    1  0.2732193E-010  0.4778727E+02  0.7816164E-02  0.1312668E+00
        -11   -1    0    0    0    0  0.00000000000E+00  0.00000000000E+00  0.45593999997E+02  0.45594000000E+02  0.51100000000E-03 0. -1.
         11   -1    0    0    0    0 -0.00000000000E+00 -0.00000000000E+00 -0.45593999997E+02  0.45594000000E+02  0.51100000000E-03 0.  1.
    9900012    2    1    2    0    0 -0.16260687566E+02 -0.70723681351E+01  0.39613063565E+02  0.47787272401E+02  0.20000006184E+02 0.  0.
        -12    1    1    2    0    0  0.16260687566E+02  0.70723681351E+01 -0.39613063565E+02  0.43400727599E+02  0.00000000000E+00 0.  1.
         11    1    3    3    0    0 -0.10618904115E+02 -0.13205893802E+02  0.32596045373E+02  0.36737704473E+02  0.51100000000E-03 0. -1.
        -11    1    3    3    0    0 -0.63217827227E+00  0.21180050349E+00  0.13523867352E+00  0.68029301125E+00  0.51100000000E-03 0.  1.
         12    1    3    3    0    0 -0.50096051781E+01  0.59217251636E+01  0.68817795180E+01  0.10369274916E+02  0.00000000000E+00 0. -1.
</event>
<event>
 7    1  0.2732193E-010  0.4778727E+02  0.7816164E-02  0.1312668E+00
        -11   -1    0    0    0    0  0.00000000000E+00  0.00000000000E+00  0.45593999997E+02  0.45594000000E+02  0.51100000000E-03 0.  1.
         11   -1    0    0    0    0 -0.00000000000E+00 -0.00000000000E+00 -0.45593999997E+02  0.45594000000E+02  0.51100000000E-03 0. -1.
    9900012    2    1    2    0    0 -0.21697958417E+02 -0.28216627938E+02 -0.24832309296E+02  0.47787273317E+02  0.20000010360E+02 0.  0.
        -12    1    1    2    0    0  0.21697958417E+02  0.28216627938E+02  0.24832309296E+02  0.43400726683E+02  0.00000000000E+00 0.  1.
         11    1    3    3    0    0 -0.19328768266E+02 -0.12951580340E+02 -0.11380941778E+02  0.25901168931E+02  0.51100000000E-03 0. -1.
        -11    1    3    3    0    0  0.12390135972E+01 -0.68318010392E+00 -0.37399346225E+01  0.39986248874E+01  0.51100000000E-03 0.  1.
         12    1    3    3    0    0 -0.36082037484E+01 -0.14581867494E+02 -0.97114328961E+01  0.17887479498E+02  0.00000000000E+00 0. -1.
</event>
<event>
 7    1  0.2732193E-010  0.4778726E+02  0.7816164E-02  0.1312668E+00
        -11   -1    0    0    0    0  0.00000000000E+00  0.00000000000E+00  0.45593999997E+02  0.45594000000E+02  0.51100000000E-03 0.  1.
         11   -1    0    0    0    0 -0.00000000000E+00 -0.00000000000E+00 -0.45593999997E+02  0.45594000000E+02  0.51100000000E-03 0. -1.
    9900012    2    1    2    0    0  0.18835147669E+02  0.13547680210E+02 -0.36678630413E+02  0.47787258581E+02  0.19999943172E+02 0.  0.
        -12    1    1    2    0    0 -0.18835147669E+02 -0.13547680210E+02  0.36678630413E+02  0.43400741419E+02  0.00000000000E+00 0.  1.
         11    1    3    3    0    0  0.69980515155E+01 -0.94377558022E+00 -0.23624985729E+02  0.24657724719E+02  0.51100000000E-03 0. -1.
        -11    1    3    3    0    0  0.69286967982E+01  0.11013520075E+02 -0.98074251315E+01  0.16293865463E+02  0.51100000000E-03 0.  1.
         12    1    3    3    0    0  0.49083993556E+01  0.34779357152E+01 -0.32462195529E+01  0.68356683988E+01  0.00000000000E+00 0. -1.
</event>
<event>
 7    1  0.2732193E-010  0.4778727E+02  0.7816164E-02  0.1312668E+00
        -11   -1    0    0    0    0  0.00000000000E+00  0.00000000000E+00  0.45593999997E+02  0.45594000000E+02  0.51100000000E-03 0.  1.
         11   -1    0    0    0    0 -0.00000000000E+00 -0.00000000000E+00 -0.45593999997E+02  0.45594000000E+02  0.51100000000E-03 0. -1.
    9900012    2    1    2    0    0 -0.14476244087E+02 -0.23631940501E+02 -0.33400500185E+02  0.47787266511E+02  0.19999979332E+02 0.  0.
        -12    1    1    2    0    0  0.14476244087E+02  0.23631940501E+02  0.33400500185E+02  0.43400733489E+02  0.00000000000E+00 0.  1.
         11    1    3    3    0    0 -0.11700651666E+02 -0.75509415340E+01 -0.93103535496E+01  0.16751258189E+02  0.51100000000E-03 0. -1.
        -11    1    3    3    0    0  0.16464024326E+01 -0.12974139009E+02 -0.11818809044E+02  0.17627341588E+02  0.51100000000E-03 0.  1.
        -12    1    3    3    0    0 -0.44219948537E+01 -0.31068599588E+01 -0.12271337591E+02  0.13408666734E+02  0.00000000000E+00 0.  1.
</event>
<event>
 7    1  0.2732193E-010  0.4778726E+02  0.7816164E-02  0.1312668E+00
        -11   -1    0    0    0    0  0.00000000000E+00  0.00000000000E+00  0.45593999997E+02  0.45594000000E+02  0.51100000000E-03 0. -1.
         11   -1    0    0    0    0 -0.00000000000E+00 -0.00000000000E+00 -0.45593999997E+02  0.45594000000E+02  0.51100000000E-03 0.  1.
    9900012    2    1    2    0    0  0.97665708424E+01  0.39472823858E+02  0.15170185456E+02  0.47787259729E+02  0.19999948408E+02 0.  0.
        -12    1    1    2    0    0 -0.97665708424E+01 -0.39472823858E+02 -0.15170185456E+02  0.43400740271E+02  0.00000000000E+00 0.  1.
         11    1    3    3    0    0  0.10271112936E+02  0.14604753985E+02  0.36086069071E+01  0.18215834979E+02  0.51100000000E-03 0. -1.
        -11    1    3    3    0    0 -0.47300607234E+01  0.61516193388E+01  0.52640230828E+01  0.93768776367E+01  0.51100000000E-03 0.  1.
        -12    1    3    3    0    0  0.42255186299E+01  0.18716450534E+02  0.62975554657E+01  0.20194547114E+02  0.00000000000E+00 0.  1.
</event>
<event>
 7    1  0.2732193E-010  0.4778727E+02  0.7816164E-02  0.1312668E+00
        -11   -1    0    0    0    0  0.00000000000E+00  0.00000000000E+00  0.45593999997E+02  0.45594000000E+02  0.51100000000E-03 0.  1.
         11   -1    0    0    0    0 -0.00000000000E+00 -0.00000000000E+00 -0.45593999997E+02  0.45594000000E+02  0.51100000000E-03 0. -1.
    9900012    2    1    2    0    0  0.11476540092E+02  0.41852504528E+02 -0.52952820402E+00  0.47787268348E+02  0.19999987708E+02 0.  0.
        -12    1    1    2    0    0 -0.11476540092E+02 -0.41852504528E+02  0.52952820402E+00  0.43400731652E+02  0.00000000000E+00 0.  1.
         11    1    3    3    0    0  0.15824242512E+02  0.23062019660E+02 -0.36175111855E+01  0.28201946552E+02  0.51100000000E-03 0. -1.
        -11    1    3    3    0    0 -0.34499613404E+01  0.16871892852E+02  0.28150994759E+01  0.17449578418E+02  0.51100000000E-03 0.  1.
         12    1    3    3    0    0 -0.89774107927E+00  0.19185920165E+01  0.27288350559E+00  0.21357433785E+01  0.00000000000E+00 0. -1.
</event>
<event>
 7    1  0.2732193E-010  0.4778727E+02  0.7816164E-02  0.1312668E+00
        -11   -1    0    0    0    0  0.00000000000E+00  0.00000000000E+00  0.45593999997E+02  0.45594000000E+02  0.51100000000E-03 0.  1.
         11   -1    0    0    0    0 -0.00000000000E+00 -0.00000000000E+00 -0.45593999997E+02  0.45594000000E+02  0.51100000000E-03 0. -1.
    9900012    2    1    2    0    0  0.13697104186E+01 -0.29963202087E+01 -0.43275503084E+02  0.47787271797E+02  0.20000003429E+02 0.  0.
        -12    1    1    2    0    0 -0.13697104186E+01  0.29963202087E+01  0.43275503084E+02  0.43400728203E+02  0.00000000000E+00 0.  1.
         11    1    3    3    0    0 -0.21372246489E+01  0.31149681077E+01 -0.94320465957E+01  0.10160426111E+02  0.51100000000E-03 0.  1.
        -11    1    3    3    0    0 -0.41601739322E+01  0.34229361562E+00 -0.20601532310E+02  0.21020165219E+02  0.51100000000E-03 0. -1.
        -12    1    3    3    0    0  0.76671089998E+01 -0.64535819320E+01 -0.13241924179E+02  0.16606680467E+02  0.00000000000E+00 0.  1.
</event>
<event>
 7    1  0.2732193E-010  0.4778726E+02  0.7816164E-02  0.1312668E+00
        -11   -1    0    0    0    0  0.00000000000E+00  0.00000000000E+00  0.45593999997E+02  0.45594000000E+02  0.51100000000E-03 0. -1.
         11   -1    0    0    0    0 -0.00000000000E+00 -0.00000000000E+00 -0.45593999997E+02  0.45594000000E+02  0.51100000000E-03 0.  1.
    9900012    2    1    2    0    0  0.32814530207E+02 -0.13207837337E+02  0.25147236163E+02  0.47787264448E+02  0.19999969923E+02 0.  0.
        -12    1    1    2    0    0 -0.32814530207E+02  0.13207837337E+02 -0.25147236163E+02  0.43400735552E+02  0.00000000000E+00 0.  1.
         11    1    3    3    0    0  0.24270630098E+02 -0.88048305859E-01  0.13892409732E+02  0.27965519597E+02  0.51100000000E-03 0. -1.
        -11    1    3    3    0    0  0.78749057258E+01 -0.13415956948E+02  0.10486651316E+02  0.18760914080E+02  0.51100000000E-03 0.  1.
        -12    1    3    3    0    0  0.66899438340E+00  0.29616791695E+00  0.76817511412E+00  0.10608307716E+01  0.00000000000E+00 0.  1.
</event>
<event>
 7    1  0.2732193E-010  0.4778727E+02  0.7816164E-02  0.1312668E+00
        -11   -1    0    0    0    0  0.00000000000E+00  0.00000000000E+00  0.45593999997E+02  0.45594000000E+02  0.51100000000E-03 0.  1.
         11   -1    0    0    0    0 -0.00000000000E+00 -0.00000000000E+00 -0.45593999997E+02  0.45594000000E+02  0.51100000000E-03 0. -1.
    9900012    2    1    2    0    0 -0.30651739421E+02 -0.26128237794E+02 -0.16168156009E+02  0.47787271798E+02  0.20000003435E+02 0.  0.
        -12    1    1    2    0    0  0.30651739421E+02  0.26128237794E+02  0.16168156009E+02  0.43400728202E+02  0.00000000000E+00 0.  1.
         11    1    3    3    0    0 -0.50535857803E+01 -0.64862719911E+01 -0.11099536898E+02  0.13813405561E+02  0.51100000000E-03 0. -1.
        -11    1    3    3    0    0 -0.10128696550E+02 -0.11769113349E+02 -0.58645038473E+01  0.16598039898E+02  0.51100000000E-03 0.  1.
        -12    1    3    3    0    0 -0.15469457091E+02 -0.78728524534E+01  0.79588473617E+00  0.17375826339E+02  0.00000000000E+00 0.  1.
</event>
<event>
 7    1  0.2732193E-010  0.4778724E+02  0.7816164E-02  0.1312668E+00
        -11   -1    0    0    0    0  0.00000000000E+00  0.00000000000E+00  0.45593999997E+02  0.45594000000E+02  0.51100000000E-03 0. -1.
         11   -1    0    0    0    0 -0.00000000000E+00 -0.00000000000E+00 -0.45593999997E+02  0.45594000000E+02  0.51100000000E-03 0.  1.
    9900012    2    1    2    0    0 -0.39246125195E+02 -0.18521017137E+02  0.58261930727E+00  0.47787241207E+02  0.19999863958E+02 0.  0.
        -12    1    1    2    0    0  0.39246125195E+02  0.18521017137E+02 -0.58261930727E+00  0.43400758793E+02  0.00000000000E+00 0.  1.
         11    1    3    3    0    0 -0.35985571664E+02 -0.82099186305E+01  0.14399554532E+01  0.36938294544E+02  0.51100000000E-03 0. -1.
        -11    1    3    3    0    0 -0.26482573973E+01 -0.84188640708E+01 -0.65451394470E+00  0.88497982039E+01  0.51100000000E-03 0.  1.
         12    1    3    3    0    0 -0.61229613376E+00 -0.18922344355E+01 -0.20282220123E+00  0.19991484586E+01  0.00000000000E+00 0. -1.
</event>
<event>
 7    1  0.2732193E-010  0.4778727E+02  0.7816164E-02  0.1312668E+00
        -11   -1    0    0    0    0  0.00000000000E+00  0.00000000000E+00  0.45593999997E+02  0.45594000000E+02  0.51100000000E-03 0.  1.
         11   -1    0    0    0    0 -0.00000000000E+00 -0.00000000000E+00 -0.45593999997E+02  0.45594000000E+02  0.51100000000E-03 0. -1.
    9900012    2    1    2    0    0  0.23018628014E+02 -0.16806602665E+02 -0.32730778705E+02  0.47787274160E+02  0.20000014206E+02 0.  0.
        -12    1    1    2    0    0 -0.23018628014E+02  0.16806602665E+02  0.32730778705E+02  0.43400725840E+02  0.00000000000E+00 0.  1.
         11    1    3    3    0    0  0.18247567053E+02 -0.11854127067E+01 -0.17055744487E+02  0.25005545923E+02  0.51100000000E-03 0. -1.
        -11    1    3    3    0    0  0.27378750355E+01 -0.65163383920E+01 -0.82110867676E+01  0.10834231487E+02  0.51100000000E-03 0.  1.
         12    1    3    3    0    0  0.20331859259E+01 -0.91048515667E+01 -0.74639474505E+01  0.11947496751E+02  0.00000000000E+00 0. -1.
</event>
<event>
 7    1  0.2732193E-010  0.4778727E+02  0.7816164E-02  0.1312668E+00
        -11   -1    0    0    0    0  0.00000000000E+00  0.00000000000E+00  0.45593999997E+02  0.45594000000E+02  0.51100000000E-03 0.  1.
         11   -1    0    0    0    0 -0.00000000000E+00 -0.00000000000E+00 -0.45593999997E+02  0.45594000000E+02  0.51100000000E-03 0. -1.
    9900012    2    1    2    0    0  0.31563897931E+02  0.19780449808E+02 -0.22272791820E+02  0.47787273017E+02  0.20000008993E+02 0.  0.
        -12    1    1    2    0    0 -0.31563897931E+02 -0.19780449808E+02  0.22272791820E+02  0.43400726983E+02  0.00000000000E+00 0.  1.
         11    1    3    3    0    0  0.22870258293E+02  0.12568873815E+02 -0.22511271389E+02  0.34464222655E+02  0.51100000000E-03 0. -1.
        -11    1    3    3    0    0  0.89886520182E+01  0.40068879405E+01  0.13167235905E+01  0.99289867231E+01  0.51100000000E-03 0.  1.
         12    1    3    3    0    0 -0.29501238062E+00  0.32046880520E+01 -0.10782440220E+01  0.33940636391E+01  0.00000000000E+00 0. -1.
</event>
<event>
 7    1  0.2732193E-010  0.4778727E+02  0.7816164E-02  0.1312668E+00
        -11   -1    0    0    0    0  0.00000000000E+00  0.00000000000E+00  0.45593999997E+02  0.45594000000E+02  0.51100000000E-03 0. -1.
         11   -1    0    0    0    0 -0.00000000000E+00 -0.00000000000E+00 -0.45593999997E+02  0.45594000000E+02  0.51100000000E-03 0.  1.
    9900012    2    1    2    0    0  0.38443690221E+02  0.68319565096E+01  0.18948107352E+02  0.47787265908E+02  0.19999976579E+02 0.  0.
        -12    1    1    2    0    0 -0.38443690221E+02 -0.68319565096E+01 -0.18948107352E+02  0.43400734092E+02  0.00000000000E+00 0.  1.
         11    1    3    3    0    0  0.26596481142E+01  0.36191838154E+01  0.26532944414E+01  0.52165305745E+01  0.51100000000E-03 0. -1.
        -11    1    3    3    0    0  0.23060958620E+02  0.94735839938E+01  0.12513016482E+02  0.27895020844E+02  0.51100000000E-03 0.  1.
        -12    1    3    3    0    0  0.12723083486E+02 -0.62608112996E+01  0.37817964288E+01  0.14675714489E+02  0.00000000000E+00 0.  1.
</event>
<event>
 7    1  0.2732193E-010  0.4778727E+02  0.7816164E-02  0.1312668E+00
        -11   -1    0    0    0    0  0.00000000000E+00  0.00000000000E+00  0.45593999997E+02  0.45594000000E+02  0.51100000000E-03 0.  1.
         11   -1    0    0    0    0 -0.00000000000E+00 -0.00000000000E+00 -0.45593999997E+02  0.45594000000E+02  0.51100000000E-03 0. -1.
    9900012    2    1    2    0    0 -0.27075532931E+02 -0.13927592568E+02 -0.30928317929E+02  0.47787272262E+02  0.20000005553E+02 0.  0.
        -12    1    1    2    0    0  0.27075532931E+02  0.13927592568E+02  0.30928317929E+02  0.43400727738E+02  0.00000000000E+00 0.  1.
         11    1    3    3    0    0 -0.23537651021E+02 -0.89123672877E+01 -0.12039897232E+02  0.27900007740E+02  0.51100000000E-03 0. -1.
        -11    1    3    3    0    0 -0.23940319995E+01 -0.41421713870E+01 -0.14452354335E+02  0.15223649993E+02  0.51100000000E-03 0.  1.
         12    1    3    3    0    0 -0.11438499101E+01 -0.87305389368E+00 -0.44360663612E+01  0.46636145294E+01  0.00000000000E+00 0. -1.
</event>
<event>
 7    1  0.2732193E-010  0.4778727E+02  0.7816164E-02  0.1312668E+00
        -11   -1    0    0    0    0  0.00000000000E+00  0.00000000000E+00  0.45593999997E+02  0.45594000000E+02  0.51100000000E-03 0. -1.
         11   -1    0    0    0    0 -0.00000000000E+00 -0.00000000000E+00 -0.45593999997E+02  0.45594000000E+02  0.51100000000E-03 0.  1.
    9900012    2    1    2    0    0  0.12099932363E+01  0.20983449437E+02  0.37971753355E+02  0.47787270896E+02  0.19999999323E+02 0.  0.
        -12    1    1    2    0    0 -0.12099932363E+01 -0.20983449437E+02 -0.37971753355E+02  0.43400729104E+02  0.00000000000E+00 0.  1.
         11    1    3    3    0    0  0.14460696471E+01  0.19297201390E+02  0.20599956245E+02  0.28263603741E+02  0.51100000000E-03 0. -1.
        -11    1    3    3    0    0 -0.41873198970E+01 -0.61993874004E+00  0.68819571407E+01  0.80795610221E+01  0.51100000000E-03 0.  1.
         12    1    3    3    0    0  0.39512434862E+01  0.23061867875E+01  0.10489839969E+02  0.11444106132E+02  0.00000000000E+00 0. -1.
</event>
<event>
 7    1  0.2732193E-010  0.4778727E+02  0.7816164E-02  0.1312668E+00
        -11   -1    0    0    0    0  0.00000000000E+00  0.00000000000E+00  0.45593999997E+02  0.45594000000E+02  0.51100000000E-03 0.  1.
         11   -1    0    0    0    0 -0.00000000000E+00 -0.00000000000E+00 -0.45593999997E+02  0.45594000000E+02  0.51100000000E-03 0. -1.
    9900012    2    1    2    0    0 -0.22698216646E+02 -0.30275320136E+01 -0.36867981373E+02  0.47787273744E+02  0.20000012309E+02 0.  0.
        -12    1    1    2    0    0  0.22698216646E+02  0.30275320136E+01  0.36867981373E+02  0.43400726256E+02  0.00000000000E+00 0.  1.
         11    1    3    3    0    0 -0.51011192849E+01  0.11885355233E+01 -0.51816029353E+01  0.73677027552E+01  0.51100000000E-03 0. -1.
        -11    1    3    3    0    0 -0.20255792692E+02 -0.15438893848E+01 -0.30136122616E+02  0.36343728738E+02  0.51100000000E-03 0.  1.
        -12    1    3    3    0    0  0.26586953311E+01 -0.26721781521E+01 -0.15502558224E+01  0.40758422510E+01  0.00000000000E+00 0.  1.
</event>
<event>
 7    1  0.2732193E-010  0.4778728E+02  0.7816164E-02  0.1312668E+00
        -11   -1    0    0    0    0  0.00000000000E+00  0.00000000000E+00  0.45593999997E+02  0.45594000000E+02  0.51100000000E-03 0.  1.
         11   -1    0    0    0    0 -0.00000000000E+00 -0.00000000000E+00 -0.45593999997E+02  0.45594000000E+02  0.51100000000E-03 0. -1.
    9900012    2    1    2    0    0  0.76480806570E+01 -0.41842427525E+02 -0.86221087101E+01  0.47787278376E+02  0.20000033427E+02 0.  0.
        -12    1    1    2    0    0 -0.76480806570E+01  0.41842427525E+02  0.86221087101E+01  0.43400721624E+02  0.00000000000E+00 0.  1.
         11    1    3    3    0    0  0.23507695709E+01 -0.21238617689E+02  0.54593102322E+01  0.22054683571E+02  0.51100000000E-03 0. -1.
        -11    1    3    3    0    0  0.42678404692E+01 -0.10749841611E+02 -0.65913081640E+01  0.13312358938E+02  0.51100000000E-03 0.  1.
         12    1    3    3    0    0  0.10294706169E+01 -0.98539682241E+01 -0.74901107782E+01  0.12420235867E+02  0.00000000000E+00 0. -1.
</event>
<event>
 7    1  0.2732193E-010  0.4778727E+02  0.7816164E-02  0.1312668E+00
        -11   -1    0    0    0    0  0.00000000000E+00  0.00000000000E+00  0.45593999997E+02  0.45594000000E+02  0.51100000000E-03 0.  1.
         11   -1    0    0    0    0 -0.00000000000E+00 -0.00000000000E+00 -0.45593999997E+02  0.45594000000E+02  0.51100000000E-03 0. -1.
    9900012    2    1    2    0    0 -0.16737906033E+02  0.33824293345E+02 -0.21433222516E+02  0.47787270213E+02  0.19999996208E+02 0.  0.
        -12    1    1    2    0    0  0.16737906033E+02 -0.33824293345E+02  0.21433222516E+02  0.43400729787E+02  0.00000000000E+00 0.  1.
         11    1    3    3    0    0 -0.23845408534E+01  0.70931673205E+01 -0.62343020561E+01  0.97398963087E+01  0.51100000000E-03 0. -1.
        -11    1    3    3    0    0 -0.53114417948E+01  0.23530522251E+02 -0.62262663547E+01  0.24913114705E+02  0.51100000000E-03 0.  1.
        -12    1    3    3    0    0 -0.90419233843E+01  0.32006037739E+01 -0.89726541049E+01  0.13134259198E+02  0.00000000000E+00 0.  1.
</event>
<event>
 7    1  0.2732193E-010  0.4778727E+02  0.7816164E-02  0.1312668E+00
        -11   -1    0    0    0    0  0.00000000000E+00  0.00000000000E+00  0.45593999997E+02  0.45594000000E+02  0.51100000000E-03 0. -1.
         11   -1    0    0    0    0 -0.00000000000E+00 -0.00000000000E+00 -0.45593999997E+02  0.45594000000E+02  0.51100000000E-03 0.  1.
    9900012    2    1    2    0    0 -0.30341556895E+02  0.45004805522E+01  0.30704381832E+02  0.47787268858E+02  0.19999990030E+02 0.  0.
        -12    1    1    2    0    0  0.30341556895E+02 -0.45004805522E+01 -0.30704381832E+02  0.43400731142E+02  0.00000000000E+00 0.  1.
         11    1    3    3    0    0 -0.13521617324E+02 -0.74968994347E+01  0.14250465572E+02  0.21026492943E+02  0.51100000000E-03 0. -1.
        -11    1    3    3    0    0 -0.13039340041E+02  0.69512297794E+01  0.10954356208E+02  0.18394072532E+02  0.51100000000E-03 0.  1.
         12    1    3    3    0    0 -0.37805995309E+01  0.50461502075E+01  0.54995600522E+01  0.83667033829E+01  0.00000000000E+00 0. -1.
</event>
<event>
 7    1  0.2732193E-010  0.4778727E+02  0.7816164E-02  0.1312668E+00
        -11   -1    0    0    0    0  0.00000000000E+00  0.00000000000E+00  0.45593999997E+02  0.45594000000E+02  0.51100000000E-03 0.  1.
         11   -1    0    0    0    0 -0.00000000000E+00 -0.00000000000E+00 -0.45593999997E+02  0.45594000000E+02  0.51100000000E-03 0. -1.
    9900012    2    1    2    0    0  0.23820088904E+02 -0.33897468171E+02 -0.12930124825E+02  0.47787272912E+02  0.20000008514E+02 0.  0.
        -12    1    1    2    0    0 -0.23820088904E+02  0.33897468171E+02  0.12930124825E+02  0.43400727088E+02  0.00000000000E+00 0.  1.
         11    1    3    3    0    0  0.95817159535E+01 -0.91771253912E+01 -0.26966649917E+01  0.13538866769E+02  0.51100000000E-03 0. -1.
        -11    1    3    3    0    0  0.15272223029E+02 -0.10851382731E+02 -0.50180249210E+01  0.19395202443E+02  0.51100000000E-03 0.  1.
         12    1    3    3    0    0 -0.10338500787E+01 -0.13868960049E+02 -0.52154349120E+01  0.14853203699E+02  0.00000000000E+00 0. -1.
</event>
<event>
 7    1  0.2732193E-010  0.4778727E+02  0.7816164E-02  0.1312668E+00
        -11   -1    0    0    0    0  0.00000000000E+00  0.00000000000E+00  0.45593999997E+02  0.45594000000E+02  0.51100000000E-03 0.  1.
         11   -1    0    0    0    0 -0.00000000000E+00 -0.00000000000E+00 -0.45593999997E+02  0.45594000000E+02  0.51100000000E-03 0. -1.
    9900012    2    1    2    0    0  0.14548428346E+02 -0.33195903585E+02 -0.23874635870E+02  0.47787273968E+02  0.20000013330E+02 0.  0.
        -12    1    1    2    0    0 -0.14548428346E+02  0.33195903585E+02  0.23874635870E+02  0.43400726032E+02  0.00000000000E+00 0.  1.
         11    1    3    3    0    0  0.11868598176E+02 -0.96241528353E+01 -0.13186302071E+02  0.20183322398E+02  0.51100000000E-03 0. -1.
        -11    1    3    3    0    0  0.28208202988E+01 -0.17487940212E+02 -0.32773324095E+01  0.18014604852E+02  0.51100000000E-03 0.  1.
         12    1    3    3    0    0 -0.14099012838E+00 -0.60838105383E+01 -0.74110013889E+01  0.95893467175E+01  0.00000000000E+00 0. -1.
</event>
<event>
 7    1  0.2732193E-010  0.4778727E+02  0.7816164E-02  0.1312668E+00
        -11   -1    0    0    0    0  0.00000000000E+00  0.00000000000E+00  0.45593999997E+02  0.45594000000E+02  0.51100000000E-03 0.  1.
         11   -1    0    0    0    0 -0.00000000000E+00 -0.00000000000E+00 -0.45593999997E+02  0.45594000000E+02  0.51100000000E-03 0. -1.
    9900012    2    1    2    0    0 -0.24659728006E+02 -0.13283823330E+02 -0.33152096608E+02  0.47787266629E+02  0.19999979868E+02 0.  0.
        -12    1    1    2    0    0  0.24659728006E+02  0.13283823330E+02  0.33152096608E+02  0.43400733371E+02  0.00000000000E+00 0.  1.
         11    1    3    3    0    0 -0.16747749501E+02 -0.35677332362E+01 -0.17473917123E+02  0.24465355376E+02  0.51100000000E-03 0. -1.
        -11    1    3    3    0    0  0.29389086481E+01 -0.40335822760E+00 -0.27120527093E+01  0.40193422423E+01  0.51100000000E-03 0.  1.
        -12    1    3    3    0    0 -0.10850887153E+02 -0.93127318663E+01 -0.12966126776E+02  0.19302569010E+02  0.00000000000E+00 0.  1.
</event>
<event>
 7    1  0.2732193E-010  0.4778727E+02  0.7816164E-02  0.1312668E+00
        -11   -1    0    0    0    0  0.00000000000E+00  0.00000000000E+00  0.45593999997E+02  0.45594000000E+02  0.51100000000E-03 0.  1.
         11   -1    0    0    0    0 -0.00000000000E+00 -0.00000000000E+00 -0.45593999997E+02  0.45594000000E+02  0.51100000000E-03 0. -1.
    9900012    2    1    2    0    0 -0.30466576130E+02 -0.26873737826E+02  0.15271317425E+02  0.47787272106E+02  0.20000004840E+02 0.  0.
        -12    1    1    2    0    0  0.30466576130E+02  0.26873737826E+02 -0.15271317425E+02  0.43400727894E+02  0.00000000000E+00 0.  1.
         11    1    3    3    0    0 -0.14768496508E+02 -0.12709972657E+02  0.15736464128E+02  0.25045722141E+02  0.51100000000E-03 0. -1.
        -11    1    3    3    0    0 -0.67316210681E+00 -0.49491923837E+01 -0.10602603498E+01  0.51060556933E+01  0.51100000000E-03 0.  1.
         12    1    3    3    0    0 -0.15024917515E+02 -0.92145727850E+01  0.59511364742E+00  0.17635494272E+02  0.00000000000E+00 0. -1.
</event>
<event>
 7    1  0.2732193E-010  0.4778727E+02  0.7816164E-02  0.1312668E+00
        -11   -1    0    0    0    0  0.00000000000E+00  0.00000000000E+00  0.45593999997E+02  0.45594000000E+02  0.51100000000E-03 0.  1.
         11   -1    0    0    0    0 -0.00000000000E+00 -0.00000000000E+00 -0.45593999997E+02  0.45594000000E+02  0.51100000000E-03 0. -1.
    9900012    2    1    2    0    0  0.43009089291E+02  0.39440770593E+01 -0.42761941653E+01  0.47787270260E+02  0.19999996422E+02 0.  0.
        -12    1    1    2    0    0 -0.43009089291E+02 -0.39440770593E+01  0.42761941653E+01  0.43400729740E+02  0.00000000000E+00 0.  1.
         11    1    3    3    0    0  0.15613929071E+02 -0.57486892522E+01  0.42845130458E+01  0.17181363783E+02  0.51100000000E-03 0.  1.
        -11    1    3    3    0    0  0.11880066018E+02  0.19338673597E+01 -0.33933934542E+01  0.12505635968E+02  0.51100000000E-03 0. -1.
         12    1    3    3    0    0  0.15515094201E+02  0.77588989518E+01 -0.51673137569E+01  0.18100270509E+02  0.00000000000E+00 0. -1.
</event>
<event>
 7    1  0.2732193E-010  0.4778727E+02  0.7816164E-02  0.1312668E+00
        -11   -1    0    0    0    0  0.00000000000E+00  0.00000000000E+00  0.45593999997E+02  0.45594000000E+02  0.51100000000E-03 0.  1.
         11   -1    0    0    0    0 -0.00000000000E+00 -0.00000000000E+00 -0.45593999997E+02  0.45594000000E+02  0.51100000000E-03 0. -1.
    9900012    2    1    2    0    0 -0.29666156902E+02 -0.21745862763E+02 -0.23036060133E+02  0.47787268680E+02  0.19999989221E+02 0.  0.
        -12    1    1    2    0    0  0.29666156902E+02  0.21745862763E+02  0.23036060133E+02  0.43400731320E+02  0.00000000000E+00 0.  1.
         11    1    3    3    0    0 -0.51379532863E+01 -0.79607361502E+00 -0.44779706273E+01  0.68618159676E+01  0.51100000000E-03 0. -1.
        -11    1    3    3    0    0 -0.14878229573E+02 -0.11388210755E+02 -0.19829689430E+02  0.27281305735E+02  0.51100000000E-03 0.  1.
        -12    1    3    3    0    0 -0.96499740430E+01 -0.95615783928E+01  0.12715999249E+01  0.13644146978E+02  0.00000000000E+00 0.  1.
</event>
<event>
 7    1  0.2732193E-010  0.4778721E+02  0.7816164E-02  0.1312668E+00
        -11   -1    0    0    0    0  0.00000000000E+00  0.00000000000E+00  0.45593999997E+02  0.45594000000E+02  0.51100000000E-03 0.  1.
         11   -1    0    0    0    0 -0.00000000000E+00 -0.00000000000E+00 -0.45593999997E+02  0.45594000000E+02  0.51100000000E-03 0. -1.
    9900012    2    1    2    0    0  0.27631907962E+02  0.20704684404E+01 -0.33403885536E+02  0.47787208002E+02  0.19999712562E+02 0.  0.
        -12    1    1    2    0    0 -0.27631907962E+02 -0.20704684404E+01  0.33403885536E+02  0.43400791998E+02  0.00000000000E+00 0.  1.
         11    1    3    3    0    0  0.57482067797E+01  0.36713404854E+01 -0.90067330077E+01  0.11297869794E+02  0.51100000000E-03 0. -1.
        -11    1    3    3    0    0  0.73007336527E+01 -0.32223200895E+01 -0.19419357154E+02  0.20995130177E+02  0.51100000000E-03 0.  1.
        -12    1    3    3    0    0  0.14582967529E+02  0.16214480445E+01 -0.49777953742E+01  0.15494208031E+02  0.00000000000E+00 0.  1.
</event>
<event>
 7    1  0.2732193E-010  0.4778727E+02  0.7816164E-02  0.1312668E+00
        -11   -1    0    0    0    0  0.00000000000E+00  0.00000000000E+00  0.45593999997E+02  0.45594000000E+02  0.51100000000E-03 0. -1.
         11   -1    0    0    0    0 -0.00000000000E+00 -0.00000000000E+00 -0.45593999997E+02  0.45594000000E+02  0.51100000000E-03 0.  1.
    9900012    2    1    2    0    0 -0.75108914345E+01 -0.35344162420E+02  0.24041628584E+02  0.47787271755E+02  0.20000003238E+02 0.  0.
        -12    1    1    2    0    0  0.75108914345E+01  0.35344162420E+02 -0.24041628584E+02  0.43400728245E+02  0.00000000000E+00 0.  1.
         11    1    3    3    0    0  0.21383283285E+01 -0.18285076983E+02  0.46530938383E+01  0.18988622142E+02  0.51100000000E-03 0. -1.
        -11    1    3    3    0    0 -0.46314442564E+01 -0.57544018941E+01  0.23642729844E+01  0.77558496675E+01  0.51100000000E-03 0.  1.
         12    1    3    3    0    0 -0.50177755066E+01 -0.11304683542E+02  0.17024261761E+02  0.21042799945E+02  0.00000000000E+00 0. -1.
</event>
<event>
 7    1  0.2732193E-010  0.4778727E+02  0.7816164E-02  0.1312668E+00
        -11   -1    0    0    0    0  0.00000000000E+00  0.00000000000E+00  0.45593999997E+02  0.45594000000E+02  0.51100000000E-03 0.  1.
         11   -1    0    0    0    0 -0.00000000000E+00 -0.00000000000E+00 -0.45593999997E+02  0.45594000000E+02  0.51100000000E-03 0. -1.
    9900012    2    1    2    0    0 -0.18831396254E+02  0.14508804432E+02 -0.36311106421E+02  0.47787270277E+02  0.19999996502E+02 0.  0.
        -12    1    1    2    0    0  0.18831396254E+02 -0.14508804432E+02  0.36311106421E+02  0.43400729723E+02  0.00000000000E+00 0.  1.
         11    1    3    3    0    0 -0.11010127473E+02  0.17270768315E+02 -0.19913813605E+02  0.28566804472E+02  0.51100000000E-03 0. -1.
        -11    1    3    3    0    0 -0.37847061754E+01 -0.13492017170E+01 -0.13422377686E+02  0.14010873246E+02  0.51100000000E-03 0.  1.
        -12    1    3    3    0    0 -0.40365626053E+01 -0.14127621658E+01 -0.29749151307E+01  0.52095925597E+01  0.00000000000E+00 0.  1.
</event>
<event>
 7    1  0.2732193E-010  0.4778727E+02  0.7816164E-02  0.1312668E+00
        -11   -1    0    0    0    0  0.00000000000E+00  0.00000000000E+00  0.45593999997E+02  0.45594000000E+02  0.51100000000E-03 0.  1.
         11   -1    0    0    0    0 -0.00000000000E+00 -0.00000000000E+00 -0.45593999997E+02  0.45594000000E+02  0.51100000000E-03 0. -1.
    9900012    2    1    2    0    0 -0.28289430558E+02 -0.17199051772E+02 -0.28062859531E+02  0.47787270188E+02  0.19999996094E+02 0.  0.
        -12    1    1    2    0    0  0.28289430558E+02  0.17199051772E+02  0.28062859531E+02  0.43400729812E+02  0.00000000000E+00 0.  1.
         11    1    3    3    0    0 -0.80646286214E+01 -0.47420372214E+01 -0.65457513280E-01  0.93557167955E+01  0.51100000000E-03 0. -1.
        -11    1    3    3    0    0 -0.13190418779E+02 -0.10701299961E+02 -0.25738013606E+02  0.30837482275E+02  0.51100000000E-03 0.  1.
        -12    1    3    3    0    0 -0.70343831584E+01 -0.17557145900E+01 -0.22593884113E+01  0.75940711172E+01  0.00000000000E+00 0.  1.
</event>
<event>
 7    1  0.2732193E-010  0.4778728E+02  0.7816164E-02  0.1312668E+00
        -11   -1    0    0    0    0  0.00000000000E+00  0.00000000000E+00  0.45593999997E+02  0.45594000000E+02  0.51100000000E-03 0.  1.
         11   -1    0    0    0    0 -0.00000000000E+00 -0.00000000000E+00 -0.45593999997E+02  0.45594000000E+02  0.51100000000E-03 0. -1.
    9900012    2    1    2    0    0 -0.37535049905E+02 -0.53330219618E+01 -0.21125839012E+02  0.47787283779E+02  0.20000058060E+02 0.  0.
        -12    1    1    2    0    0  0.37535049905E+02  0.53330219618E+01  0.21125839012E+02  0.43400716221E+02  0.00000000000E+00 0.  1.
         11    1    3    3    0    0 -0.59003376366E+01  0.45849608224E+01 -0.95246838554E+01  0.12106008953E+02  0.51100000000E-03 0. -1.
        -11    1    3    3    0    0 -0.27946951889E+02 -0.65745737280E+01 -0.10597621218E+02  0.30603377515E+02  0.51100000000E-03 0.  1.
        -12    1    3    3    0    0 -0.36877603792E+01 -0.33434090562E+01 -0.10035339387E+01  0.50778973106E+01  0.00000000000E+00 0.  1.
</event>
<event>
 7    1  0.2732193E-010  0.4778727E+02  0.7816164E-02  0.1312668E+00
        -11   -1    0    0    0    0  0.00000000000E+00  0.00000000000E+00  0.45593999997E+02  0.45594000000E+02  0.51100000000E-03 0. -1.
         11   -1    0    0    0    0 -0.00000000000E+00 -0.00000000000E+00 -0.45593999997E+02  0.45594000000E+02  0.51100000000E-03 0.  1.
    9900012    2    1    2    0    0 -0.18000505081E+02 -0.46773417051E+01  0.39213868701E+02  0.47787271814E+02  0.20000003510E+02 0.  0.
        -12    1    1    2    0    0  0.18000505081E+02  0.46773417051E+01 -0.39213868701E+02  0.43400728186E+02  0.00000000000E+00 0.  1.
         11    1    3    3    0    0 -0.13822970601E+02  0.37772083473E+01  0.15276125904E+02  0.20945210480E+02  0.51100000000E-03 0. -1.
        -11    1    3    3    0    0 -0.22065608102E+01 -0.54353242366E+01  0.54537537881E+01  0.80096873103E+01  0.51100000000E-03 0.  1.
        -12    1    3    3    0    0 -0.19709736693E+01 -0.30192258158E+01  0.18483989009E+02  0.18832374025E+02  0.00000000000E+00 0.  1.
</event>
<event>
 7    1  0.2732193E-010  0.4778727E+02  0.7816164E-02  0.1312668E+00
        -11   -1    0    0    0    0  0.00000000000E+00  0.00000000000E+00  0.45593999997E+02  0.45594000000E+02  0.51100000000E-03 0.  1.
         11   -1    0    0    0    0 -0.00000000000E+00 -0.00000000000E+00 -0.45593999997E+02  0.45594000000E+02  0.51100000000E-03 0. -1.
    9900012    2    1    2    0    0 -0.43041815471E+02  0.33817036787E+01  0.44260002969E+01  0.47787271003E+02  0.19999999812E+02 0.  0.
        -12    1    1    2    0    0  0.43041815471E+02 -0.33817036787E+01 -0.44260002969E+01  0.43400728997E+02  0.00000000000E+00 0.  1.
         11    1    3    3    0    0 -0.12596517300E+02 -0.56103101419E+01 -0.29337761323E+01  0.14098044922E+02  0.51100000000E-03 0. -1.
        -11    1    3    3    0    0 -0.13809391474E+01  0.83390340934E+00  0.26984057647E+01  0.31438482402E+01  0.51100000000E-03 0.  1.
         12    1    3    3    0    0 -0.29064359024E+02  0.81581104112E+01  0.46613706644E+01  0.30545377841E+02  0.00000000000E+00 0. -1.
</event>
<event>
 7    1  0.2732193E-010  0.4778727E+02  0.7816164E-02  0.1312668E+00
        -11   -1    0    0    0    0  0.00000000000E+00  0.00000000000E+00  0.45593999997E+02  0.45594000000E+02  0.51100000000E-03 0. -1.
         11   -1    0    0    0    0 -0.00000000000E+00 -0.00000000000E+00 -0.45593999997E+02  0.45594000000E+02  0.51100000000E-03 0.  1.
    9900012    2    1    2    0    0  0.24543140955E+02 -0.12655493584E+01  0.35772276717E+02  0.47787272303E+02  0.20000005736E+02 0.  0.
        -12    1    1    2    0    0 -0.24543140955E+02  0.12655493584E+01 -0.35772276717E+02  0.43400727697E+02  0.00000000000E+00 0.  1.
         11    1    3    3    0    0  0.16402742532E+02  0.16471842290E+01  0.11167736208E+02  0.19911843479E+02  0.51100000000E-03 0. -1.
        -11    1    3    3    0    0  0.30581019912E+00 -0.48112995347E+01  0.11771730176E+02  0.12720682162E+02  0.51100000000E-03 0.  1.
         12    1    3    3    0    0  0.78345882239E+01  0.18985659473E+01  0.12832810334E+02  0.15154746661E+02  0.00000000000E+00 0. -1.
</event>
<event>
 7    1  0.2732193E-010  0.4778727E+02  0.7816164E-02  0.1312668E+00
        -11   -1    0    0    0    0  0.00000000000E+00  0.00000000000E+00  0.45593999997E+02  0.45594000000E+02  0.51100000000E-03 0.  1.
         11   -1    0    0    0    0 -0.00000000000E+00 -0.00000000000E+00 -0.45593999997E+02  0.45594000000E+02  0.51100000000E-03 0. -1.
    9900012    2    1    2    0    0 -0.38654191033E+02 -0.16053662503E+02 -0.11478541456E+02  0.47787268691E+02  0.19999989271E+02 0.  0.
        -12    1    1    2    0    0  0.38654191033E+02  0.16053662503E+02  0.11478541456E+02  0.43400731309E+02  0.00000000000E+00 0.  1.
         11    1    3    3    0    0 -0.12699756048E+02 -0.87878917481E+00 -0.11325888602E+02  0.17039126356E+02  0.51100000000E-03 0. -1.
        -11    1    3    3    0    0 -0.16813745418E+02 -0.12757765934E+02 -0.16714241366E+01  0.21172063799E+02  0.51100000000E-03 0.  1.
         12    1    3    3    0    0 -0.91406895669E+01 -0.24171073946E+01  0.15187712831E+01  0.95760785359E+01  0.00000000000E+00 0. -1.
</event>
<event>
 7    1  0.2732193E-010  0.4778730E+02  0.7816164E-02  0.1312668E+00
        -11   -1    0    0    0    0  0.00000000000E+00  0.00000000000E+00  0.45593999997E+02  0.45594000000E+02  0.51100000000E-03 0.  1.
         11   -1    0    0    0    0 -0.00000000000E+00 -0.00000000000E+00 -0.45593999997E+02  0.45594000000E+02  0.51100000000E-03 0. -1.
    9900012    2    1    2    0    0  0.24091867076E+02 -0.13155817526E+02 -0.33617365864E+02  0.47787298605E+02  0.20000125657E+02 0.  0.
        -12    1    1    2    0    0 -0.24091867076E+02  0.13155817526E+02  0.33617365864E+02  0.43400701395E+02  0.00000000000E+00 0.  1.
         11    1    3    3    0    0  0.13785257756E+02 -0.40002294494E+01 -0.86663530833E+01  0.16767255085E+02  0.51100000000E-03 0. -1.
        -11    1    3    3    0    0 -0.22133283475E-01  0.14674749785E+01 -0.95007213623E+01  0.96134114320E+01  0.51100000000E-03 0.  1.
        -12    1    3    3    0    0  0.10328742603E+02 -0.10623063055E+02 -0.15450291419E+02  0.21406632088E+02  0.00000000000E+00 0.  1.
</event>
<event>
 7    1  0.2732193E-010  0.4778727E+02  0.7816164E-02  0.1312668E+00
        -11   -1    0    0    0    0  0.00000000000E+00  0.00000000000E+00  0.45593999997E+02  0.45594000000E+02  0.51100000000E-03 0.  1.
         11   -1    0    0    0    0 -0.00000000000E+00 -0.00000000000E+00 -0.45593999997E+02  0.45594000000E+02  0.51100000000E-03 0. -1.
    9900012    2    1    2    0    0 -0.16106171122E+02  0.14145668278E+02 -0.37737443677E+02  0.47787270346E+02  0.19999996816E+02 0.  0.
        -12    1    1    2    0    0  0.16106171122E+02 -0.14145668278E+02  0.37737443677E+02  0.43400729654E+02  0.00000000000E+00 0.  1.
         11    1    3    3    0    0 -0.14098569939E+02  0.12391960304E+01 -0.11103652197E+02  0.17988784658E+02  0.51100000000E-03 0. -1.
        -11    1    3    3    0    0 -0.25821242612E+01  0.10801900770E+02 -0.23340514178E+02  0.25848172630E+02  0.51100000000E-03 0.  1.
         12    1    3    3    0    0  0.57452307756E+00  0.21045714774E+01 -0.32932773016E+01  0.39503130579E+01  0.00000000000E+00 0. -1.
</event>
<event>
 7    1  0.2732193E-010  0.4778727E+02  0.7816164E-02  0.1312668E+00
        -11   -1    0    0    0    0  0.00000000000E+00  0.00000000000E+00  0.45593999997E+02  0.45594000000E+02  0.51100000000E-03 0. -1.
         11   -1    0    0    0    0 -0.00000000000E+00 -0.00000000000E+00 -0.45593999997E+02  0.45594000000E+02  0.51100000000E-03 0.  1.
    9900012    2    1    2    0    0  0.73545712292E+01  0.42540021466E+02 -0.44587049939E+01  0.47787271958E+02  0.20000004167E+02 0.  0.
        -12    1    1    2    0    0 -0.73545712292E+01 -0.42540021466E+02  0.44587049939E+01  0.43400728042E+02  0.00000000000E+00 0.  1.
         11    1    3    3    0    0  0.54428369521E+01  0.34423683879E+02 -0.67130790449E+01  0.35491969745E+02  0.51100000000E-03 0. -1.
        -11    1    3    3    0    0  0.40436235148E+01  0.38117214727E+00  0.85629100298E+00  0.41508333956E+01  0.51100000000E-03 0.  1.
         12    1    3    3    0    0 -0.21318892377E+01  0.77351654401E+01  0.13980830480E+01  0.81444688173E+01  0.00000000000E+00 0. -1.
</event>
<event>
 7    1  0.2732193E-010  0.4778727E+02  0.7816164E-02  0.1312668E+00
        -11   -1    0    0    0    0  0.00000000000E+00  0.00000000000E+00  0.45593999997E+02  0.45594000000E+02  0.51100000000E-03 0.  1.
         11   -1    0    0    0    0 -0.00000000000E+00 -0.00000000000E+00 -0.45593999997E+02  0.45594000000E+02  0.51100000000E-03 0. -1.
    9900012    2    1    2    0    0 -0.10657242322E+02  0.57875163782E+01 -0.41671944470E+02  0.47787272867E+02  0.20000008311E+02 0.  0.
        -12    1    1    2    0    0  0.10657242322E+02 -0.57875163782E+01  0.41671944470E+02  0.43400727133E+02  0.00000000000E+00 0.  1.
         11    1    3    3    0    0 -0.91501071693E+01  0.33930687108E+01 -0.60689540719E+01  0.11492152987E+02  0.51100000000E-03 0. -1.
        -11    1    3    3    0    0  0.17275877232E+01  0.23214035451E+01 -0.26025194933E+02  0.26185573229E+02  0.51100000000E-03 0.  1.
        -12    1    3    3    0    0 -0.32347228764E+01  0.73044122340E-01 -0.95777954650E+01  0.10109546652E+02  0.00000000000E+00 0.  1.
</event>
<event>
 7    1  0.2732193E-010  0.4778727E+02  0.7816164E-02  0.1312668E+00
        -11   -1    0    0    0    0  0.00000000000E+00  0.00000000000E+00  0.45593999997E+02  0.45594000000E+02  0.51100000000E-03 0.  1.
         11   -1    0    0    0    0 -0.00000000000E+00 -0.00000000000E+00 -0.45593999997E+02  0.45594000000E+02  0.51100000000E-03 0. -1.
    9900012    2    1    2    0    0  0.17293099233E+02 -0.17764816069E+02 -0.35622788334E+02  0.47787273972E+02  0.20000013349E+02 0.  0.
        -12    1    1    2    0    0 -0.17293099233E+02  0.17764816069E+02  0.35622788334E+02  0.43400726028E+02  0.00000000000E+00 0.  1.
         11    1    3    3    0    0  0.17291540198E+02 -0.14214170194E+02 -0.36423751915E+02  0.42751955517E+02  0.51100000000E-03 0. -1.
        -11    1    3    3    0    0  0.99777618583E+00 -0.25072369193E+01 -0.86294786702E+00  0.28331031694E+01  0.51100000000E-03 0.  1.
         12    1    3    3    0    0 -0.99621715131E+00 -0.10434089550E+01  0.16639114473E+01  0.22022152857E+01  0.00000000000E+00 0. -1.
</event>
<event>
 7    1  0.2732193E-010  0.4778727E+02  0.7816164E-02  0.1312668E+00
        -11   -1    0    0    0    0  0.00000000000E+00  0.00000000000E+00  0.45593999997E+02  0.45594000000E+02  0.51100000000E-03 0.  1.
         11   -1    0    0    0    0 -0.00000000000E+00 -0.00000000000E+00 -0.45593999997E+02  0.45594000000E+02  0.51100000000E-03 0. -1.
    9900012    2    1    2    0    0  0.28795116920E+02 -0.19627242499E+02 -0.25869590484E+02  0.47787272836E+02  0.20000008168E+02 0.  0.
        -12    1    1    2    0    0 -0.28795116920E+02  0.19627242499E+02  0.25869590484E+02  0.43400727164E+02  0.00000000000E+00 0.  1.
         11    1    3    3    0    0  0.43415068591E+01 -0.67767696741E+01 -0.60776290189E+01  0.10085180404E+02  0.51100000000E-03 0. -1.
        -11    1    3    3    0    0  0.12290562523E+02 -0.45925541350E+01 -0.18854923963E+02  0.22970799693E+02  0.51100000000E-03 0.  1.
        -12    1    3    3    0    0  0.12163047538E+02 -0.82579186896E+01 -0.93703750266E+00  0.14731292739E+02  0.00000000000E+00 0.  1.
</event>
<event>
 7    1  0.2732193E-010  0.4778727E+02  0.7816164E-02  0.1312668E+00
        -11   -1    0    0    0    0  0.00000000000E+00  0.00000000000E+00  0.45593999997E+02  0.45594000000E+02  0.51100000000E-03 0. -1.
         11   -1    0    0    0    0 -0.00000000000E+00 -0.00000000000E+00 -0.45593999997E+02  0.45594000000E+02  0.51100000000E-03 0.  1.
    9900012    2    1    2    0    0 -0.17826731709E+02 -0.22022184938E+02  0.32876355825E+02  0.47787265385E+02  0.19999974194E+02 0.  0.
        -12    1    1    2    0    0  0.17826731709E+02  0.22022184938E+02 -0.32876355825E+02  0.43400734615E+02  0.00000000000E+00 0.  1.
         11    1    3    3    0    0 -0.75735165846E+01 -0.11957279667E+02  0.28038900385E+02  0.31408830375E+02  0.51100000000E-03 0. -1.
        -11    1    3    3    0    0 -0.10676367552E+02 -0.90316350980E+01  0.55595610743E+01  0.15048720087E+02  0.51100000000E-03 0.  1.
        -12    1    3    3    0    0  0.42315242842E+00 -0.10332701725E+01 -0.72210563438E+00  0.13297149222E+01  0.00000000000E+00 0.  1.
</event>
<event>
 7    1  0.2732193E-010  0.4778727E+02  0.7816164E-02  0.1312668E+00
        -11   -1    0    0    0    0  0.00000000000E+00  0.00000000000E+00  0.45593999997E+02  0.45594000000E+02  0.51100000000E-03 0.  1.
         11   -1    0    0    0    0 -0.00000000000E+00 -0.00000000000E+00 -0.45593999997E+02  0.45594000000E+02  0.51100000000E-03 0. -1.
    9900012    2    1    2    0    0  0.12479771960E+02 -0.20647644977E+02 -0.36077044368E+02  0.47787273259E+02  0.20000010099E+02 0.  0.
        -12    1    1    2    0    0 -0.12479771960E+02  0.20647644977E+02  0.36077044368E+02  0.43400726741E+02  0.00000000000E+00 0.  1.
         11    1    3    3    0    0  0.18415968744E+01 -0.63279223269E+01 -0.26482557131E+02  0.27290289711E+02  0.51100000000E-03 0. -1.
        -11    1    3    3    0    0  0.86827121461E+01 -0.94544801248E+01 -0.73636138738E+01  0.14798631497E+02  0.51100000000E-03 0.  1.
         12    1    3    3    0    0  0.19554629396E+01 -0.48652425258E+01 -0.22308733629E+01  0.56983520516E+01  0.00000000000E+00 0. -1.
</event>
<event>
 7    1  0.2732193E-010  0.4778727E+02  0.7816164E-02  0.1312668E+00
        -11   -1    0    0    0    0  0.00000000000E+00  0.00000000000E+00  0.45593999997E+02  0.45594000000E+02  0.51100000000E-03 0.  1.
         11   -1    0    0    0    0 -0.00000000000E+00 -0.00000000000E+00 -0.45593999997E+02  0.45594000000E+02  0.51100000000E-03 0. -1.
    9900012    2    1    2    0    0  0.24801903120E+02  0.25989792485E+02 -0.24351995302E+02  0.47787269742E+02  0.19999994060E+02 0.  0.
        -12    1    1    2    0    0 -0.24801903120E+02 -0.25989792485E+02  0.24351995302E+02  0.43400730258E+02  0.00000000000E+00 0.  1.
         11    1    3    3    0    0  0.15602093262E+02  0.26268962891E+02 -0.14869171631E+02  0.33979052235E+02  0.51100000000E-03 0. -1.
        -11    1    3    3    0    0  0.63657368739E+01 -0.19568016139E+01 -0.71579530906E+01  0.97769101056E+01  0.51100000000E-03 0.  1.
         12    1    3    3    0    0  0.28340729839E+01  0.16776312078E+01 -0.23248705803E+01  0.40313074012E+01  0.00000000000E+00 0. -1.
</event>
<event>
 7    1  0.2732193E-010  0.4778727E+02  0.7816164E-02  0.1312668E+00
        -11   -1    0    0    0    0  0.00000000000E+00  0.00000000000E+00  0.45593999997E+02  0.45594000000E+02  0.51100000000E-03 0. -1.
         11   -1    0    0    0    0 -0.00000000000E+00 -0.00000000000E+00 -0.45593999997E+02  0.45594000000E+02  0.51100000000E-03 0.  1.
    9900012    2    1    2    0    0  0.46506753169E+01  0.84062280701E+01  0.42324105999E+02  0.47787269593E+02  0.19999993381E+02 0.  0.
        -12    1    1    2    0    0 -0.46506753169E+01 -0.84062280701E+01 -0.42324105999E+02  0.43400730407E+02  0.00000000000E+00 0.  1.
         11    1    3    3    0    0  0.36741721584E+01 -0.16336926132E+01  0.12468137527E+02  0.13100494122E+02  0.51100000000E-03 0. -1.
        -11    1    3    3    0    0 -0.49222334260E+01  0.82973865996E+01  0.99795143450E+01  0.13880407527E+02  0.51100000000E-03 0.  1.
        -12    1    3    3    0    0  0.58987365845E+01  0.17425340836E+01  0.19876454127E+02  0.20806367944E+02  0.00000000000E+00 0.  1.
</event>
<event>
 7    1  0.2732193E-010  0.4778727E+02  0.7816164E-02  0.1312668E+00
        -11   -1    0    0    0    0  0.00000000000E+00  0.00000000000E+00  0.45593999997E+02  0.45594000000E+02  0.51100000000E-03 0.  1.
         11   -1    0    0    0    0 -0.00000000000E+00 -0.00000000000E+00 -0.45593999997E+02  0.45594000000E+02  0.51100000000E-03 0. -1.
    9900012    2    1    2    0    0  0.85450881934E+01  0.21137494059E+02 -0.36929815535E+02  0.47787268868E+02  0.19999990077E+02 0.  0.
        -12    1    1    2    0    0 -0.85450881934E+01 -0.21137494059E+02  0.36929815535E+02  0.43400731132E+02  0.00000000000E+00 0.  1.
         11    1    3    3    0    0  0.40474728043E+01  0.24890925955E+01  0.88612836729E+00  0.48335123663E+01  0.51100000000E-03 0. -1.
        -11    1    3    3    0    0  0.24837659925E+01  0.16768951764E+02 -0.27753891134E+02  0.32521459225E+02  0.51100000000E-03 0.  1.
         12    1    3    3    0    0  0.20138493965E+01  0.18794496998E+01 -0.10062052768E+02  0.10432297277E+02  0.00000000000E+00 0. -1.
</event>
<event>
 7    1  0.2732193E-010  0.4778729E+02  0.7816164E-02  0.1312668E+00
        -11   -1    0    0    0    0  0.00000000000E+00  0.00000000000E+00  0.45593999997E+02  0.45594000000E+02  0.51100000000E-03 0. -1.
         11   -1    0    0    0    0 -0.00000000000E+00 -0.00000000000E+00 -0.45593999997E+02  0.45594000000E+02  0.51100000000E-03 0.  1.
    9900012    2    1    2    0    0  0.36064808577E+02 -0.20076834001E+02  0.13411646700E+02  0.47787286314E+02  0.20000069621E+02 0.  0.
        -12    1    1    2    0    0 -0.36064808577E+02  0.20076834001E+02 -0.13411646700E+02  0.43400713686E+02  0.00000000000E+00 0.  1.
         11    1    3    3    0    0  0.54082516250E+01 -0.50500443069E+01  0.10473680999E+02  0.12823810941E+02  0.51100000000E-03 0. -1.
        -11    1    3    3    0    0  0.43055218457E+01 -0.50948245519E+01  0.87149324197E+00  0.67271283851E+01  0.51100000000E-03 0.  1.
         12    1    3    3    0    0  0.26351035107E+02 -0.99319651422E+01  0.20664724598E+01  0.28236346988E+02  0.00000000000E+00 0. -1.
</event>
<event>
 7    1  0.2732193E-010  0.4778727E+02  0.7816164E-02  0.1312668E+00
        -11   -1    0    0    0    0  0.00000000000E+00  0.00000000000E+00  0.45593999997E+02  0.45594000000E+02  0.51100000000E-03 0.  1.
         11   -1    0    0    0    0 -0.00000000000E+00 -0.00000000000E+00 -0.45593999997E+02  0.45594000000E+02  0.51100000000E-03 0. -1.
    9900012    2    1    2    0    0  0.20862431925E+02 -0.20211781978E+02 -0.32246950538E+02  0.47787274020E+02  0.20000013569E+02 0.  0.
        -12    1    1    2    0    0 -0.20862431925E+02  0.20211781978E+02  0.32246950538E+02  0.43400725980E+02  0.00000000000E+00 0.  1.
         11    1    3    3    0    0  0.47946208469E+01 -0.66342576896E+01 -0.10326341172E+02  0.13177066685E+02  0.51100000000E-03 0. -1.
        -11    1    3    3    0    0  0.20008380162E+01 -0.11649576441E+02 -0.14104576665E+02  0.18402583166E+02  0.51100000000E-03 0.  1.
        -12    1    3    3    0    0  0.14066973062E+02 -0.19279478475E+01 -0.78160327007E+01  0.16207624169E+02  0.00000000000E+00 0.  1.
</event>
<event>
 7    1  0.2732193E-010  0.4778727E+02  0.7816164E-02  0.1312668E+00
        -11   -1    0    0    0    0  0.00000000000E+00  0.00000000000E+00  0.45593999997E+02  0.45594000000E+02  0.51100000000E-03 0. -1.
         11   -1    0    0    0    0 -0.00000000000E+00 -0.00000000000E+00 -0.45593999997E+02  0.45594000000E+02  0.51100000000E-03 0.  1.
    9900012    2    1    2    0    0  0.36515072193E+02 -0.23371626352E+02 -0.20099798018E+01  0.47787269195E+02  0.19999991567E+02 0.  0.
        -12    1    1    2    0    0 -0.36515072193E+02  0.23371626352E+02  0.20099798018E+01  0.43400730805E+02  0.00000000000E+00 0.  1.
         11    1    3    3    0    0  0.17891418717E+02 -0.76113670243E+01 -0.52123158132E+01  0.20129679781E+02  0.51100000000E-03 0. -1.
        -11    1    3    3    0    0  0.12589208562E+02 -0.16291710913E+02  0.52767357196E+01  0.21254457340E+02  0.51100000000E-03 0.  1.
        -12    1    3    3    0    0  0.60344449140E+01  0.53145158556E+00 -0.20743997081E+01  0.64031320740E+01  0.00000000000E+00 0.  1.
</event>
<event>
 7    1  0.2732193E-010  0.4778727E+02  0.7816164E-02  0.1312668E+00
        -11   -1    0    0    0    0  0.00000000000E+00  0.00000000000E+00  0.45593999997E+02  0.45594000000E+02  0.51100000000E-03 0.  1.
         11   -1    0    0    0    0 -0.00000000000E+00 -0.00000000000E+00 -0.45593999997E+02  0.45594000000E+02  0.51100000000E-03 0. -1.
    9900012    2    1    2    0    0 -0.38267035104E+02  0.11469826821E+02 -0.16961744551E+02  0.47787266352E+02  0.19999978606E+02 0.  0.
        -12    1    1    2    0    0  0.38267035104E+02 -0.11469826821E+02  0.16961744551E+02  0.43400733648E+02  0.00000000000E+00 0.  1.
         11    1    3    3    0    0 -0.22824117250E+02  0.42268722497E+01 -0.46813082866E+01  0.23679557107E+02  0.51100000000E-03 0. -1.
        -11    1    3    3    0    0 -0.87203483615E+01  0.12870873568E+00 -0.42200869422E+00  0.87315023383E+01  0.51100000000E-03 0.  1.
         12    1    3    3    0    0 -0.67225694925E+01  0.71142458353E+01 -0.11858427571E+02  0.15376206907E+02  0.00000000000E+00 0. -1.
</event>
<event>
 7    1  0.2732193E-010  0.4778728E+02  0.7816164E-02  0.1312668E+00
        -11   -1    0    0    0    0  0.00000000000E+00  0.00000000000E+00  0.45593999997E+02  0.45594000000E+02  0.51100000000E-03 0.  1.
         11   -1    0    0    0    0 -0.00000000000E+00 -0.00000000000E+00 -0.45593999997E+02  0.45594000000E+02  0.51100000000E-03 0. -1.
    9900012    2    1    2    0    0 -0.22605413015E+02  0.21331960450E+02 -0.30291342860E+02  0.47787277812E+02  0.20000030855E+02 0.  0.
        -12    1    1    2    0    0  0.22605413015E+02 -0.21331960450E+02  0.30291342860E+02  0.43400722188E+02  0.00000000000E+00 0.  1.
         11    1    3    3    0    0 -0.10225844200E+02  0.53348041075E+01 -0.17514604198E+02  0.20971156023E+02  0.51100000000E-03 0. -1.
        -11    1    3    3    0    0 -0.96325042143E+00 -0.92502680772E+00 -0.46616284375E+01  0.48491551759E+01  0.51100000000E-03 0.  1.
         12    1    3    3    0    0 -0.11416318393E+02  0.16922183150E+02 -0.81151102246E+01  0.21966966613E+02  0.00000000000E+00 0. -1.
</event>
<event>
 7    1  0.2732193E-010  0.4778727E+02  0.7816164E-02  0.1312668E+00
        -11   -1    0    0    0    0  0.00000000000E+00  0.00000000000E+00  0.45593999997E+02  0.45594000000E+02  0.51100000000E-03 0.  1.
         11   -1    0    0    0    0 -0.00000000000E+00 -0.00000000000E+00 -0.45593999997E+02  0.45594000000E+02  0.51100000000E-03 0. -1.
    9900012    2    1    2    0    0  0.41942212230E+02  0.10072873119E+02 -0.47970571090E+01  0.47787266175E+02  0.19999977798E+02 0.  0.
        -12    1    1    2    0    0 -0.41942212230E+02 -0.10072873119E+02  0.47970571090E+01  0.43400733825E+02  0.00000000000E+00 0.  1.
         11    1    3    3    0    0  0.13837076671E+02  0.13737582693E+01 -0.28337420092E+01  0.14190912466E+02  0.51100000000E-03 0. -1.
        -11    1    3    3    0    0  0.26435129740E+02  0.98510417076E+01  0.28679830963E+01  0.28356382604E+02  0.51100000000E-03 0.  1.
        -12    1    3    3    0    0  0.16700058202E+01 -0.11519268578E+01 -0.48312981961E+01  0.52399711054E+01  0.00000000000E+00 0.  1.
</event>
<event>
 7    1  0.2732193E-010  0.4778727E+02  0.7816164E-02  0.1312668E+00
        -11   -1    0    0    0    0  0.00000000000E+00  0.00000000000E+00  0.45593999997E+02  0.45594000000E+02  0.51100000000E-03 0.  1.
         11   -1    0    0    0    0 -0.00000000000E+00 -0.00000000000E+00 -0.45593999997E+02  0.45594000000E+02  0.51100000000E-03 0. -1.
    9900012    2    1    2    0    0 -0.33858010014E+02  0.27079755915E+02 -0.19863422141E+01  0.47787267542E+02  0.19999984031E+02 0.  0.
        -12    1    1    2    0    0  0.33858010014E+02 -0.27079755915E+02  0.19863422141E+01  0.43400732458E+02  0.00000000000E+00 0.  1.
         11    1    3    3    0    0 -0.36221523784E+01  0.82667055828E+01 -0.43151099428E+01  0.10003928385E+02  0.51100000000E-03 0. -1.
        -11    1    3    3    0    0 -0.13084852731E+02  0.12912869959E+01  0.16869335682E+01  0.13256188676E+02  0.51100000000E-03 0.  1.
        -12    1    3    3    0    0 -0.17151004905E+02  0.17521763336E+02  0.64183416050E+00  0.24527150481E+02  0.00000000000E+00 0.  1.
</event>
<event>
 7    1  0.2732193E-010  0.4778728E+02  0.7816164E-02  0.1312668E+00
        -11   -1    0    0    0    0  0.00000000000E+00  0.00000000000E+00  0.45593999997E+02  0.45594000000E+02  0.51100000000E-03 0.  1.
         11   -1    0    0    0    0 -0.00000000000E+00 -0.00000000000E+00 -0.45593999997E+02  0.45594000000E+02  0.51100000000E-03 0. -1.
    9900012    2    1    2    0    0 -0.25576051189E+02 -0.22157960976E+02 -0.27175598142E+02  0.47787276925E+02  0.20000026813E+02 0.  0.
        -12    1    1    2    0    0  0.25576051189E+02  0.22157960976E+02  0.27175598142E+02  0.43400723075E+02  0.00000000000E+00 0.  1.
         11    1    3    3    0    0 -0.24221551260E+02 -0.16132002925E+02 -0.25943563967E+02  0.38987094986E+02  0.51100000000E-03 0. -1.
        -11    1    3    3    0    0 -0.21467882237E+01 -0.16697283881E-01  0.96400925520E+00  0.23533577250E+01  0.51100000000E-03 0.  1.
         12    1    3    3    0    0  0.79228829510E+00 -0.60092607670E+01 -0.21960434299E+01  0.64468242146E+01  0.00000000000E+00 0. -1.
</event>
<event>
 7    1  0.2732193E-010  0.4778727E+02  0.7816164E-02  0.1312668E+00
        -11   -1    0    0    0    0  0.00000000000E+00  0.00000000000E+00  0.45593999997E+02  0.45594000000E+02  0.51100000000E-03 0.  1.
         11   -1    0    0    0    0 -0.00000000000E+00 -0.00000000000E+00 -0.45593999997E+02  0.45594000000E+02  0.51100000000E-03 0. -1.
    9900012    2    1    2    0    0 -0.28443202953E+02  0.19451180782E+02 -0.26386721943E+02  0.47787270479E+02  0.19999997424E+02 0.  0.
        -12    1    1    2    0    0  0.28443202953E+02 -0.19451180782E+02  0.26386721943E+02  0.43400729521E+02  0.00000000000E+00 0.  1.
         11    1    3    3    0    0 -0.12951125321E+02  0.14202704793E+02 -0.22891746481E+02  0.29891144637E+02  0.51100000000E-03 0. -1.
        -11    1    3    3    0    0 -0.48553132658E+01 -0.13406725430E+01 -0.11323140875E+01  0.51627129719E+01  0.51100000000E-03 0.  1.
         12    1    3    3    0    0 -0.10636764366E+02  0.65891485324E+01 -0.23626613745E+01  0.12733412870E+02  0.00000000000E+00 0. -1.
</event>
<event>
 7    1  0.2732193E-010  0.4778729E+02  0.7816164E-02  0.1312668E+00
        -11   -1    0    0    0    0  0.00000000000E+00  0.00000000000E+00  0.45593999997E+02  0.45594000000E+02  0.51100000000E-03 0.  1.
         11   -1    0    0    0    0 -0.00000000000E+00 -0.00000000000E+00 -0.45593999997E+02  0.45594000000E+02  0.51100000000E-03 0. -1.
    9900012    2    1    2    0    0 -0.23672147284E+02 -0.11713844605E+02 -0.34438886443E+02  0.47787290191E+02  0.20000087298E+02 0.  0.
        -12    1    1    2    0    0  0.23672147284E+02  0.11713844605E+02  0.34438886443E+02  0.43400709809E+02  0.00000000000E+00 0.  1.
         11    1    3    3    0    0 -0.29820289584E+01 -0.39619739158E+01 -0.93147569910E-01  0.49596784925E+01  0.51100000000E-03 0.  1.
        -11    1    3    3    0    0 -0.44531270976E+01 -0.54022726018E+00 -0.18452016323E+02  0.18989446887E+02  0.51100000000E-03 0. -1.
        -12    1    3    3    0    0 -0.16236991228E+02 -0.72116434288E+01 -0.15893722550E+02  0.23838164811E+02  0.00000000000E+00 0.  1.
</event>
<event>
 7    1  0.2732193E-010  0.4778726E+02  0.7816164E-02  0.1312668E+00
        -11   -1    0    0    0    0  0.00000000000E+00  0.00000000000E+00  0.45593999997E+02  0.45594000000E+02  0.51100000000E-03 0.  1.
         11   -1    0    0    0    0 -0.00000000000E+00 -0.00000000000E+00 -0.45593999997E+02  0.45594000000E+02  0.51100000000E-03 0. -1.
    9900012    2    1    2    0    0 -0.17969105330E+02 -0.27484778496E+02 -0.28378201780E+02  0.47787261163E+02  0.19999954946E+02 0.  0.
        -12    1    1    2    0    0  0.17969105330E+02  0.27484778496E+02  0.28378201780E+02  0.43400738837E+02  0.00000000000E+00 0.  1.
         11    1    3    3    0    0 -0.47604352611E+01 -0.81900722327E+01 -0.85288977555E+01  0.12746808394E+02  0.51100000000E-03 0. -1.
        -11    1    3    3    0    0 -0.12386313460E+02 -0.12385828644E+02 -0.43462424831E+01  0.18047696150E+02  0.51100000000E-03 0.  1.
        -12    1    3    3    0    0 -0.82235660868E+00 -0.69088776192E+01 -0.15503061541E+02  0.16992756619E+02  0.00000000000E+00 0.  1.
</event>
<event>
 7    1  0.2732193E-010  0.4778727E+02  0.7816164E-02  0.1312668E+00
        -11   -1    0    0    0    0  0.00000000000E+00  0.00000000000E+00  0.45593999997E+02  0.45594000000E+02  0.51100000000E-03 0.  1.
         11   -1    0    0    0    0 -0.00000000000E+00 -0.00000000000E+00 -0.45593999997E+02  0.45594000000E+02  0.51100000000E-03 0. -1.
    9900012    2    1    2    0    0 -0.35832525609E+02  0.20690675548E+02 -0.13097681263E+02  0.47787271889E+02  0.20000003850E+02 0.  0.
        -12    1    1    2    0    0  0.35832525609E+02 -0.20690675548E+02  0.13097681263E+02  0.43400728111E+02  0.00000000000E+00 0.  1.
         11    1    3    3    0    0 -0.22989676975E+02  0.16913596468E+02 -0.10737435721E+02  0.30494057109E+02  0.51100000000E-03 0. -1.
        -11    1    3    3    0    0 -0.62075882789E+01 -0.33986511191E+01 -0.25376419219E+01  0.75182849410E+01  0.51100000000E-03 0.  1.
         12    1    3    3    0    0 -0.66352603552E+01  0.71757301990E+01  0.17739637928E+00  0.97749298384E+01  0.00000000000E+00 0. -1.
</event>
<event>
 7    1  0.2732193E-010  0.4778727E+02  0.7816164E-02  0.1312668E+00
        -11   -1    0    0    0    0  0.00000000000E+00  0.00000000000E+00  0.45593999997E+02  0.45594000000E+02  0.51100000000E-03 0.  1.
         11   -1    0    0    0    0 -0.00000000000E+00 -0.00000000000E+00 -0.45593999997E+02  0.45594000000E+02  0.51100000000E-03 0. -1.
    9900012    2    1    2    0    0 -0.18686359891E+02 -0.29644880586E+02 -0.25605162983E+02  0.47787270025E+02  0.19999995353E+02 0.  0.
        -12    1    1    2    0    0  0.18686359891E+02  0.29644880586E+02  0.25605162983E+02  0.43400729975E+02  0.00000000000E+00 0.  1.
         11    1    3    3    0    0  0.12095026628E+01 -0.12998183355E+01 -0.18431828615E+01  0.25592474907E+01  0.51100000000E-03 0. -1.
        -11    1    3    3    0    0 -0.62565504262E+01 -0.18004733137E+02 -0.47443180387E+01  0.19642387647E+02  0.51100000000E-03 0.  1.
        -12    1    3    3    0    0 -0.13639312127E+02 -0.10340329114E+02 -0.19017662083E+02  0.25585634888E+02  0.00000000000E+00 0.  1.
</event>
<event>
 7    1  0.2732193E-010  0.4778727E+02  0.7816164E-02  0.1312668E+00
        -11   -1    0    0    0    0  0.00000000000E+00  0.00000000000E+00  0.45593999997E+02  0.45594000000E+02  0.51100000000E-03 0.  1.
         11   -1    0    0    0    0 -0.00000000000E+00 -0.00000000000E+00 -0.45593999997E+02  0.45594000000E+02  0.51100000000E-03 0. -1.
    9900012    2    1    2    0    0 -0.16642274727E+02 -0.99239216789E+01 -0.38835213383E+02  0.47787270420E+02  0.19999997151E+02 0.  0.
        -12    1    1    2    0    0  0.16642274727E+02  0.99239216789E+01  0.38835213383E+02  0.43400729580E+02  0.00000000000E+00 0.  1.
         11    1    3    3    0    0 -0.19354836001E+01 -0.12643825170E+02 -0.19779938076E+02  0.23555431693E+02  0.51100000000E-03 0. -1.
        -11    1    3    3    0    0 -0.11309726850E+02  0.23090562046E+01 -0.14448420477E+02  0.18493201900E+02  0.51100000000E-03 0.  1.
         12    1    3    3    0    0 -0.33970642775E+01  0.41084728660E+00 -0.46068548310E+01  0.57386368270E+01  0.00000000000E+00 0. -1.
</event>
<event>
 7    1  0.2732193E-010  0.4778727E+02  0.7816164E-02  0.1312668E+00
        -11   -1    0    0    0    0  0.00000000000E+00  0.00000000000E+00  0.45593999997E+02  0.45594000000E+02  0.51100000000E-03 0.  1.
         11   -1    0    0    0    0 -0.00000000000E+00 -0.00000000000E+00 -0.45593999997E+02  0.45594000000E+02  0.51100000000E-03 0. -1.
    9900012    2    1    2    0    0 -0.16417406924E+02 -0.19888236409E+02 -0.34907738580E+02  0.47787269473E+02  0.19999992834E+02 0.  0.
        -12    1    1    2    0    0  0.16417406924E+02  0.19888236409E+02  0.34907738580E+02  0.43400730527E+02  0.00000000000E+00 0.  1.
         11    1    3    3    0    0 -0.15235777699E+02 -0.14977363085E+02 -0.23159072453E+02  0.31508617301E+02  0.51100000000E-03 0. -1.
        -11    1    3    3    0    0 -0.16979964617E+01  0.61849637814E+00  0.12136168181E+01  0.21768315957E+01  0.51100000000E-03 0.  1.
         12    1    3    3    0    0  0.51636723648E+00 -0.55293697024E+01 -0.12962282945E+02  0.14101820576E+02  0.00000000000E+00 0. -1.
</event>
<event>
 7    1  0.2732193E-010  0.4778727E+02  0.7816164E-02  0.1312668E+00
        -11   -1    0    0    0    0  0.00000000000E+00  0.00000000000E+00  0.45593999997E+02  0.45594000000E+02  0.51100000000E-03 0.  1.
         11   -1    0    0    0    0 -0.00000000000E+00 -0.00000000000E+00 -0.45593999997E+02  0.45594000000E+02  0.51100000000E-03 0. -1.
    9900012    2    1    2    0    0  0.31894145955E+02  0.74634523332E+01 -0.28472502827E+02  0.47787273230E+02  0.20000009967E+02 0.  0.
        -12    1    1    2    0    0 -0.31894145955E+02 -0.74634523332E+01  0.28472502827E+02  0.43400726770E+02  0.00000000000E+00 0.  1.
         11    1    3    3    0    0  0.28718459018E+02  0.12477177445E+02 -0.21749373564E+02  0.38124337319E+02  0.51100000000E-03 0. -1.
        -11    1    3    3    0    0  0.30306315386E+01 -0.53515340248E+01 -0.50731139227E+01  0.79724606663E+01  0.51100000000E-03 0.  1.
         12    1    3    3    0    0  0.14505539833E+00  0.33780891307E+00 -0.16500153404E+01  0.16904752450E+01  0.00000000000E+00 0. -1.
</event>
<event>
 7    1  0.2732193E-010  0.4778727E+02  0.7816164E-02  0.1312668E+00
        -11   -1    0    0    0    0  0.00000000000E+00  0.00000000000E+00  0.45593999997E+02  0.45594000000E+02  0.51100000000E-03 0.  1.
         11   -1    0    0    0    0 -0.00000000000E+00 -0.00000000000E+00 -0.45593999997E+02  0.45594000000E+02  0.51100000000E-03 0. -1.
    9900012    2    1    2    0    0  0.32565400975E+02 -0.26487670733E+02 -0.11023689559E+02  0.47787265295E+02  0.19999973784E+02 0.  0.
        -12    1    1    2    0    0 -0.32565400975E+02  0.26487670733E+02  0.11023689559E+02  0.43400734705E+02  0.00000000000E+00 0.  1.
         11    1    3    3    0    0  0.51226592839E+01 -0.12078931341E+02  0.11359581218E+01  0.13169381975E+02  0.51100000000E-03 0. -1.
        -11    1    3    3    0    0  0.11923586483E+02 -0.22644867211E+01 -0.15442933027E+01  0.12234568108E+02  0.51100000000E-03 0.  1.
         12    1    3    3    0    0  0.15519155208E+02 -0.12144252670E+02 -0.10615354378E+02  0.22383315211E+02  0.00000000000E+00 0. -1.
</event>
<event>
 7    1  0.2732193E-010  0.4778728E+02  0.7816164E-02  0.1312668E+00
        -11   -1    0    0    0    0  0.00000000000E+00  0.00000000000E+00  0.45593999997E+02  0.45594000000E+02  0.51100000000E-03 0.  1.
         11   -1    0    0    0    0 -0.00000000000E+00 -0.00000000000E+00 -0.45593999997E+02  0.45594000000E+02  0.51100000000E-03 0. -1.
    9900012    2    1    2    0    0  0.37110124870E+02 -0.20439674807E+02 -0.94170640017E+01  0.47787276866E+02  0.20000026544E+02 0.  0.
        -12    1    1    2    0    0 -0.37110124870E+02  0.20439674807E+02  0.94170640017E+01  0.43400723134E+02  0.00000000000E+00 0.  1.
         11    1    3    3    0    0  0.10455420842E+02  0.12814845952E+01 -0.37213183024E+01  0.11171671223E+02  0.51100000000E-03 0. -1.
        -11    1    3    3    0    0  0.11064035948E+02 -0.15872869137E+02 -0.48272914124E+01  0.19941504676E+02  0.51100000000E-03 0.  1.
         12    1    3    3    0    0  0.15590668080E+02 -0.58482902655E+01 -0.86845428685E+00  0.16674100967E+02  0.00000000000E+00 0. -1.
</event>
<event>
 7    1  0.2732193E-010  0.4778727E+02  0.7816164E-02  0.1312668E+00
        -11   -1    0    0    0    0  0.00000000000E+00  0.00000000000E+00  0.45593999997E+02  0.45594000000E+02  0.51100000000E-03 0.  1.
         11   -1    0    0    0    0 -0.00000000000E+00 -0.00000000000E+00 -0.45593999997E+02  0.45594000000E+02  0.51100000000E-03 0. -1.
    9900012    2    1    2    0    0 -0.34116518579E+02  0.71693200955E+01 -0.25851255609E+02  0.47787269509E+02  0.19999992999E+02 0.  0.
        -12    1    1    2    0    0  0.34116518579E+02 -0.71693200955E+01  0.25851255609E+02  0.43400730491E+02  0.00000000000E+00 0.  1.
         11    1    3    3    0    0 -0.16274174108E+02  0.10597253982E+02 -0.93139635773E+01  0.21538348419E+02  0.51100000000E-03 0. -1.
        -11    1    3    3    0    0 -0.10212976790E+02 -0.28361266488E+01 -0.15122058376E+02  0.18466866520E+02  0.51100000000E-03 0.  1.
         12    1    3    3    0    0 -0.76293676814E+01 -0.59180723756E+00 -0.14152336552E+01  0.77820545695E+01  0.00000000000E+00 0. -1.
</event>
<event>
 7    1  0.2732193E-010  0.4778727E+02  0.7816164E-02  0.1312668E+00
        -11   -1    0    0    0    0  0.00000000000E+00  0.00000000000E+00  0.45593999997E+02  0.45594000000E+02  0.51100000000E-03 0.  1.
         11   -1    0    0    0    0 -0.00000000000E+00 -0.00000000000E+00 -0.45593999997E+02  0.45594000000E+02  0.51100000000E-03 0. -1.
    9900012    2    1    2    0    0  0.13933322307E+02  0.23719625838E+02 -0.33568807901E+02  0.47787274380E+02  0.20000015209E+02 0.  0.
        -12    1    1    2    0    0 -0.13933322307E+02 -0.23719625838E+02  0.33568807901E+02  0.43400725620E+02  0.00000000000E+00 0.  1.
         11    1    3    3    0    0  0.99824090217E+00  0.32927477752E+01 -0.85085945787E+01  0.91779548253E+01  0.51100000000E-03 0. -1.
        -11    1    3    3    0    0  0.13494246111E+02  0.18178061725E+02 -0.27245658910E+02  0.35424038955E+02  0.51100000000E-03 0.  1.
        -12    1    3    3    0    0 -0.55916470571E+00  0.22488163378E+01  0.21854455870E+01  0.31852806003E+01  0.00000000000E+00 0.  1.
</event>
<event>
 7    1  0.2732193E-010  0.4778728E+02  0.7816164E-02  0.1312668E+00
        -11   -1    0    0    0    0  0.00000000000E+00  0.00000000000E+00  0.45593999997E+02  0.45594000000E+02  0.51100000000E-03 0.  1.
         11   -1    0    0    0    0 -0.00000000000E+00 -0.00000000000E+00 -0.45593999997E+02  0.45594000000E+02  0.51100000000E-03 0. -1.
    9900012    2    1    2    0    0  0.28747332467E+02  0.16087781675E+02 -0.28255919545E+02  0.47787276129E+02  0.20000023181E+02 0.  0.
        -12    1    1    2    0    0 -0.28747332467E+02 -0.16087781675E+02  0.28255919545E+02  0.43400723871E+02  0.00000000000E+00 0.  1.
         11    1    3    3    0    0  0.12206019808E+02  0.84581826631E+01 -0.24579905586E+02  0.28717582287E+02  0.51100000000E-03 0. -1.
        -11    1    3    3    0    0  0.13223937854E+02  0.47023228840E+01 -0.41092094977E+01  0.14624294029E+02  0.51100000000E-03 0.  1.
         12    1    3    3    0    0  0.33173748046E+01  0.29272761283E+01  0.43319553830E+00  0.44453998133E+01  0.00000000000E+00 0. -1.
</event>
<event>
 7    1  0.2732193E-010  0.4778727E+02  0.7816164E-02  0.1312668E+00
        -11   -1    0    0    0    0  0.00000000000E+00  0.00000000000E+00  0.45593999997E+02  0.45594000000E+02  0.51100000000E-03 0.  1.
         11   -1    0    0    0    0 -0.00000000000E+00 -0.00000000000E+00 -0.45593999997E+02  0.45594000000E+02  0.51100000000E-03 0. -1.
    9900012    2    1    2    0    0 -0.31688220957E+02 -0.18000385570E+02 -0.23568328579E+02  0.47787270281E+02  0.19999996521E+02 0.  0.
        -12    1    1    2    0    0  0.31688220957E+02  0.18000385570E+02  0.23568328579E+02  0.43400729719E+02  0.00000000000E+00 0.  1.
         11    1    3    3    0    0 -0.91600890759E+01 -0.58962961236E+01 -0.63826632222E+01  0.12625843731E+02  0.51100000000E-03 0. -1.
        -11    1    3    3    0    0 -0.43317916459E+01 -0.11343072372E+02 -0.93970427571E+01  0.15353635483E+02  0.51100000000E-03 0.  1.
        -12    1    3    3    0    0 -0.18196340236E+02 -0.76101707403E+00 -0.77886225996E+01  0.19807791067E+02  0.00000000000E+00 0.  1.
</event>
<event>
 7    1  0.2732193E-010  0.4778727E+02  0.7816164E-02  0.1312668E+00
        -11   -1    0    0    0    0  0.00000000000E+00  0.00000000000E+00  0.45593999997E+02  0.45594000000E+02  0.51100000000E-03 0.  1.
         11   -1    0    0    0    0 -0.00000000000E+00 -0.00000000000E+00 -0.45593999997E+02  0.45594000000E+02  0.51100000000E-03 0. -1.
    9900012    2    1    2    0    0 -0.21021098053E+02  0.23134975314E+02 -0.30108300010E+02  0.47787269872E+02  0.19999994654E+02 0.  0.
        -12    1    1    2    0    0  0.21021098053E+02 -0.23134975314E+02  0.30108300010E+02  0.43400730128E+02  0.00000000000E+00 0.  1.
         11    1    3    3    0    0 -0.96262273024E+01  0.22221796279E+02 -0.15331915653E+02  0.28662521170E+02  0.51100000000E-03 0. -1.
        -11    1    3    3    0    0 -0.33094112071E+01 -0.13934887146E+01 -0.58324032471E+01  0.68491562424E+01  0.51100000000E-03 0.  1.
         12    1    3    3    0    0 -0.80854595438E+01  0.23066677497E+01 -0.89439811102E+01  0.12275592460E+02  0.00000000000E+00 0. -1.
</event>
<event>
 7    1  0.2732193E-010  0.4778727E+02  0.7816164E-02  0.1312668E+00
        -11   -1    0    0    0    0  0.00000000000E+00  0.00000000000E+00  0.45593999997E+02  0.45594000000E+02  0.51100000000E-03 0.  1.
         11   -1    0    0    0    0 -0.00000000000E+00 -0.00000000000E+00 -0.45593999997E+02  0.45594000000E+02  0.51100000000E-03 0. -1.
    9900012    2    1    2    0    0 -0.88461871549E+01 -0.42462472254E+01 -0.42276914554E+02  0.47787272507E+02  0.20000006668E+02 0.  0.
        -12    1    1    2    0    0  0.88461871549E+01  0.42462472254E+01  0.42276914554E+02  0.43400727493E+02  0.00000000000E+00 0.  1.
         11    1    3    3    0    0 -0.19778541794E+01  0.76937863728E+00 -0.49559415604E+01  0.53912157862E+01  0.51100000000E-03 0. -1.
        -11    1    3    3    0    0  0.56421502315E+01 -0.48741052644E+01 -0.16478455565E+02  0.18086742643E+02  0.51100000000E-03 0.  1.
        -12    1    3    3    0    0 -0.12510483207E+02 -0.14152059829E+00 -0.20842517429E+02  0.24309314078E+02  0.00000000000E+00 0.  1.
</event>
<event>
 7    1  0.2732193E-010  0.4778726E+02  0.7816164E-02  0.1312668E+00
        -11   -1    0    0    0    0  0.00000000000E+00  0.00000000000E+00  0.45593999997E+02  0.45594000000E+02  0.51100000000E-03 0. -1.
         11   -1    0    0    0    0 -0.00000000000E+00 -0.00000000000E+00 -0.45593999997E+02  0.45594000000E+02  0.51100000000E-03 0.  1.
    9900012    2    1    2    0    0  0.16538925193E+02  0.37674525813E+02  0.13810067941E+02  0.47787263620E+02  0.19999966148E+02 0.  0.
        -12    1    1    2    0    0 -0.16538925193E+02 -0.37674525813E+02 -0.13810067941E+02  0.43400736380E+02  0.00000000000E+00 0.  1.
         11    1    3    3    0    0  0.13859565665E+02  0.25936871259E+02  0.10170187429E+02  0.31116580207E+02  0.51100000000E-03 0. -1.
        -11    1    3    3    0    0 -0.23501269366E+01  0.20512545216E+01 -0.26330576741E+01  0.40821237986E+01  0.51100000000E-03 0.  1.
        -12    1    3    3    0    0  0.50294864648E+01  0.96864000322E+01  0.62729381861E+01  0.12588559615E+02  0.00000000000E+00 0.  1.
</event>
<event>
 7    1  0.2732193E-010  0.4778727E+02  0.7816164E-02  0.1312668E+00
        -11   -1    0    0    0    0  0.00000000000E+00  0.00000000000E+00  0.45593999997E+02  0.45594000000E+02  0.51100000000E-03 0.  1.
         11   -1    0    0    0    0 -0.00000000000E+00 -0.00000000000E+00 -0.45593999997E+02  0.45594000000E+02  0.51100000000E-03 0. -1.
    9900012    2    1    2    0    0  0.95820836485E+01 -0.21217913114E+02 -0.36627958751E+02  0.47787268137E+02  0.19999986745E+02 0.  0.
        -12    1    1    2    0    0 -0.95820836485E+01  0.21217913114E+02  0.36627958751E+02  0.43400731863E+02  0.00000000000E+00 0.  1.
         11    1    3    3    0    0  0.36694017007E+01 -0.57392225318E+01 -0.15114794048E+02  0.16578907789E+02  0.51100000000E-03 0. -1.
        -11    1    3    3    0    0  0.10639822654E+02 -0.12378638687E+02 -0.12459289383E+02  0.20534615020E+02  0.51100000000E-03 0.  1.
        -12    1    3    3    0    0 -0.47271407058E+01 -0.31000518945E+01 -0.90538753208E+01  0.10673745328E+02  0.00000000000E+00 0.  1.
</event>
<event>
 7    1  0.2732193E-010  0.4778727E+02  0.7816164E-02  0.1312668E+00
        -11   -1    0    0    0    0  0.00000000000E+00  0.00000000000E+00  0.45593999997E+02  0.45594000000E+02  0.51100000000E-03 0.  1.
         11   -1    0    0    0    0 -0.00000000000E+00 -0.00000000000E+00 -0.45593999997E+02  0.45594000000E+02  0.51100000000E-03 0. -1.
    9900012    2    1    2    0    0 -0.57311760035E+01  0.23980028439E+02 -0.35717429913E+02  0.47787274869E+02  0.20000017436E+02 0.  0.
        -12    1    1    2    0    0  0.57311760035E+01 -0.23980028439E+02  0.35717429913E+02  0.43400725131E+02  0.00000000000E+00 0.  1.
         11    1    3    3    0    0 -0.84251603809E+01  0.56670021396E+01 -0.97150469672E+01  0.14052771205E+02  0.51100000000E-03 0. -1.
        -11    1    3    3    0    0  0.21955477831E+01  0.18885429166E+02 -0.26649928038E+02  0.32736806954E+02  0.51100000000E-03 0.  1.
         12    1    3    3    0    0  0.49843659435E+00 -0.57240286652E+00  0.64754509159E+00  0.99769671034E+00  0.00000000000E+00 0. -1.
</event>
<event>
 7    1  0.2732193E-010  0.4778727E+02  0.7816164E-02  0.1312668E+00
        -11   -1    0    0    0    0  0.00000000000E+00  0.00000000000E+00  0.45593999997E+02  0.45594000000E+02  0.51100000000E-03 0.  1.
         11   -1    0    0    0    0 -0.00000000000E+00 -0.00000000000E+00 -0.45593999997E+02  0.45594000000E+02  0.51100000000E-03 0. -1.
    9900012    2    1    2    0    0 -0.41630752677E+02 -0.35700216675E+01 -0.11737061238E+02  0.47787271554E+02  0.20000002323E+02 0.  0.
        -12    1    1    2    0    0  0.41630752677E+02  0.35700216675E+01  0.11737061238E+02  0.43400728446E+02  0.00000000000E+00 0.  1.
         11    1    3    3    0    0 -0.22129821282E+02  0.34964107446E+01  0.17344950071E+01  0.22471367365E+02  0.51100000000E-03 0. -1.
        -11    1    3    3    0    0 -0.30775865641E+01 -0.33731133660E+01 -0.34736334461E+01  0.57372085911E+01  0.51100000000E-03 0.  1.
         12    1    3    3    0    0 -0.16423344831E+02 -0.36933190461E+01 -0.99979227989E+01  0.19578695598E+02  0.00000000000E+00 0. -1.
</event>
<event>
 7    1  0.2732193E-010  0.4778727E+02  0.7816164E-02  0.1312668E+00
        -11   -1    0    0    0    0  0.00000000000E+00  0.00000000000E+00  0.45593999997E+02  0.45594000000E+02  0.51100000000E-03 0. -1.
         11   -1    0    0    0    0 -0.00000000000E+00 -0.00000000000E+00 -0.45593999997E+02  0.45594000000E+02  0.51100000000E-03 0.  1.
    9900012    2    1    2    0    0 -0.27977359182E+02  0.25668295575E+02  0.21024495676E+02  0.47787269096E+02  0.19999991118E+02 0.  0.
        -12    1    1    2    0    0  0.27977359182E+02 -0.25668295575E+02 -0.21024495676E+02  0.43400730904E+02  0.00000000000E+00 0.  1.
         11    1    3    3    0    0  0.10039550872E+01 -0.16956956889E+01  0.26673422389E+01  0.33163269693E+01  0.51100000000E-03 0. -1.
        -11    1    3    3    0    0 -0.21301211322E+02  0.16209021532E+02  0.10100329738E+02  0.28609275487E+02  0.51100000000E-03 0.  1.
         12    1    3    3    0    0 -0.76801029472E+01  0.11154969733E+02  0.82568236990E+01  0.15861666640E+02  0.00000000000E+00 0. -1.
</event>
<event>
 7    1  0.2732193E-010  0.4778727E+02  0.7816164E-02  0.1312668E+00
        -11   -1    0    0    0    0  0.00000000000E+00  0.00000000000E+00  0.45593999997E+02  0.45594000000E+02  0.51100000000E-03 0.  1.
         11   -1    0    0    0    0 -0.00000000000E+00 -0.00000000000E+00 -0.45593999997E+02  0.45594000000E+02  0.51100000000E-03 0. -1.
    9900012    2    1    2    0    0 -0.10337490795E+02 -0.41693910533E+02 -0.61949562988E+01  0.47787269879E+02  0.19999994687E+02 0.  0.
        -12    1    1    2    0    0  0.10337490795E+02  0.41693910533E+02  0.61949562988E+01  0.43400730121E+02  0.00000000000E+00 0.  1.
         11    1    3    3    0    0 -0.59794100974E+01 -0.73267452424E+01 -0.73921467097E+01  0.12003265147E+02  0.51100000000E-03 0. -1.
        -11    1    3    3    0    0 -0.62829767494E+01 -0.30999588049E+02  0.24055964934E+01  0.31721241318E+02  0.51100000000E-03 0.  1.
        -12    1    3    3    0    0  0.19248960523E+01 -0.33675772421E+01 -0.12084060825E+01  0.40627634135E+01  0.00000000000E+00 0.  1.
</event>
<event>
 7    1  0.2732193E-010  0.4778727E+02  0.7816164E-02  0.1312668E+00
        -11   -1    0    0    0    0  0.00000000000E+00  0.00000000000E+00  0.45593999997E+02  0.45594000000E+02  0.51100000000E-03 0.  1.
         11   -1    0    0    0    0 -0.00000000000E+00 -0.00000000000E+00 -0.45593999997E+02  0.45594000000E+02  0.51100000000E-03 0. -1.
    9900012    2    1    2    0    0 -0.53536331405E+01  0.25800289031E+02 -0.34486330441E+02  0.47787270868E+02  0.19999999195E+02 0.  0.
        -12    1    1    2    0    0  0.53536331405E+01 -0.25800289031E+02  0.34486330441E+02  0.43400729132E+02  0.00000000000E+00 0.  1.
         11    1    3    3    0    0 -0.21147308702E+01  0.17451582089E+02 -0.23020842697E+02  0.28965306883E+02  0.51100000000E-03 0. -1.
        -11    1    3    3    0    0 -0.26553757955E+01 -0.23705687029E+01 -0.71766184778E+00  0.36312057749E+01  0.51100000000E-03 0.  1.
        -12    1    3    3    0    0 -0.58352647479E+00  0.10719275645E+02 -0.10747825896E+02  0.15190758210E+02  0.00000000000E+00 0.  1.
</event>
<event>
 7    1  0.2732193E-010  0.4778727E+02  0.7816164E-02  0.1312668E+00
        -11   -1    0    0    0    0  0.00000000000E+00  0.00000000000E+00  0.45593999997E+02  0.45594000000E+02  0.51100000000E-03 0.  1.
         11   -1    0    0    0    0 -0.00000000000E+00 -0.00000000000E+00 -0.45593999997E+02  0.45594000000E+02  0.51100000000E-03 0. -1.
    9900012    2    1    2    0    0 -0.20855606248E+00 -0.16436999264E+02 -0.40167212403E+02  0.47787269676E+02  0.19999993760E+02 0.  0.
        -12    1    1    2    0    0  0.20855606248E+00  0.16436999264E+02  0.40167212403E+02  0.43400730324E+02  0.00000000000E+00 0.  1.
         11    1    3    3    0    0 -0.61476339697E+01 -0.11073617046E+02 -0.12401043822E+02  0.17725808474E+02  0.51100000000E-03 0. -1.
        -11    1    3    3    0    0  0.26022212088E+01  0.20366236677E+01 -0.63473681892E+01  0.71560096683E+01  0.51100000000E-03 0.  1.
         12    1    3    3    0    0  0.33368566985E+01 -0.74000058853E+01 -0.21418800392E+02  0.22905451534E+02  0.00000000000E+00 0. -1.
</event>
<event>
 7    1  0.2732193E-010  0.4778727E+02  0.7816164E-02  0.1312668E+00
        -11   -1    0    0    0    0  0.00000000000E+00  0.00000000000E+00  0.45593999997E+02  0.45594000000E+02  0.51100000000E-03 0. -1.
         11   -1    0    0    0    0 -0.00000000000E+00 -0.00000000000E+00 -0.45593999997E+02  0.45594000000E+02  0.51100000000E-03 0.  1.
    9900012    2    1    2    0    0 -0.30664843317E+02  0.45868425959E+01  0.30368599010E+02  0.47787267904E+02  0.19999985681E+02 0.  0.
        -12    1    1    2    0    0  0.30664843317E+02 -0.45868425959E+01 -0.30368599010E+02  0.43400732096E+02  0.00000000000E+00 0.  1.
         11    1    3    3    0    0 -0.21346941008E+02  0.98019941997E+01  0.26463406748E+02  0.35384783137E+02  0.51100000000E-03 0. -1.
        -11    1    3    3    0    0 -0.83000518574E+01 -0.39469840783E+01  0.12311493857E+01  0.92728244468E+01  0.51100000000E-03 0.  1.
        -12    1    3    3    0    0 -0.10178504521E+01 -0.12681675255E+01  0.26740428759E+01  0.31296603198E+01  0.00000000000E+00 0.  1.
</event>
<event>
 7    1  0.2732193E-010  0.4778727E+02  0.7816164E-02  0.1312668E+00
        -11   -1    0    0    0    0  0.00000000000E+00  0.00000000000E+00  0.45593999997E+02  0.45594000000E+02  0.51100000000E-03 0. -1.
         11   -1    0    0    0    0 -0.00000000000E+00 -0.00000000000E+00 -0.45593999997E+02  0.45594000000E+02  0.51100000000E-03 0.  1.
    9900012    2    1    2    0    0  0.30972377678E+01 -0.42220999181E+02  0.95612541907E+01  0.47787271488E+02  0.20000002022E+02 0.  0.
        -12    1    1    2    0    0 -0.30972377678E+01  0.42220999181E+02 -0.95612541907E+01  0.43400728512E+02  0.00000000000E+00 0.  1.
         11    1    3    3    0    0  0.68824094918E+01 -0.34467004714E+02  0.76053524600E+01  0.35960858731E+02  0.51100000000E-03 0. -1.
        -11    1    3    3    0    0  0.59503498551E+00 -0.34072645685E+00 -0.21718605735E+01  0.22775293114E+01  0.51100000000E-03 0.  1.
         12    1    3    3    0    0 -0.43802067095E+01 -0.74132680104E+01  0.41277623043E+01  0.95488834454E+01  0.00000000000E+00 0. -1.
</event>
<event>
 7    1  0.2732193E-010  0.4778727E+02  0.7816164E-02  0.1312668E+00
        -11   -1    0    0    0    0  0.00000000000E+00  0.00000000000E+00  0.45593999997E+02  0.45594000000E+02  0.51100000000E-03 0. -1.
         11   -1    0    0    0    0 -0.00000000000E+00 -0.00000000000E+00 -0.45593999997E+02  0.45594000000E+02  0.51100000000E-03 0.  1.
    9900012    2    1    2    0    0 -0.49194118734E+01  0.43076557079E+02 -0.19577370387E+01  0.47787272849E+02  0.20000008227E+02 0.  0.
        -12    1    1    2    0    0  0.49194118734E+01 -0.43076557079E+02  0.19577370387E+01  0.43400727151E+02  0.00000000000E+00 0.  1.
         11    1    3    3    0    0  0.10756351289E+01  0.33758562634E+02 -0.47041552746E+01  0.34101709915E+02  0.51100000000E-03 0. -1.
        -11    1    3    3    0    0  0.21469784938E-01 -0.11242349714E+01  0.10065081157E+01  0.15091136705E+01  0.51100000000E-03 0.  1.
        -12    1    3    3    0    0 -0.60165167872E+01  0.10442229416E+02  0.17399101202E+01  0.12176449263E+02  0.00000000000E+00 0.  1.
</event>
<event>
 7    1  0.2732193E-010  0.4778727E+02  0.7816164E-02  0.1312668E+00
        -11   -1    0    0    0    0  0.00000000000E+00  0.00000000000E+00  0.45593999997E+02  0.45594000000E+02  0.51100000000E-03 0. -1.
         11   -1    0    0    0    0 -0.00000000000E+00 -0.00000000000E+00 -0.45593999997E+02  0.45594000000E+02  0.51100000000E-03 0.  1.
    9900012    2    1    2    0    0 -0.34656617019E+02 -0.16262079608E+02 -0.20447179532E+02  0.47787268587E+02  0.19999988795E+02 0.  0.
        -12    1    1    2    0    0  0.34656617019E+02  0.16262079608E+02  0.20447179532E+02  0.43400731413E+02  0.00000000000E+00 0.  1.
         11    1    3    3    0    0 -0.30755438861E+02 -0.84262714779E+01 -0.17631020063E+02  0.36438330632E+02  0.51100000000E-03 0. -1.
        -11    1    3    3    0    0 -0.41206249586E+01 -0.72737047942E+01  0.11068554538E+00  0.83605372455E+01  0.51100000000E-03 0.  1.
        -12    1    3    3    0    0  0.21944680036E+00 -0.56210333557E+00 -0.29268450144E+01  0.29884007088E+01  0.00000000000E+00 0.  1.
</event>
<event>
 7    1  0.2732193E-010  0.4778727E+02  0.7816164E-02  0.1312668E+00
        -11   -1    0    0    0    0  0.00000000000E+00  0.00000000000E+00  0.45593999997E+02  0.45594000000E+02  0.51100000000E-03 0.  1.
         11   -1    0    0    0    0 -0.00000000000E+00 -0.00000000000E+00 -0.45593999997E+02  0.45594000000E+02  0.51100000000E-03 0. -1.
    9900012    2    1    2    0    0  0.15937831607E+02  0.15814821747E+02 -0.37141621124E+02  0.47787273244E+02  0.20000010027E+02 0.  0.
        -12    1    1    2    0    0 -0.15937831607E+02 -0.15814821747E+02  0.37141621124E+02  0.43400726756E+02  0.00000000000E+00 0.  1.
         11    1    3    3    0    0 -0.21219441082E+01 -0.22539838022E+01 -0.86170743866E+01  0.91562580252E+01  0.51100000000E-03 0. -1.
        -11    1    3    3    0    0  0.12398159609E+02  0.14509074646E+02 -0.23458140172E+02  0.30240898620E+02  0.51100000000E-03 0.  1.
        -12    1    3    3    0    0  0.56616161066E+01  0.35597309034E+01 -0.50664065661E+01  0.83901165985E+01  0.00000000000E+00 0.  1.
</event>
<event>
 7    1  0.2732193E-010  0.4778727E+02  0.7816164E-02  0.1312668E+00
        -11   -1    0    0    0    0  0.00000000000E+00  0.00000000000E+00  0.45593999997E+02  0.45594000000E+02  0.51100000000E-03 0.  1.
         11   -1    0    0    0    0 -0.00000000000E+00 -0.00000000000E+00 -0.45593999997E+02  0.45594000000E+02  0.51100000000E-03 0. -1.
    9900012    2    1    2    0    0 -0.26334376964E+02  0.26516298548E+02  0.22068296421E+02  0.47787271830E+02  0.20000003580E+02 0.  0.
        -12    1    1    2    0    0  0.26334376964E+02 -0.26516298548E+02 -0.22068296421E+02  0.43400728170E+02  0.00000000000E+00 0.  1.
         11    1    3    3    0    0 -0.13861988036E+02  0.19849717937E+02  0.20175305094E+02  0.31515217759E+02  0.51100000000E-03 0. -1.
        -11    1    3    3    0    0 -0.70131999828E+01 -0.49791077152E-01 -0.11306162832E+01  0.71039247315E+01  0.51100000000E-03 0.  1.
        -12    1    3    3    0    0 -0.54591889450E+01  0.67163716883E+01  0.30236076096E+01  0.91681293386E+01  0.00000000000E+00 0.  1.
</event>
<event>
 7    1  0.2732193E-010  0.4778727E+02  0.7816164E-02  0.1312668E+00
        -11   -1    0    0    0    0  0.00000000000E+00  0.00000000000E+00  0.45593999997E+02  0.45594000000E+02  0.51100000000E-03 0.  1.
         11   -1    0    0    0    0 -0.00000000000E+00 -0.00000000000E+00 -0.45593999997E+02  0.45594000000E+02  0.51100000000E-03 0. -1.
    9900012    2    1    2    0    0  0.20032184883E+02 -0.35521597825E+02 -0.14850957320E+02  0.47787271013E+02  0.19999999859E+02 0.  0.
        -12    1    1    2    0    0 -0.20032184883E+02  0.35521597825E+02  0.14850957320E+02  0.43400728987E+02  0.00000000000E+00 0.  1.
         11    1    3    3    0    0  0.15917750475E+02 -0.15310269861E+02 -0.11885510152E+02  0.25080759463E+02  0.51100000000E-03 0. -1.
        -11    1    3    3    0    0  0.30218918299E+01 -0.86581201248E+01  0.30126037386E+01  0.96524948005E+01  0.51100000000E-03 0.  1.
         12    1    3    3    0    0  0.10925425782E+01 -0.11553207839E+02 -0.59780509067E+01  0.13054016750E+02  0.00000000000E+00 0. -1.
</event>
<event>
 7    1  0.2732193E-010  0.4778727E+02  0.7816164E-02  0.1312668E+00
        -11   -1    0    0    0    0  0.00000000000E+00  0.00000000000E+00  0.45593999997E+02  0.45594000000E+02  0.51100000000E-03 0.  1.
         11   -1    0    0    0    0 -0.00000000000E+00 -0.00000000000E+00 -0.45593999997E+02  0.45594000000E+02  0.51100000000E-03 0. -1.
    9900012    2    1    2    0    0 -0.59494620916E+01  0.42906844491E+02 -0.26888929957E+01  0.47787267876E+02  0.19999985555E+02 0.  0.
        -12    1    1    2    0    0  0.59494620916E+01 -0.42906844491E+02  0.26888929957E+01  0.43400732124E+02  0.00000000000E+00 0.  1.
         11    1    3    3    0    0  0.12326699913E+01  0.19860572249E+02 -0.64326453815E+01  0.20912693089E+02  0.51100000000E-03 0. -1.
        -11    1    3    3    0    0 -0.79242086610E+01  0.23841809088E+02  0.45338884129E+01  0.25530003680E+02  0.51100000000E-03 0.  1.
        -12    1    3    3    0    0  0.74207657807E+00 -0.79553684622E+00 -0.79013602708E+00  0.13445711073E+01  0.00000000000E+00 0.  1.
</event>
<event>
 7    1  0.2732193E-010  0.4778727E+02  0.7816164E-02  0.1312668E+00
        -11   -1    0    0    0    0  0.00000000000E+00  0.00000000000E+00  0.45593999997E+02  0.45594000000E+02  0.51100000000E-03 0.  1.
         11   -1    0    0    0    0 -0.00000000000E+00 -0.00000000000E+00 -0.45593999997E+02  0.45594000000E+02  0.51100000000E-03 0. -1.
    9900012    2    1    2    0    0 -0.21764812602E+01  0.16318212632E+02 -0.40157216755E+02  0.47787271991E+02  0.20000004317E+02 0.  0.
        -12    1    1    2    0    0  0.21764812602E+01 -0.16318212632E+02  0.40157216755E+02  0.43400728009E+02  0.00000000000E+00 0.  1.
         11    1    3    3    0    0  0.25788587877E+01 -0.72890303344E+00 -0.86228670570E+01  0.90297092325E+01  0.51100000000E-03 0.  1.
        -11    1    3    3    0    0 -0.83919746871E+00  0.17036931687E+02 -0.30080383744E+02  0.34580207925E+02  0.51100000000E-03 0. -1.
        -12    1    3    3    0    0 -0.39161425792E+01  0.10183978406E-01 -0.14539659543E+01  0.41773548341E+01  0.00000000000E+00 0.  1.
</event>
<event>
 7    1  0.2732193E-010  0.4778727E+02  0.7816164E-02  0.1312668E+00
        -11   -1    0    0    0    0  0.00000000000E+00  0.00000000000E+00  0.45593999997E+02  0.45594000000E+02  0.51100000000E-03 0.  1.
         11   -1    0    0    0    0 -0.00000000000E+00 -0.00000000000E+00 -0.45593999997E+02  0.45594000000E+02  0.51100000000E-03 0. -1.
    9900012    2    1    2    0    0  0.12163646450E+02 -0.33805146520E+02 -0.24349142681E+02  0.47787274482E+02  0.20000015672E+02 0.  0.
        -12    1    1    2    0    0 -0.12163646450E+02  0.33805146520E+02  0.24349142681E+02  0.43400725518E+02  0.00000000000E+00 0.  1.
         11    1    3    3    0    0 -0.12025637903E+01 -0.38617400401E+01 -0.23358306382E+01  0.46706852644E+01  0.51100000000E-03 0. -1.
        -11    1    3    3    0    0  0.77332765682E+01 -0.30437195379E+02 -0.18209283502E+02  0.36301576204E+02  0.51100000000E-03 0.  1.
        -12    1    3    3    0    0  0.56329336725E+01  0.49378889840E+00 -0.38040285409E+01  0.68150130135E+01  0.00000000000E+00 0.  1.
</event>
<event>
 7    1  0.2732193E-010  0.4778728E+02  0.7816164E-02  0.1312668E+00
        -11   -1    0    0    0    0  0.00000000000E+00  0.00000000000E+00  0.45593999997E+02  0.45594000000E+02  0.51100000000E-03 0.  1.
         11   -1    0    0    0    0 -0.00000000000E+00 -0.00000000000E+00 -0.45593999997E+02  0.45594000000E+02  0.51100000000E-03 0. -1.
    9900012    2    1    2    0    0 -0.25149715357E+02 -0.28592960452E+02 -0.20822037723E+02  0.47787276217E+02  0.20000023582E+02 0.  0.
        -12    1    1    2    0    0  0.25149715357E+02  0.28592960452E+02  0.20822037723E+02  0.43400723783E+02  0.00000000000E+00 0.  1.
         11    1    3    3    0    0 -0.76856622963E+01 -0.18425512736E+02 -0.15598533557E+02  0.25335413435E+02  0.51100000000E-03 0. -1.
        -11    1    3    3    0    0 -0.17093682348E+02 -0.11401442311E+02 -0.48918973361E+01  0.21121494332E+02  0.51100000000E-03 0.  1.
         12    1    3    3    0    0 -0.37037071231E+00  0.12339945943E+01 -0.33160683022E+00  0.13303684502E+01  0.00000000000E+00 0. -1.
</event>
<event>
 7    1  0.2732193E-010  0.4778727E+02  0.7816164E-02  0.1312668E+00
        -11   -1    0    0    0    0  0.00000000000E+00  0.00000000000E+00  0.45593999997E+02  0.45594000000E+02  0.51100000000E-03 0.  1.
         11   -1    0    0    0    0 -0.00000000000E+00 -0.00000000000E+00 -0.45593999997E+02  0.45594000000E+02  0.51100000000E-03 0. -1.
    9900012    2    1    2    0    0 -0.36251045699E+02  0.12825892525E+02 -0.20124153170E+02  0.47787269889E+02  0.19999994734E+02 0.  0.
        -12    1    1    2    0    0  0.36251045699E+02 -0.12825892525E+02  0.20124153170E+02  0.43400730111E+02  0.00000000000E+00 0.  1.
         11    1    3    3    0    0 -0.16549913244E+02  0.77069947675E+01 -0.19597578840E+02  0.26783623604E+02  0.51100000000E-03 0. -1.
        -11    1    3    3    0    0 -0.10390862232E+02  0.41115919434E-01 -0.15073559697E+00  0.10392036851E+02  0.51100000000E-03 0.  1.
        -12    1    3    3    0    0 -0.93102702236E+01  0.50777818381E+01 -0.37583873308E+00  0.10611609434E+02  0.00000000000E+00 0.  1.
</event>
<event>
 7    1  0.2732193E-010  0.4778728E+02  0.7816164E-02  0.1312668E+00
        -11   -1    0    0    0    0  0.00000000000E+00  0.00000000000E+00  0.45593999997E+02  0.45594000000E+02  0.51100000000E-03 0. -1.
         11   -1    0    0    0    0 -0.00000000000E+00 -0.00000000000E+00 -0.45593999997E+02  0.45594000000E+02  0.51100000000E-03 0.  1.
    9900012    2    1    2    0    0 -0.17225926512E+02 -0.39345793385E+02  0.62288561288E+01  0.47787278232E+02  0.20000032773E+02 0.  0.
        -12    1    1    2    0    0  0.17225926512E+02  0.39345793385E+02 -0.62288561288E+01  0.43400721768E+02  0.00000000000E+00 0.  1.
         11    1    3    3    0    0 -0.37018609379E+00 -0.74213013290E+01  0.37200786090E+01  0.83097374374E+01  0.51100000000E-03 0. -1.
        -11    1    3    3    0    0 -0.10413684933E+02 -0.30001376710E+02 -0.12371518656E+01  0.31781409399E+02  0.51100000000E-03 0.  1.
        -12    1    3    3    0    0 -0.64420554851E+01 -0.19231153458E+01  0.37459293854E+01  0.76961313961E+01  0.00000000000E+00 0.  1.
</event>
<event>
 7    1  0.2732193E-010  0.4778728E+02  0.7816164E-02  0.1312668E+00
        -11   -1    0    0    0    0  0.00000000000E+00  0.00000000000E+00  0.45593999997E+02  0.45594000000E+02  0.51100000000E-03 0.  1.
         11   -1    0    0    0    0 -0.00000000000E+00 -0.00000000000E+00 -0.45593999997E+02  0.45594000000E+02  0.51100000000E-03 0. -1.
    9900012    2    1    2    0    0  0.47372772562E+01  0.24985396213E+02 -0.35169743325E+02  0.47787278056E+02  0.20000031967E+02 0.  0.
        -12    1    1    2    0    0 -0.47372772562E+01 -0.24985396213E+02  0.35169743325E+02  0.43400721944E+02  0.00000000000E+00 0.  1.
         11    1    3    3    0    0  0.28665330557E+01  0.30534627656E+01 -0.72545837061E+01  0.83767315601E+01  0.51100000000E-03 0.  1.
        -11    1    3    3    0    0 -0.24078188167E+01 -0.32391896475E+00 -0.10640072359E+02  0.10913920240E+02  0.51100000000E-03 0. -1.
        -12    1    3    3    0    0  0.42785630172E+01  0.22255852412E+02 -0.17275087260E+02  0.28496626255E+02  0.00000000000E+00 0.  1.
</event>
<event>
 7    1  0.2732193E-010  0.4778723E+02  0.7816164E-02  0.1312668E+00
        -11   -1    0    0    0    0  0.00000000000E+00  0.00000000000E+00  0.45593999997E+02  0.45594000000E+02  0.51100000000E-03 0. -1.
         11   -1    0    0    0    0 -0.00000000000E+00 -0.00000000000E+00 -0.45593999997E+02  0.45594000000E+02  0.51100000000E-03 0.  1.
    9900012    2    1    2    0    0  0.17329011756E+02  0.39486696001E+02 -0.49124955873E+01  0.47787234772E+02  0.19999834618E+02 0.  0.
        -12    1    1    2    0    0 -0.17329011756E+02 -0.39486696001E+02  0.49124955873E+01  0.43400765228E+02  0.00000000000E+00 0.  1.
         11    1    3    3    0    0  0.15462647600E+02  0.37369088059E+02 -0.67199253731E+01  0.40996336549E+02  0.51100000000E-03 0. -1.
        -11    1    3    3    0    0  0.32541656641E+01 -0.76823424608E+00  0.94513338831E+00  0.34746302550E+01  0.51100000000E-03 0.  1.
         12    1    3    3    0    0 -0.13878015079E+01  0.28858421880E+01  0.86229639746E+00  0.33162679681E+01  0.00000000000E+00 0. -1.
</event>
<event>
 7    1  0.2732193E-010  0.4778727E+02  0.7816164E-02  0.1312668E+00
        -11   -1    0    0    0    0  0.00000000000E+00  0.00000000000E+00  0.45593999997E+02  0.45594000000E+02  0.51100000000E-03 0.  1.
         11   -1    0    0    0    0 -0.00000000000E+00 -0.00000000000E+00 -0.45593999997E+02  0.45594000000E+02  0.51100000000E-03 0. -1.
    9900012    2    1    2    0    0  0.14701582138E+01 -0.15227009785E+02 -0.40615271843E+02  0.47787268451E+02  0.19999988174E+02 0.  0.
        -12    1    1    2    0    0 -0.14701582138E+01  0.15227009785E+02  0.40615271843E+02  0.43400731549E+02  0.00000000000E+00 0.  1.
         11    1    3    3    0    0  0.54703267709E+01 -0.46195688543E+01 -0.23043286430E+02  0.24130021574E+02  0.51100000000E-03 0. -1.
        -11    1    3    3    0    0  0.53619232417E+00 -0.47652575458E+01 -0.22665960362E+00  0.48006829226E+01  0.51100000000E-03 0.  1.
        -12    1    3    3    0    0 -0.45363608813E+01 -0.58421833850E+01 -0.17345325809E+02  0.18856563954E+02  0.00000000000E+00 0.  1.
</event>
<event>
 7    1  0.2732193E-010  0.4778727E+02  0.7816164E-02  0.1312668E+00
        -11   -1    0    0    0    0  0.00000000000E+00  0.00000000000E+00  0.45593999997E+02  0.45594000000E+02  0.51100000000E-03 0. -1.
         11   -1    0    0    0    0 -0.00000000000E+00 -0.00000000000E+00 -0.45593999997E+02  0.45594000000E+02  0.51100000000E-03 0.  1.
    9900012    2    1    2    0    0  0.30340202162E+02  0.35363553983E+01  0.30831631186E+02  0.47787272375E+02  0.20000006068E+02 0.  0.
        -12    1    1    2    0    0 -0.30340202162E+02 -0.35363553983E+01 -0.30831631186E+02  0.43400727625E+02  0.00000000000E+00 0.  1.
         11    1    3    3    0    0  0.20081306445E+02  0.42939166009E+00  0.18934257466E+02  0.27603430073E+02  0.51100000000E-03 0. -1.
        -11    1    3    3    0    0  0.84320717947E+00  0.50770167298E+00  0.10226905076E+02  0.10274159189E+02  0.51100000000E-03 0.  1.
         12    1    3    3    0    0  0.94156885379E+01  0.25992620652E+01  0.16704686443E+01  0.99096831139E+01  0.00000000000E+00 0. -1.
</event>
<event>
 7    1  0.2732193E-010  0.4778725E+02  0.7816164E-02  0.1312668E+00
        -11   -1    0    0    0    0  0.00000000000E+00  0.00000000000E+00  0.45593999997E+02  0.45594000000E+02  0.51100000000E-03 0. -1.
         11   -1    0    0    0    0 -0.00000000000E+00 -0.00000000000E+00 -0.45593999997E+02  0.45594000000E+02  0.51100000000E-03 0.  1.
    9900012    2    1    2    0    0  0.12912228806E+02  0.25413085775E+02 -0.32727275148E+02  0.47787249776E+02  0.19999903031E+02 0.  0.
        -12    1    1    2    0    0 -0.12912228806E+02 -0.25413085775E+02  0.32727275148E+02  0.43400750224E+02  0.00000000000E+00 0.  1.
         11    1    3    3    0    0  0.43234915316E+01  0.78463843565E+01 -0.96191262941E+00  0.90101943743E+01  0.51100000000E-03 0. -1.
        -11    1    3    3    0    0  0.10921756808E+02  0.15576938920E+02 -0.25639508168E+02  0.31926637425E+02  0.51100000000E-03 0.  1.
        -12    1    3    3    0    0 -0.23330195334E+01  0.19897624990E+01 -0.61258543502E+01  0.68504179774E+01  0.00000000000E+00 0.  1.
</event>
<event>
 7    1  0.2732193E-010  0.4778727E+02  0.7816164E-02  0.1312668E+00
        -11   -1    0    0    0    0  0.00000000000E+00  0.00000000000E+00  0.45593999997E+02  0.45594000000E+02  0.51100000000E-03 0.  1.
         11   -1    0    0    0    0 -0.00000000000E+00 -0.00000000000E+00 -0.45593999997E+02  0.45594000000E+02  0.51100000000E-03 0. -1.
    9900012    2    1    2    0    0  0.21306303277E+02 -0.50232582387E+01 -0.37475747348E+02  0.47787270491E+02  0.19999997475E+02 0.  0.
        -12    1    1    2    0    0 -0.21306303277E+02  0.50232582387E+01  0.37475747348E+02  0.43400729509E+02  0.00000000000E+00 0.  1.
         11    1    3    3    0    0 -0.22188829860E+00 -0.58026494830E+01 -0.92672800990E+01  0.10936290785E+02  0.51100000000E-03 0. -1.
        -11    1    3    3    0    0  0.20717924735E+02 -0.43227777601E+00 -0.21023324189E+02  0.29519475429E+02  0.51100000000E-03 0.  1.
         12    1    3    3    0    0  0.81026684131E+00  0.12116690204E+01 -0.71851430597E+01  0.73315042766E+01  0.00000000000E+00 0. -1.
</event>
<event>
 7    1  0.2732193E-010  0.4778723E+02  0.7816164E-02  0.1312668E+00
        -11   -1    0    0    0    0  0.00000000000E+00  0.00000000000E+00  0.45593999997E+02  0.45594000000E+02  0.51100000000E-03 0.  1.
         11   -1    0    0    0    0 -0.00000000000E+00 -0.00000000000E+00 -0.45593999997E+02  0.45594000000E+02  0.51100000000E-03 0. -1.
    9900012    2    1    2    0    0  0.24127679862E+01 -0.64091550917E+01 -0.42857064852E+02  0.47787231273E+02  0.19999818665E+02 0.  0.
        -12    1    1    2    0    0 -0.24127679862E+01  0.64091550917E+01  0.42857064852E+02  0.43400768727E+02  0.00000000000E+00 0.  1.
         11    1    3    3    0    0  0.40104821327E+01 -0.27856295397E+01 -0.82961444677E+01  0.96265109027E+01  0.51100000000E-03 0. -1.
        -11    1    3    3    0    0  0.27749178754E+01  0.52998889242E+01 -0.98200101402E+01  0.11498764770E+02  0.51100000000E-03 0.  1.
        -12    1    3    3    0    0 -0.43726320219E+01 -0.89234144762E+01 -0.24740910244E+02  0.26661955600E+02  0.00000000000E+00 0.  1.
</event>
<event>
 7    1  0.2732193E-010  0.4778727E+02  0.7816164E-02  0.1312668E+00
        -11   -1    0    0    0    0  0.00000000000E+00  0.00000000000E+00  0.45593999997E+02  0.45594000000E+02  0.51100000000E-03 0.  1.
         11   -1    0    0    0    0 -0.00000000000E+00 -0.00000000000E+00 -0.45593999997E+02  0.45594000000E+02  0.51100000000E-03 0. -1.
    9900012    2    1    2    0    0  0.11751623948E+02  0.35222568594E+02 -0.22469826955E+02  0.47787272735E+02  0.20000007708E+02 0.  0.
        -12    1    1    2    0    0 -0.11751623948E+02 -0.35222568594E+02  0.22469826955E+02  0.43400727265E+02  0.00000000000E+00 0.  1.
         11    1    3    3    0    0  0.17275882338E+01  0.37116179893E+01  0.13402801872E+01  0.43077860259E+01  0.51100000000E-03 0. -1.
        -11    1    3    3    0    0 -0.63082776427E-01 -0.16844365191E+01 -0.11639120224E+01  0.20484133569E+01  0.51100000000E-03 0.  1.
         12    1    3    3    0    0  0.10087118490E+02  0.33195387124E+02 -0.22646195119E+02  0.41431073352E+02  0.00000000000E+00 0. -1.
</event>
<event>
 7    1  0.2732193E-010  0.4778727E+02  0.7816164E-02  0.1312668E+00
        -11   -1    0    0    0    0  0.00000000000E+00  0.00000000000E+00  0.45593999997E+02  0.45594000000E+02  0.51100000000E-03 0.  1.
         11   -1    0    0    0    0 -0.00000000000E+00 -0.00000000000E+00 -0.45593999997E+02  0.45594000000E+02  0.51100000000E-03 0. -1.
    9900012    2    1    2    0    0  0.82159653256E+01  0.16477615834E+02 -0.39301517621E+02  0.47787271929E+02  0.20000004034E+02 0.  0.
        -12    1    1    2    0    0 -0.82159653256E+01 -0.16477615834E+02  0.39301517621E+02  0.43400728071E+02  0.00000000000E+00 0.  1.
         11    1    3    3    0    0 -0.16165582887E+01 -0.68569481251E+00 -0.17739423667E+02  0.17826121014E+02  0.51100000000E-03 0. -1.
        -11    1    3    3    0    0  0.49475145050E+01  0.13947801223E+02 -0.13737917630E+02  0.20192806635E+02  0.51100000000E-03 0.  1.
         12    1    3    3    0    0  0.48850091093E+01  0.32155094232E+01 -0.78241763231E+01  0.97683442806E+01  0.00000000000E+00 0. -1.
</event>
<event>
 7    1  0.2732193E-010  0.4778727E+02  0.7816164E-02  0.1312668E+00
        -11   -1    0    0    0    0  0.00000000000E+00  0.00000000000E+00  0.45593999997E+02  0.45594000000E+02  0.51100000000E-03 0. -1.
         11   -1    0    0    0    0 -0.00000000000E+00 -0.00000000000E+00 -0.45593999997E+02  0.45594000000E+02  0.51100000000E-03 0.  1.
    9900012    2    1    2    0    0 -0.14492409368E+01 -0.12653914118E+02  0.41489774224E+02  0.47787271816E+02  0.20000003517E+02 0.  0.
        -12    1    1    2    0    0  0.14492409368E+01  0.12653914118E+02 -0.41489774224E+02  0.43400728184E+02  0.00000000000E+00 0.  1.
         11    1    3    3    0    0 -0.38121085764E+01 -0.10841532481E+02  0.28520070544E+02  0.30748421463E+02  0.51100000000E-03 0. -1.
        -11    1    3    3    0    0  0.14612810305E+01  0.81909092619E+00 -0.15336258546E+01  0.22711804681E+01  0.51100000000E-03 0.  1.
         12    1    3    3    0    0  0.90158660912E+00 -0.26314725628E+01  0.14503329534E+02  0.14767669885E+02  0.00000000000E+00 0. -1.
</event>
<event>
 7    1  0.2732193E-010  0.4778727E+02  0.7816164E-02  0.1312668E+00
        -11   -1    0    0    0    0  0.00000000000E+00  0.00000000000E+00  0.45593999997E+02  0.45594000000E+02  0.51100000000E-03 0.  1.
         11   -1    0    0    0    0 -0.00000000000E+00 -0.00000000000E+00 -0.45593999997E+02  0.45594000000E+02  0.51100000000E-03 0. -1.
    9900012    2    1    2    0    0 -0.21383112154E+02  0.16820608221E+02 -0.33814982007E+02  0.47787270116E+02  0.19999995769E+02 0.  0.
        -12    1    1    2    0    0  0.21383112154E+02 -0.16820608221E+02  0.33814982007E+02  0.43400729884E+02  0.00000000000E+00 0.  1.
         11    1    3    3    0    0 -0.23264994429E+02  0.15252282506E+02 -0.33941781924E+02  0.43885494732E+02  0.51100000000E-03 0. -1.
        -11    1    3    3    0    0  0.37820570680E+00  0.22747850175E+00  0.14338625663E+01  0.15002493611E+01  0.51100000000E-03 0.  1.
         12    1    3    3    0    0  0.15036765687E+01  0.13408472130E+01 -0.13070626496E+01  0.24015260236E+01  0.00000000000E+00 0. -1.
</event>
<event>
 7    1  0.2732193E-010  0.4778728E+02  0.7816164E-02  0.1312668E+00
        -11   -1    0    0    0    0  0.00000000000E+00  0.00000000000E+00  0.45593999997E+02  0.45594000000E+02  0.51100000000E-03 0.  1.
         11   -1    0    0    0    0 -0.00000000000E+00 -0.00000000000E+00 -0.45593999997E+02  0.45594000000E+02  0.51100000000E-03 0. -1.
    9900012    2    1    2    0    0 -0.19894406986E+02 -0.38128295253E+02 -0.58367686787E+01  0.47787283453E+02  0.20000056575E+02 0.  0.
        -12    1    1    2    0    0  0.19894406986E+02  0.38128295253E+02  0.58367686787E+01  0.43400716547E+02  0.00000000000E+00 0.  1.
         11    1    3    3    0    0  0.39686844139E+00 -0.66407751725E+01  0.43691855912E+01  0.79590943231E+01  0.51100000000E-03 0. -1.
        -11    1    3    3    0    0 -0.10959720869E+02 -0.21382292623E+02 -0.27547198487E+01  0.24184838247E+02  0.51100000000E-03 0.  1.
         12    1    3    3    0    0 -0.93315545579E+01 -0.10105227457E+02 -0.74512344213E+01  0.15643350882E+02  0.00000000000E+00 0. -1.
</event>
<event>
 7    1  0.2732193E-010  0.4778728E+02  0.7816164E-02  0.1312668E+00
        -11   -1    0    0    0    0  0.00000000000E+00  0.00000000000E+00  0.45593999997E+02  0.45594000000E+02  0.51100000000E-03 0.  1.
         11   -1    0    0    0    0 -0.00000000000E+00 -0.00000000000E+00 -0.45593999997E+02  0.45594000000E+02  0.51100000000E-03 0. -1.
    9900012    2    1    2    0    0  0.36413816069E+01 -0.42145326902E+02 -0.97022750514E+01  0.47787281332E+02  0.20000046906E+02 0.  0.
        -12    1    1    2    0    0 -0.36413816069E+01  0.42145326902E+02  0.97022750514E+01  0.43400718668E+02  0.00000000000E+00 0.  1.
         11    1    3    3    0    0  0.49088928836E+01 -0.18409603956E+02 -0.72821223970E+01  0.20397059936E+02  0.51100000000E-03 0. -1.
        -11    1    3    3    0    0 -0.54186097692E+01 -0.22145944887E+02 -0.25629411368E+01  0.22942817488E+02  0.51100000000E-03 0.  1.
        -12    1    3    3    0    0  0.41510984925E+01 -0.15897780593E+01  0.14278848240E+00  0.44474039082E+01  0.00000000000E+00 0.  1.
</event>
<event>
 7    1  0.2732193E-010  0.4778727E+02  0.7816164E-02  0.1312668E+00
        -11   -1    0    0    0    0  0.00000000000E+00  0.00000000000E+00  0.45593999997E+02  0.45594000000E+02  0.51100000000E-03 0.  1.
         11   -1    0    0    0    0 -0.00000000000E+00 -0.00000000000E+00 -0.45593999997E+02  0.45594000000E+02  0.51100000000E-03 0. -1.
    9900012    2    1    2    0    0 -0.83329590363E+01  0.23587282781E+02 -0.35465829115E+02  0.47787272470E+02  0.20000006499E+02 0.  0.
        -12    1    1    2    0    0  0.83329590363E+01 -0.23587282781E+02  0.35465829115E+02  0.43400727530E+02  0.00000000000E+00 0.  1.
         11    1    3    3    0    0 -0.68269533380E+01  0.14895956945E+02 -0.20330034287E+02  0.26111436566E+02  0.51100000000E-03 0. -1.
        -11    1    3    3    0    0  0.40675782256E+00  0.59266276593E+01  0.23152359031E+00  0.59450795430E+01  0.51100000000E-03 0.  1.
        -12    1    3    3    0    0 -0.19127635209E+01  0.27646981775E+01 -0.15367318418E+02  0.15730756360E+02  0.00000000000E+00 0.  1.
</event>
<event>
 7    1  0.2732193E-010  0.4778725E+02  0.7816164E-02  0.1312668E+00
        -11   -1    0    0    0    0  0.00000000000E+00  0.00000000000E+00  0.45593999997E+02  0.45594000000E+02  0.51100000000E-03 0.  1.
         11   -1    0    0    0    0 -0.00000000000E+00 -0.00000000000E+00 -0.45593999997E+02  0.45594000000E+02  0.51100000000E-03 0. -1.
    9900012    2    1    2    0    0  0.15259844505E+01 -0.11817883176E+02 -0.41732887355E+02  0.47787252561E+02  0.19999915726E+02 0.  0.
        -12    1    1    2    0    0 -0.15259844505E+01  0.11817883176E+02  0.41732887355E+02  0.43400747439E+02  0.00000000000E+00 0.  1.
         11    1    3    3    0    0  0.69394939948E+01 -0.84345630137E+01 -0.20005479758E+02  0.22792929841E+02  0.51100000000E-03 0. -1.
        -11    1    3    3    0    0 -0.44224569106E+01 -0.16265390346E+01 -0.22382838482E+02  0.22873460891E+02  0.51100000000E-03 0.  1.
         12    1    3    3    0    0 -0.99105263375E+00 -0.17567811279E+01  0.65543088476E+00  0.21208618292E+01  0.00000000000E+00 0. -1.
</event>
<event>
 7    1  0.2732193E-010  0.4778727E+02  0.7816164E-02  0.1312668E+00
        -11   -1    0    0    0    0  0.00000000000E+00  0.00000000000E+00  0.45593999997E+02  0.45594000000E+02  0.51100000000E-03 0. -1.
         11   -1    0    0    0    0 -0.00000000000E+00 -0.00000000000E+00 -0.45593999997E+02  0.45594000000E+02  0.51100000000E-03 0.  1.
    9900012    2    1    2    0    0  0.21592384438E+02  0.35755699718E+02 -0.11786533339E+02  0.47787268483E+02  0.19999988324E+02 0.  0.
        -12    1    1    2    0    0 -0.21592384438E+02 -0.35755699718E+02  0.11786533339E+02  0.43400731517E+02  0.00000000000E+00 0.  1.
         11    1    3    3    0    0  0.21657610349E+02  0.32290391223E+02 -0.16086273974E+02  0.42077186954E+02  0.51100000000E-03 0. -1.
        -11    1    3    3    0    0 -0.48744382646E+00  0.12622945386E+01  0.24658489302E+01  0.28127211369E+01  0.51100000000E-03 0.  1.
         12    1    3    3    0    0  0.42221791608E+00  0.22030139557E+01  0.18338917049E+01  0.28973603923E+01  0.00000000000E+00 0. -1.
</event>
<event>
 7    1  0.2732193E-010  0.4778728E+02  0.7816164E-02  0.1312668E+00
        -11   -1    0    0    0    0  0.00000000000E+00  0.00000000000E+00  0.45593999997E+02  0.45594000000E+02  0.51100000000E-03 0. -1.
         11   -1    0    0    0    0 -0.00000000000E+00 -0.00000000000E+00 -0.45593999997E+02  0.45594000000E+02  0.51100000000E-03 0.  1.
    9900012    2    1    2    0    0  0.30161439034E+02 -0.27060070723E+02 -0.15545511982E+02  0.47787276792E+02  0.20000026208E+02 0.  0.
        -12    1    1    2    0    0 -0.30161439034E+02  0.27060070723E+02  0.15545511982E+02  0.43400723208E+02  0.00000000000E+00 0.  1.
         11    1    3    3    0    0  0.47650609775E+01 -0.63345202067E+01 -0.31935541028E+01  0.85458025040E+01  0.51100000000E-03 0. -1.
        -11    1    3    3    0    0  0.21844166530E+02 -0.20545091764E+02 -0.16131643609E+02  0.34051407207E+02  0.51100000000E-03 0.  1.
        -12    1    3    3    0    0  0.35522115271E+01 -0.18045875271E+00  0.37796857302E+01  0.51900670818E+01  0.00000000000E+00 0.  1.
</event>
<event>
 7    1  0.2732193E-010  0.4778728E+02  0.7816164E-02  0.1312668E+00
        -11   -1    0    0    0    0  0.00000000000E+00  0.00000000000E+00  0.45593999997E+02  0.45594000000E+02  0.51100000000E-03 0.  1.
         11   -1    0    0    0    0 -0.00000000000E+00 -0.00000000000E+00 -0.45593999997E+02  0.45594000000E+02  0.51100000000E-03 0. -1.
    9900012    2    1    2    0    0  0.34357320078E+02  0.21933183071E+01 -0.26427003129E+02  0.47787279009E+02  0.20000036314E+02 0.  0.
        -12    1    1    2    0    0 -0.34357320078E+02 -0.21933183071E+01  0.26427003129E+02  0.43400720991E+02  0.00000000000E+00 0.  1.
         11    1    3    3    0    0  0.11965619424E+02  0.18091727399E+01 -0.12488464811E+01  0.12165885583E+02  0.51100000000E-03 0. -1.
        -11    1    3    3    0    0  0.97304881338E+01  0.23883476957E+01 -0.38422925137E+01  0.10730788231E+02  0.51100000000E-03 0.  1.
         12    1    3    3    0    0  0.12661212520E+02 -0.20042021285E+01 -0.21335864134E+02  0.24890605195E+02  0.00000000000E+00 0. -1.
</event>
<event>
 7    1  0.2732193E-010  0.4778728E+02  0.7816164E-02  0.1312668E+00
        -11   -1    0    0    0    0  0.00000000000E+00  0.00000000000E+00  0.45593999997E+02  0.45594000000E+02  0.51100000000E-03 0.  1.
         11   -1    0    0    0    0 -0.00000000000E+00 -0.00000000000E+00 -0.45593999997E+02  0.45594000000E+02  0.51100000000E-03 0. -1.
    9900012    2    1    2    0    0  0.37485343260E+02  0.10924656715E+02 -0.18950545814E+02  0.47787282606E+02  0.20000052714E+02 0.  0.
        -12    1    1    2    0    0 -0.37485343260E+02 -0.10924656715E+02  0.18950545814E+02  0.43400717394E+02  0.00000000000E+00 0.  1.
         11    1    3    3    0    0  0.20943975404E+02  0.18778910972E+01 -0.18388225969E+02  0.27933911922E+02  0.51100000000E-03 0. -1.
        -11    1    3    3    0    0  0.12036111236E+02  0.79546430389E+01  0.19861953490E+01  0.14563285749E+02  0.51100000000E-03 0.  1.
        -12    1    3    3    0    0  0.45052566190E+01  0.10921225791E+01 -0.25485151935E+01  0.52900849352E+01  0.00000000000E+00 0.  1.
</event>
<event>
 7    1  0.2732193E-010  0.4778727E+02  0.7816164E-02  0.1312668E+00
        -11   -1    0    0    0    0  0.00000000000E+00  0.00000000000E+00  0.45593999997E+02  0.45594000000E+02  0.51100000000E-03 0.  1.
         11   -1    0    0    0    0 -0.00000000000E+00 -0.00000000000E+00 -0.45593999997E+02  0.45594000000E+02  0.51100000000E-03 0. -1.
    9900012    2    1    2    0    0  0.13539422127E+01  0.24463257194E+02 -0.35823723848E+02  0.47787270716E+02  0.19999998502E+02 0.  0.
        -12    1    1    2    0    0 -0.13539422127E+01 -0.24463257194E+02  0.35823723848E+02  0.43400729284E+02  0.00000000000E+00 0.  1.
         11    1    3    3    0    0  0.12367096461E+00  0.42854358228E+01 -0.20863123222E+02  0.21299064898E+02  0.51100000000E-03 0. -1.
        -11    1    3    3    0    0  0.31862385468E+01  0.16264562393E+02 -0.83427930527E+01  0.18555061361E+02  0.51100000000E-03 0.  1.
         12    1    3    3    0    0 -0.19559672987E+01  0.39132589785E+01 -0.66178075730E+01  0.79331444572E+01  0.00000000000E+00 0. -1.
</event>
<event>
 7    1  0.2732193E-010  0.4778727E+02  0.7816164E-02  0.1312668E+00
        -11   -1    0    0    0    0  0.00000000000E+00  0.00000000000E+00  0.45593999997E+02  0.45594000000E+02  0.51100000000E-03 0.  1.
         11   -1    0    0    0    0 -0.00000000000E+00 -0.00000000000E+00 -0.45593999997E+02  0.45594000000E+02  0.51100000000E-03 0. -1.
    9900012    2    1    2    0    0  0.21001372519E+02  0.80150241438E+00 -0.37972662242E+02  0.47787272684E+02  0.20000007478E+02 0.  0.
        -12    1    1    2    0    0 -0.21001372519E+02 -0.80150241438E+00  0.37972662242E+02  0.43400727316E+02  0.00000000000E+00 0.  1.
         11    1    3    3    0    0  0.50301662152E+01  0.54414415957E+01 -0.14933173559E+02  0.16670678798E+02  0.51100000000E-03 0. -1.
        -11    1    3    3    0    0  0.23718717304E+00 -0.35406727988E+01 -0.46640001618E+00  0.35791271086E+01  0.51100000000E-03 0.  1.
        -12    1    3    3    0    0  0.15734019131E+02 -0.10992663825E+01 -0.22573088667E+02  0.27537466778E+02  0.00000000000E+00 0.  1.
</event>
<event>
 7    1  0.2732193E-010  0.4778727E+02  0.7816164E-02  0.1312668E+00
        -11   -1    0    0    0    0  0.00000000000E+00  0.00000000000E+00  0.45593999997E+02  0.45594000000E+02  0.51100000000E-03 0. -1.
         11   -1    0    0    0    0 -0.00000000000E+00 -0.00000000000E+00 -0.45593999997E+02  0.45594000000E+02  0.51100000000E-03 0.  1.
    9900012    2    1    2    0    0  0.12171663406E+02 -0.39499450773E+02  0.13238855299E+02  0.47787270846E+02  0.19999999097E+02 0.  0.
        -12    1    1    2    0    0 -0.12171663406E+02  0.39499450773E+02 -0.13238855299E+02  0.43400729154E+02  0.00000000000E+00 0.  1.
         11    1    3    3    0    0  0.65442380165E+01 -0.16594992589E+02  0.13341420013E+02  0.22275868524E+02  0.51100000000E-03 0. -1.
        -11    1    3    3    0    0  0.11494061842E+00 -0.18121410681E+02  0.90249123836E+00  0.18144233991E+02  0.51100000000E-03 0.  1.
         12    1    3    3    0    0  0.55124847707E+01 -0.47830475030E+01 -0.10050559526E+01  0.73671683319E+01  0.00000000000E+00 0. -1.
</event>
<event>
 7    1  0.2732193E-010  0.4778727E+02  0.7816164E-02  0.1312668E+00
        -11   -1    0    0    0    0  0.00000000000E+00  0.00000000000E+00  0.45593999997E+02  0.45594000000E+02  0.51100000000E-03 0. -1.
         11   -1    0    0    0    0 -0.00000000000E+00 -0.00000000000E+00 -0.45593999997E+02  0.45594000000E+02  0.51100000000E-03 0.  1.
    9900012    2    1    2    0    0 -0.20779272811E+02 -0.24326339105E+02  0.29327022373E+02  0.47787271964E+02  0.20000004193E+02 0.  0.
        -12    1    1    2    0    0  0.20779272811E+02  0.24326339105E+02 -0.29327022373E+02  0.43400728036E+02  0.00000000000E+00 0.  1.
         11    1    3    3    0    0 -0.15218929159E+02 -0.19359149083E+02  0.13447649518E+02  0.28057650219E+02  0.51100000000E-03 0.  1.
        -11    1    3    3    0    0 -0.39057895561E+01  0.20775934943E+01  0.69127230945E+01  0.82071510054E+01  0.51100000000E-03 0. -1.
         12    1    3    3    0    0 -0.16545540963E+01 -0.70447835158E+01  0.89666497596E+01  0.11522470740E+02  0.00000000000E+00 0. -1.
</event>
<event>
 7    1  0.2732193E-010  0.4778729E+02  0.7816164E-02  0.1312668E+00
        -11   -1    0    0    0    0  0.00000000000E+00  0.00000000000E+00  0.45593999997E+02  0.45594000000E+02  0.51100000000E-03 0.  1.
         11   -1    0    0    0    0 -0.00000000000E+00 -0.00000000000E+00 -0.45593999997E+02  0.45594000000E+02  0.51100000000E-03 0. -1.
    9900012    2    1    2    0    0  0.26398948795E+02  0.34133634835E+02 -0.46488787723E+01  0.47787290347E+02  0.20000088009E+02 0.  0.
        -12    1    1    2    0    0 -0.26398948795E+02 -0.34133634835E+02  0.46488787723E+01  0.43400709653E+02  0.00000000000E+00 0.  1.
         11    1    3    3    0    0  0.14762465959E+01  0.49898354967E+01  0.95058579684E+00  0.52897425188E+01  0.51100000000E-03 0.  1.
        -11    1    3    3    0    0  0.15669111221E+01  0.92195986857E+01  0.42282328795E+01  0.10263243344E+02  0.51100000000E-03 0. -1.
        -12    1    3    3    0    0  0.23355791077E+02  0.19924200652E+02 -0.98276974487E+01  0.32234304485E+02  0.00000000000E+00 0.  1.
</event>
<event>
 7    1  0.2732193E-010  0.4778727E+02  0.7816164E-02  0.1312668E+00
        -11   -1    0    0    0    0  0.00000000000E+00  0.00000000000E+00  0.45593999997E+02  0.45594000000E+02  0.51100000000E-03 0.  1.
         11   -1    0    0    0    0 -0.00000000000E+00 -0.00000000000E+00 -0.45593999997E+02  0.45594000000E+02  0.51100000000E-03 0. -1.
    9900012    2    1    2    0    0  0.10445903203E+02 -0.42068829751E+02  0.21726362783E+01  0.47787266380E+02  0.19999978735E+02 0.  0.
        -12    1    1    2    0    0 -0.10445903203E+02  0.42068829751E+02 -0.21726362783E+01  0.43400733620E+02  0.00000000000E+00 0.  1.
         11    1    3    3    0    0  0.33994255427E+01 -0.39859499879E+01  0.30592716016E+00  0.52476168891E+01  0.51100000000E-03 0. -1.
        -11    1    3    3    0    0  0.48143494895E+01 -0.24697175034E+01  0.40970132118E+01  0.67869715685E+01  0.51100000000E-03 0.  1.
        -12    1    3    3    0    0  0.22321281705E+01 -0.35613162260E+02 -0.22303040936E+01  0.35752677923E+02  0.00000000000E+00 0.  1.
</event>
<event>
 7    1  0.2732193E-010  0.4778727E+02  0.7816164E-02  0.1312668E+00
        -11   -1    0    0    0    0  0.00000000000E+00  0.00000000000E+00  0.45593999997E+02  0.45594000000E+02  0.51100000000E-03 0. -1.
         11   -1    0    0    0    0 -0.00000000000E+00 -0.00000000000E+00 -0.45593999997E+02  0.45594000000E+02  0.51100000000E-03 0.  1.
    9900012    2    1    2    0    0 -0.43120939767E+02  0.44508652250E+01  0.20970219451E+01  0.47787272487E+02  0.20000006575E+02 0.  0.
        -12    1    1    2    0    0  0.43120939767E+02 -0.44508652250E+01 -0.20970219451E+01  0.43400727513E+02  0.00000000000E+00 0.  1.
         11    1    3    3    0    0 -0.32785724186E+02  0.62304977918E+01  0.93763310150E+00  0.33385655142E+02  0.51100000000E-03 0. -1.
        -11    1    3    3    0    0 -0.15199871738E+01 -0.22307890606E+01 -0.35004029818E+01  0.44203622179E+01  0.51100000000E-03 0.  1.
         12    1    3    3    0    0 -0.88152284071E+01  0.45115649381E+00  0.46597918255E+01  0.99812551269E+01  0.00000000000E+00 0. -1.
</event>
<event>
 7    1  0.2732193E-010  0.4778733E+02  0.7816164E-02  0.1312667E+00
        -11   -1    0    0    0    0  0.00000000000E+00  0.00000000000E+00  0.45593999997E+02  0.45594000000E+02  0.51100000000E-03 0.  1.
         11   -1    0    0    0    0 -0.00000000000E+00 -0.00000000000E+00 -0.45593999997E+02  0.45594000000E+02  0.51100000000E-03 0. -1.
    9900012    2    1    2    0    0  0.20609973595E+02 -0.29688138126E+02 -0.24030430455E+02  0.47787330134E+02  0.20000269412E+02 0.  0.
        -12    1    1    2    0    0 -0.20609973595E+02  0.29688138126E+02  0.24030430455E+02  0.43400669866E+02  0.00000000000E+00 0.  1.
         11    1    3    3    0    0  0.92159718786E+01 -0.15626699229E+02 -0.19880532041E+02  0.26914000464E+02  0.51100000000E-03 0. -1.
        -11    1    3    3    0    0  0.31130080136E+01 -0.10558324457E+02 -0.90712879361E-01  0.11008054475E+02  0.51100000000E-03 0.  1.
         12    1    3    3    0    0  0.82809937024E+01 -0.35031144393E+01 -0.40591855344E+01  0.98652751951E+01  0.00000000000E+00 0. -1.
</event>
<event>
 7    1  0.2732193E-010  0.4778727E+02  0.7816164E-02  0.1312668E+00
        -11   -1    0    0    0    0  0.00000000000E+00  0.00000000000E+00  0.45593999997E+02  0.45594000000E+02  0.51100000000E-03 0.  1.
         11   -1    0    0    0    0 -0.00000000000E+00 -0.00000000000E+00 -0.45593999997E+02  0.45594000000E+02  0.51100000000E-03 0. -1.
    9900012    2    1    2    0    0 -0.43235504349E+02  0.52661387855E+00 -0.37466097731E+01  0.47787271396E+02  0.20000001605E+02 0.  0.
        -12    1    1    2    0    0  0.43235504349E+02 -0.52661387855E+00  0.37466097731E+01  0.43400728604E+02  0.00000000000E+00 0.  1.
         11    1    3    3    0    0 -0.31207179477E+02 -0.22576808132E+00 -0.54018264018E+01  0.31672049995E+02  0.51100000000E-03 0. -1.
        -11    1    3    3    0    0 -0.26725070506E+01  0.56192921138E+00  0.53878873792E+01  0.60404792067E+01  0.51100000000E-03 0.  1.
        -12    1    3    3    0    0 -0.93558178220E+01  0.19045274848E+00 -0.37326707505E+01  0.10074742195E+02  0.00000000000E+00 0.  1.
</event>
<event>
 7    1  0.2732193E-010  0.4778728E+02  0.7816164E-02  0.1312668E+00
        -11   -1    0    0    0    0  0.00000000000E+00  0.00000000000E+00  0.45593999997E+02  0.45594000000E+02  0.51100000000E-03 0.  1.
         11   -1    0    0    0    0 -0.00000000000E+00 -0.00000000000E+00 -0.45593999997E+02  0.45594000000E+02  0.51100000000E-03 0. -1.
    9900012    2    1    2    0    0  0.25264374576E+02  0.29859936981E+02 -0.18807404041E+02  0.47787275283E+02  0.20000019324E+02 0.  0.
        -12    1    1    2    0    0 -0.25264374576E+02 -0.29859936981E+02  0.18807404041E+02  0.43400724717E+02  0.00000000000E+00 0.  1.
         11    1    3    3    0    0  0.28910057531E+01  0.69883797547E+01 -0.10591267327E+02  0.13014234887E+02  0.51100000000E-03 0. -1.
        -11    1    3    3    0    0  0.19329402181E+02  0.12905592262E+02 -0.42720346612E+01  0.23631131601E+02  0.51100000000E-03 0.  1.
         12    1    3    3    0    0  0.30439666419E+01  0.99659649640E+01 -0.39441020528E+01  0.11141908794E+02  0.00000000000E+00 0. -1.
</event>
<event>
 7    1  0.2732193E-010  0.4778728E+02  0.7816164E-02  0.1312668E+00
        -11   -1    0    0    0    0  0.00000000000E+00  0.00000000000E+00  0.45593999997E+02  0.45594000000E+02  0.51100000000E-03 0.  1.
         11   -1    0    0    0    0 -0.00000000000E+00 -0.00000000000E+00 -0.45593999997E+02  0.45594000000E+02  0.51100000000E-03 0. -1.
    9900012    2    1    2    0    0 -0.26050061928E+02 -0.19856109352E+02 -0.28473709226E+02  0.47787275096E+02  0.20000018474E+02 0.  0.
        -12    1    1    2    0    0  0.26050061928E+02  0.19856109352E+02  0.28473709226E+02  0.43400724904E+02  0.00000000000E+00 0.  1.
         11    1    3    3    0    0 -0.11498718992E+00 -0.16139655205E+01 -0.99560573769E+01  0.10086683573E+02  0.51100000000E-03 0. -1.
        -11    1    3    3    0    0 -0.23880703131E+02 -0.14228127208E+02 -0.18101689767E+02  0.33172258871E+02  0.51100000000E-03 0.  1.
        -12    1    3    3    0    0 -0.20543716064E+01 -0.40140166242E+01 -0.41596208225E+00  0.45283326523E+01  0.00000000000E+00 0.  1.
</event>
<event>
 7    1  0.2732193E-010  0.4778727E+02  0.7816164E-02  0.1312668E+00
        -11   -1    0    0    0    0  0.00000000000E+00  0.00000000000E+00  0.45593999997E+02  0.45594000000E+02  0.51100000000E-03 0.  1.
         11   -1    0    0    0    0 -0.00000000000E+00 -0.00000000000E+00 -0.45593999997E+02  0.45594000000E+02  0.51100000000E-03 0. -1.
    9900012    2    1    2    0    0  0.34141745526E+01 -0.38176868641E+02 -0.20359108627E+02  0.47787271997E+02  0.20000004344E+02 0.  0.
        -12    1    1    2    0    0 -0.34141745526E+01  0.38176868641E+02  0.20359108627E+02  0.43400728003E+02  0.00000000000E+00 0.  1.
         11    1    3    3    0    0  0.39362385720E+01 -0.10093248883E+02 -0.10268923544E+02  0.14927104144E+02  0.51100000000E-03 0. -1.
        -11    1    3    3    0    0 -0.59263510916E+01 -0.69877053539E+01 -0.84321522531E+00  0.92011236026E+01  0.51100000000E-03 0.  1.
        -12    1    3    3    0    0  0.54042870721E+01 -0.21095914404E+02 -0.92469698581E+01  0.23659044251E+02  0.00000000000E+00 0.  1.
</event>
<event>
 7    1  0.2732193E-010  0.4778727E+02  0.7816164E-02  0.1312668E+00
        -11   -1    0    0    0    0  0.00000000000E+00  0.00000000000E+00  0.45593999997E+02  0.45594000000E+02  0.51100000000E-03 0.  1.
         11   -1    0    0    0    0 -0.00000000000E+00 -0.00000000000E+00 -0.45593999997E+02  0.45594000000E+02  0.51100000000E-03 0. -1.
    9900012    2    1    2    0    0  0.29837659076E+02  0.65505139110E+01 -0.30829016613E+02  0.47787269626E+02  0.19999993533E+02 0.  0.
        -12    1    1    2    0    0 -0.29837659076E+02 -0.65505139110E+01  0.30829016613E+02  0.43400730374E+02  0.00000000000E+00 0.  1.
         11    1    3    3    0    0  0.29662764584E+02  0.19519653095E+01 -0.23034496436E+02  0.37606884976E+02  0.51100000000E-03 0. -1.
        -11    1    3    3    0    0 -0.29292693319E+00  0.47641933779E+01 -0.36566398706E+01  0.60128495853E+01  0.51100000000E-03 0.  1.
         12    1    3    3    0    0  0.46782142596E+00 -0.16564477634E+00 -0.41378803071E+01  0.41675350646E+01  0.00000000000E+00 0. -1.
</event>
<event>
 7    1  0.2732193E-010  0.4778727E+02  0.7816164E-02  0.1312668E+00
        -11   -1    0    0    0    0  0.00000000000E+00  0.00000000000E+00  0.45593999997E+02  0.45594000000E+02  0.51100000000E-03 0. -1.
         11   -1    0    0    0    0 -0.00000000000E+00 -0.00000000000E+00 -0.45593999997E+02  0.45594000000E+02  0.51100000000E-03 0.  1.
    9900012    2    1    2    0    0  0.38877685336E+02 -0.13090913902E+02 -0.14169584387E+02  0.47787267684E+02  0.19999984679E+02 0.  0.
        -12    1    1    2    0    0 -0.38877685336E+02  0.13090913902E+02  0.14169584387E+02  0.43400732316E+02  0.00000000000E+00 0.  1.
         11    1    3    3    0    0  0.95733787635E+01 -0.11303703771E+02 -0.16492695702E+01  0.14904475511E+02  0.51100000000E-03 0. -1.
        -11    1    3    3    0    0  0.20432899172E+02  0.23035479472E+01 -0.74020234809E+01  0.21854053482E+02  0.51100000000E-03 0.  1.
         12    1    3    3    0    0  0.88714074003E+01 -0.40907580788E+01 -0.51182913357E+01  0.11028738691E+02  0.00000000000E+00 0. -1.
</event>
<event>
 7    1  0.2732193E-010  0.4778727E+02  0.7816164E-02  0.1312668E+00
        -11   -1    0    0    0    0  0.00000000000E+00  0.00000000000E+00  0.45593999997E+02  0.45594000000E+02  0.51100000000E-03 0.  1.
         11   -1    0    0    0    0 -0.00000000000E+00 -0.00000000000E+00 -0.45593999997E+02  0.45594000000E+02  0.51100000000E-03 0. -1.
    9900012    2    1    2    0    0  0.21859376599E+02  0.34414153441E+02 -0.14881428241E+02  0.47787271793E+02  0.20000003415E+02 0.  0.
        -12    1    1    2    0    0 -0.21859376599E+02 -0.34414153441E+02  0.14881428241E+02  0.43400728207E+02  0.00000000000E+00 0.  1.
         11    1    3    3    0    0  0.12801227193E+02  0.27960006621E+02 -0.13035579947E+02  0.33399995999E+02  0.51100000000E-03 0. -1.
        -11    1    3    3    0    0  0.58945484289E+00  0.50372899915E+01  0.13119733489E+01  0.52386087656E+01  0.51100000000E-03 0.  1.
         12    1    3    3    0    0  0.84686945634E+01  0.14168568287E+01 -0.31578216425E+01  0.91486670289E+01  0.00000000000E+00 0. -1.
</event>
<event>
 7    1  0.2732193E-010  0.4778727E+02  0.7816164E-02  0.1312668E+00
        -11   -1    0    0    0    0  0.00000000000E+00  0.00000000000E+00  0.45593999997E+02  0.45594000000E+02  0.51100000000E-03 0.  1.
         11   -1    0    0    0    0 -0.00000000000E+00 -0.00000000000E+00 -0.45593999997E+02  0.45594000000E+02  0.51100000000E-03 0. -1.
    9900012    2    1    2    0    0  0.16290875588E+02 -0.23152402942E+02 -0.32896758667E+02  0.47787272815E+02  0.20000008072E+02 0.  0.
        -12    1    1    2    0    0 -0.16290875588E+02  0.23152402942E+02  0.32896758667E+02  0.43400727185E+02  0.00000000000E+00 0.  1.
         11    1    3    3    0    0  0.26126577666E+01 -0.18066117916E+00  0.16805912310E+01  0.31117529166E+01  0.51100000000E-03 0. -1.
        -11    1    3    3    0    0  0.49507481064E+01 -0.38445868936E+01 -0.35730162549E+01  0.72150676099E+01  0.51100000000E-03 0.  1.
         12    1    3    3    0    0  0.87274697151E+01 -0.19127154869E+02 -0.31004333643E+02  0.37460452288E+02  0.00000000000E+00 0. -1.
</event>
<event>
 7    1  0.2732193E-010  0.4778727E+02  0.7816164E-02  0.1312668E+00
        -11   -1    0    0    0    0  0.00000000000E+00  0.00000000000E+00  0.45593999997E+02  0.45594000000E+02  0.51100000000E-03 0.  1.
         11   -1    0    0    0    0 -0.00000000000E+00 -0.00000000000E+00 -0.45593999997E+02  0.45594000000E+02  0.51100000000E-03 0. -1.
    9900012    2    1    2    0    0 -0.25773934998E+02  0.91822141698E+00 -0.34906801612E+02  0.47787266658E+02  0.19999980002E+02 0.  0.
        -12    1    1    2    0    0  0.25773934998E+02 -0.91822141698E+00  0.34906801612E+02  0.43400733342E+02  0.00000000000E+00 0.  1.
         11    1    3    3    0    0 -0.10718409803E+02  0.14792677609E+01 -0.84236790259E+01  0.13712436341E+02  0.51100000000E-03 0. -1.
        -11    1    3    3    0    0  0.95253581836E+00 -0.47602958695E+01 -0.51911375373E+01  0.71074362778E+01  0.51100000000E-03 0.  1.
        -12    1    3    3    0    0 -0.16008061014E+02  0.41992495255E+01 -0.21291985048E+02  0.26967394040E+02  0.00000000000E+00 0.  1.
</event>
<event>
 7    1  0.2732193E-010  0.4778726E+02  0.7816164E-02  0.1312668E+00
        -11   -1    0    0    0    0  0.00000000000E+00  0.00000000000E+00  0.45593999997E+02  0.45594000000E+02  0.51100000000E-03 0. -1.
         11   -1    0    0    0    0 -0.00000000000E+00 -0.00000000000E+00 -0.45593999997E+02  0.45594000000E+02  0.51100000000E-03 0.  1.
    9900012    2    1    2    0    0 -0.34396666078E+02  0.22259850846E+02  0.14317554924E+02  0.47787262956E+02  0.19999963121E+02 0.  0.
        -12    1    1    2    0    0  0.34396666078E+02 -0.22259850846E+02 -0.14317554924E+02  0.43400737044E+02  0.00000000000E+00 0.  1.
         11    1    3    3    0    0 -0.83221948729E+01  0.17978022457E+01  0.76844103155E+01  0.11469140446E+02  0.51100000000E-03 0. -1.
        -11    1    3    3    0    0 -0.13574323381E+02  0.64529016419E+01 -0.28279897733E+01  0.15293780476E+02  0.51100000000E-03 0.  1.
        -12    1    3    3    0    0 -0.12500147824E+02  0.14009146959E+02  0.94611343819E+01  0.21024342033E+02  0.00000000000E+00 0.  1.
</event>
<event>
 7    1  0.2732193E-010  0.4778727E+02  0.7816164E-02  0.1312668E+00
        -11   -1    0    0    0    0  0.00000000000E+00  0.00000000000E+00  0.45593999997E+02  0.45594000000E+02  0.51100000000E-03 0.  1.
         11   -1    0    0    0    0 -0.00000000000E+00 -0.00000000000E+00 -0.45593999997E+02  0.45594000000E+02  0.51100000000E-03 0. -1.
    9900012    2    1    2    0    0 -0.31630200525E+02 -0.29665096554E+02 -0.17708236723E+01  0.47787270107E+02  0.19999995725E+02 0.  0.
        -12    1    1    2    0    0  0.31630200525E+02  0.29665096554E+02  0.17708236723E+01  0.43400729893E+02  0.00000000000E+00 0.  1.
         11    1    3    3    0    0 -0.10653438454E+02 -0.13135999158E+01 -0.37817614480E+01  0.11380817876E+02  0.51100000000E-03 0. -1.
        -11    1    3    3    0    0 -0.45882117242E+01 -0.76660410565E+01 -0.32303209017E+01  0.95002550331E+01  0.51100000000E-03 0.  1.
         12    1    3    3    0    0 -0.16388550347E+02 -0.20685455582E+02  0.52412586775E+01  0.26906197197E+02  0.00000000000E+00 0. -1.
</event>
<event>
 7    1  0.2732193E-010  0.4778727E+02  0.7816164E-02  0.1312668E+00
        -11   -1    0    0    0    0  0.00000000000E+00  0.00000000000E+00  0.45593999997E+02  0.45594000000E+02  0.51100000000E-03 0.  1.
         11   -1    0    0    0    0 -0.00000000000E+00 -0.00000000000E+00 -0.45593999997E+02  0.45594000000E+02  0.51100000000E-03 0. -1.
    9900012    2    1    2    0    0  0.12659463264E+02  0.10279465437E+02 -0.40220569897E+02  0.47787266566E+02  0.19999979581E+02 0.  0.
        -12    1    1    2    0    0 -0.12659463264E+02 -0.10279465437E+02  0.40220569897E+02  0.43400733434E+02  0.00000000000E+00 0.  1.
         11    1    3    3    0    0  0.43131033270E+01  0.78982298696E+01 -0.28816839219E+01  0.94492855745E+01  0.51100000000E-03 0.  1.
        -11    1    3    3    0    0  0.69645596891E+01  0.21019569056E+01 -0.31949397971E+02  0.32767168713E+02  0.51100000000E-03 0. -1.
        -12    1    3    3    0    0  0.13818002478E+01  0.27927866138E+00 -0.53894880040E+01  0.55708122784E+01  0.00000000000E+00 0.  1.
</event>
<event>
 7    1  0.2732193E-010  0.4778727E+02  0.7816164E-02  0.1312668E+00
        -11   -1    0    0    0    0  0.00000000000E+00  0.00000000000E+00  0.45593999997E+02  0.45594000000E+02  0.51100000000E-03 0.  1.
         11   -1    0    0    0    0 -0.00000000000E+00 -0.00000000000E+00 -0.45593999997E+02  0.45594000000E+02  0.51100000000E-03 0. -1.
    9900012    2    1    2    0    0 -0.40504627635E+02 -0.49694304268E+01 -0.14775079706E+02  0.47787273290E+02  0.20000010239E+02 0.  0.
        -12    1    1    2    0    0  0.40504627635E+02  0.49694304268E+01  0.14775079706E+02  0.43400726710E+02  0.00000000000E+00 0.  1.
         11    1    3    3    0    0 -0.18597393857E+02  0.53658161039E+01 -0.86310297365E+01  0.21193152557E+02  0.51100000000E-03 0. -1.
        -11    1    3    3    0    0 -0.19365023079E+02 -0.10815377182E+02 -0.78118515190E+01  0.23515984497E+02  0.51100000000E-03 0.  1.
         12    1    3    3    0    0 -0.25422106988E+01  0.48013065125E+00  0.16678015494E+01  0.30781362361E+01  0.00000000000E+00 0. -1.
</event>
<event>
 7    1  0.2732193E-010  0.4778727E+02  0.7816164E-02  0.1312668E+00
        -11   -1    0    0    0    0  0.00000000000E+00  0.00000000000E+00  0.45593999997E+02  0.45594000000E+02  0.51100000000E-03 0.  1.
         11   -1    0    0    0    0 -0.00000000000E+00 -0.00000000000E+00 -0.45593999997E+02  0.45594000000E+02  0.51100000000E-03 0. -1.
    9900012    2    1    2    0    0  0.14927830079E+02 -0.34834450834E+02 -0.21150505212E+02  0.47787274816E+02  0.20000017197E+02 0.  0.
        -12    1    1    2    0    0 -0.14927830079E+02  0.34834450834E+02  0.21150505212E+02  0.43400725184E+02  0.00000000000E+00 0.  1.
         11    1    3    3    0    0  0.98138637677E+01 -0.20617145259E+02 -0.17000543125E+02  0.28467473852E+02  0.51100000000E-03 0. -1.
        -11    1    3    3    0    0  0.10890486366E+01 -0.84102946115E+01 -0.76623818712E+01  0.11429399747E+02  0.51100000000E-03 0.  1.
         12    1    3    3    0    0  0.40249176749E+01 -0.58070109637E+01  0.35124197849E+01  0.78904012171E+01  0.00000000000E+00 0. -1.
</event>
<event>
 7    1  0.2732193E-010  0.4778727E+02  0.7816164E-02  0.1312668E+00
        -11   -1    0    0    0    0  0.00000000000E+00  0.00000000000E+00  0.45593999997E+02  0.45594000000E+02  0.51100000000E-03 0.  1.
         11   -1    0    0    0    0 -0.00000000000E+00 -0.00000000000E+00 -0.45593999997E+02  0.45594000000E+02  0.51100000000E-03 0. -1.
    9900012    2    1    2    0    0  0.16531154350E+02  0.29644122669E+02 -0.27047552498E+02  0.47787272251E+02  0.20000005503E+02 0.  0.
        -12    1    1    2    0    0 -0.16531154350E+02 -0.29644122669E+02  0.27047552498E+02  0.43400727749E+02  0.00000000000E+00 0.  1.
         11    1    3    3    0    0  0.39747901027E+01  0.51443260161E+01 -0.14626771444E+02  0.16006420264E+02  0.51100000000E-03 0. -1.
        -11    1    3    3    0    0  0.67125574123E+01  0.39878357320E+01 -0.20913403543E+01  0.80830047370E+01  0.51100000000E-03 0.  1.
         12    1    3    3    0    0  0.58438068353E+01  0.20511960921E+02 -0.10329440699E+02  0.23697847251E+02  0.00000000000E+00 0. -1.
</event>
<event>
 7    1  0.2732193E-010  0.4778727E+02  0.7816164E-02  0.1312668E+00
        -11   -1    0    0    0    0  0.00000000000E+00  0.00000000000E+00  0.45593999997E+02  0.45594000000E+02  0.51100000000E-03 0.  1.
         11   -1    0    0    0    0 -0.00000000000E+00 -0.00000000000E+00 -0.45593999997E+02  0.45594000000E+02  0.51100000000E-03 0. -1.
    9900012    2    1    2    0    0  0.31163891290E+02  0.10368935100E+02 -0.28371118699E+02  0.47787270609E+02  0.19999998012E+02 0.  0.
        -12    1    1    2    0    0 -0.31163891290E+02 -0.10368935100E+02  0.28371118699E+02  0.43400729391E+02  0.00000000000E+00 0.  1.
         11    1    3    3    0    0  0.15332183927E+02  0.29583634465E+01 -0.34006394954E+01  0.15980992694E+02  0.51100000000E-03 0. -1.
        -11    1    3    3    0    0  0.59772747983E+01  0.23896097006E+01 -0.27789911099E+01  0.70114791867E+01  0.51100000000E-03 0.  1.
         12    1    3    3    0    0  0.98544325648E+01  0.50209619532E+01 -0.22191488094E+02  0.24794798727E+02  0.00000000000E+00 0. -1.
</event>
<event>
 7    1  0.2732193E-010  0.4778727E+02  0.7816164E-02  0.1312668E+00
        -11   -1    0    0    0    0  0.00000000000E+00  0.00000000000E+00  0.45593999997E+02  0.45594000000E+02  0.51100000000E-03 0.  1.
         11   -1    0    0    0    0 -0.00000000000E+00 -0.00000000000E+00 -0.45593999997E+02  0.45594000000E+02  0.51100000000E-03 0. -1.
    9900012    2    1    2    0    0 -0.88188837404E+01  0.36438502917E+02  0.21865188145E+02  0.47787266620E+02  0.19999979829E+02 0.  0.
        -12    1    1    2    0    0  0.88188837404E+01 -0.36438502917E+02 -0.21865188145E+02  0.43400733380E+02  0.00000000000E+00 0.  1.
         11    1    3    3    0    0 -0.81687401260E+01  0.19066957163E+02  0.49987478439E+01  0.21336931620E+02  0.51100000000E-03 0. -1.
        -11    1    3    3    0    0  0.42859945255E+00  0.19637320292E+01 -0.14592284345E+01  0.24838053181E+01  0.51100000000E-03 0.  1.
         12    1    3    3    0    0 -0.10787430670E+01  0.15407813725E+02  0.18325668736E+02  0.23966529682E+02  0.00000000000E+00 0. -1.
</event>
<event>
 7    1  0.2732193E-010  0.4778721E+02  0.7816164E-02  0.1312668E+00
        -11   -1    0    0    0    0  0.00000000000E+00  0.00000000000E+00  0.45593999997E+02  0.45594000000E+02  0.51100000000E-03 0. -1.
         11   -1    0    0    0    0 -0.00000000000E+00 -0.00000000000E+00 -0.45593999997E+02  0.45594000000E+02  0.51100000000E-03 0.  1.
    9900012    2    1    2    0    0 -0.30461622324E+02  0.29102906835E+02  0.10427795655E+02  0.47787210340E+02  0.19999723223E+02 0.  0.
        -12    1    1    2    0    0  0.30461622324E+02 -0.29102906835E+02 -0.10427795655E+02  0.43400789660E+02  0.00000000000E+00 0.  1.
         11    1    3    3    0    0 -0.14781834648E+01  0.47088146357E+01  0.85090211468E+01  0.98367374046E+01  0.51100000000E-03 0. -1.
        -11    1    3    3    0    0 -0.23685778146E+02  0.20478596401E+02  0.13987506881E+01  0.31342391432E+02  0.51100000000E-03 0.  1.
         12    1    3    3    0    0 -0.52976607138E+01  0.39154957988E+01  0.52002381960E+00  0.66080815039E+01  0.00000000000E+00 0. -1.
</event>
<event>
 7    1  0.2732193E-010  0.4778727E+02  0.7816164E-02  0.1312668E+00
        -11   -1    0    0    0    0  0.00000000000E+00  0.00000000000E+00  0.45593999997E+02  0.45594000000E+02  0.51100000000E-03 0.  1.
         11   -1    0    0    0    0 -0.00000000000E+00 -0.00000000000E+00 -0.45593999997E+02  0.45594000000E+02  0.51100000000E-03 0. -1.
    9900012    2    1    2    0    0 -0.24852212583E+02 -0.27155456091E+02 -0.22990692756E+02  0.47787271675E+02  0.20000002873E+02 0.  0.
        -12    1    1    2    0    0  0.24852212583E+02  0.27155456091E+02  0.22990692756E+02  0.43400728325E+02  0.00000000000E+00 0.  1.
         11    1    3    3    0    0 -0.17642826876E+02 -0.14284988320E+02 -0.12155287747E+02  0.25750364113E+02  0.51100000000E-03 0. -1.
        -11    1    3    3    0    0 -0.80997151605E+00 -0.11900129776E+02 -0.38968449767E+01  0.12548089240E+02  0.51100000000E-03 0.  1.
        -12    1    3    3    0    0 -0.63994141907E+01 -0.97033799488E+00 -0.69385600324E+01  0.94888183211E+01  0.00000000000E+00 0.  1.
</event>
<event>
 7    1  0.2732193E-010  0.4778728E+02  0.7816164E-02  0.1312668E+00
        -11   -1    0    0    0    0  0.00000000000E+00  0.00000000000E+00  0.45593999997E+02  0.45594000000E+02  0.51100000000E-03 0.  1.
         11   -1    0    0    0    0 -0.00000000000E+00 -0.00000000000E+00 -0.45593999997E+02  0.45594000000E+02  0.51100000000E-03 0. -1.
    9900012    2    1    2    0    0 -0.14405523542E+02 -0.22454853933E+02 -0.34232778765E+02  0.47787277476E+02  0.20000029322E+02 0.  0.
        -12    1    1    2    0    0  0.14405523542E+02  0.22454853933E+02  0.34232778765E+02  0.43400722524E+02  0.00000000000E+00 0.  1.
         11    1    3    3    0    0 -0.12593823016E+02 -0.78817865534E+01 -0.14258438699E+02  0.20591989021E+02  0.51100000000E-03 0. -1.
        -11    1    3    3    0    0  0.17559117318E+00 -0.13774376431E+02 -0.10074295142E+02  0.17066215198E+02  0.51100000000E-03 0.  1.
         12    1    3    3    0    0 -0.19872916986E+01 -0.79869094769E+00 -0.99000449248E+01  0.10129073257E+02  0.00000000000E+00 0. -1.
</event>
<event>
 7    1  0.2732193E-010  0.4778727E+02  0.7816164E-02  0.1312668E+00
        -11   -1    0    0    0    0  0.00000000000E+00  0.00000000000E+00  0.45593999997E+02  0.45594000000E+02  0.51100000000E-03 0.  1.
         11   -1    0    0    0    0 -0.00000000000E+00 -0.00000000000E+00 -0.45593999997E+02  0.45594000000E+02  0.51100000000E-03 0. -1.
    9900012    2    1    2    0    0 -0.29146204141E+02  0.18281058173E+01 -0.32105764467E+02  0.47787270758E+02  0.19999998695E+02 0.  0.
        -12    1    1    2    0    0  0.29146204141E+02 -0.18281058173E+01  0.32105764467E+02  0.43400729242E+02  0.00000000000E+00 0.  1.
         11    1    3    3    0    0 -0.15155876397E+02 -0.10968356764E+01 -0.14400860982E+02  0.20935339385E+02  0.51100000000E-03 0. -1.
        -11    1    3    3    0    0  0.63479157895E-01  0.56665478028E+01 -0.33826744024E+01  0.65997181742E+01  0.51100000000E-03 0.  1.
        -12    1    3    3    0    0 -0.14053806902E+02 -0.27416063090E+01 -0.14322229082E+02  0.20252213200E+02  0.00000000000E+00 0.  1.
</event>
<event>
 7    1  0.2732193E-010  0.4778727E+02  0.7816164E-02  0.1312668E+00
        -11   -1    0    0    0    0  0.00000000000E+00  0.00000000000E+00  0.45593999997E+02  0.45594000000E+02  0.51100000000E-03 0.  1.
         11   -1    0    0    0    0 -0.00000000000E+00 -0.00000000000E+00 -0.45593999997E+02  0.45594000000E+02  0.51100000000E-03 0. -1.
    9900012    2    1    2    0    0 -0.37986786084E+01 -0.29797912658E+02 -0.31325353798E+02  0.47787270184E+02  0.19999996079E+02 0.  0.
        -12    1    1    2    0    0  0.37986786084E+01  0.29797912658E+02  0.31325353798E+02  0.43400729816E+02  0.00000000000E+00 0.  1.
         11    1    3    3    0    0 -0.81645248613E+00 -0.46304710608E+01 -0.51144285069E+01  0.69473186281E+01  0.51100000000E-03 0. -1.
        -11    1    3    3    0    0  0.70097812411E+01 -0.12864580332E+02 -0.79798418648E+01  0.16682695724E+02  0.51100000000E-03 0.  1.
        -12    1    3    3    0    0 -0.99920073633E+01 -0.12302861265E+02 -0.18231083427E+02  0.24157255833E+02  0.00000000000E+00 0.  1.
</event>
<event>
 7    1  0.2732193E-010  0.4778727E+02  0.7816164E-02  0.1312668E+00
        -11   -1    0    0    0    0  0.00000000000E+00  0.00000000000E+00  0.45593999997E+02  0.45594000000E+02  0.51100000000E-03 0.  1.
         11   -1    0    0    0    0 -0.00000000000E+00 -0.00000000000E+00 -0.45593999997E+02  0.45594000000E+02  0.51100000000E-03 0. -1.
    9900012    2    1    2    0    0 -0.40603932808E+02 -0.76455058626E+01 -0.13284954100E+02  0.47787272762E+02  0.20000007829E+02 0.  0.
        -12    1    1    2    0    0  0.40603932808E+02  0.76455058626E+01  0.13284954100E+02  0.43400727238E+02  0.00000000000E+00 0.  1.
         11    1    3    3    0    0 -0.58534153651E+00  0.25329932961E+01 -0.43558752912E+01  0.50727043642E+01  0.51100000000E-03 0. -1.
        -11    1    3    3    0    0 -0.21676494262E+01  0.34094042069E+00  0.62970201041E+00  0.22828642729E+01  0.51100000000E-03 0.  1.
         12    1    3    3    0    0 -0.37850941846E+02 -0.10519439579E+02 -0.95587808189E+01  0.40431704124E+02  0.00000000000E+00 0. -1.
</event>
<event>
 7    1  0.2732193E-010  0.4778727E+02  0.7816164E-02  0.1312668E+00
        -11   -1    0    0    0    0  0.00000000000E+00  0.00000000000E+00  0.45593999997E+02  0.45594000000E+02  0.51100000000E-03 0.  1.
         11   -1    0    0    0    0 -0.00000000000E+00 -0.00000000000E+00 -0.45593999997E+02  0.45594000000E+02  0.51100000000E-03 0. -1.
    9900012    2    1    2    0    0  0.13999152264E+02  0.57522136314E+01 -0.40676274441E+02  0.47787268115E+02  0.19999986642E+02 0.  0.
        -12    1    1    2    0    0 -0.13999152264E+02 -0.57522136314E+01  0.40676274441E+02  0.43400731885E+02  0.00000000000E+00 0.  1.
         11    1    3    3    0    0  0.11459966841E+02 -0.36527065312E+01 -0.22794370623E+02  0.25773172823E+02  0.51100000000E-03 0. -1.
        -11    1    3    3    0    0  0.38547380362E+01  0.93820805478E+00 -0.80362151554E+01  0.89621422644E+01  0.51100000000E-03 0.  1.
         12    1    3    3    0    0 -0.13155526126E+01  0.84667121078E+01 -0.98456886625E+01  0.13051953028E+02  0.00000000000E+00 0. -1.
</event>
<event>
 7    1  0.2732193E-010  0.4778727E+02  0.7816164E-02  0.1312668E+00
        -11   -1    0    0    0    0  0.00000000000E+00  0.00000000000E+00  0.45593999997E+02  0.45594000000E+02  0.51100000000E-03 0.  1.
         11   -1    0    0    0    0 -0.00000000000E+00 -0.00000000000E+00 -0.45593999997E+02  0.45594000000E+02  0.51100000000E-03 0. -1.
    9900012    2    1    2    0    0 -0.10438474549E+02 -0.31792369799E+02 -0.27638865876E+02  0.47787269185E+02  0.19999991521E+02 0.  0.
        -12    1    1    2    0    0  0.10438474549E+02  0.31792369799E+02  0.27638865876E+02  0.43400730815E+02  0.00000000000E+00 0.  1.
         11    1    3    3    0    0 -0.49736609185E+01 -0.11914232327E+02 -0.86780107825E+01  0.15556159754E+02  0.51100000000E-03 0. -1.
        -11    1    3    3    0    0 -0.42076160271E+01 -0.20583912797E+02 -0.10204138528E+02  0.23356496784E+02  0.51100000000E-03 0.  1.
        -12    1    3    3    0    0 -0.12571976031E+01  0.70577532485E+00 -0.87567165656E+01  0.88746126469E+01  0.00000000000E+00 0.  1.
</event>
<event>
 7    1  0.2732193E-010  0.4778727E+02  0.7816164E-02  0.1312668E+00
        -11   -1    0    0    0    0  0.00000000000E+00  0.00000000000E+00  0.45593999997E+02  0.45594000000E+02  0.51100000000E-03 0.  1.
         11   -1    0    0    0    0 -0.00000000000E+00 -0.00000000000E+00 -0.45593999997E+02  0.45594000000E+02  0.51100000000E-03 0. -1.
    9900012    2    1    2    0    0 -0.25875702546E+02  0.24889122165E+02  0.24384482196E+02  0.47787270094E+02  0.19999995668E+02 0.  0.
        -12    1    1    2    0    0  0.25875702546E+02 -0.24889122165E+02 -0.24384482196E+02  0.43400729906E+02  0.00000000000E+00 0.  1.
         11    1    3    3    0    0 -0.24960053516E+02  0.18287953597E+02  0.23678749493E+02  0.38963273683E+02  0.51100000000E-03 0. -1.
        -11    1    3    3    0    0  0.12366349530E+01 -0.42152687692E+00  0.69291666685E+00  0.14788795364E+01  0.51100000000E-03 0.  1.
         12    1    3    3    0    0 -0.21522839835E+01  0.70226954445E+01  0.12816035585E-01  0.73451168747E+01  0.00000000000E+00 0. -1.
</event>
<event>
 7    1  0.2732193E-010  0.4778728E+02  0.7816164E-02  0.1312668E+00
        -11   -1    0    0    0    0  0.00000000000E+00  0.00000000000E+00  0.45593999997E+02  0.45594000000E+02  0.51100000000E-03 0. -1.
         11   -1    0    0    0    0 -0.00000000000E+00 -0.00000000000E+00 -0.45593999997E+02  0.45594000000E+02  0.51100000000E-03 0.  1.
    9900012    2    1    2    0    0 -0.32458452609E+02  0.28735397845E+02 -0.20853459734E+01  0.47787275318E+02  0.20000019484E+02 0.  0.
        -12    1    1    2    0    0  0.32458452609E+02 -0.28735397845E+02  0.20853459734E+01  0.43400724682E+02  0.00000000000E+00 0.  1.
         11    1    3    3    0    0 -0.13960179836E+02  0.21531310050E+02  0.51864240242E+01  0.26179819097E+02  0.51100000000E-03 0. -1.
        -11    1    3    3    0    0 -0.17488533102E+02  0.69031241468E+01 -0.78852739048E+01  0.20388218605E+02  0.51100000000E-03 0.  1.
         12    1    3    3    0    0 -0.10097396712E+01  0.30096364837E+00  0.61350390716E+00  0.12192376164E+01  0.00000000000E+00 0. -1.
</event>
<event>
 7    1  0.2732193E-010  0.4778727E+02  0.7816164E-02  0.1312668E+00
        -11   -1    0    0    0    0  0.00000000000E+00  0.00000000000E+00  0.45593999997E+02  0.45594000000E+02  0.51100000000E-03 0.  1.
         11   -1    0    0    0    0 -0.00000000000E+00 -0.00000000000E+00 -0.45593999997E+02  0.45594000000E+02  0.51100000000E-03 0. -1.
    9900012    2    1    2    0    0 -0.14072356355E+02 -0.45852429040E+01 -0.40799111725E+02  0.47787272086E+02  0.20000004750E+02 0.  0.
        -12    1    1    2    0    0  0.14072356355E+02  0.45852429040E+01  0.40799111725E+02  0.43400727914E+02  0.00000000000E+00 0.  1.
         11    1    3    3    0    0 -0.18654458702E+01 -0.74188365788E+01 -0.28735672339E+02  0.29736474060E+02  0.51100000000E-03 0. -1.
        -11    1    3    3    0    0 -0.92176131763E+01  0.10081189715E+01 -0.59878900603E+01  0.11037913035E+02  0.51100000000E-03 0.  1.
         12    1    3    3    0    0 -0.29892973089E+01  0.18254747032E+01 -0.60755493255E+01  0.70128849912E+01  0.00000000000E+00 0. -1.
</event>
<event>
 7    1  0.2732193E-010  0.4778727E+02  0.7816164E-02  0.1312668E+00
        -11   -1    0    0    0    0  0.00000000000E+00  0.00000000000E+00  0.45593999997E+02  0.45594000000E+02  0.51100000000E-03 0.  1.
         11   -1    0    0    0    0 -0.00000000000E+00 -0.00000000000E+00 -0.45593999997E+02  0.45594000000E+02  0.51100000000E-03 0. -1.
    9900012    2    1    2    0    0 -0.28930029804E+02 -0.17774592980E+02 -0.27032216942E+02  0.47787268061E+02  0.19999986396E+02 0.  0.
        -12    1    1    2    0    0  0.28930029804E+02  0.17774592980E+02  0.27032216942E+02  0.43400731939E+02  0.00000000000E+00 0.  1.
         11    1    3    3    0    0 -0.20553150405E+01  0.24617728254E+01 -0.45056014335E+01  0.55303788206E+01  0.51100000000E-03 0. -1.
        -11    1    3    3    0    0 -0.23663704576E+02 -0.11470283472E+02 -0.18105846406E+02  0.31927417552E+02  0.51100000000E-03 0.  1.
        -12    1    3    3    0    0 -0.32110101876E+01 -0.87660823339E+01 -0.44207691025E+01  0.10329471689E+02  0.00000000000E+00 0.  1.
</event>
<event>
 7    1  0.2732193E-010  0.4778728E+02  0.7816164E-02  0.1312668E+00
        -11   -1    0    0    0    0  0.00000000000E+00  0.00000000000E+00  0.45593999997E+02  0.45594000000E+02  0.51100000000E-03 0.  1.
         11   -1    0    0    0    0 -0.00000000000E+00 -0.00000000000E+00 -0.45593999997E+02  0.45594000000E+02  0.51100000000E-03 0. -1.
    9900012    2    1    2    0    0 -0.21154369766E+02 -0.18167121450E+01 -0.37852543329E+02  0.47787276047E+02  0.20000022809E+02 0.  0.
        -12    1    1    2    0    0  0.21154369766E+02  0.18167121450E+01  0.37852543329E+02  0.43400723953E+02  0.00000000000E+00 0.  1.
         11    1    3    3    0    0 -0.13447768288E+02  0.36495929103E+01 -0.13693616140E+02  0.19536558642E+02  0.51100000000E-03 0. -1.
        -11    1    3    3    0    0 -0.36505993713E+01  0.32287140988E+01 -0.10299118580E+02  0.11394003435E+02  0.51100000000E-03 0.  1.
         12    1    3    3    0    0 -0.40560021067E+01 -0.86950191541E+01 -0.13859808609E+02  0.16856713969E+02  0.00000000000E+00 0. -1.
</event>
<event>
 7    1  0.2732193E-010  0.4778727E+02  0.7816164E-02  0.1312668E+00
        -11   -1    0    0    0    0  0.00000000000E+00  0.00000000000E+00  0.45593999997E+02  0.45594000000E+02  0.51100000000E-03 0. -1.
         11   -1    0    0    0    0 -0.00000000000E+00 -0.00000000000E+00 -0.45593999997E+02  0.45594000000E+02  0.51100000000E-03 0.  1.
    9900012    2    1    2    0    0 -0.74241430446E+01 -0.15495025716E+02  0.39854855939E+02  0.47787271160E+02  0.20000000528E+02 0.  0.
        -12    1    1    2    0    0  0.74241430446E+01  0.15495025716E+02 -0.39854855939E+02  0.43400728840E+02  0.00000000000E+00 0.  1.
         11    1    3    3    0    0  0.24361454858E+01 -0.48484426050E+01  0.62182101812E+01  0.82527776319E+01  0.51100000000E-03 0. -1.
        -11    1    3    3    0    0 -0.81226283966E+01 -0.62641254744E+01  0.68460578587E+01  0.12332269398E+02  0.51100000000E-03 0.  1.
        -12    1    3    3    0    0 -0.17376601338E+01 -0.43824576361E+01  0.26790587899E+02  0.27202224131E+02  0.00000000000E+00 0.  1.
</event>
<event>
 7    1  0.2732193E-010  0.4778727E+02  0.7816164E-02  0.1312668E+00
        -11   -1    0    0    0    0  0.00000000000E+00  0.00000000000E+00  0.45593999997E+02  0.45594000000E+02  0.51100000000E-03 0. -1.
         11   -1    0    0    0    0 -0.00000000000E+00 -0.00000000000E+00 -0.45593999997E+02  0.45594000000E+02  0.51100000000E-03 0.  1.
    9900012    2    1    2    0    0  0.21396950031E+02  0.17836074807E+02  0.33281647828E+02  0.47787272848E+02  0.20000008223E+02 0.  0.
        -12    1    1    2    0    0 -0.21396950031E+02 -0.17836074807E+02 -0.33281647828E+02  0.43400727152E+02  0.00000000000E+00 0.  1.
         11    1    3    3    0    0 -0.11528845365E+01  0.14535492814E+01  0.56248973291E+01  0.59229569044E+01  0.51100000000E-03 0. -1.
        -11    1    3    3    0    0  0.13559740503E+02  0.17717764219E+02  0.20446283314E+02  0.30262786273E+02  0.51100000000E-03 0.  1.
        -12    1    3    3    0    0  0.89900940648E+01 -0.13352386929E+01  0.72104671852E+01  0.11601529670E+02  0.00000000000E+00 0.  1.
</event>
<event>
 7    1  0.2732193E-010  0.4778727E+02  0.7816164E-02  0.1312668E+00
        -11   -1    0    0    0    0  0.00000000000E+00  0.00000000000E+00  0.45593999997E+02  0.45594000000E+02  0.51100000000E-03 0.  1.
         11   -1    0    0    0    0 -0.00000000000E+00 -0.00000000000E+00 -0.45593999997E+02  0.45594000000E+02  0.51100000000E-03 0. -1.
    9900012    2    1    2    0    0 -0.53035079089E+01 -0.15715051901E+02 -0.40106523152E+02  0.47787271300E+02  0.20000001164E+02 0.  0.
        -12    1    1    2    0    0  0.53035079089E+01  0.15715051901E+02  0.40106523152E+02  0.43400728700E+02  0.00000000000E+00 0.  1.
         11    1    3    3    0    0 -0.36741003636E+01 -0.14635761711E+02 -0.21100548989E+02  0.25941042813E+02  0.51100000000E-03 0. -1.
        -11    1    3    3    0    0 -0.49038956516E+01  0.23561476012E+01 -0.13626377335E+02  0.14672347584E+02  0.51100000000E-03 0.  1.
        -12    1    3    3    0    0  0.32744881064E+01 -0.34354377917E+01 -0.53795968278E+01  0.71738809029E+01  0.00000000000E+00 0.  1.
</event>
<event>
 7    1  0.2732193E-010  0.4778727E+02  0.7816164E-02  0.1312668E+00
        -11   -1    0    0    0    0  0.00000000000E+00  0.00000000000E+00  0.45593999997E+02  0.45594000000E+02  0.51100000000E-03 0.  1.
         11   -1    0    0    0    0 -0.00000000000E+00 -0.00000000000E+00 -0.45593999997E+02  0.45594000000E+02  0.51100000000E-03 0. -1.
    9900012    2    1    2    0    0 -0.33560879102E+02 -0.25770818487E+02 -0.96517004554E+01  0.47787274047E+02  0.20000013689E+02 0.  0.
        -12    1    1    2    0    0  0.33560879102E+02  0.25770818487E+02  0.96517004554E+01  0.43400725953E+02  0.00000000000E+00 0.  1.
         11    1    3    3    0    0 -0.29267263543E+02 -0.13640315453E+02 -0.24200464589E+01  0.32380357411E+02  0.51100000000E-03 0. -1.
        -11    1    3    3    0    0  0.42909756805E+00 -0.81989928049E-01  0.20360659954E+00  0.48197819423E+00  0.51100000000E-03 0.  1.
         12    1    3    3    0    0 -0.47227131267E+01 -0.12048513106E+02 -0.74352605961E+01  0.14924938441E+02  0.00000000000E+00 0. -1.
</event>
<event>
 7    1  0.2732193E-010  0.4778727E+02  0.7816164E-02  0.1312668E+00
        -11   -1    0    0    0    0  0.00000000000E+00  0.00000000000E+00  0.45593999997E+02  0.45594000000E+02  0.51100000000E-03 0. -1.
         11   -1    0    0    0    0 -0.00000000000E+00 -0.00000000000E+00 -0.45593999997E+02  0.45594000000E+02  0.51100000000E-03 0.  1.
    9900012    2    1    2    0    0 -0.26186395333E+02 -0.26216570056E+02  0.22596178208E+02  0.47787272867E+02  0.20000008311E+02 0.  0.
        -12    1    1    2    0    0  0.26186395333E+02  0.26216570056E+02 -0.22596178208E+02  0.43400727133E+02  0.00000000000E+00 0.  1.
         11    1    3    3    0    0 -0.65582736189E+01 -0.31667616802E+01  0.32500927463E+01  0.79751135114E+01  0.51100000000E-03 0. -1.
        -11    1    3    3    0    0 -0.17041275524E+02 -0.19121472207E+02  0.22546504686E+02  0.34123022209E+02  0.51100000000E-03 0.  1.
        -12    1    3    3    0    0 -0.25868461906E+01 -0.39283361688E+01 -0.32004192243E+01  0.56891371473E+01  0.00000000000E+00 0.  1.
</event>
<event>
 7    1  0.2732193E-010  0.4778727E+02  0.7816164E-02  0.1312668E+00
        -11   -1    0    0    0    0  0.00000000000E+00  0.00000000000E+00  0.45593999997E+02  0.45594000000E+02  0.51100000000E-03 0. -1.
         11   -1    0    0    0    0 -0.00000000000E+00 -0.00000000000E+00 -0.45593999997E+02  0.45594000000E+02  0.51100000000E-03 0.  1.
    9900012    2    1    2    0    0  0.34194269622E+02 -0.22379252030E+02  0.14613150827E+02  0.47787272200E+02  0.20000005271E+02 0.  0.
        -12    1    1    2    0    0 -0.34194269622E+02  0.22379252030E+02 -0.14613150827E+02  0.43400727800E+02  0.00000000000E+00 0.  1.
         11    1    3    3    0    0  0.12343461579E+01 -0.34715451375E+01  0.49188388101E+01  0.61457474387E+01  0.51100000000E-03 0. -1.
        -11    1    3    3    0    0  0.21070748121E+02 -0.77359974926E+01 -0.41327260347E+00  0.22449785702E+02  0.51100000000E-03 0.  1.
        -12    1    3    3    0    0  0.11889175344E+02 -0.11171709400E+02  0.10107584620E+02  0.19191739060E+02  0.00000000000E+00 0.  1.
</event>
<event>
 7    1  0.2732193E-010  0.4778727E+02  0.7816164E-02  0.1312668E+00
        -11   -1    0    0    0    0  0.00000000000E+00  0.00000000000E+00  0.45593999997E+02  0.45594000000E+02  0.51100000000E-03 0.  1.
         11   -1    0    0    0    0 -0.00000000000E+00 -0.00000000000E+00 -0.45593999997E+02  0.45594000000E+02  0.51100000000E-03 0. -1.
    9900012    2    1    2    0    0 -0.28834209023E+02 -0.10157749877E+02 -0.30806361678E+02  0.47787269448E+02  0.19999992723E+02 0.  0.
        -12    1    1    2    0    0  0.28834209023E+02  0.10157749877E+02  0.30806361678E+02  0.43400730552E+02  0.00000000000E+00 0.  1.
         11    1    3    3    0    0 -0.33224419638E+01 -0.58747206170E+00 -0.96066286442E+01  0.10181898556E+02  0.51100000000E-03 0. -1.
        -11    1    3    3    0    0 -0.35343146685E+01 -0.43216165586E+01  0.12849437092E+01  0.57287721592E+01  0.51100000000E-03 0.  1.
        -12    1    3    3    0    0 -0.21977452391E+02 -0.52486612568E+01 -0.22484676743E+02  0.31876598734E+02  0.00000000000E+00 0.  1.
</event>
<event>
 7    1  0.2732193E-010  0.4778726E+02  0.7816164E-02  0.1312668E+00
        -11   -1    0    0    0    0  0.00000000000E+00  0.00000000000E+00  0.45593999997E+02  0.45594000000E+02  0.51100000000E-03 0.  1.
         11   -1    0    0    0    0 -0.00000000000E+00 -0.00000000000E+00 -0.45593999997E+02  0.45594000000E+02  0.51100000000E-03 0. -1.
    9900012    2    1    2    0    0 -0.10978630525E+02  0.34930207729E+02 -0.23301821074E+02  0.47787255703E+02  0.19999930053E+02 0.  0.
        -12    1    1    2    0    0  0.10978630525E+02 -0.34930207729E+02  0.23301821074E+02  0.43400744297E+02  0.00000000000E+00 0.  1.
         11    1    3    3    0    0  0.63676403223E+00 -0.35315516226E+00 -0.15738677015E+01  0.17341415180E+01  0.51100000000E-03 0. -1.
        -11    1    3    3    0    0 -0.64194173840E+01  0.29647656660E+02 -0.98074646620E+01  0.31880696798E+02  0.51100000000E-03 0.  1.
        -12    1    3    3    0    0 -0.51959771728E+01  0.56357062309E+01 -0.11920488710E+02  0.14172417387E+02  0.00000000000E+00 0.  1.
</event>
<event>
 7    1  0.2732193E-010  0.4778727E+02  0.7816164E-02  0.1312668E+00
        -11   -1    0    0    0    0  0.00000000000E+00  0.00000000000E+00  0.45593999997E+02  0.45594000000E+02  0.51100000000E-03 0. -1.
         11   -1    0    0    0    0 -0.00000000000E+00 -0.00000000000E+00 -0.45593999997E+02  0.45594000000E+02  0.51100000000E-03 0.  1.
    9900012    2    1    2    0    0 -0.38425225436E+00  0.37157134559E+02 -0.22423723928E+02  0.47787266213E+02  0.19999977972E+02 0.  0.
        -12    1    1    2    0    0  0.38425225436E+00 -0.37157134559E+02  0.22423723928E+02  0.43400733787E+02  0.00000000000E+00 0.  1.
         11    1    3    3    0    0  0.45216978612E+01  0.71714735825E+01 -0.10923610397E+02  0.13827546755E+02  0.51100000000E-03 0. -1.
        -11    1    3    3    0    0  0.67990198177E+00 -0.42354970765E+00 -0.10558296194E+01  0.13253065706E+01  0.51100000000E-03 0.  1.
         12    1    3    3    0    0 -0.55858520973E+01  0.30409210684E+02 -0.10444283912E+02  0.32634412888E+02  0.00000000000E+00 0. -1.
</event>
<event>
 7    1  0.2732193E-010  0.4778729E+02  0.7816164E-02  0.1312668E+00
        -11   -1    0    0    0    0  0.00000000000E+00  0.00000000000E+00  0.45593999997E+02  0.45594000000E+02  0.51100000000E-03 0.  1.
         11   -1    0    0    0    0 -0.00000000000E+00 -0.00000000000E+00 -0.45593999997E+02  0.45594000000E+02  0.51100000000E-03 0. -1.
    9900012    2    1    2    0    0 -0.79378058497E+01 -0.40316944154E+02  0.13969846190E+02  0.47787293206E+02  0.20000101044E+02 0.  0.
        -12    1    1    2    0    0  0.79378058497E+01  0.40316944154E+02 -0.13969846190E+02  0.43400706794E+02  0.00000000000E+00 0.  1.
         11    1    3    3    0    0  0.26000808774E+01 -0.16322546270E+02  0.14464602504E+01  0.16591509419E+02  0.51100000000E-03 0. -1.
        -11    1    3    3    0    0 -0.11560732522E+02 -0.24729235703E+02  0.11763286775E+02  0.29724746439E+02  0.51100000000E-03 0.  1.
        -12    1    3    3    0    0  0.10228457946E+01  0.73483781810E+00  0.76009916442E+00  0.14710373477E+01  0.00000000000E+00 0.  1.
</event>
<event>
 7    1  0.2732193E-010  0.4778727E+02  0.7816164E-02  0.1312668E+00
        -11   -1    0    0    0    0  0.00000000000E+00  0.00000000000E+00  0.45593999997E+02  0.45594000000E+02  0.51100000000E-03 0.  1.
         11   -1    0    0    0    0 -0.00000000000E+00 -0.00000000000E+00 -0.45593999997E+02  0.45594000000E+02  0.51100000000E-03 0. -1.
    9900012    2    1    2    0    0  0.25862528267E+01 -0.14683798295E+02 -0.40759299800E+02  0.47787272400E+02  0.20000006180E+02 0.  0.
        -12    1    1    2    0    0 -0.25862528267E+01  0.14683798295E+02  0.40759299800E+02  0.43400727600E+02  0.00000000000E+00 0.  1.
         11    1    3    3    0    0  0.68334818388E+01 -0.74584553661E+01 -0.18455712230E+02  0.21046100462E+02  0.51100000000E-03 0. -1.
        -11    1    3    3    0    0 -0.24192788934E+01  0.31482534399E+01 -0.84641923738E+01  0.93491691015E+01  0.51100000000E-03 0.  1.
        -12    1    3    3    0    0 -0.18279501187E+01 -0.10373596369E+02 -0.13839395196E+02  0.17392002836E+02  0.00000000000E+00 0.  1.
</event>
<event>
 7    1  0.2732193E-010  0.4778728E+02  0.7816164E-02  0.1312668E+00
        -11   -1    0    0    0    0  0.00000000000E+00  0.00000000000E+00  0.45593999997E+02  0.45594000000E+02  0.51100000000E-03 0.  1.
         11   -1    0    0    0    0 -0.00000000000E+00 -0.00000000000E+00 -0.45593999997E+02  0.45594000000E+02  0.51100000000E-03 0. -1.
    9900012    2    1    2    0    0 -0.57920824708E+01  0.20978191002E+02 -0.37549833942E+02  0.47787277125E+02  0.20000027721E+02 0.  0.
        -12    1    1    2    0    0  0.57920824708E+01 -0.20978191002E+02  0.37549833942E+02  0.43400722875E+02  0.00000000000E+00 0.  1.
         11    1    3    3    0    0 -0.84976211318E+01  0.17599847624E+02 -0.25872019125E+02  0.32424151109E+02  0.51100000000E-03 0. -1.
        -11    1    3    3    0    0  0.79516936576E+00 -0.31053020740E+01 -0.33334684549E+01  0.46246305249E+01  0.51100000000E-03 0.  1.
         12    1    3    3    0    0  0.19103692952E+01  0.64836454518E+01 -0.83443463620E+01  0.10738495490E+02  0.00000000000E+00 0. -1.
</event>
<event>
 7    1  0.2732193E-010  0.4778727E+02  0.7816164E-02  0.1312668E+00
        -11   -1    0    0    0    0  0.00000000000E+00  0.00000000000E+00  0.45593999997E+02  0.45594000000E+02  0.51100000000E-03 0.  1.
         11   -1    0    0    0    0 -0.00000000000E+00 -0.00000000000E+00 -0.45593999997E+02  0.45594000000E+02  0.51100000000E-03 0. -1.
    9900012    2    1    2    0    0 -0.33001128550E+02 -0.65149150372E+01 -0.27424533324E+02  0.47787266924E+02  0.19999981214E+02 0.  0.
        -12    1    1    2    0    0  0.33001128550E+02  0.65149150372E+01  0.27424533324E+02  0.43400733076E+02  0.00000000000E+00 0.  1.
         11    1    3    3    0    0 -0.57194868982E+01  0.51942103596E+01 -0.14108243996E+01  0.78538383855E+01  0.51100000000E-03 0.  1.
        -11    1    3    3    0    0 -0.17444719098E+02 -0.43965488034E+01 -0.16595865637E+02  0.24475919232E+02  0.51100000000E-03 0. -1.
         12    1    3    3    0    0 -0.98369225539E+01 -0.73125765933E+01 -0.94178432874E+01  0.15457509306E+02  0.00000000000E+00 0. -1.
</event>
<event>
 7    1  0.2732193E-010  0.4778727E+02  0.7816164E-02  0.1312668E+00
        -11   -1    0    0    0    0  0.00000000000E+00  0.00000000000E+00  0.45593999997E+02  0.45594000000E+02  0.51100000000E-03 0.  1.
         11   -1    0    0    0    0 -0.00000000000E+00 -0.00000000000E+00 -0.45593999997E+02  0.45594000000E+02  0.51100000000E-03 0. -1.
    9900012    2    1    2    0    0  0.29135676346E+02  0.14384594136E+01 -0.32135126687E+02  0.47787272254E+02  0.20000005517E+02 0.  0.
        -12    1    1    2    0    0 -0.29135676346E+02 -0.14384594136E+01  0.32135126687E+02  0.43400727746E+02  0.00000000000E+00 0.  1.
         11    1    3    3    0    0  0.24469656750E+02 -0.33806621531E+01 -0.15225743473E+02  0.29017516135E+02  0.51100000000E-03 0. -1.
        -11    1    3    3    0    0 -0.27150092552E+00  0.10374453657E+01 -0.69193910124E+01  0.70019981350E+01  0.51100000000E-03 0.  1.
         12    1    3    3    0    0  0.49375205215E+01  0.37816762009E+01 -0.99899922019E+01  0.11767757985E+02  0.00000000000E+00 0. -1.
</event>
<event>
 7    1  0.2732193E-010  0.4778726E+02  0.7816164E-02  0.1312668E+00
        -11   -1    0    0    0    0  0.00000000000E+00  0.00000000000E+00  0.45593999997E+02  0.45594000000E+02  0.51100000000E-03 0.  1.
         11   -1    0    0    0    0 -0.00000000000E+00 -0.00000000000E+00 -0.45593999997E+02  0.45594000000E+02  0.51100000000E-03 0. -1.
    9900012    2    1    2    0    0  0.12950250574E+02 -0.72747372387E+01 -0.40779817743E+02  0.47787258912E+02  0.19999944684E+02 0.  0.
        -12    1    1    2    0    0 -0.12950250574E+02  0.72747372387E+01  0.40779817743E+02  0.43400741088E+02  0.00000000000E+00 0.  1.
         11    1    3    3    0    0  0.12713404879E+02 -0.77268888372E+01 -0.25891631802E+02  0.29861548392E+02  0.51100000000E-03 0. -1.
        -11    1    3    3    0    0 -0.92069429322E+00  0.21542565823E+01  0.50411911683E+00  0.23963797172E+01  0.51100000000E-03 0.  1.
         12    1    3    3    0    0  0.11575399881E+01 -0.17021049838E+01 -0.15392305057E+02  0.15529330803E+02  0.00000000000E+00 0. -1.
</event>
<event>
 7    1  0.2732193E-010  0.4778727E+02  0.7816164E-02  0.1312668E+00
        -11   -1    0    0    0    0  0.00000000000E+00  0.00000000000E+00  0.45593999997E+02  0.45594000000E+02  0.51100000000E-03 0.  1.
         11   -1    0    0    0    0 -0.00000000000E+00 -0.00000000000E+00 -0.45593999997E+02  0.45594000000E+02  0.51100000000E-03 0. -1.
    9900012    2    1    2    0    0 -0.40157145330E+02  0.16457151485E+02  0.43472264161E+00  0.47787272589E+02  0.20000007040E+02 0.  0.
        -12    1    1    2    0    0  0.40157145330E+02 -0.16457151485E+02 -0.43472264161E+00  0.43400727411E+02  0.00000000000E+00 0.  1.
         11    1    3    3    0    0 -0.31345367247E+00  0.57491154456E+01  0.62509098176E+00  0.57914869082E+01  0.51100000000E-03 0. -1.
        -11    1    3    3    0    0 -0.18004559891E+02  0.49737899140E+01 -0.39862188294E+01  0.19099547215E+02  0.51100000000E-03 0.  1.
         12    1    3    3    0    0 -0.21839131766E+02  0.57342461252E+01  0.37958504893E+01  0.22896238466E+02  0.00000000000E+00 0. -1.
</event>
<event>
 7    1  0.2732193E-010  0.4778727E+02  0.7816164E-02  0.1312668E+00
        -11   -1    0    0    0    0  0.00000000000E+00  0.00000000000E+00  0.45593999997E+02  0.45594000000E+02  0.51100000000E-03 0.  1.
         11   -1    0    0    0    0 -0.00000000000E+00 -0.00000000000E+00 -0.45593999997E+02  0.45594000000E+02  0.51100000000E-03 0. -1.
    9900012    2    1    2    0    0  0.33753239269E+02 -0.25147427967E+02 -0.10580583123E+02  0.47787273811E+02  0.20000012616E+02 0.  0.
        -12    1    1    2    0    0 -0.33753239269E+02  0.25147427967E+02  0.10580583123E+02  0.43400726189E+02  0.00000000000E+00 0.  1.
         11    1    3    3    0    0  0.42120007318E+01 -0.11141376673E+02 -0.49021836415E+01  0.12880319447E+02  0.51100000000E-03 0. -1.
        -11    1    3    3    0    0  0.92578983705E+00 -0.33027791132E+01  0.11195009418E+01  0.36081462433E+01  0.51100000000E-03 0.  1.
         12    1    3    3    0    0  0.28615448700E+02 -0.10703272181E+02 -0.67979004232E+01  0.31298808121E+02  0.00000000000E+00 0. -1.
</event>
<event>
 7    1  0.2732193E-010  0.4778727E+02  0.7816164E-02  0.1312668E+00
        -11   -1    0    0    0    0  0.00000000000E+00  0.00000000000E+00  0.45593999997E+02  0.45594000000E+02  0.51100000000E-03 0.  1.
         11   -1    0    0    0    0 -0.00000000000E+00 -0.00000000000E+00 -0.45593999997E+02  0.45594000000E+02  0.51100000000E-03 0. -1.
    9900012    2    1    2    0    0  0.36100620099E+02 -0.15275762962E+02 -0.18628467763E+02  0.47787268246E+02  0.19999987240E+02 0.  0.
        -12    1    1    2    0    0 -0.36100620099E+02  0.15275762962E+02  0.18628467763E+02  0.43400731754E+02  0.00000000000E+00 0.  1.
         11    1    3    3    0    0  0.27756804121E+02 -0.12468252288E+02 -0.20775333226E+02  0.36844429173E+02  0.51100000000E-03 0. -1.
        -11    1    3    3    0    0  0.81405444922E+01 -0.29212755757E+01  0.36748708057E+01  0.93971799663E+01  0.51100000000E-03 0.  1.
        -12    1    3    3    0    0  0.20327148553E+00  0.11376490115E+00 -0.15280053421E+01  0.15456591070E+01  0.00000000000E+00 0.  1.
</event>
<event>
 7    1  0.2732193E-010  0.4778729E+02  0.7816164E-02  0.1312668E+00
        -11   -1    0    0    0    0  0.00000000000E+00  0.00000000000E+00  0.45593999997E+02  0.45594000000E+02  0.51100000000E-03 0. -1.
         11   -1    0    0    0    0 -0.00000000000E+00 -0.00000000000E+00 -0.45593999997E+02  0.45594000000E+02  0.51100000000E-03 0.  1.
    9900012    2    1    2    0    0 -0.39287458498E+02 -0.13634751517E+02  0.12418170731E+02  0.47787287927E+02  0.20000076972E+02 0.  0.
        -12    1    1    2    0    0  0.39287458498E+02  0.13634751517E+02 -0.12418170731E+02  0.43400712073E+02  0.00000000000E+00 0.  1.
         11    1    3    3    0    0 -0.78659863984E+01 -0.94168299456E+01 -0.40681889116E+00  0.12276641646E+02  0.51100000000E-03 0. -1.
        -11    1    3    3    0    0 -0.56138520091E+01  0.10073396664E+01  0.60648846258E+01  0.83254365272E+01  0.51100000000E-03 0.  1.
         12    1    3    3    0    0 -0.25807620091E+02 -0.52252612378E+01  0.67601049960E+01  0.27185209753E+02  0.00000000000E+00 0. -1.
</event>
<event>
 7    1  0.2732193E-010  0.4778728E+02  0.7816164E-02  0.1312668E+00
        -11   -1    0    0    0    0  0.00000000000E+00  0.00000000000E+00  0.45593999997E+02  0.45594000000E+02  0.51100000000E-03 0.  1.
         11   -1    0    0    0    0 -0.00000000000E+00 -0.00000000000E+00 -0.45593999997E+02  0.45594000000E+02  0.51100000000E-03 0. -1.
    9900012    2    1    2    0    0 -0.84120329361E+01  0.17153989044E+02 -0.38969230994E+02  0.47787278779E+02  0.20000035264E+02 0.  0.
        -12    1    1    2    0    0  0.84120329361E+01 -0.17153989044E+02  0.38969230994E+02  0.43400721221E+02  0.00000000000E+00 0.  1.
         11    1    3    3    0    0  0.13056829251E+01  0.44150440508E+01 -0.92865493095E+01  0.10365202372E+02  0.51100000000E-03 0. -1.
        -11    1    3    3    0    0 -0.66780862714E+01  0.16124727496E+02 -0.18937849171E+02  0.25753559065E+02  0.51100000000E-03 0.  1.
        -12    1    3    3    0    0 -0.30396295897E+01 -0.33857825022E+01 -0.10744832514E+02  0.11668517341E+02  0.00000000000E+00 0.  1.
</event>
<event>
 7    1  0.2732193E-010  0.4778727E+02  0.7816164E-02  0.1312668E+00
        -11   -1    0    0    0    0  0.00000000000E+00  0.00000000000E+00  0.45593999997E+02  0.45594000000E+02  0.51100000000E-03 0.  1.
         11   -1    0    0    0    0 -0.00000000000E+00 -0.00000000000E+00 -0.45593999997E+02  0.45594000000E+02  0.51100000000E-03 0. -1.
    9900012    2    1    2    0    0  0.10284426900E+02 -0.99821542955E+01 -0.40965967554E+02  0.47787270298E+02  0.19999996595E+02 0.  0.
        -12    1    1    2    0    0 -0.10284426900E+02  0.99821542955E+01  0.40965967554E+02  0.43400729702E+02  0.00000000000E+00 0.  1.
         11    1    3    3    0    0  0.48155346425E+01  0.40077253305E+01 -0.93203446882E+01  0.11230318855E+02  0.51100000000E-03 0. -1.
        -11    1    3    3    0    0 -0.46271733868E+00 -0.86519050490E+01 -0.87643006621E+01  0.12324063237E+02  0.51100000000E-03 0.  1.
        -12    1    3    3    0    0  0.59316095959E+01 -0.53379745770E+01 -0.22881322204E+02  0.24232888206E+02  0.00000000000E+00 0.  1.
</event>
<event>
 7    1  0.2732193E-010  0.4778724E+02  0.7816164E-02  0.1312668E+00
        -11   -1    0    0    0    0  0.00000000000E+00  0.00000000000E+00  0.45593999997E+02  0.45594000000E+02  0.51100000000E-03 0.  1.
         11   -1    0    0    0    0 -0.00000000000E+00 -0.00000000000E+00 -0.45593999997E+02  0.45594000000E+02  0.51100000000E-03 0. -1.
    9900012    2    1    2    0    0  0.78827206433E+01  0.18743017437E+02 -0.38343032384E+02  0.47787238258E+02  0.19999850514E+02 0.  0.
        -12    1    1    2    0    0 -0.78827206433E+01 -0.18743017437E+02  0.38343032384E+02  0.43400761742E+02  0.00000000000E+00 0.  1.
         11    1    3    3    0    0  0.84338701460E+01  0.19941783339E+02 -0.37084720082E+02  0.42942768334E+02  0.51100000000E-03 0. -1.
        -11    1    3    3    0    0 -0.10157458907E+01 -0.39703358440E+00  0.15454781801E+01  0.18915280722E+01  0.51100000000E-03 0.  1.
         12    1    3    3    0    0  0.46459638800E+00 -0.80173231774E+00 -0.28037904822E+01  0.29529418520E+01  0.00000000000E+00 0. -1.
</event>
<event>
 7    1  0.2732193E-010  0.4778727E+02  0.7816164E-02  0.1312668E+00
        -11   -1    0    0    0    0  0.00000000000E+00  0.00000000000E+00  0.45593999997E+02  0.45594000000E+02  0.51100000000E-03 0.  1.
         11   -1    0    0    0    0 -0.00000000000E+00 -0.00000000000E+00 -0.45593999997E+02  0.45594000000E+02  0.51100000000E-03 0. -1.
    9900012    2    1    2    0    0  0.81737015433E+01 -0.38591840530E+02 -0.18096510620E+02  0.47787271330E+02  0.20000001304E+02 0.  0.
        -12    1    1    2    0    0 -0.81737015433E+01  0.38591840530E+02  0.18096510620E+02  0.43400728670E+02  0.00000000000E+00 0.  1.
         11    1    3    3    0    0  0.39137271084E+01 -0.16983529831E+02 -0.40544894028E+01  0.17894033362E+02  0.51100000000E-03 0. -1.
        -11    1    3    3    0    0 -0.25584101284E+01 -0.10405260252E+01 -0.63075133274E+01  0.68857012301E+01  0.51100000000E-03 0.  1.
        -12    1    3    3    0    0  0.68183845634E+01 -0.20567784674E+02 -0.77345078902E+01  0.23007536738E+02  0.00000000000E+00 0.  1.
</event>
<event>
 7    1  0.2732193E-010  0.4778728E+02  0.7816164E-02  0.1312668E+00
        -11   -1    0    0    0    0  0.00000000000E+00  0.00000000000E+00  0.45593999997E+02  0.45594000000E+02  0.51100000000E-03 0. -1.
         11   -1    0    0    0    0 -0.00000000000E+00 -0.00000000000E+00 -0.45593999997E+02  0.45594000000E+02  0.51100000000E-03 0.  1.
    9900012    2    1    2    0    0 -0.73904719608E+01  0.37712422468E+02  0.20168713738E+02  0.47787275374E+02  0.20000019741E+02 0.  0.
        -12    1    1    2    0    0  0.73904719608E+01 -0.37712422468E+02 -0.20168713738E+02  0.43400724626E+02  0.00000000000E+00 0.  1.
         11    1    3    3    0    0 -0.11061947092E+02  0.26574953125E+02  0.16585944969E+02  0.33221805758E+02  0.51100000000E-03 0. -1.
        -11    1    3    3    0    0  0.52966109976E+01  0.66429621509E+01 -0.15603880791E+00  0.84974927226E+01  0.51100000000E-03 0.  1.
        -12    1    3    3    0    0 -0.16251358664E+01  0.44945071921E+01  0.37388075771E+01  0.60679768937E+01  0.00000000000E+00 0.  1.
</event>
<event>
 7    1  0.2732193E-010  0.4778727E+02  0.7816164E-02  0.1312668E+00
        -11   -1    0    0    0    0  0.00000000000E+00  0.00000000000E+00  0.45593999997E+02  0.45594000000E+02  0.51100000000E-03 0.  1.
         11   -1    0    0    0    0 -0.00000000000E+00 -0.00000000000E+00 -0.45593999997E+02  0.45594000000E+02  0.51100000000E-03 0. -1.
    9900012    2    1    2    0    0  0.16217821787E+02 -0.61409130069E+01 -0.39785608410E+02  0.47787271980E+02  0.20000004266E+02 0.  0.
        -12    1    1    2    0    0 -0.16217821787E+02  0.61409130069E+01  0.39785608410E+02  0.43400728020E+02  0.00000000000E+00 0.  1.
         11    1    3    3    0    0  0.13168841383E+02  0.16434812105E+01 -0.23771014127E+02  0.27224630884E+02  0.51100000000E-03 0. -1.
        -11    1    3    3    0    0  0.15775904975E+01 -0.99538848760E+01 -0.11099851858E+02  0.14992509044E+02  0.51100000000E-03 0.  1.
        -12    1    3    3    0    0  0.14713899069E+01  0.21694906585E+01 -0.49147424255E+01  0.55701320527E+01  0.00000000000E+00 0.  1.
</event>
<event>
 7    1  0.2732193E-010  0.4778727E+02  0.7816164E-02  0.1312668E+00
        -11   -1    0    0    0    0  0.00000000000E+00  0.00000000000E+00  0.45593999997E+02  0.45594000000E+02  0.51100000000E-03 0.  1.
         11   -1    0    0    0    0 -0.00000000000E+00 -0.00000000000E+00 -0.45593999997E+02  0.45594000000E+02  0.51100000000E-03 0. -1.
    9900012    2    1    2    0    0  0.28275969464E+02 -0.22657428754E+02 -0.23890030716E+02  0.47787273111E+02  0.20000009422E+02 0.  0.
        -12    1    1    2    0    0 -0.28275969464E+02  0.22657428754E+02  0.23890030716E+02  0.43400726889E+02  0.00000000000E+00 0.  1.
         11    1    3    3    0    0  0.18583917612E+02 -0.10561213686E+02 -0.27712423509E+01  0.21554141430E+02  0.51100000000E-03 0. -1.
        -11    1    3    3    0    0  0.33257333157E+01 -0.48903870651E+01 -0.88769034469E+01  0.10666574089E+02  0.51100000000E-03 0.  1.
         12    1    3    3    0    0  0.63663185364E+01 -0.72058280021E+01 -0.12241884918E+02  0.15566557592E+02  0.00000000000E+00 0. -1.
</event>
<event>
 7    1  0.2732193E-010  0.4778727E+02  0.7816164E-02  0.1312668E+00
        -11   -1    0    0    0    0  0.00000000000E+00  0.00000000000E+00  0.45593999997E+02  0.45594000000E+02  0.51100000000E-03 0. -1.
         11   -1    0    0    0    0 -0.00000000000E+00 -0.00000000000E+00 -0.45593999997E+02  0.45594000000E+02  0.51100000000E-03 0.  1.
    9900012    2    1    2    0    0  0.63573570956E+01 -0.30507977272E+02  0.30207135559E+02  0.47787266076E+02  0.19999977347E+02 0.  0.
        -12    1    1    2    0    0 -0.63573570956E+01  0.30507977272E+02 -0.30207135559E+02  0.43400733924E+02  0.00000000000E+00 0.  1.
         11    1    3    3    0    0  0.71039352768E+01 -0.71144979052E+01  0.45229027497E+01  0.11024455833E+02  0.51100000000E-03 0. -1.
        -11    1    3    3    0    0 -0.28220168678E+01 -0.50369721643E+01  0.13364171142E+02  0.14558019727E+02  0.51100000000E-03 0.  1.
        -12    1    3    3    0    0  0.20754386866E+01 -0.18356507202E+02  0.12320061667E+02  0.22204790517E+02  0.00000000000E+00 0.  1.
</event>
<event>
 7    1  0.2732193E-010  0.4778727E+02  0.7816164E-02  0.1312668E+00
        -11   -1    0    0    0    0  0.00000000000E+00  0.00000000000E+00  0.45593999997E+02  0.45594000000E+02  0.51100000000E-03 0.  1.
         11   -1    0    0    0    0 -0.00000000000E+00 -0.00000000000E+00 -0.45593999997E+02  0.45594000000E+02  0.51100000000E-03 0. -1.
    9900012    2    1    2    0    0 -0.20745660353E+02 -0.23277542911E+02 -0.30189347027E+02  0.47787273032E+02  0.20000009062E+02 0.  0.
        -12    1    1    2    0    0  0.20745660353E+02  0.23277542911E+02  0.30189347027E+02  0.43400726968E+02  0.00000000000E+00 0.  1.
         11    1    3    3    0    0 -0.24982947237E+01 -0.24655622518E+01 -0.14805144000E+02  0.15215543463E+02  0.51100000000E-03 0. -1.
        -11    1    3    3    0    0 -0.16696842804E+02 -0.17609481056E+02 -0.15848180407E+02  0.28983498843E+02  0.51100000000E-03 0.  1.
        -12    1    3    3    0    0 -0.15505228247E+01 -0.32024996025E+01  0.46397738026E+00  0.35882307261E+01  0.00000000000E+00 0.  1.
</event>
<event>
 7    1  0.2732193E-010  0.4778727E+02  0.7816164E-02  0.1312668E+00
        -11   -1    0    0    0    0  0.00000000000E+00  0.00000000000E+00  0.45593999997E+02  0.45594000000E+02  0.51100000000E-03 0.  1.
         11   -1    0    0    0    0 -0.00000000000E+00 -0.00000000000E+00 -0.45593999997E+02  0.45594000000E+02  0.51100000000E-03 0. -1.
    9900012    2    1    2    0    0  0.33628516696E+02 -0.19209814958E+02 -0.19589003141E+02  0.47787272242E+02  0.20000005458E+02 0.  0.
        -12    1    1    2    0    0 -0.33628516696E+02  0.19209814958E+02  0.19589003141E+02  0.43400727758E+02  0.00000000000E+00 0.  1.
         11    1    3    3    0    0  0.33632517076E+02 -0.15608330131E+02 -0.14726548021E+02  0.39895330444E+02  0.51100000000E-03 0. -1.
        -11    1    3    3    0    0 -0.14314747650E-01 -0.38755354427E+01 -0.57661497838E+01  0.69475508972E+01  0.51100000000E-03 0.  1.
         12    1    3    3    0    0  0.10314367398E-01  0.27405061507E+00  0.90369466454E+00  0.94439090027E+00  0.00000000000E+00 0. -1.
</event>
<event>
 7    1  0.2732193E-010  0.4778727E+02  0.7816164E-02  0.1312668E+00
        -11   -1    0    0    0    0  0.00000000000E+00  0.00000000000E+00  0.45593999997E+02  0.45594000000E+02  0.51100000000E-03 0. -1.
         11   -1    0    0    0    0 -0.00000000000E+00 -0.00000000000E+00 -0.45593999997E+02  0.45594000000E+02  0.51100000000E-03 0.  1.
    9900012    2    1    2    0    0  0.26905344615E+02 -0.31189044191E+02  0.13673675671E+02  0.47787268984E+02  0.19999990605E+02 0.  0.
        -12    1    1    2    0    0 -0.26905344615E+02  0.31189044191E+02 -0.13673675671E+02  0.43400731016E+02  0.00000000000E+00 0.  1.
         11    1    3    3    0    0  0.10522254817E+02 -0.22996578202E+02  0.11845783362E+02  0.27926386074E+02  0.51100000000E-03 0. -1.
        -11    1    3    3    0    0  0.75096423818E+01 -0.42615216133E+01 -0.28425413984E+01  0.90903980675E+01  0.51100000000E-03 0.  1.
        -12    1    3    3    0    0  0.88734474160E+01 -0.39309443756E+01  0.46704337069E+01  0.10770484842E+02  0.00000000000E+00 0.  1.
</event>
<event>
 7    1  0.2732193E-010  0.4778727E+02  0.7816164E-02  0.1312668E+00
        -11   -1    0    0    0    0  0.00000000000E+00  0.00000000000E+00  0.45593999997E+02  0.45594000000E+02  0.51100000000E-03 0. -1.
         11   -1    0    0    0    0 -0.00000000000E+00 -0.00000000000E+00 -0.45593999997E+02  0.45594000000E+02  0.51100000000E-03 0.  1.
    9900012    2    1    2    0    0 -0.19138581742E+02 -0.33225315269E+02 -0.20332640952E+02  0.47787272196E+02  0.20000005251E+02 0.  0.
        -12    1    1    2    0    0  0.19138581742E+02  0.33225315269E+02  0.20332640952E+02  0.43400727804E+02  0.00000000000E+00 0.  1.
         11    1    3    3    0    0 -0.10237949952E+02 -0.16737427373E+02 -0.42837027725E+01  0.20082509902E+02  0.51100000000E-03 0. -1.
        -11    1    3    3    0    0 -0.69832355707E+00 -0.29937835087E+01 -0.10541355523E+02  0.10980463197E+02  0.51100000000E-03 0.  1.
        -12    1    3    3    0    0 -0.82023082331E+01 -0.13494104387E+02 -0.55075826563E+01  0.16724299097E+02  0.00000000000E+00 0.  1.
</event>
<event>
 7    1  0.2732193E-010  0.4778727E+02  0.7816164E-02  0.1312668E+00
        -11   -1    0    0    0    0  0.00000000000E+00  0.00000000000E+00  0.45593999997E+02  0.45594000000E+02  0.51100000000E-03 0.  1.
         11   -1    0    0    0    0 -0.00000000000E+00 -0.00000000000E+00 -0.45593999997E+02  0.45594000000E+02  0.51100000000E-03 0. -1.
    9900012    2    1    2    0    0  0.29184559733E+02  0.10400356894E+01 -0.32106118788E+02  0.47787273454E+02  0.20000010987E+02 0.  0.
        -12    1    1    2    0    0 -0.29184559733E+02 -0.10400356894E+01  0.32106118788E+02  0.43400726546E+02  0.00000000000E+00 0.  1.
         11    1    3    3    0    0  0.22405587494E+02  0.18352902650E+01 -0.27802760469E+02  0.35754330245E+02  0.51100000000E-03 0. -1.
        -11    1    3    3    0    0  0.22599329858E+01  0.29266723667E+00  0.27588859871E+01  0.35783240997E+01  0.51100000000E-03 0.  1.
        -12    1    3    3    0    0  0.45190392533E+01 -0.10879218123E+01 -0.70622443065E+01  0.84546191095E+01  0.00000000000E+00 0.  1.
</event>
<event>
 7    1  0.2732193E-010  0.4778728E+02  0.7816164E-02  0.1312668E+00
        -11   -1    0    0    0    0  0.00000000000E+00  0.00000000000E+00  0.45593999997E+02  0.45594000000E+02  0.51100000000E-03 0.  1.
         11   -1    0    0    0    0 -0.00000000000E+00 -0.00000000000E+00 -0.45593999997E+02  0.45594000000E+02  0.51100000000E-03 0. -1.
    9900012    2    1    2    0    0  0.17364421157E+02  0.35235551752E+02 -0.18454137817E+02  0.47787280744E+02  0.20000044223E+02 0.  0.
        -12    1    1    2    0    0 -0.17364421157E+02 -0.35235551752E+02  0.18454137817E+02  0.43400719256E+02  0.00000000000E+00 0.  1.
         11    1    3    3    0    0  0.18597483907E+02  0.23311812499E+02 -0.16979143096E+02  0.34316152322E+02  0.51100000000E-03 0. -1.
        -11    1    3    3    0    0  0.38146919482E+00  0.73777381205E+01  0.18455198402E+01  0.76146229232E+01  0.51100000000E-03 0.  1.
         12    1    3    3    0    0 -0.16145319455E+01  0.45460011327E+01 -0.33205145609E+01  0.58565054982E+01  0.00000000000E+00 0. -1.
</event>
<event>
 7    1  0.2732193E-010  0.4778727E+02  0.7816164E-02  0.1312668E+00
        -11   -1    0    0    0    0  0.00000000000E+00  0.00000000000E+00  0.45593999997E+02  0.45594000000E+02  0.51100000000E-03 0.  1.
         11   -1    0    0    0    0 -0.00000000000E+00 -0.00000000000E+00 -0.45593999997E+02  0.45594000000E+02  0.51100000000E-03 0. -1.
    9900012    2    1    2    0    0  0.29103012510E+02  0.23157007069E+02 -0.22369419531E+02  0.47787271392E+02  0.20000001585E+02 0.  0.
        -12    1    1    2    0    0 -0.29103012510E+02 -0.23157007069E+02  0.22369419531E+02  0.43400728608E+02  0.00000000000E+00 0.  1.
         11    1    3    3    0    0  0.16222713956E+02  0.19633115878E+02 -0.21490340569E+02  0.33323721660E+02  0.51100000000E-03 0.  1.
        -11    1    3    3    0    0  0.10585018411E+02  0.77887961533E+00 -0.18085397712E+01  0.10766618995E+02  0.51100000000E-03 0. -1.
         12    1    3    3    0    0  0.22952801425E+01  0.27450115752E+01  0.92946080959E+00  0.36969307374E+01  0.00000000000E+00 0. -1.
</event>
<event>
 7    1  0.2732193E-010  0.4778725E+02  0.7816164E-02  0.1312668E+00
        -11   -1    0    0    0    0  0.00000000000E+00  0.00000000000E+00  0.45593999997E+02  0.45594000000E+02  0.51100000000E-03 0.  1.
         11   -1    0    0    0    0 -0.00000000000E+00 -0.00000000000E+00 -0.45593999997E+02  0.45594000000E+02  0.51100000000E-03 0. -1.
    9900012    2    1    2    0    0  0.19065274226E+02  0.21232236279E+02 -0.32700650776E+02  0.47787250008E+02  0.19999904084E+02 0.  0.
        -12    1    1    2    0    0 -0.19065274226E+02 -0.21232236279E+02  0.32700650776E+02  0.43400749992E+02  0.00000000000E+00 0.  1.
         11    1    3    3    0    0  0.19756948433E+02  0.19137569951E+02 -0.19826913590E+02  0.33907080349E+02  0.51100000000E-03 0. -1.
        -11    1    3    3    0    0  0.25469205705E+00  0.77968824338E+00 -0.12021730913E+02  0.12049680336E+02  0.51100000000E-03 0.  1.
         12    1    3    3    0    0 -0.94636626478E+00  0.13149780844E+01 -0.85200627420E+00  0.18304893228E+01  0.00000000000E+00 0. -1.
</event>
<event>
 7    1  0.2732193E-010  0.4778727E+02  0.7816164E-02  0.1312668E+00
        -11   -1    0    0    0    0  0.00000000000E+00  0.00000000000E+00  0.45593999997E+02  0.45594000000E+02  0.51100000000E-03 0.  1.
         11   -1    0    0    0    0 -0.00000000000E+00 -0.00000000000E+00 -0.45593999997E+02  0.45594000000E+02  0.51100000000E-03 0. -1.
    9900012    2    1    2    0    0 -0.95199658337E+01 -0.18920990221E+02 -0.37881258259E+02  0.47787270194E+02  0.19999996124E+02 0.  0.
        -12    1    1    2    0    0  0.95199658337E+01  0.18920990221E+02  0.37881258259E+02  0.43400729806E+02  0.00000000000E+00 0.  1.
         11    1    3    3    0    0 -0.11517003490E+02 -0.26096708014E+01 -0.15385973718E+02  0.19395358688E+02  0.51100000000E-03 0. -1.
        -11    1    3    3    0    0  0.35902613136E+01 -0.10397241641E+02 -0.12324367831E+02  0.16519160171E+02  0.51100000000E-03 0.  1.
         12    1    3    3    0    0 -0.15932236568E+01 -0.59140777778E+01 -0.10170916709E+02  0.11872751336E+02  0.00000000000E+00 0. -1.
</event>
<event>
 7    1  0.2732193E-010  0.4778727E+02  0.7816164E-02  0.1312668E+00
        -11   -1    0    0    0    0  0.00000000000E+00  0.00000000000E+00  0.45593999997E+02  0.45594000000E+02  0.51100000000E-03 0.  1.
         11   -1    0    0    0    0 -0.00000000000E+00 -0.00000000000E+00 -0.45593999997E+02  0.45594000000E+02  0.51100000000E-03 0. -1.
    9900012    2    1    2    0    0  0.31626463328E+02 -0.27748793559E+02 -0.10648687015E+02  0.47787271184E+02  0.20000000636E+02 0.  0.
        -12    1    1    2    0    0 -0.31626463328E+02  0.27748793559E+02  0.10648687015E+02  0.43400728816E+02  0.00000000000E+00 0.  1.
         11    1    3    3    0    0  0.25710767418E+02 -0.18880146167E+02 -0.12980455987E+02  0.34438288552E+02  0.51100000000E-03 0. -1.
        -11    1    3    3    0    0  0.65484377821E+01 -0.74856749017E+01  0.43219756203E+01  0.10844207654E+02  0.51100000000E-03 0.  1.
        -12    1    3    3    0    0 -0.63274187217E+00 -0.13829724900E+01 -0.19902066484E+01  0.25047749776E+01  0.00000000000E+00 0.  1.
</event>
<event>
 7    1  0.2732193E-010  0.4778727E+02  0.7816164E-02  0.1312668E+00
        -11   -1    0    0    0    0  0.00000000000E+00  0.00000000000E+00  0.45593999997E+02  0.45594000000E+02  0.51100000000E-03 0.  1.
         11   -1    0    0    0    0 -0.00000000000E+00 -0.00000000000E+00 -0.45593999997E+02  0.45594000000E+02  0.51100000000E-03 0. -1.
    9900012    2    1    2    0    0  0.10236352402E+02 -0.39432232731E+02 -0.14964616044E+02  0.47787267034E+02  0.19999981714E+02 0.  0.
        -12    1    1    2    0    0 -0.10236352402E+02  0.39432232731E+02  0.14964616044E+02  0.43400732966E+02  0.00000000000E+00 0.  1.
         11    1    3    3    0    0  0.14365265986E+01 -0.31964583481E+01 -0.89814579207E+01  0.96409305195E+01  0.51100000000E-03 0. -1.
        -11    1    3    3    0    0  0.99838968413E+00 -0.44841373196E+01  0.10268487444E+01  0.47073015696E+01  0.51100000000E-03 0.  1.
         12    1    3    3    0    0  0.78014361188E+01 -0.31751637064E+02 -0.70100068672E+01  0.33439034945E+02  0.00000000000E+00 0. -1.
</event>
<event>
 7    1  0.2732193E-010  0.4778728E+02  0.7816164E-02  0.1312668E+00
        -11   -1    0    0    0    0  0.00000000000E+00  0.00000000000E+00  0.45593999997E+02  0.45594000000E+02  0.51100000000E-03 0.  1.
         11   -1    0    0    0    0 -0.00000000000E+00 -0.00000000000E+00 -0.45593999997E+02  0.45594000000E+02  0.51100000000E-03 0. -1.
    9900012    2    1    2    0    0 -0.33489264275E+01  0.42078404738E+02 -0.10090360320E+02  0.47787276217E+02  0.20000023582E+02 0.  0.
        -12    1    1    2    0    0  0.33489264275E+01 -0.42078404738E+02  0.10090360320E+02  0.43400723783E+02  0.00000000000E+00 0.  1.
         11    1    3    3    0    0  0.36801155649E+01  0.46399502701E+01 -0.10163600930E+01  0.60087750149E+01  0.51100000000E-03 0. -1.
        -11    1    3    3    0    0 -0.94334222485E+01  0.15472977645E+02 -0.75423772285E+01  0.19628804015E+02  0.51100000000E-03 0.  1.
        -12    1    3    3    0    0  0.24043802562E+01  0.21965476823E+02 -0.15316229986E+01  0.22149697187E+02  0.00000000000E+00 0.  1.
</event>
<event>
 7    1  0.2732193E-010  0.4778725E+02  0.7816164E-02  0.1312668E+00
        -11   -1    0    0    0    0  0.00000000000E+00  0.00000000000E+00  0.45593999997E+02  0.45594000000E+02  0.51100000000E-03 0.  1.
         11   -1    0    0    0    0 -0.00000000000E+00 -0.00000000000E+00 -0.45593999997E+02  0.45594000000E+02  0.51100000000E-03 0. -1.
    9900012    2    1    2    0    0  0.17449167055E+02 -0.39737115954E+02  0.33654118473E+00  0.47787250292E+02  0.19999905381E+02 0.  0.
        -12    1    1    2    0    0 -0.17449167055E+02  0.39737115954E+02 -0.33654118473E+00  0.43400749708E+02  0.00000000000E+00 0.  1.
         11    1    3    3    0    0  0.18654535942E+02 -0.27611681486E+02 -0.84519609272E+00  0.33333332003E+02  0.51100000000E-03 0. -1.
        -11    1    3    3    0    0  0.23424935327E+01 -0.47167009855E+01 -0.20159883294E+01  0.56390383350E+01  0.51100000000E-03 0.  1.
         12    1    3    3    0    0 -0.35478624191E+01 -0.74087334820E+01  0.31977256069E+01  0.88148799543E+01  0.00000000000E+00 0. -1.
</event>
<event>
 7    1  0.2732193E-010  0.4778727E+02  0.7816164E-02  0.1312668E+00
        -11   -1    0    0    0    0  0.00000000000E+00  0.00000000000E+00  0.45593999997E+02  0.45594000000E+02  0.51100000000E-03 0.  1.
         11   -1    0    0    0    0 -0.00000000000E+00 -0.00000000000E+00 -0.45593999997E+02  0.45594000000E+02  0.51100000000E-03 0. -1.
    9900012    2    1    2    0    0  0.39753329827E+02 -0.16494891985E+02  0.55870133058E+01  0.47787269457E+02  0.19999992764E+02 0.  0.
        -12    1    1    2    0    0 -0.39753329827E+02  0.16494891985E+02 -0.55870133058E+01  0.43400730543E+02  0.00000000000E+00 0.  1.
         11    1    3    3    0    0  0.72236524692E+01 -0.55037790852E+01 -0.56638076328E+01  0.10702871408E+02  0.51100000000E-03 0. -1.
        -11    1    3    3    0    0  0.21226416556E+02 -0.28938465263E+01  0.64023151069E+01  0.22358996992E+02  0.51100000000E-03 0.  1.
         12    1    3    3    0    0  0.11303260803E+02 -0.80972663733E+01  0.48485058317E+01  0.14725401057E+02  0.00000000000E+00 0. -1.
</event>
<event>
 7    1  0.2732193E-010  0.4778727E+02  0.7816164E-02  0.1312668E+00
        -11   -1    0    0    0    0  0.00000000000E+00  0.00000000000E+00  0.45593999997E+02  0.45594000000E+02  0.51100000000E-03 0.  1.
         11   -1    0    0    0    0 -0.00000000000E+00 -0.00000000000E+00 -0.45593999997E+02  0.45594000000E+02  0.51100000000E-03 0. -1.
    9900012    2    1    2    0    0 -0.28848565933E+02  0.13739970541E+02 -0.29369995287E+02  0.47787272241E+02  0.20000005457E+02 0.  0.
        -12    1    1    2    0    0  0.28848565933E+02 -0.13739970541E+02  0.29369995287E+02  0.43400727759E+02  0.00000000000E+00 0.  1.
         11    1    3    3    0    0 -0.64801954438E+01 -0.18941260573E+01 -0.59967266733E+01  0.90300264432E+01  0.51100000000E-03 0. -1.
        -11    1    3    3    0    0  0.20880297348E+01  0.16006432716E+01 -0.28746127409E+01  0.38968353478E+01  0.51100000000E-03 0.  1.
         12    1    3    3    0    0 -0.24456400224E+02  0.14033453326E+02 -0.20498655873E+02  0.34860410450E+02  0.00000000000E+00 0. -1.
</event>
<event>
 7    1  0.2732193E-010  0.4778728E+02  0.7816164E-02  0.1312668E+00
        -11   -1    0    0    0    0  0.00000000000E+00  0.00000000000E+00  0.45593999997E+02  0.45594000000E+02  0.51100000000E-03 0.  1.
         11   -1    0    0    0    0 -0.00000000000E+00 -0.00000000000E+00 -0.45593999997E+02  0.45594000000E+02  0.51100000000E-03 0. -1.
    9900012    2    1    2    0    0  0.17538825033E+01  0.77139212116E+01 -0.42673662385E+02  0.47787284043E+02  0.20000059264E+02 0.  0.
        -12    1    1    2    0    0 -0.17538825033E+01 -0.77139212116E+01  0.42673662385E+02  0.43400715957E+02  0.00000000000E+00 0.  1.
         11    1    3    3    0    0  0.57271530238E+01 -0.44129323689E+01 -0.19249011521E+02  0.20562069416E+02  0.51100000000E-03 0. -1.
        -11    1    3    3    0    0  0.13495924969E+01  0.23206600764E+01 -0.53089804775E+01  0.59491291018E+01  0.51100000000E-03 0.  1.
         12    1    3    3    0    0 -0.53228630174E+01  0.98061935042E+01 -0.18115670386E+02  0.21276085525E+02  0.00000000000E+00 0. -1.
</event>
<event>
 7    1  0.2732193E-010  0.4778727E+02  0.7816164E-02  0.1312668E+00
        -11   -1    0    0    0    0  0.00000000000E+00  0.00000000000E+00  0.45593999997E+02  0.45594000000E+02  0.51100000000E-03 0. -1.
         11   -1    0    0    0    0 -0.00000000000E+00 -0.00000000000E+00 -0.45593999997E+02  0.45594000000E+02  0.51100000000E-03 0.  1.
    9900012    2    1    2    0    0 -0.34378962168E+02 -0.26367411206E+02 -0.25435704236E+01  0.47787272311E+02  0.20000005776E+02 0.  0.
        -12    1    1    2    0    0  0.34378962168E+02  0.26367411206E+02  0.25435704236E+01  0.43400727689E+02  0.00000000000E+00 0.  1.
         11    1    3    3    0    0 -0.14845453880E+02 -0.44444017756E+01  0.19255485044E+00  0.15497654199E+02  0.51100000000E-03 0. -1.
        -11    1    3    3    0    0 -0.18305482378E+02 -0.22308508911E+02  0.44176576282E+00  0.28860966931E+02  0.51100000000E-03 0.  1.
        -12    1    3    3    0    0 -0.12280259099E+01  0.38549948089E+00 -0.31778910368E+01  0.34286511819E+01  0.00000000000E+00 0.  1.
</event>
<event>
 7    1  0.2732193E-010  0.4778727E+02  0.7816164E-02  0.1312668E+00
        -11   -1    0    0    0    0  0.00000000000E+00  0.00000000000E+00  0.45593999997E+02  0.45594000000E+02  0.51100000000E-03 0. -1.
         11   -1    0    0    0    0 -0.00000000000E+00 -0.00000000000E+00 -0.45593999997E+02  0.45594000000E+02  0.51100000000E-03 0.  1.
    9900012    2    1    2    0    0 -0.97521431757E+01  0.42227866147E+02 -0.23078902553E+01  0.47787270360E+02  0.19999996878E+02 0.  0.
        -12    1    1    2    0    0  0.97521431757E+01 -0.42227866147E+02  0.23078902553E+01  0.43400729640E+02  0.00000000000E+00 0.  1.
         11    1    3    3    0    0  0.35999733835E+01  0.18232110984E+01  0.14826339567E+00  0.40380551466E+01  0.51100000000E-03 0. -1.
        -11    1    3    3    0    0  0.15622639312E+01  0.31826135120E+01 -0.68710420057E+00  0.36113445974E+01  0.51100000000E-03 0.  1.
         12    1    3    3    0    0 -0.14914380490E+02  0.37222041537E+02 -0.17690494504E+01  0.40137870616E+02  0.00000000000E+00 0. -1.
</event>
<event>
 7    1  0.2732193E-010  0.4778727E+02  0.7816164E-02  0.1312668E+00
        -11   -1    0    0    0    0  0.00000000000E+00  0.00000000000E+00  0.45593999997E+02  0.45594000000E+02  0.51100000000E-03 0. -1.
         11   -1    0    0    0    0 -0.00000000000E+00 -0.00000000000E+00 -0.45593999997E+02  0.45594000000E+02  0.51100000000E-03 0.  1.
    9900012    2    1    2    0    0 -0.29724069505E+02  0.19943310748E+02  0.24543172667E+02  0.47787271018E+02  0.19999999882E+02 0.  0.
        -12    1    1    2    0    0  0.29724069505E+02 -0.19943310748E+02 -0.24543172667E+02  0.43400728982E+02  0.00000000000E+00 0.  1.
         11    1    3    3    0    0 -0.22858684307E+02  0.93202680548E+01  0.14133343309E+02  0.28445355301E+02  0.51100000000E-03 0. -1.
        -11    1    3    3    0    0 -0.32364615000E+01  0.11949008077E+02  0.86124830177E+01  0.15080727471E+02  0.51100000000E-03 0.  1.
        -12    1    3    3    0    0 -0.36289236986E+01 -0.13259653831E+01  0.17973463407E+01  0.42611882470E+01  0.00000000000E+00 0.  1.
</event>
<event>
 7    1  0.2732193E-010  0.4778727E+02  0.7816164E-02  0.1312668E+00
        -11   -1    0    0    0    0  0.00000000000E+00  0.00000000000E+00  0.45593999997E+02  0.45594000000E+02  0.51100000000E-03 0. -1.
         11   -1    0    0    0    0 -0.00000000000E+00 -0.00000000000E+00 -0.45593999997E+02  0.45594000000E+02  0.51100000000E-03 0.  1.
    9900012    2    1    2    0    0  0.10386583097E+02  0.23946989048E+02  0.34673965268E+02  0.47787271201E+02  0.20000000713E+02 0.  0.
        -12    1    1    2    0    0 -0.10386583097E+02 -0.23946989048E+02 -0.34673965268E+02  0.43400728799E+02  0.00000000000E+00 0.  1.
         11    1    3    3    0    0  0.71719277623E+01  0.57703141194E+01  0.27184058851E+01  0.95980624962E+01  0.51100000000E-03 0. -1.
        -11    1    3    3    0    0 -0.26635883932E+01  0.99048923675E+01  0.11883126021E+02  0.15697460949E+02  0.51100000000E-03 0.  1.
         12    1    3    3    0    0  0.58782437284E+01  0.82717825615E+01  0.20072433361E+02  0.22491747756E+02  0.00000000000E+00 0. -1.
</event>
<event>
 7    1  0.2732193E-010  0.4778727E+02  0.7816164E-02  0.1312668E+00
        -11   -1    0    0    0    0  0.00000000000E+00  0.00000000000E+00  0.45593999997E+02  0.45594000000E+02  0.51100000000E-03 0. -1.
         11   -1    0    0    0    0 -0.00000000000E+00 -0.00000000000E+00 -0.45593999997E+02  0.45594000000E+02  0.51100000000E-03 0.  1.
    9900012    2    1    2    0    0 -0.29131698442E+02 -0.31535829266E+02  0.63607428619E+01  0.47787269230E+02  0.19999991725E+02 0.  0.
        -12    1    1    2    0    0  0.29131698442E+02  0.31535829266E+02 -0.63607428619E+01  0.43400730770E+02  0.00000000000E+00 0.  1.
         11    1    3    3    0    0 -0.75129384697E+00 -0.75615336489E+00 -0.33689714267E+01  0.35335787936E+01  0.51100000000E-03 0.  1.
        -11    1    3    3    0    0 -0.20331016863E+02 -0.26559211841E+02  0.10690040595E+02  0.35114369544E+02  0.51100000000E-03 0. -1.
        -12    1    3    3    0    0 -0.80493877322E+01 -0.42204640608E+01 -0.96032630640E+00  0.91393208919E+01  0.00000000000E+00 0.  1.
</event>
<event>
 7    1  0.2732193E-010  0.4778727E+02  0.7816164E-02  0.1312668E+00
        -11   -1    0    0    0    0  0.00000000000E+00  0.00000000000E+00  0.45593999997E+02  0.45594000000E+02  0.51100000000E-03 0.  1.
         11   -1    0    0    0    0 -0.00000000000E+00 -0.00000000000E+00 -0.45593999997E+02  0.45594000000E+02  0.51100000000E-03 0. -1.
    9900012    2    1    2    0    0  0.26654877921E+01 -0.41581346885E+02 -0.12145362872E+02  0.47787273356E+02  0.20000010540E+02 0.  0.
        -12    1    1    2    0    0 -0.26654877921E+01  0.41581346885E+02  0.12145362872E+02  0.43400726644E+02  0.00000000000E+00 0.  1.
         11    1    3    3    0    0  0.54296697081E+00 -0.33786508584E+02 -0.10855419030E+02  0.35491732812E+02  0.51100000000E-03 0. -1.
        -11    1    3    3    0    0  0.16704665879E+01 -0.56130340326E+01 -0.51761115745E+01  0.78159286694E+01  0.51100000000E-03 0.  1.
         12    1    3    3    0    0  0.45205423338E+00 -0.21818042682E+01  0.38861677331E+01  0.44796118743E+01  0.00000000000E+00 0. -1.
</event>
<event>
 7    1  0.2732193E-010  0.4778726E+02  0.7816164E-02  0.1312668E+00
        -11   -1    0    0    0    0  0.00000000000E+00  0.00000000000E+00  0.45593999997E+02  0.45594000000E+02  0.51100000000E-03 0. -1.
         11   -1    0    0    0    0 -0.00000000000E+00 -0.00000000000E+00 -0.45593999997E+02  0.45594000000E+02  0.51100000000E-03 0.  1.
    9900012    2    1    2    0    0  0.42863195524E+02 -0.65184699211E+01  0.19699137268E+01  0.47787256449E+02  0.19999933455E+02 0.  0.
        -12    1    1    2    0    0 -0.42863195524E+02  0.65184699211E+01 -0.19699137268E+01  0.43400743551E+02  0.00000000000E+00 0.  1.
         11    1    3    3    0    0  0.18431191304E+02 -0.39514037131E+01 -0.58689725491E+01  0.19742523730E+02  0.51100000000E-03 0. -1.
        -11    1    3    3    0    0  0.68546229797E+01  0.33906204016E+00  0.75821018953E+01  0.10226880691E+02  0.51100000000E-03 0.  1.
        -12    1    3    3    0    0  0.17577381240E+02 -0.29061282482E+01  0.25678438062E+00  0.17817852028E+02  0.00000000000E+00 0.  1.
</event>
<event>
 7    1  0.2732193E-010  0.4778727E+02  0.7816164E-02  0.1312668E+00
        -11   -1    0    0    0    0  0.00000000000E+00  0.00000000000E+00  0.45593999997E+02  0.45594000000E+02  0.51100000000E-03 0.  1.
         11   -1    0    0    0    0 -0.00000000000E+00 -0.00000000000E+00 -0.45593999997E+02  0.45594000000E+02  0.51100000000E-03 0. -1.
    9900012    2    1    2    0    0 -0.22861860299E+02  0.18829683879E+02 -0.31723830033E+02  0.47787273701E+02  0.20000012114E+02 0.  0.
        -12    1    1    2    0    0  0.22861860299E+02 -0.18829683879E+02  0.31723830033E+02  0.43400726299E+02  0.00000000000E+00 0.  1.
         11    1    3    3    0    0 -0.11021754644E+02  0.69961595266E+01 -0.24402473200E+01  0.13280818153E+02  0.51100000000E-03 0. -1.
        -11    1    3    3    0    0  0.91077310997E+00  0.12798110336E+01 -0.15352150794E+01  0.21964310917E+01  0.51100000000E-03 0.  1.
         12    1    3    3    0    0 -0.12750878764E+02  0.10553713319E+02 -0.27748367633E+02  0.32310024457E+02  0.00000000000E+00 0. -1.
</event>
<event>
 7    1  0.2732193E-010  0.4778727E+02  0.7816164E-02  0.1312668E+00
        -11   -1    0    0    0    0  0.00000000000E+00  0.00000000000E+00  0.45593999997E+02  0.45594000000E+02  0.51100000000E-03 0.  1.
         11   -1    0    0    0    0 -0.00000000000E+00 -0.00000000000E+00 -0.45593999997E+02  0.45594000000E+02  0.51100000000E-03 0. -1.
    9900012    2    1    2    0    0 -0.11637621146E+01  0.38276243287E+01 -0.43215945585E+02  0.47787274165E+02  0.20000014227E+02 0.  0.
        -12    1    1    2    0    0  0.11637621146E+01 -0.38276243287E+01  0.43215945585E+02  0.43400725835E+02  0.00000000000E+00 0.  1.
         11    1    3    3    0    0  0.27116118908E+01 -0.30369161913E+01 -0.43257707528E+01  0.59403696742E+01  0.51100000000E-03 0. -1.
        -11    1    3    3    0    0 -0.28873165883E+01  0.10382729958E+02 -0.34450388487E+02  0.36096633439E+02  0.51100000000E-03 0.  1.
        -12    1    3    3    0    0 -0.98805741715E+00 -0.35181894378E+01 -0.44397863444E+01  0.57502710513E+01  0.00000000000E+00 0.  1.
</event>
<event>
 7    1  0.2732193E-010  0.4778727E+02  0.7816164E-02  0.1312668E+00
        -11   -1    0    0    0    0  0.00000000000E+00  0.00000000000E+00  0.45593999997E+02  0.45594000000E+02  0.51100000000E-03 0.  1.
         11   -1    0    0    0    0 -0.00000000000E+00 -0.00000000000E+00 -0.45593999997E+02  0.45594000000E+02  0.51100000000E-03 0. -1.
    9900012    2    1    2    0    0  0.26247332269E+02  0.22742778782E+02 -0.26028196555E+02  0.47787268971E+02  0.19999990545E+02 0.  0.
        -12    1    1    2    0    0 -0.26247332269E+02 -0.22742778782E+02  0.26028196555E+02  0.43400731029E+02  0.00000000000E+00 0.  1.
         11    1    3    3    0    0  0.13475775389E+01  0.96195570455E+01 -0.71236465545E+01  0.12045670736E+02  0.51100000000E-03 0. -1.
        -11    1    3    3    0    0 -0.12203315661E+00 -0.10423182258E+01 -0.23246518967E+01  0.25505540726E+01  0.51100000000E-03 0.  1.
         12    1    3    3    0    0  0.25021787887E+02  0.14165539962E+02 -0.16579898104E+02  0.33191044163E+02  0.00000000000E+00 0. -1.
</event>
<event>
 7    1  0.2918189E-010  0.4778727E+02  0.7816164E-02  0.1312668E+00
        -11   -1    0    0    0    0  0.00000000000E+00  0.00000000000E+00  0.45593999997E+02  0.45594000000E+02  0.51100000000E-03 0. -1.
         11   -1    0    0    0    0 -0.00000000000E+00 -0.00000000000E+00 -0.45593999997E+02  0.45594000000E+02  0.51100000000E-03 0.  1.
    9900012    2    1    2    0    0 -0.25757080160E+01 -0.22123113842E+02  0.37249922439E+02  0.47787272362E+02  0.20000006006E+02 0.  0.
        -12    1    1    2    0    0  0.25757080160E+01  0.22123113842E+02 -0.37249922439E+02  0.43400727638E+02  0.00000000000E+00 0.  1.
         11    1    3    3    0    0 -0.28324756509E+01 -0.20303323889E+02  0.22526457910E+02  0.30457990503E+02  0.51100000000E-03 0. -1.
        -11    1    3    3    0    0 -0.37967417336E+01  0.11727943399E+01  0.50870132167E+01  0.64551063573E+01  0.51100000000E-03 0.  1.
        -12    1    3    3    0    0  0.40535093686E+01 -0.29925842928E+01  0.96364513118E+01  0.10874175501E+02  0.00000000000E+00 0.  1.
</event>
<event>
 7    1  0.2732193E-010  0.4778727E+02  0.7816164E-02  0.1312668E+00
        -11   -1    0    0    0    0  0.00000000000E+00  0.00000000000E+00  0.45593999997E+02  0.45594000000E+02  0.51100000000E-03 0. -1.
         11   -1    0    0    0    0 -0.00000000000E+00 -0.00000000000E+00 -0.45593999997E+02  0.45594000000E+02  0.51100000000E-03 0.  1.
    9900012    2    1    2    0    0 -0.28715230928E+02  0.31268811204E+02 -0.90177677306E+01  0.47787272170E+02  0.20000005131E+02 0.  0.
        -12    1    1    2    0    0  0.28715230928E+02 -0.31268811204E+02  0.90177677306E+01  0.43400727830E+02  0.00000000000E+00 0.  1.
         11    1    3    3    0    0 -0.95307912719E+01  0.16064336607E+02 -0.44087703725E+01  0.19192085591E+02  0.51100000000E-03 0. -1.
        -11    1    3    3    0    0 -0.10644613056E-01  0.18961746866E+01  0.34220899440E+01  0.39123255994E+01  0.51100000000E-03 0.  1.
        -12    1    3    3    0    0 -0.19173795043E+02  0.13308299911E+02 -0.80310873021E+01  0.24682860979E+02  0.00000000000E+00 0.  1.
</event>
<event>
 7    1  0.2732193E-010  0.4778727E+02  0.7816164E-02  0.1312668E+00
        -11   -1    0    0    0    0  0.00000000000E+00  0.00000000000E+00  0.45593999997E+02  0.45594000000E+02  0.51100000000E-03 0.  1.
         11   -1    0    0    0    0 -0.00000000000E+00 -0.00000000000E+00 -0.45593999997E+02  0.45594000000E+02  0.51100000000E-03 0. -1.
    9900012    2    1    2    0    0  0.16314418390E+02  0.34609332880E+02 -0.20485538293E+02  0.47787269027E+02  0.19999990803E+02 0.  0.
        -12    1    1    2    0    0 -0.16314418390E+02 -0.34609332880E+02  0.20485538293E+02  0.43400730973E+02  0.00000000000E+00 0.  1.
         11    1    3    3    0    0  0.16339494929E+01  0.49806975615E+01 -0.33559803445E+01  0.62241259208E+01  0.51100000000E-03 0. -1.
        -11    1    3    3    0    0 -0.22977833589E+01  0.11478420161E+02 -0.61318334906E+00  0.11722198252E+02  0.51100000000E-03 0.  1.
        -12    1    3    3    0    0  0.16978252256E+02  0.18150215157E+02 -0.16516374599E+02  0.29840944855E+02  0.00000000000E+00 0.  1.
</event>
<event>
 7    1  0.2732193E-010  0.4778727E+02  0.7816164E-02  0.1312668E+00
        -11   -1    0    0    0    0  0.00000000000E+00  0.00000000000E+00  0.45593999997E+02  0.45594000000E+02  0.51100000000E-03 0.  1.
         11   -1    0    0    0    0 -0.00000000000E+00 -0.00000000000E+00 -0.45593999997E+02  0.45594000000E+02  0.51100000000E-03 0. -1.
    9900012    2    1    2    0    0 -0.25318618700E+02  0.41782399291E+01 -0.35001899059E+02  0.47787273284E+02  0.20000010211E+02 0.  0.
        -12    1    1    2    0    0  0.25318618700E+02 -0.41782399291E+01  0.35001899059E+02  0.43400726716E+02  0.00000000000E+00 0.  1.
         11    1    3    3    0    0 -0.10613630371E+01  0.57220218229E+01 -0.68711143189E+01  0.90044565346E+01  0.51100000000E-03 0. -1.
        -11    1    3    3    0    0 -0.24787543398E+02 -0.23218583951E+00 -0.24356938378E+02  0.34752505886E+02  0.51100000000E-03 0.  1.
        -12    1    3    3    0    0  0.53028773482E+00 -0.13115960543E+01 -0.37738463622E+01  0.40303108636E+01  0.00000000000E+00 0.  1.
</event>
<event>
 7    1  0.2732193E-010  0.4778727E+02  0.7816164E-02  0.1312668E+00
        -11   -1    0    0    0    0  0.00000000000E+00  0.00000000000E+00  0.45593999997E+02  0.45594000000E+02  0.51100000000E-03 0.  1.
         11   -1    0    0    0    0 -0.00000000000E+00 -0.00000000000E+00 -0.45593999997E+02  0.45594000000E+02  0.51100000000E-03 0. -1.
    9900012    2    1    2    0    0  0.18384377296E+02  0.39117540608E+02  0.39313640583E+01  0.47787274947E+02  0.20000017791E+02 0.  0.
        -12    1    1    2    0    0 -0.18384377296E+02 -0.39117540608E+02 -0.39313640583E+01  0.43400725053E+02  0.00000000000E+00 0.  1.
         11    1    3    3    0    0  0.14254163060E+02  0.23243118468E+02  0.73789580722E+00  0.27275780670E+02  0.51100000000E-03 0. -1.
        -11    1    3    3    0    0 -0.10973245498E+01  0.13537805329E+02  0.50521454210E+01  0.14491392891E+02  0.51100000000E-03 0.  1.
        -12    1    3    3    0    0  0.52275387858E+01  0.23366168114E+01 -0.18586771699E+01  0.60201013864E+01  0.00000000000E+00 0.  1.
</event>
<event>
 7    1  0.2732193E-010  0.4778727E+02  0.7816164E-02  0.1312668E+00
        -11   -1    0    0    0    0  0.00000000000E+00  0.00000000000E+00  0.45593999997E+02  0.45594000000E+02  0.51100000000E-03 0.  1.
         11   -1    0    0    0    0 -0.00000000000E+00 -0.00000000000E+00 -0.45593999997E+02  0.45594000000E+02  0.51100000000E-03 0. -1.
    9900012    2    1    2    0    0  0.20801013931E+02 -0.11442683391E+02 -0.36331886876E+02  0.47787272037E+02  0.20000004527E+02 0.  0.
        -12    1    1    2    0    0 -0.20801013931E+02  0.11442683391E+02  0.36331886876E+02  0.43400727963E+02  0.00000000000E+00 0.  1.
         11    1    3    3    0    0  0.52474805963E+01 -0.10669788000E+02 -0.19925913998E+02  0.23203932371E+02  0.51100000000E-03 0. -1.
        -11    1    3    3    0    0  0.60178544242E-02  0.23877163488E+01 -0.28254958300E+01  0.36992772975E+01  0.51100000000E-03 0.  1.
         12    1    3    3    0    0  0.15547515480E+02 -0.31606117402E+01 -0.13580477048E+02  0.20884062369E+02  0.00000000000E+00 0. -1.
</event>
<event>
 7    1  0.2732193E-010  0.4778728E+02  0.7816164E-02  0.1312668E+00
        -11   -1    0    0    0    0  0.00000000000E+00  0.00000000000E+00  0.45593999997E+02  0.45594000000E+02  0.51100000000E-03 0.  1.
         11   -1    0    0    0    0 -0.00000000000E+00 -0.00000000000E+00 -0.45593999997E+02  0.45594000000E+02  0.51100000000E-03 0. -1.
    9900012    2    1    2    0    0  0.36195833134E+02 -0.21842309087E+02 -0.98182470474E+01  0.47787276762E+02  0.20000026070E+02 0.  0.
        -12    1    1    2    0    0 -0.36195833134E+02  0.21842309087E+02  0.98182470474E+01  0.43400723238E+02  0.00000000000E+00 0.  1.
         11    1    3    3    0    0  0.22036310088E+02 -0.46733840583E+01 -0.53070488487E+01  0.23143125299E+02  0.51100000000E-03 0. -1.
        -11    1    3    3    0    0  0.34324716027E+01 -0.59388388941E+01  0.28866128762E+01  0.74420563604E+01  0.51100000000E-03 0.  1.
         12    1    3    3    0    0  0.10727051443E+02 -0.11230086134E+02 -0.73978110748E+01  0.17202095103E+02  0.00000000000E+00 0. -1.
</event>
<event>
 7    1  0.2732193E-010  0.4778727E+02  0.7816164E-02  0.1312668E+00
        -11   -1    0    0    0    0  0.00000000000E+00  0.00000000000E+00  0.45593999997E+02  0.45594000000E+02  0.51100000000E-03 0. -1.
         11   -1    0    0    0    0 -0.00000000000E+00 -0.00000000000E+00 -0.45593999997E+02  0.45594000000E+02  0.51100000000E-03 0.  1.
    9900012    2    1    2    0    0 -0.33354794758E+02 -0.32489123572E+01  0.27577622377E+02  0.47787273960E+02  0.20000013292E+02 0.  0.
        -12    1    1    2    0    0  0.33354794758E+02  0.32489123572E+01 -0.27577622377E+02  0.43400726040E+02  0.00000000000E+00 0.  1.
         11    1    3    3    0    0 -0.26791874140E+02 -0.68356411650E+00  0.13444421919E+02  0.29983733270E+02  0.51100000000E-03 0. -1.
        -11    1    3    3    0    0 -0.66261258739E+01 -0.47513523169E+01  0.12987208510E+02  0.15334551773E+02  0.51100000000E-03 0.  1.
         12    1    3    3    0    0  0.63205255568E-01  0.21860040762E+01  0.11459919479E+01  0.24689889166E+01  0.00000000000E+00 0. -1.
</event>
<event>
 7    1  0.2732193E-010  0.4778727E+02  0.7816164E-02  0.1312668E+00
        -11   -1    0    0    0    0  0.00000000000E+00  0.00000000000E+00  0.45593999997E+02  0.45594000000E+02  0.51100000000E-03 0.  1.
         11   -1    0    0    0    0 -0.00000000000E+00 -0.00000000000E+00 -0.45593999997E+02  0.45594000000E+02  0.51100000000E-03 0. -1.
    9900012    2    1    2    0    0  0.61537083844E+00  0.68170039434E+01 -0.42857589698E+02  0.47787271680E+02  0.20000002897E+02 0.  0.
        -12    1    1    2    0    0 -0.61537083844E+00 -0.68170039434E+01  0.42857589698E+02  0.43400728320E+02  0.00000000000E+00 0.  1.
         11    1    3    3    0    0 -0.14118125264E+01  0.85887147980E+01 -0.40131004862E+02  0.41064057130E+02  0.51100000000E-03 0. -1.
        -11    1    3    3    0    0  0.32810800103E+01 -0.33731619145E+00 -0.33668930022E+01  0.47133042546E+01  0.51100000000E-03 0.  1.
         12    1    3    3    0    0 -0.12538966454E+01 -0.14343946632E+01  0.64030816634E+00  0.20099102953E+01  0.00000000000E+00 0. -1.
</event>
<event>
 7    1  0.2732193E-010  0.4778727E+02  0.7816164E-02  0.1312668E+00
        -11   -1    0    0    0    0  0.00000000000E+00  0.00000000000E+00  0.45593999997E+02  0.45594000000E+02  0.51100000000E-03 0.  1.
         11   -1    0    0    0    0 -0.00000000000E+00 -0.00000000000E+00 -0.45593999997E+02  0.45594000000E+02  0.51100000000E-03 0. -1.
    9900012    2    1    2    0    0  0.12172159529E+02 -0.16879608745E+02 -0.38085960719E+02  0.47787273476E+02  0.20000011085E+02 0.  0.
        -12    1    1    2    0    0 -0.12172159529E+02  0.16879608745E+02  0.38085960719E+02  0.43400726524E+02  0.00000000000E+00 0.  1.
         11    1    3    3    0    0 -0.43223203978E+01  0.44111785423E+00 -0.86723683769E+01  0.96998459837E+01  0.51100000000E-03 0. -1.
        -11    1    3    3    0    0  0.14333324478E+02 -0.15042398286E+02 -0.23329680609E+02  0.31240869616E+02  0.51100000000E-03 0.  1.
         12    1    3    3    0    0  0.21611554493E+01 -0.22783283126E+01 -0.60839117325E+01  0.68465578757E+01  0.00000000000E+00 0. -1.
</event>
<event>
 7    1  0.2732193E-010  0.4778727E+02  0.7816164E-02  0.1312668E+00
        -11   -1    0    0    0    0  0.00000000000E+00  0.00000000000E+00  0.45593999997E+02  0.45594000000E+02  0.51100000000E-03 0.  1.
         11   -1    0    0    0    0 -0.00000000000E+00 -0.00000000000E+00 -0.45593999997E+02  0.45594000000E+02  0.51100000000E-03 0. -1.
    9900012    2    1    2    0    0  0.30410100806E+01  0.43252475149E+02 -0.18971007270E+01  0.47787270282E+02  0.19999996525E+02 0.  0.
        -12    1    1    2    0    0 -0.30410100806E+01 -0.43252475149E+02  0.18971007270E+01  0.43400729718E+02  0.00000000000E+00 0.  1.
         11    1    3    3    0    0 -0.51312112578E+01  0.10114584762E+02 -0.18898461508E+01  0.11498072560E+02  0.51100000000E-03 0. -1.
        -11    1    3    3    0    0  0.11354582776E+02  0.26031413511E+02 -0.11282901236E+01  0.28422422104E+02  0.51100000000E-03 0.  1.
        -12    1    3    3    0    0 -0.31823614378E+01  0.71064768772E+01  0.11210355475E+01  0.78667756181E+01  0.00000000000E+00 0.  1.
</event>
<event>
 7    1  0.2732193E-010  0.4778727E+02  0.7816164E-02  0.1312668E+00
        -11   -1    0    0    0    0  0.00000000000E+00  0.00000000000E+00  0.45593999997E+02  0.45594000000E+02  0.51100000000E-03 0.  1.
         11   -1    0    0    0    0 -0.00000000000E+00 -0.00000000000E+00 -0.45593999997E+02  0.45594000000E+02  0.51100000000E-03 0. -1.
    9900012    2    1    2    0    0 -0.23656084298E+02  0.33057646117E+02 -0.15205436928E+02  0.47787267249E+02  0.19999982695E+02 0.  0.
        -12    1    1    2    0    0  0.23656084298E+02 -0.33057646117E+02  0.15205436928E+02  0.43400732751E+02  0.00000000000E+00 0.  1.
         11    1    3    3    0    0 -0.10172872572E+02  0.23020299969E+02 -0.13787437981E+02  0.28696950942E+02  0.51100000000E-03 0. -1.
        -11    1    3    3    0    0 -0.14735656991E+02  0.87251965218E+01 -0.69981153196E+00  0.17139380903E+02  0.51100000000E-03 0.  1.
        -12    1    3    3    0    0  0.12524452654E+01  0.13121496259E+01 -0.71818741554E+00  0.19509354031E+01  0.00000000000E+00 0.  1.
</event>
<event>
 7    1  0.2732193E-010  0.4778727E+02  0.7816164E-02  0.1312668E+00
        -11   -1    0    0    0    0  0.00000000000E+00  0.00000000000E+00  0.45593999997E+02  0.45594000000E+02  0.51100000000E-03 0. -1.
         11   -1    0    0    0    0 -0.00000000000E+00 -0.00000000000E+00 -0.45593999997E+02  0.45594000000E+02  0.51100000000E-03 0.  1.
    9900012    2    1    2    0    0  0.28537564376E+01 -0.60068625491E+01  0.42888190768E+02  0.47787271541E+02  0.20000002262E+02 0.  0.
        -12    1    1    2    0    0 -0.28537564376E+01  0.60068625491E+01 -0.42888190768E+02  0.43400728459E+02  0.00000000000E+00 0.  1.
         11    1    3    3    0    0 -0.50549517709E+00 -0.83008755158E+00  0.10844917393E+02  0.10888379321E+02  0.51100000000E-03 0.  1.
        -11    1    3    3    0    0 -0.48788570860E+01 -0.74905603572E+01  0.21737100118E+02  0.23503473418E+02  0.51100000000E-03 0. -1.
        -12    1    3    3    0    0  0.82381087008E+01  0.23137853597E+01  0.10306173257E+02  0.13395418801E+02  0.00000000000E+00 0.  1.
</event>
<event>
 7    1  0.2732193E-010  0.4778727E+02  0.7816164E-02  0.1312668E+00
        -11   -1    0    0    0    0  0.00000000000E+00  0.00000000000E+00  0.45593999997E+02  0.45594000000E+02  0.51100000000E-03 0. -1.
         11   -1    0    0    0    0 -0.00000000000E+00 -0.00000000000E+00 -0.45593999997E+02  0.45594000000E+02  0.51100000000E-03 0.  1.
    9900012    2    1    2    0    0  0.82209704163E+01 -0.35156628402E+02  0.24084235063E+02  0.47787271276E+02  0.20000001057E+02 0.  0.
        -12    1    1    2    0    0 -0.82209704163E+01  0.35156628402E+02 -0.24084235063E+02  0.43400728724E+02  0.00000000000E+00 0.  1.
         11    1    3    3    0    0 -0.37509101019E+01 -0.31425690619E+01  0.31941535501E+01  0.58436019768E+01  0.51100000000E-03 0. -1.
        -11    1    3    3    0    0  0.61829539998E+01 -0.25022028032E+02  0.97111555278E+01  0.27543372142E+02  0.51100000000E-03 0.  1.
         12    1    3    3    0    0  0.57889265184E+01 -0.69920313088E+01  0.11178925985E+02  0.14400297158E+02  0.00000000000E+00 0. -1.
</event>
<event>
 7    1  0.2732193E-010  0.4778725E+02  0.7816164E-02  0.1312668E+00
        -11   -1    0    0    0    0  0.00000000000E+00  0.00000000000E+00  0.45593999997E+02  0.45594000000E+02  0.51100000000E-03 0.  1.
         11   -1    0    0    0    0 -0.00000000000E+00 -0.00000000000E+00 -0.45593999997E+02  0.45594000000E+02  0.51100000000E-03 0. -1.
    9900012    2    1    2    0    0  0.85040026435E+00 -0.34149830875E+02 -0.26771082589E+02  0.47787251246E+02  0.19999909732E+02 0.  0.
        -12    1    1    2    0    0 -0.85040026435E+00  0.34149830875E+02  0.26771082589E+02  0.43400748754E+02  0.00000000000E+00 0.  1.
         11    1    3    3    0    0 -0.35857476891E+01 -0.15537356840E+02 -0.65713536216E+01  0.17246731074E+02  0.51100000000E-03 0. -1.
        -11    1    3    3    0    0  0.63365855370E+01 -0.50018213352E+01 -0.32079201780E+01  0.86868455187E+01  0.51100000000E-03 0.  1.
        -12    1    3    3    0    0 -0.19004375835E+01 -0.13610652700E+02 -0.16991808790E+02  0.21853674654E+02  0.00000000000E+00 0.  1.
</event>
<event>
 7    1  0.2732193E-010  0.4778727E+02  0.7816164E-02  0.1312668E+00
        -11   -1    0    0    0    0  0.00000000000E+00  0.00000000000E+00  0.45593999997E+02  0.45594000000E+02  0.51100000000E-03 0.  1.
         11   -1    0    0    0    0 -0.00000000000E+00 -0.00000000000E+00 -0.45593999997E+02  0.45594000000E+02  0.51100000000E-03 0. -1.
    9900012    2    1    2    0    0 -0.95078929892E+01 -0.26749004391E+02 -0.32828554558E+02  0.47787271211E+02  0.20000000761E+02 0.  0.
        -12    1    1    2    0    0  0.95078929892E+01  0.26749004391E+02  0.32828554558E+02  0.43400728789E+02  0.00000000000E+00 0.  1.
         11    1    3    3    0    0 -0.28533815572E+01 -0.44288608717E+01 -0.15378352213E+02  0.16255777803E+02  0.51100000000E-03 0. -1.
        -11    1    3    3    0    0 -0.11835584506E+00 -0.95339971736E+01 -0.83562591702E+00  0.95712789713E+01  0.51100000000E-03 0.  1.
        -12    1    3    3    0    0 -0.65361555870E+01 -0.12786146346E+02 -0.16614576428E+02  0.21960214437E+02  0.00000000000E+00 0.  1.
</event>
<event>
 7    1  0.2732193E-010  0.4778727E+02  0.7816164E-02  0.1312668E+00
        -11   -1    0    0    0    0  0.00000000000E+00  0.00000000000E+00  0.45593999997E+02  0.45594000000E+02  0.51100000000E-03 0.  1.
         11   -1    0    0    0    0 -0.00000000000E+00 -0.00000000000E+00 -0.45593999997E+02  0.45594000000E+02  0.51100000000E-03 0. -1.
    9900012    2    1    2    0    0 -0.63907868701E+01  0.57962328490E+01 -0.42534511245E+02  0.47787272829E+02  0.20000008138E+02 0.  0.
        -12    1    1    2    0    0  0.63907868701E+01 -0.57962328490E+01  0.42534511245E+02  0.43400727171E+02  0.00000000000E+00 0.  1.
         11    1    3    3    0    0 -0.18167320807E+01  0.74736719654E+01 -0.61697501703E+01  0.98601270542E+01  0.51100000000E-03 0.  1.
        -11    1    3    3    0    0 -0.54928844798E+01  0.22383064973E+01 -0.14016901411E+02  0.15220227374E+02  0.51100000000E-03 0. -1.
         12    1    3    3    0    0  0.91882969047E+00 -0.39157456137E+01 -0.22347859664E+02  0.22706918401E+02  0.00000000000E+00 0. -1.
</event>
<event>
 7    1  0.2732193E-010  0.4778728E+02  0.7816164E-02  0.1312668E+00
        -11   -1    0    0    0    0  0.00000000000E+00  0.00000000000E+00  0.45593999997E+02  0.45594000000E+02  0.51100000000E-03 0. -1.
         11   -1    0    0    0    0 -0.00000000000E+00 -0.00000000000E+00 -0.45593999997E+02  0.45594000000E+02  0.51100000000E-03 0.  1.
    9900012    2    1    2    0    0  0.23140068929E+02  0.29011934582E+02  0.22504838004E+02  0.47787275677E+02  0.20000021120E+02 0.  0.
        -12    1    1    2    0    0 -0.23140068929E+02 -0.29011934582E+02 -0.22504838004E+02  0.43400724323E+02  0.00000000000E+00 0.  1.
         11    1    3    3    0    0  0.42580939153E+00  0.10111393607E+02  0.19073377720E+01  0.10298520863E+02  0.51100000000E-03 0.  1.
        -11    1    3    3    0    0 -0.29771636570E+00 -0.63581380022E+00 -0.31153405808E+00  0.76808069460E+00  0.51100000000E-03 0. -1.
         12    1    3    3    0    0  0.23011975903E+02  0.19536354775E+02  0.20909034290E+02  0.36720674119E+02  0.00000000000E+00 0. -1.
</event>
<event>
 7    1  0.2732193E-010  0.4778727E+02  0.7816164E-02  0.1312668E+00
        -11   -1    0    0    0    0  0.00000000000E+00  0.00000000000E+00  0.45593999997E+02  0.45594000000E+02  0.51100000000E-03 0.  1.
         11   -1    0    0    0    0 -0.00000000000E+00 -0.00000000000E+00 -0.45593999997E+02  0.45594000000E+02  0.51100000000E-03 0. -1.
    9900012    2    1    2    0    0  0.23070970348E+02  0.25954002665E+02 -0.26033506960E+02  0.47787269456E+02  0.19999992759E+02 0.  0.
        -12    1    1    2    0    0 -0.23070970348E+02 -0.25954002665E+02  0.26033506960E+02  0.43400730544E+02  0.00000000000E+00 0.  1.
         11    1    3    3    0    0  0.31063719469E+01  0.57548744018E+01 -0.11925273175E+02  0.13600745076E+02  0.51100000000E-03 0. -1.
        -11    1    3    3    0    0  0.62149721227E+01  0.52847091874E+01  0.18634496120E+01  0.83681822637E+01  0.51100000000E-03 0.  1.
        -12    1    3    3    0    0  0.13749626278E+02  0.14914419076E+02 -0.15971683396E+02  0.25818342117E+02  0.00000000000E+00 0.  1.
</event>
<event>
 7    1  0.2732193E-010  0.4778727E+02  0.7816164E-02  0.1312668E+00
        -11   -1    0    0    0    0  0.00000000000E+00  0.00000000000E+00  0.45593999997E+02  0.45594000000E+02  0.51100000000E-03 0.  1.
         11   -1    0    0    0    0 -0.00000000000E+00 -0.00000000000E+00 -0.45593999997E+02  0.45594000000E+02  0.51100000000E-03 0. -1.
    9900012    2    1    2    0    0 -0.15313993012E+02  0.12280147059E+01 -0.40590598324E+02  0.47787273342E+02  0.20000010476E+02 0.  0.
        -12    1    1    2    0    0  0.15313993012E+02 -0.12280147059E+01  0.40590598324E+02  0.43400726658E+02  0.00000000000E+00 0.  1.
         11    1    3    3    0    0 -0.18798808070E+02 -0.21838290448E+01 -0.36470710604E+02  0.41088648388E+02  0.51100000000E-03 0. -1.
        -11    1    3    3    0    0  0.18485276087E+01  0.28381831061E+01 -0.34640959379E+01  0.48448218328E+01  0.51100000000E-03 0.  1.
         12    1    3    3    0    0  0.16362874487E+01  0.57366064462E+00 -0.65579178227E+00  0.18538031211E+01  0.00000000000E+00 0. -1.
</event>
<event>
 7    1  0.2732193E-010  0.4778727E+02  0.7816164E-02  0.1312668E+00
        -11   -1    0    0    0    0  0.00000000000E+00  0.00000000000E+00  0.45593999997E+02  0.45594000000E+02  0.51100000000E-03 0. -1.
         11   -1    0    0    0    0 -0.00000000000E+00 -0.00000000000E+00 -0.45593999997E+02  0.45594000000E+02  0.51100000000E-03 0.  1.
    9900012    2    1    2    0    0 -0.33334981110E+02  0.11845396088E+02  0.25141377607E+02  0.47787271411E+02  0.20000001671E+02 0.  0.
        -12    1    1    2    0    0  0.33334981110E+02 -0.11845396088E+02 -0.25141377607E+02  0.43400728589E+02  0.00000000000E+00 0.  1.
         11    1    3    3    0    0 -0.44319325470E+01  0.33440606919E+01 -0.25705489506E+01  0.61182097202E+01  0.51100000000E-03 0.  1.
        -11    1    3    3    0    0 -0.28739572199E+02  0.80994613751E+01  0.28161492377E+02  0.41044292391E+02  0.51100000000E-03 0. -1.
         12    1    3    3    0    0 -0.16347636484E+00  0.40187402112E+00 -0.44956582016E+00  0.62476929932E+00  0.00000000000E+00 0. -1.
</event>
<event>
 7    1  0.2732193E-010  0.4778728E+02  0.7816164E-02  0.1312668E+00
        -11   -1    0    0    0    0  0.00000000000E+00  0.00000000000E+00  0.45593999997E+02  0.45594000000E+02  0.51100000000E-03 0.  1.
         11   -1    0    0    0    0 -0.00000000000E+00 -0.00000000000E+00 -0.45593999997E+02  0.45594000000E+02  0.51100000000E-03 0. -1.
    9900012    2    1    2    0    0  0.42347663717E+01  0.27265450186E+02 -0.33500517620E+02  0.47787277646E+02  0.20000030097E+02 0.  0.
        -12    1    1    2    0    0 -0.42347663717E+01 -0.27265450186E+02  0.33500517620E+02  0.43400722354E+02  0.00000000000E+00 0.  1.
         11    1    3    3    0    0 -0.40716878191E+01  0.17000194536E+02 -0.26133985688E+02  0.31441540423E+02  0.51100000000E-03 0. -1.
        -11    1    3    3    0    0  0.84022292302E+01  0.10826350132E+02 -0.61872483650E+01  0.15036268015E+02  0.51100000000E-03 0.  1.
        -12    1    3    3    0    0 -0.95775039386E-01 -0.56109448176E+00 -0.11792835668E+01  0.13094692079E+01  0.00000000000E+00 0.  1.
</event>
<event>
 7    1  0.2732193E-010  0.4778727E+02  0.7816164E-02  0.1312668E+00
        -11   -1    0    0    0    0  0.00000000000E+00  0.00000000000E+00  0.45593999997E+02  0.45594000000E+02  0.51100000000E-03 0. -1.
         11   -1    0    0    0    0 -0.00000000000E+00 -0.00000000000E+00 -0.45593999997E+02  0.45594000000E+02  0.51100000000E-03 0.  1.
    9900012    2    1    2    0    0  0.46966188893E+01 -0.12702080904E+02  0.41233752072E+02  0.47787269612E+02  0.19999993468E+02 0.  0.
        -12    1    1    2    0    0 -0.46966188893E+01  0.12702080904E+02 -0.41233752072E+02  0.43400730388E+02  0.00000000000E+00 0.  1.
         11    1    3    3    0    0  0.16346541451E+01 -0.12258292763E+02  0.19593265075E+02  0.23169675704E+02  0.51100000000E-03 0. -1.
        -11    1    3    3    0    0 -0.34458940682E+01  0.27291781694E+01  0.66695461387E+01  0.79878310803E+01  0.51100000000E-03 0.  1.
         12    1    3    3    0    0  0.65078588124E+01 -0.31729663105E+01  0.14970940858E+02  0.16629762828E+02  0.00000000000E+00 0. -1.
</event>
<event>
 7    1  0.2732193E-010  0.4778727E+02  0.7816164E-02  0.1312668E+00
        -11   -1    0    0    0    0  0.00000000000E+00  0.00000000000E+00  0.45593999997E+02  0.45594000000E+02  0.51100000000E-03 0.  1.
         11   -1    0    0    0    0 -0.00000000000E+00 -0.00000000000E+00 -0.45593999997E+02  0.45594000000E+02  0.51100000000E-03 0. -1.
    9900012    2    1    2    0    0  0.32510141482E+01  0.13739438817E+02 -0.41040005191E+02  0.47787270765E+02  0.19999998728E+02 0.  0.
        -12    1    1    2    0    0 -0.32510141482E+01 -0.13739438817E+02  0.41040005191E+02  0.43400729235E+02  0.00000000000E+00 0.  1.
         11    1    3    3    0    0  0.77303995529E+00  0.10694587998E+02 -0.14727748380E+02  0.18217529356E+02  0.51100000000E-03 0. -1.
        -11    1    3    3    0    0  0.68354938398E+01  0.98977690295E+00 -0.22153722465E+02  0.23205410009E+02  0.51100000000E-03 0.  1.
        -12    1    3    3    0    0 -0.43575196469E+01  0.20550739155E+01 -0.41585343459E+01  0.63643314007E+01  0.00000000000E+00 0.  1.
</event>
<event>
 7    1  0.2732193E-010  0.4778727E+02  0.7816164E-02  0.1312668E+00
        -11   -1    0    0    0    0  0.00000000000E+00  0.00000000000E+00  0.45593999997E+02  0.45594000000E+02  0.51100000000E-03 0.  1.
         11   -1    0    0    0    0 -0.00000000000E+00 -0.00000000000E+00 -0.45593999997E+02  0.45594000000E+02  0.51100000000E-03 0. -1.
    9900012    2    1    2    0    0 -0.64599023201E+01 -0.34049013479E+02 -0.26125805902E+02  0.47787269696E+02  0.19999993852E+02 0.  0.
        -12    1    1    2    0    0  0.64599023201E+01  0.34049013479E+02  0.26125805902E+02  0.43400730304E+02  0.00000000000E+00 0.  1.
         11    1    3    3    0    0 -0.56802978880E+01 -0.10960721571E+02 -0.96319565440E+01  0.15658154061E+02  0.51100000000E-03 0. -1.
        -11    1    3    3    0    0  0.41439885966E+01 -0.64387932092E+00 -0.71302251842E+00  0.42538950906E+01  0.51100000000E-03 0.  1.
        -12    1    3    3    0    0 -0.49235930288E+01 -0.22444412587E+02 -0.15780826840E+02  0.27875220545E+02  0.00000000000E+00 0.  1.
</event>
<event>
 7    1  0.2732193E-010  0.4778726E+02  0.7816164E-02  0.1312668E+00
        -11   -1    0    0    0    0  0.00000000000E+00  0.00000000000E+00  0.45593999997E+02  0.45594000000E+02  0.51100000000E-03 0.  1.
         11   -1    0    0    0    0 -0.00000000000E+00 -0.00000000000E+00 -0.45593999997E+02  0.45594000000E+02  0.51100000000E-03 0. -1.
    9900012    2    1    2    0    0 -0.43006957843E+00  0.41406542942E+02 -0.12997580041E+02  0.47787264463E+02  0.19999969993E+02 0.  0.
        -12    1    1    2    0    0  0.43006957843E+00 -0.41406542942E+02  0.12997580041E+02  0.43400735537E+02  0.00000000000E+00 0.  1.
         11    1    3    3    0    0  0.52131424157E+01  0.24875803220E+02 -0.89362469109E+01  0.26941398420E+02  0.51100000000E-03 0. -1.
        -11    1    3    3    0    0 -0.27667011290E+01 -0.78868604837E+00 -0.83049187894E+00  0.29943910637E+01  0.51100000000E-03 0.  1.
         12    1    3    3    0    0 -0.28765108651E+01  0.17319425770E+02 -0.32308412510E+01  0.17851474980E+02  0.00000000000E+00 0. -1.
</event>
<event>
 7    1  0.2732193E-010  0.4778726E+02  0.7816164E-02  0.1312668E+00
        -11   -1    0    0    0    0  0.00000000000E+00  0.00000000000E+00  0.45593999997E+02  0.45594000000E+02  0.51100000000E-03 0.  1.
         11   -1    0    0    0    0 -0.00000000000E+00 -0.00000000000E+00 -0.45593999997E+02  0.45594000000E+02  0.51100000000E-03 0. -1.
    9900012    2    1    2    0    0  0.24427777968E+02 -0.35511237462E+02 -0.50852378305E+01  0.47787263067E+02  0.19999963627E+02 0.  0.
        -12    1    1    2    0    0 -0.24427777968E+02  0.35511237462E+02  0.50852378305E+01  0.43400736933E+02  0.00000000000E+00 0.  1.
         11    1    3    3    0    0  0.12224906087E+01 -0.15265573839E+02 -0.10142584589E+01  0.15347994932E+02  0.51100000000E-03 0. -1.
        -11    1    3    3    0    0  0.11487496773E+02 -0.13784879663E+02 -0.59989947850E+01  0.18920185732E+02  0.51100000000E-03 0.  1.
         12    1    3    3    0    0  0.11717790586E+02 -0.64607839597E+01  0.19280154134E+01  0.13519082403E+02  0.00000000000E+00 0. -1.
</event>
<event>
 7    1  0.2732193E-010  0.4778727E+02  0.7816164E-02  0.1312668E+00
        -11   -1    0    0    0    0  0.00000000000E+00  0.00000000000E+00  0.45593999997E+02  0.45594000000E+02  0.51100000000E-03 0.  1.
         11   -1    0    0    0    0 -0.00000000000E+00 -0.00000000000E+00 -0.45593999997E+02  0.45594000000E+02  0.51100000000E-03 0. -1.
    9900012    2    1    2    0    0  0.63767358777E+01  0.16253652496E+02 -0.39733853911E+02  0.47787272742E+02  0.20000007739E+02 0.  0.
        -12    1    1    2    0    0 -0.63767358777E+01 -0.16253652496E+02  0.39733853911E+02  0.43400727258E+02  0.00000000000E+00 0.  1.
         11    1    3    3    0    0  0.14532154177E+01  0.11337951733E+02 -0.31085732722E+02  0.33120745216E+02  0.51100000000E-03 0. -1.
        -11    1    3    3    0    0  0.46369005554E+01  0.85644897540E+00  0.41318904982E+00  0.47334001585E+01  0.51100000000E-03 0.  1.
        -12    1    3    3    0    0  0.28661990456E+00  0.40592517875E+01 -0.90613102387E+01  0.99331273668E+01  0.00000000000E+00 0.  1.
</event>
<event>
 7    1  0.2732193E-010  0.4778727E+02  0.7816164E-02  0.1312668E+00
        -11   -1    0    0    0    0  0.00000000000E+00  0.00000000000E+00  0.45593999997E+02  0.45594000000E+02  0.51100000000E-03 0.  1.
         11   -1    0    0    0    0 -0.00000000000E+00 -0.00000000000E+00 -0.45593999997E+02  0.45594000000E+02  0.51100000000E-03 0. -1.
    9900012    2    1    2    0    0  0.38864474692E+02  0.17384709176E+02 -0.84230416831E+01  0.47787272616E+02  0.20000007167E+02 0.  0.
        -12    1    1    2    0    0 -0.38864474692E+02 -0.17384709176E+02  0.84230416831E+01  0.43400727384E+02  0.00000000000E+00 0.  1.
         11    1    3    3    0    0  0.32048694950E+02  0.13207303547E+02  0.15993992900E+01  0.34700285205E+02  0.51100000000E-03 0. -1.
        -11    1    3    3    0    0  0.52825746339E+01  0.37186971010E+01 -0.62481143360E+01  0.89873931653E+01  0.51100000000E-03 0.  1.
         12    1    3    3    0    0  0.15332051084E+01  0.45870852786E+00 -0.37743266371E+01  0.40995942459E+01  0.00000000000E+00 0. -1.
</event>
<event>
 7    1  0.2732193E-010  0.4778728E+02  0.7816164E-02  0.1312668E+00
        -11   -1    0    0    0    0  0.00000000000E+00  0.00000000000E+00  0.45593999997E+02  0.45594000000E+02  0.51100000000E-03 0.  1.
         11   -1    0    0    0    0 -0.00000000000E+00 -0.00000000000E+00 -0.45593999997E+02  0.45594000000E+02  0.51100000000E-03 0. -1.
    9900012    2    1    2    0    0  0.29491075981E+02  0.17724654385E+02 -0.26452522957E+02  0.47787275278E+02  0.20000019305E+02 0.  0.
        -12    1    1    2    0    0 -0.29491075981E+02 -0.17724654385E+02  0.26452522957E+02  0.43400724722E+02  0.00000000000E+00 0.  1.
         11    1    3    3    0    0  0.22967580855E+02  0.10904496901E+02 -0.23405251857E+02  0.34557540968E+02  0.51100000000E-03 0. -1.
        -11    1    3    3    0    0  0.24027634571E+01 -0.19726901177E+01 -0.22297096136E+00  0.31168084385E+01  0.51100000000E-03 0.  1.
         12    1    3    3    0    0  0.41207316690E+01  0.87928476011E+01 -0.28243001385E+01  0.10112925872E+02  0.00000000000E+00 0. -1.
</event>
<event>
 7    1  0.2732193E-010  0.4778727E+02  0.7816164E-02  0.1312668E+00
        -11   -1    0    0    0    0  0.00000000000E+00  0.00000000000E+00  0.45593999997E+02  0.45594000000E+02  0.51100000000E-03 0.  1.
         11   -1    0    0    0    0 -0.00000000000E+00 -0.00000000000E+00 -0.45593999997E+02  0.45594000000E+02  0.51100000000E-03 0. -1.
    9900012    2    1    2    0    0  0.81430194143E+00  0.87790790715E+01 -0.42495741787E+02  0.47787269741E+02  0.19999994056E+02 0.  0.
        -12    1    1    2    0    0 -0.81430194143E+00 -0.87790790715E+01  0.42495741787E+02  0.43400730259E+02  0.00000000000E+00 0.  1.
         11    1    3    3    0    0  0.60211547753E+01  0.25056839439E+01 -0.30269350718E+02  0.30963952429E+02  0.51100000000E-03 0. -1.
        -11    1    3    3    0    0  0.81865244396E+00  0.22121136154E+00  0.85288301403E+00  0.12027202448E+01  0.51100000000E-03 0.  1.
         12    1    3    3    0    0 -0.60255052778E+01  0.60521837661E+01 -0.13079274083E+02  0.15620597067E+02  0.00000000000E+00 0. -1.
</event>
<event>
 7    1  0.2732193E-010  0.4778728E+02  0.7816164E-02  0.1312668E+00
        -11   -1    0    0    0    0  0.00000000000E+00  0.00000000000E+00  0.45593999997E+02  0.45594000000E+02  0.51100000000E-03 0.  1.
         11   -1    0    0    0    0 -0.00000000000E+00 -0.00000000000E+00 -0.45593999997E+02  0.45594000000E+02  0.51100000000E-03 0. -1.
    9900012    2    1    2    0    0  0.12881465137E+02 -0.53895391852E+01 -0.41093105251E+02  0.47787279085E+02  0.20000036662E+02 0.  0.
        -12    1    1    2    0    0 -0.12881465137E+02  0.53895391852E+01  0.41093105251E+02  0.43400720915E+02  0.00000000000E+00 0.  1.
         11    1    3    3    0    0  0.76107417144E+01  0.19983874250E+01 -0.21805967367E+02  0.23182259484E+02  0.51100000000E-03 0. -1.
        -11    1    3    3    0    0  0.40359338051E+01 -0.10397978759E+02 -0.17850018495E+02  0.21048275095E+02  0.51100000000E-03 0.  1.
         12    1    3    3    0    0  0.12347896175E+01  0.30100521490E+01 -0.14371193898E+01  0.35567445058E+01  0.00000000000E+00 0. -1.
</event>
<event>
 7    1  0.2732193E-010  0.4778727E+02  0.7816164E-02  0.1312668E+00
        -11   -1    0    0    0    0  0.00000000000E+00  0.00000000000E+00  0.45593999997E+02  0.45594000000E+02  0.51100000000E-03 0.  1.
         11   -1    0    0    0    0 -0.00000000000E+00 -0.00000000000E+00 -0.45593999997E+02  0.45594000000E+02  0.51100000000E-03 0. -1.
    9900012    2    1    2    0    0  0.39073876275E+02 -0.13129797195E+02  0.13581751464E+02  0.47787270118E+02  0.19999995774E+02 0.  0.
        -12    1    1    2    0    0 -0.39073876275E+02  0.13129797195E+02 -0.13581751464E+02  0.43400729882E+02  0.00000000000E+00 0.  1.
         11    1    3    3    0    0  0.16978175558E+02  0.44789596685E+01  0.54422676530E+01  0.18383084683E+02  0.51100000000E-03 0. -1.
        -11    1    3    3    0    0  0.19083564432E+02 -0.15198091645E+02  0.71196702174E+01  0.25413660212E+02  0.51100000000E-03 0.  1.
         12    1    3    3    0    0  0.30121362836E+01 -0.24106652180E+01  0.10198135939E+01  0.39905252224E+01  0.00000000000E+00 0. -1.
</event>
<event>
 7    1  0.2732193E-010  0.4778727E+02  0.7816164E-02  0.1312668E+00
        -11   -1    0    0    0    0  0.00000000000E+00  0.00000000000E+00  0.45593999997E+02  0.45594000000E+02  0.51100000000E-03 0. -1.
         11   -1    0    0    0    0 -0.00000000000E+00 -0.00000000000E+00 -0.45593999997E+02  0.45594000000E+02  0.51100000000E-03 0.  1.
    9900012    2    1    2    0    0  0.33111208111E+02  0.13778260815E+02  0.24442389054E+02  0.47787274703E+02  0.20000016680E+02 0.  0.
        -12    1    1    2    0    0 -0.33111208111E+02 -0.13778260815E+02 -0.24442389054E+02  0.43400725297E+02  0.00000000000E+00 0.  1.
         11    1    3    3    0    0  0.13144099318E+02 -0.18559039113E+01  0.42879845111E+01  0.13949857979E+02  0.51100000000E-03 0. -1.
        -11    1    3    3    0    0  0.13220193496E+02  0.47866675487E+01  0.78609097778E+01  0.16108370653E+02  0.51100000000E-03 0.  1.
         12    1    3    3    0    0  0.67469152970E+01  0.10847497177E+02  0.12293494765E+02  0.17729046071E+02  0.00000000000E+00 0. -1.
</event>
<event>
 7    1  0.2732193E-010  0.4778727E+02  0.7816164E-02  0.1312668E+00
        -11   -1    0    0    0    0  0.00000000000E+00  0.00000000000E+00  0.45593999997E+02  0.45594000000E+02  0.51100000000E-03 0.  1.
         11   -1    0    0    0    0 -0.00000000000E+00 -0.00000000000E+00 -0.45593999997E+02  0.45594000000E+02  0.51100000000E-03 0. -1.
    9900012    2    1    2    0    0  0.18208154386E+02 -0.13960350938E+02 -0.36840133600E+02  0.47787265811E+02  0.19999976140E+02 0.  0.
        -12    1    1    2    0    0 -0.18208154386E+02  0.13960350938E+02  0.36840133600E+02  0.43400734189E+02  0.00000000000E+00 0.  1.
         11    1    3    3    0    0  0.48347603122E+00 -0.60302340074E+01 -0.76531817232E+01  0.97554426864E+01  0.51100000000E-03 0. -1.
        -11    1    3    3    0    0  0.34633879825E+01 -0.81305010481E+01 -0.55825626758E+01  0.10452995260E+02  0.51100000000E-03 0.  1.
         12    1    3    3    0    0  0.14261290373E+02  0.20038411746E+00 -0.23604389201E+02  0.27578827865E+02  0.00000000000E+00 0. -1.
</event>
<event>
 7    1  0.2732193E-010  0.4778727E+02  0.7816164E-02  0.1312668E+00
        -11   -1    0    0    0    0  0.00000000000E+00  0.00000000000E+00  0.45593999997E+02  0.45594000000E+02  0.51100000000E-03 0. -1.
         11   -1    0    0    0    0 -0.00000000000E+00 -0.00000000000E+00 -0.45593999997E+02  0.45594000000E+02  0.51100000000E-03 0.  1.
    9900012    2    1    2    0    0  0.34931341886E+02  0.99606527207E+00  0.25737767968E+02  0.47787268532E+02  0.19999988545E+02 0.  0.
        -12    1    1    2    0    0 -0.34931341886E+02 -0.99606527207E+00 -0.25737767968E+02  0.43400731468E+02  0.00000000000E+00 0.  1.
         11    1    3    3    0    0  0.36334978659E+02  0.76642789792E+00  0.22479096942E+02  0.42733217588E+02  0.51100000000E-03 0. -1.
        -11    1    3    3    0    0 -0.19564042179E+01  0.43648946491E+00  0.28772729004E+00  0.20250500664E+01  0.51100000000E-03 0.  1.
         12    1    3    3    0    0  0.55276744547E+00 -0.20685209076E+00  0.29709437356E+01  0.30290008776E+01  0.00000000000E+00 0. -1.
</event>
<event>
 7    1  0.2732193E-010  0.4778727E+02  0.7816164E-02  0.1312668E+00
        -11   -1    0    0    0    0  0.00000000000E+00  0.00000000000E+00  0.45593999997E+02  0.45594000000E+02  0.51100000000E-03 0.  1.
         11   -1    0    0    0    0 -0.00000000000E+00 -0.00000000000E+00 -0.45593999997E+02  0.45594000000E+02  0.51100000000E-03 0. -1.
    9900012    2    1    2    0    0 -0.41655311761E+02 -0.10112036375E+02 -0.67974529874E+01  0.47787266773E+02  0.19999980523E+02 0.  0.
        -12    1    1    2    0    0  0.41655311761E+02  0.10112036375E+02  0.67974529874E+01  0.43400733227E+02  0.00000000000E+00 0.  1.
         11    1    3    3    0    0 -0.10795313006E+02 -0.84983520529E+01  0.24032142684E+01  0.13947623797E+02  0.51100000000E-03 0. -1.
        -11    1    3    3    0    0 -0.14065321270E+02  0.30812725957E+01 -0.63985678391E+00  0.14413081565E+02  0.51100000000E-03 0.  1.
         12    1    3    3    0    0 -0.16794677485E+02 -0.46949569175E+01 -0.85608104720E+01  0.19426561410E+02  0.00000000000E+00 0. -1.
</event>
<event>
 7    1  0.2732193E-010  0.4778728E+02  0.7816164E-02  0.1312668E+00
        -11   -1    0    0    0    0  0.00000000000E+00  0.00000000000E+00  0.45593999997E+02  0.45594000000E+02  0.51100000000E-03 0. -1.
         11   -1    0    0    0    0 -0.00000000000E+00 -0.00000000000E+00 -0.45593999997E+02  0.45594000000E+02  0.51100000000E-03 0.  1.
    9900012    2    1    2    0    0  0.30424337460E+02  0.27659778227E+02  0.13889529579E+02  0.47787277963E+02  0.20000031545E+02 0.  0.
        -12    1    1    2    0    0 -0.30424337460E+02 -0.27659778227E+02 -0.13889529579E+02  0.43400722037E+02  0.00000000000E+00 0.  1.
         11    1    3    3    0    0  0.38844371840E+01  0.13846992257E+02  0.27941088719E+01  0.14650429737E+02  0.51100000000E-03 0. -1.
        -11    1    3    3    0    0  0.12987555786E+02  0.18296456004E+01  0.41107258017E+01  0.13744899970E+02  0.51100000000E-03 0.  1.
        -12    1    3    3    0    0  0.13552344490E+02  0.11983140369E+02  0.69846949055E+01  0.19391948257E+02  0.00000000000E+00 0.  1.
</event>
<event>
 7    1  0.2732193E-010  0.4778727E+02  0.7816164E-02  0.1312668E+00
        -11   -1    0    0    0    0  0.00000000000E+00  0.00000000000E+00  0.45593999997E+02  0.45594000000E+02  0.51100000000E-03 0.  1.
         11   -1    0    0    0    0 -0.00000000000E+00 -0.00000000000E+00 -0.45593999997E+02  0.45594000000E+02  0.51100000000E-03 0. -1.
    9900012    2    1    2    0    0 -0.15180681929E+02 -0.35702442387E+02 -0.19455223771E+02  0.47787271570E+02  0.20000002397E+02 0.  0.
        -12    1    1    2    0    0  0.15180681929E+02  0.35702442387E+02  0.19455223771E+02  0.43400728430E+02  0.00000000000E+00 0.  1.
         11    1    3    3    0    0 -0.15296622835E+02 -0.36690877285E+02 -0.16592149731E+02  0.43075591454E+02  0.51100000000E-03 0. -1.
        -11    1    3    3    0    0  0.64976666232E+00  0.38496430636E+00 -0.35643801836E+01  0.36435148671E+01  0.51100000000E-03 0.  1.
         12    1    3    3    0    0 -0.53382575601E+00  0.60347059161E+00  0.70130614335E+00  0.10681652491E+01  0.00000000000E+00 0. -1.
</event>
<event>
 7    1  0.2732193E-010  0.4778727E+02  0.7816164E-02  0.1312668E+00
        -11   -1    0    0    0    0  0.00000000000E+00  0.00000000000E+00  0.45593999997E+02  0.45594000000E+02  0.51100000000E-03 0.  1.
         11   -1    0    0    0    0 -0.00000000000E+00 -0.00000000000E+00 -0.45593999997E+02  0.45594000000E+02  0.51100000000E-03 0. -1.
    9900012    2    1    2    0    0 -0.25000504617E+02 -0.35381021978E+02 -0.26041429153E+01  0.47787268351E+02  0.19999987720E+02 0.  0.
        -12    1    1    2    0    0  0.25000504617E+02  0.35381021978E+02  0.26041429153E+01  0.43400731649E+02  0.00000000000E+00 0.  1.
         11    1    3    3    0    0 -0.11086990738E+02 -0.11289520238E+02 -0.64751163481E+01  0.17096834877E+02  0.51100000000E-03 0. -1.
        -11    1    3    3    0    0 -0.15846276712E+02 -0.20591896130E+02  0.51584581687E+01  0.26490382459E+02  0.51100000000E-03 0.  1.
        -12    1    3    3    0    0  0.19327628322E+01 -0.34996056095E+01 -0.12874847359E+01  0.42000510155E+01  0.00000000000E+00 0.  1.
</event>
<event>
 7    1  0.2732193E-010  0.4778727E+02  0.7816164E-02  0.1312668E+00
        -11   -1    0    0    0    0  0.00000000000E+00  0.00000000000E+00  0.45593999997E+02  0.45594000000E+02  0.51100000000E-03 0.  1.
         11   -1    0    0    0    0 -0.00000000000E+00 -0.00000000000E+00 -0.45593999997E+02  0.45594000000E+02  0.51100000000E-03 0. -1.
    9900012    2    1    2    0    0 -0.24164529284E+02  0.94843990543E+01 -0.34781385721E+02  0.47787273121E+02  0.20000009467E+02 0.  0.
        -12    1    1    2    0    0  0.24164529284E+02 -0.94843990543E+01  0.34781385721E+02  0.43400726879E+02  0.00000000000E+00 0.  1.
         11    1    3    3    0    0 -0.11430343261E+02  0.86678235928E+01 -0.10484378106E+02  0.17768120256E+02  0.51100000000E-03 0. -1.
        -11    1    3    3    0    0 -0.37158816274E+01 -0.14464717146E-01 -0.19342091888E+02  0.19695799155E+02  0.51100000000E-03 0.  1.
         12    1    3    3    0    0 -0.90183043959E+01  0.83104017867E+00 -0.49549157280E+01  0.10323353710E+02  0.00000000000E+00 0. -1.
</event>
<event>
 7    1  0.2732193E-010  0.4778727E+02  0.7816164E-02  0.1312668E+00
        -11   -1    0    0    0    0  0.00000000000E+00  0.00000000000E+00  0.45593999997E+02  0.45594000000E+02  0.51100000000E-03 0.  1.
         11   -1    0    0    0    0 -0.00000000000E+00 -0.00000000000E+00 -0.45593999997E+02  0.45594000000E+02  0.51100000000E-03 0. -1.
    9900012    2    1    2    0    0  0.38592618280E+02  0.15025796354E+02 -0.12979167331E+02  0.47787268136E+02  0.19999986738E+02 0.  0.
        -12    1    1    2    0    0 -0.38592618280E+02 -0.15025796354E+02  0.12979167331E+02  0.43400731864E+02  0.00000000000E+00 0.  1.
         11    1    3    3    0    0  0.25600733818E+02  0.13604908768E+02 -0.71444719223E+00  0.29000026718E+02  0.51100000000E-03 0. -1.
        -11    1    3    3    0    0  0.23851435909E+01 -0.11169038923E+01 -0.38697977057E+00  0.26619800633E+01  0.51100000000E-03 0.  1.
         12    1    3    3    0    0  0.10606740871E+02  0.25377914778E+01 -0.11877740368E+02  0.16125261354E+02  0.00000000000E+00 0. -1.
</event>
<event>
 7    1  0.2732193E-010  0.4778727E+02  0.7816164E-02  0.1312668E+00
        -11   -1    0    0    0    0  0.00000000000E+00  0.00000000000E+00  0.45593999997E+02  0.45594000000E+02  0.51100000000E-03 0.  1.
         11   -1    0    0    0    0 -0.00000000000E+00 -0.00000000000E+00 -0.45593999997E+02  0.45594000000E+02  0.51100000000E-03 0. -1.
    9900012    2    1    2    0    0  0.58912967443E+01 -0.58070931116E+01 -0.42605092023E+02  0.47787267587E+02  0.19999984235E+02 0.  0.
        -12    1    1    2    0    0 -0.58912967443E+01  0.58070931116E+01  0.42605092023E+02  0.43400732413E+02  0.00000000000E+00 0.  1.
         11    1    3    3    0    0  0.33729730810E+01  0.55171921932E+01 -0.22513678182E+02  0.23423963427E+02  0.51100000000E-03 0. -1.
        -11    1    3    3    0    0  0.86729832564E+00 -0.47455693142E+01 -0.23430978138E+01  0.53630907253E+01  0.51100000000E-03 0.  1.
         12    1    3    3    0    0  0.16510253377E+01 -0.65787159906E+01 -0.17748316027E+02  0.19000213434E+02  0.00000000000E+00 0. -1.
</event>
<event>
 7    1  0.2732193E-010  0.4778725E+02  0.7816164E-02  0.1312668E+00
        -11   -1    0    0    0    0  0.00000000000E+00  0.00000000000E+00  0.45593999997E+02  0.45594000000E+02  0.51100000000E-03 0.  1.
         11   -1    0    0    0    0 -0.00000000000E+00 -0.00000000000E+00 -0.45593999997E+02  0.45594000000E+02  0.51100000000E-03 0. -1.
    9900012    2    1    2    0    0 -0.31899328919E+02  0.26716101699E+02 -0.12341293538E+02  0.47787253443E+02  0.19999919748E+02 0.  0.
        -12    1    1    2    0    0  0.31899328919E+02 -0.26716101699E+02  0.12341293538E+02  0.43400746557E+02  0.00000000000E+00 0.  1.
         11    1    3    3    0    0 -0.67469098408E+01  0.45330641087E+01 -0.77464654864E+01  0.11228409968E+02  0.51100000000E-03 0. -1.
        -11    1    3    3    0    0 -0.22402147054E+02  0.21559856981E+02  0.88942548557E-01  0.31091663460E+02  0.51100000000E-03 0.  1.
        -12    1    3    3    0    0 -0.27502720247E+01  0.62318060965E+00 -0.46837706003E+01  0.54671800152E+01  0.00000000000E+00 0.  1.
</event>
<event>
 7    1  0.2732193E-010  0.4778727E+02  0.7816164E-02  0.1312668E+00
        -11   -1    0    0    0    0  0.00000000000E+00  0.00000000000E+00  0.45593999997E+02  0.45594000000E+02  0.51100000000E-03 0. -1.
         11   -1    0    0    0    0 -0.00000000000E+00 -0.00000000000E+00 -0.45593999997E+02  0.45594000000E+02  0.51100000000E-03 0.  1.
    9900012    2    1    2    0    0 -0.17431306880E+02 -0.22405919320E+02  0.32829073860E+02  0.47787265322E+02  0.19999973909E+02 0.  0.
        -12    1    1    2    0    0  0.17431306880E+02  0.22405919320E+02 -0.32829073860E+02  0.43400734678E+02  0.00000000000E+00 0.  1.
         11    1    3    3    0    0  0.27210677484E+01 -0.22958514144E+01  0.11121265669E+02  0.11677229712E+02  0.51100000000E-03 0. -1.
        -11    1    3    3    0    0 -0.10037908816E+02 -0.90560694615E+01  0.74934518186E+01  0.15457161056E+02  0.51100000000E-03 0.  1.
         12    1    3    3    0    0 -0.10114465812E+02 -0.11053998444E+02  0.14214356372E+02  0.20652874554E+02  0.00000000000E+00 0. -1.
</event>
<event>
 7    1  0.2732193E-010  0.4778727E+02  0.7816164E-02  0.1312668E+00
        -11   -1    0    0    0    0  0.00000000000E+00  0.00000000000E+00  0.45593999997E+02  0.45594000000E+02  0.51100000000E-03 0.  1.
         11   -1    0    0    0    0 -0.00000000000E+00 -0.00000000000E+00 -0.45593999997E+02  0.45594000000E+02  0.51100000000E-03 0. -1.
    9900012    2    1    2    0    0 -0.46514279493E+00 -0.41068925440E+02 -0.14026773753E+02  0.47787269862E+02  0.19999994608E+02 0.  0.
        -12    1    1    2    0    0  0.46514279493E+00  0.41068925440E+02  0.14026773753E+02  0.43400730138E+02  0.00000000000E+00 0.  1.
         11    1    3    3    0    0  0.62195733008E+01 -0.54180876097E+01 -0.14106950663E+01  0.83683227843E+01  0.51100000000E-03 0. -1.
        -11    1    3    3    0    0  0.39550068674E+00 -0.20438247514E+02 -0.53280487674E+01  0.21125020383E+02  0.51100000000E-03 0.  1.
         12    1    3    3    0    0 -0.70802167825E+01 -0.15212590316E+02 -0.72880299188E+01  0.18293926695E+02  0.00000000000E+00 0. -1.
</event>
<event>
 7    1  0.2732193E-010  0.4778727E+02  0.7816164E-02  0.1312668E+00
        -11   -1    0    0    0    0  0.00000000000E+00  0.00000000000E+00  0.45593999997E+02  0.45594000000E+02  0.51100000000E-03 0.  1.
         11   -1    0    0    0    0 -0.00000000000E+00 -0.00000000000E+00 -0.45593999997E+02  0.45594000000E+02  0.51100000000E-03 0. -1.
    9900012    2    1    2    0    0 -0.15473815449E+02  0.18893311890E+02 -0.35877948883E+02  0.47787269421E+02  0.19999992598E+02 0.  0.
        -12    1    1    2    0    0  0.15473815449E+02 -0.18893311890E+02  0.35877948883E+02  0.43400730579E+02  0.00000000000E+00 0.  1.
         11    1    3    3    0    0 -0.14209731967E+02  0.11950610473E+02 -0.25208837363E+02  0.31308450212E+02  0.51100000000E-03 0. -1.
        -11    1    3    3    0    0 -0.20043225224E+01  0.33199467640E+00 -0.95124503427E+01  0.97269851970E+01  0.51100000000E-03 0.  1.
         12    1    3    3    0    0  0.74023904012E+00  0.66107067403E+01 -0.11566611781E+01  0.67518340119E+01  0.00000000000E+00 0. -1.
</event>
<event>
 7    1  0.2732193E-010  0.4778727E+02  0.7816164E-02  0.1312668E+00
        -11   -1    0    0    0    0  0.00000000000E+00  0.00000000000E+00  0.45593999997E+02  0.45594000000E+02  0.51100000000E-03 0.  1.
         11   -1    0    0    0    0 -0.00000000000E+00 -0.00000000000E+00 -0.45593999997E+02  0.45594000000E+02  0.51100000000E-03 0. -1.
    9900012    2    1    2    0    0 -0.93918919453E+00  0.22688617884E+02 -0.36986050868E+02  0.47787269399E+02  0.19999992500E+02 0.  0.
        -12    1    1    2    0    0  0.93918919453E+00 -0.22688617884E+02  0.36986050868E+02  0.43400730601E+02  0.00000000000E+00 0.  1.
         11    1    3    3    0    0 -0.78144955088E+00  0.18443835200E+02 -0.22701205382E+02  0.29259706874E+02  0.51100000000E-03 0. -1.
        -11    1    3    3    0    0 -0.42843919244E+01 -0.44348480909E+00 -0.10179857122E+02  0.11053605033E+02  0.51100000000E-03 0.  1.
         12    1    3    3    0    0  0.41266522808E+01  0.46882674932E+01 -0.41049883651E+01  0.74739574933E+01  0.00000000000E+00 0. -1.
</event>
<event>
 7    1  0.2732193E-010  0.4778730E+02  0.7816164E-02  0.1312668E+00
        -11   -1    0    0    0    0  0.00000000000E+00  0.00000000000E+00  0.45593999997E+02  0.45594000000E+02  0.51100000000E-03 0.  1.
         11   -1    0    0    0    0 -0.00000000000E+00 -0.00000000000E+00 -0.45593999997E+02  0.45594000000E+02  0.51100000000E-03 0. -1.
    9900012    2    1    2    0    0 -0.37981272711E+02 -0.20383117836E+02  0.50569272853E+01  0.47787296284E+02  0.20000115077E+02 0.  0.
        -12    1    1    2    0    0  0.37981272711E+02  0.20383117836E+02 -0.50569272853E+01  0.43400703716E+02  0.00000000000E+00 0.  1.
         11    1    3    3    0    0 -0.45421509328E+01 -0.90739605370E+01  0.53554471208E-01  0.10147451072E+02  0.51100000000E-03 0. -1.
        -11    1    3    3    0    0 -0.12756626588E+02 -0.18124925543E+01  0.72265765597E+01  0.14772950288E+02  0.51100000000E-03 0.  1.
        -12    1    3    3    0    0 -0.20682495190E+02 -0.94966647451E+01 -0.22232037456E+01  0.22866894924E+02  0.00000000000E+00 0.  1.
</event>
<event>
 7    1  0.2732193E-010  0.4778727E+02  0.7816164E-02  0.1312668E+00
        -11   -1    0    0    0    0  0.00000000000E+00  0.00000000000E+00  0.45593999997E+02  0.45594000000E+02  0.51100000000E-03 0.  1.
         11   -1    0    0    0    0 -0.00000000000E+00 -0.00000000000E+00 -0.45593999997E+02  0.45594000000E+02  0.51100000000E-03 0. -1.
    9900012    2    1    2    0    0 -0.36261747571E+02 -0.98288910345E+01 -0.21727904799E+02  0.47787270941E+02  0.19999999528E+02 0.  0.
        -12    1    1    2    0    0  0.36261747571E+02  0.98288910345E+01  0.21727904799E+02  0.43400729059E+02  0.00000000000E+00 0.  1.
         11    1    3    3    0    0 -0.14337486294E+02 -0.49820444784E+01 -0.78147758399E+01  0.17072053248E+02  0.51100000000E-03 0. -1.
        -11    1    3    3    0    0 -0.12487582098E+02 -0.28633628596E+01  0.11142757997E+01  0.12860021942E+02  0.51100000000E-03 0.  1.
        -12    1    3    3    0    0 -0.94366791785E+01 -0.19834836964E+01 -0.15027404759E+02  0.17855195750E+02  0.00000000000E+00 0.  1.
</event>
<event>
 7    1  0.2732193E-010  0.4778727E+02  0.7816164E-02  0.1312668E+00
        -11   -1    0    0    0    0  0.00000000000E+00  0.00000000000E+00  0.45593999997E+02  0.45594000000E+02  0.51100000000E-03 0.  1.
         11   -1    0    0    0    0 -0.00000000000E+00 -0.00000000000E+00 -0.45593999997E+02  0.45594000000E+02  0.51100000000E-03 0. -1.
    9900012    2    1    2    0    0  0.22504121209E+02  0.81116808679E+01 -0.36213098908E+02  0.47787269932E+02  0.19999994929E+02 0.  0.
        -12    1    1    2    0    0 -0.22504121209E+02 -0.81116808679E+01  0.36213098908E+02  0.43400730068E+02  0.00000000000E+00 0.  1.
         11    1    3    3    0    0  0.20742959530E+02  0.98095607441E+01 -0.30696463088E+02  0.38324544334E+02  0.51100000000E-03 0. -1.
        -11    1    3    3    0    0 -0.13231433361E+01  0.22686104762E+01 -0.23454617440E+01  0.35211493626E+01  0.51100000000E-03 0.  1.
         12    1    3    3    0    0  0.30843050149E+01 -0.39664903523E+01 -0.31711740759E+01  0.59415762353E+01  0.00000000000E+00 0. -1.
</event>
<event>
 7    1  0.2732193E-010  0.4778727E+02  0.7816164E-02  0.1312668E+00
        -11   -1    0    0    0    0  0.00000000000E+00  0.00000000000E+00  0.45593999997E+02  0.45594000000E+02  0.51100000000E-03 0.  1.
         11   -1    0    0    0    0 -0.00000000000E+00 -0.00000000000E+00 -0.45593999997E+02  0.45594000000E+02  0.51100000000E-03 0. -1.
    9900012    2    1    2    0    0 -0.31301692893E+02  0.24352148118E+02 -0.17629532693E+02  0.47787268221E+02  0.19999987129E+02 0.  0.
        -12    1    1    2    0    0  0.31301692893E+02 -0.24352148118E+02  0.17629532693E+02  0.43400731779E+02  0.00000000000E+00 0.  1.
         11    1    3    3    0    0 -0.11529638273E+02  0.61676259275E+01 -0.17889545600E+01  0.13197443955E+02  0.51100000000E-03 0. -1.
        -11    1    3    3    0    0 -0.14960790440E+02  0.18892552401E+02 -0.80533921418E+01  0.25408874672E+02  0.51100000000E-03 0.  1.
        -12    1    3    3    0    0 -0.48112641807E+01 -0.70803021069E+00 -0.77871859909E+01  0.91809495943E+01  0.00000000000E+00 0.  1.
</event>
<event>
 7    1  0.2732193E-010  0.4778727E+02  0.7816164E-02  0.1312668E+00
        -11   -1    0    0    0    0  0.00000000000E+00  0.00000000000E+00  0.45593999997E+02  0.45594000000E+02  0.51100000000E-03 0. -1.
         11   -1    0    0    0    0 -0.00000000000E+00 -0.00000000000E+00 -0.45593999997E+02  0.45594000000E+02  0.51100000000E-03 0.  1.
    9900012    2    1    2    0    0  0.35936941860E+02 -0.20628535915E+02  0.12908269749E+02  0.47787265995E+02  0.19999976978E+02 0.  0.
        -12    1    1    2    0    0 -0.35936941860E+02  0.20628535915E+02 -0.12908269749E+02  0.43400734005E+02  0.00000000000E+00 0.  1.
         11    1    3    3    0    0  0.19054560000E+01  0.24181206372E+01  0.25338338626E+01  0.39872778043E+01  0.51100000000E-03 0. -1.
        -11    1    3    3    0    0  0.31589067874E+02 -0.24073870864E+02  0.86778604024E+01  0.40653729582E+02  0.51100000000E-03 0.  1.
        -12    1    3    3    0    0  0.24424179861E+01  0.10272143115E+01  0.16965754838E+01  0.31462586087E+01  0.00000000000E+00 0.  1.
</event>
<event>
 7    1  0.2732193E-010  0.4778727E+02  0.7816164E-02  0.1312668E+00
        -11   -1    0    0    0    0  0.00000000000E+00  0.00000000000E+00  0.45593999997E+02  0.45594000000E+02  0.51100000000E-03 0.  1.
         11   -1    0    0    0    0 -0.00000000000E+00 -0.00000000000E+00 -0.45593999997E+02  0.45594000000E+02  0.51100000000E-03 0. -1.
    9900012    2    1    2    0    0  0.40076287473E+02  0.97682283051E+01 -0.13494297365E+02  0.47787272320E+02  0.20000005814E+02 0.  0.
        -12    1    1    2    0    0 -0.40076287473E+02 -0.97682283051E+01  0.13494297365E+02  0.43400727680E+02  0.00000000000E+00 0.  1.
         11    1    3    3    0    0  0.37508591246E+02  0.50951094211E+01 -0.12749600936E+02  0.39942544755E+02  0.51100000000E-03 0. -1.
        -11    1    3    3    0    0  0.33182846083E+01  0.50669773152E+01  0.77339916341E+00  0.61060149346E+01  0.51100000000E-03 0.  1.
         12    1    3    3    0    0 -0.75058838107E+00 -0.39385843119E+00 -0.15180955922E+01  0.17387126297E+01  0.00000000000E+00 0. -1.
</event>
<event>
 7    1  0.2732193E-010  0.4778727E+02  0.7816164E-02  0.1312668E+00
        -11   -1    0    0    0    0  0.00000000000E+00  0.00000000000E+00  0.45593999997E+02  0.45594000000E+02  0.51100000000E-03 0.  1.
         11   -1    0    0    0    0 -0.00000000000E+00 -0.00000000000E+00 -0.45593999997E+02  0.45594000000E+02  0.51100000000E-03 0. -1.
    9900012    2    1    2    0    0 -0.21523215549E+02  0.11906434910E+02 -0.35757680169E+02  0.47787266240E+02  0.19999978095E+02 0.  0.
        -12    1    1    2    0    0  0.21523215549E+02 -0.11906434910E+02  0.35757680169E+02  0.43400733760E+02  0.00000000000E+00 0.  1.
         11    1    3    3    0    0 -0.15922188034E+02  0.56984121151E+01 -0.25918771816E+02  0.30947870769E+02  0.51100000000E-03 0. -1.
        -11    1    3    3    0    0 -0.13079599693E+01  0.81379342762E+01 -0.35260156635E+01  0.89649049234E+01  0.51100000000E-03 0.  1.
        -12    1    3    3    0    0 -0.42930675454E+01 -0.19299114813E+01 -0.63128926893E+01  0.78744905474E+01  0.00000000000E+00 0.  1.
</event>
<event>
 7    1  0.2732193E-010  0.4778727E+02  0.7816164E-02  0.1312668E+00
        -11   -1    0    0    0    0  0.00000000000E+00  0.00000000000E+00  0.45593999997E+02  0.45594000000E+02  0.51100000000E-03 0. -1.
         11   -1    0    0    0    0 -0.00000000000E+00 -0.00000000000E+00 -0.45593999997E+02  0.45594000000E+02  0.51100000000E-03 0.  1.
    9900012    2    1    2    0    0 -0.34594780457E+02 -0.22025456007E+02 -0.14202247096E+02  0.47787269940E+02  0.19999994962E+02 0.  0.
        -12    1    1    2    0    0  0.34594780457E+02  0.22025456007E+02  0.14202247096E+02  0.43400730060E+02  0.00000000000E+00 0.  1.
         11    1    3    3    0    0 -0.22583313152E+02 -0.20709835199E+02 -0.97108013961E+01  0.32143474779E+02  0.51100000000E-03 0. -1.
        -11    1    3    3    0    0 -0.13184157702E+02 -0.18305452027E+00 -0.47046232626E+01  0.13999607265E+02  0.51100000000E-03 0.  1.
         12    1    3    3    0    0  0.11726903963E+01 -0.11325662878E+01  0.21317756285E+00  0.16441878953E+01  0.00000000000E+00 0. -1.
</event>
<event>
 7    1  0.2732193E-010  0.4778727E+02  0.7816164E-02  0.1312668E+00
        -11   -1    0    0    0    0  0.00000000000E+00  0.00000000000E+00  0.45593999997E+02  0.45594000000E+02  0.51100000000E-03 0.  1.
         11   -1    0    0    0    0 -0.00000000000E+00 -0.00000000000E+00 -0.45593999997E+02  0.45594000000E+02  0.51100000000E-03 0. -1.
    9900012    2    1    2    0    0 -0.14327782215E+02  0.37011226594E+02 -0.17564374266E+02  0.47787268663E+02  0.19999989142E+02 0.  0.
        -12    1    1    2    0    0  0.14327782215E+02 -0.37011226594E+02  0.17564374266E+02  0.43400731337E+02  0.00000000000E+00 0.  1.
         11    1    3    3    0    0 -0.15871367148E+02  0.36625894988E+02 -0.13442917781E+02  0.42119692752E+02  0.51100000000E-03 0. -1.
        -11    1    3    3    0    0  0.22184944889E+01  0.12534407855E+01 -0.36944873865E+01  0.44879916344E+01  0.51100000000E-03 0.  1.
        -12    1    3    3    0    0 -0.67490955596E+00 -0.86810917869E+00 -0.42696909855E+00  0.11795842768E+01  0.00000000000E+00 0.  1.
</event>
<event>
 7    1  0.2732193E-010  0.4778731E+02  0.7816164E-02  0.1312668E+00
        -11   -1    0    0    0    0  0.00000000000E+00  0.00000000000E+00  0.45593999997E+02  0.45594000000E+02  0.51100000000E-03 0.  1.
         11   -1    0    0    0    0 -0.00000000000E+00 -0.00000000000E+00 -0.45593999997E+02  0.45594000000E+02  0.51100000000E-03 0. -1.
    9900012    2    1    2    0    0 -0.16255954409E+02  0.36350018820E+02 -0.17263843539E+02  0.47787306277E+02  0.20000160637E+02 0.  0.
        -12    1    1    2    0    0  0.16255954409E+02 -0.36350018820E+02  0.17263843539E+02  0.43400693723E+02  0.00000000000E+00 0.  1.
         11    1    3    3    0    0 -0.86829716180E+01  0.30256429667E+02 -0.16191349192E+02  0.35397815204E+02  0.51100000000E-03 0. -1.
        -11    1    3    3    0    0 -0.18994090930E+01 -0.14113805403E+01  0.12817572758E+01  0.26912175511E+01  0.51100000000E-03 0.  1.
         12    1    3    3    0    0 -0.56735736975E+01  0.75049696929E+01 -0.23542516228E+01  0.96982735214E+01  0.00000000000E+00 0. -1.
</event>
<event>
 7    1  0.2732193E-010  0.4778727E+02  0.7816164E-02  0.1312668E+00
        -11   -1    0    0    0    0  0.00000000000E+00  0.00000000000E+00  0.45593999997E+02  0.45594000000E+02  0.51100000000E-03 0.  1.
         11   -1    0    0    0    0 -0.00000000000E+00 -0.00000000000E+00 -0.45593999997E+02  0.45594000000E+02  0.51100000000E-03 0. -1.
    9900012    2    1    2    0    0 -0.10584703472E+02  0.36803597287E+02 -0.20422591095E+02  0.47787274800E+02  0.20000017122E+02 0.  0.
        -12    1    1    2    0    0  0.10584703472E+02 -0.36803597287E+02  0.20422591095E+02  0.43400725200E+02  0.00000000000E+00 0.  1.
         11    1    3    3    0    0  0.19115332793E+01  0.11709700315E+02 -0.11605619978E+02  0.16597031550E+02  0.51100000000E-03 0. -1.
        -11    1    3    3    0    0 -0.10367838572E+02  0.97984533505E+01 -0.60787254338E+01  0.15506536295E+02  0.51100000000E-03 0.  1.
         12    1    3    3    0    0 -0.21283981797E+01  0.15295443622E+02 -0.27382456826E+01  0.15683706954E+02  0.00000000000E+00 0. -1.
</event>
<event>
 7    1  0.2732193E-010  0.4778727E+02  0.7816164E-02  0.1312668E+00
        -11   -1    0    0    0    0  0.00000000000E+00  0.00000000000E+00  0.45593999997E+02  0.45594000000E+02  0.51100000000E-03 0.  1.
         11   -1    0    0    0    0 -0.00000000000E+00 -0.00000000000E+00 -0.45593999997E+02  0.45594000000E+02  0.51100000000E-03 0. -1.
    9900012    2    1    2    0    0  0.26507619051E+02  0.26769249692E+02 -0.21549401707E+02  0.47787270620E+02  0.19999998063E+02 0.  0.
        -12    1    1    2    0    0 -0.26507619051E+02 -0.26769249692E+02  0.21549401707E+02  0.43400729380E+02  0.00000000000E+00 0.  1.
         11    1    3    3    0    0  0.12638132688E+02  0.74909985474E+01 -0.17147347457E+02  0.22580278611E+02  0.51100000000E-03 0. -1.
        -11    1    3    3    0    0  0.32505201521E+01  0.54842940594E+01  0.19650593408E+01  0.66711933762E+01  0.51100000000E-03 0.  1.
         12    1    3    3    0    0  0.10618966211E+02  0.13793957086E+02 -0.63671135906E+01  0.18535798633E+02  0.00000000000E+00 0. -1.
</event>
<event>
 7    1  0.2732193E-010  0.4778728E+02  0.7816164E-02  0.1312668E+00
        -11   -1    0    0    0    0  0.00000000000E+00  0.00000000000E+00  0.45593999997E+02  0.45594000000E+02  0.51100000000E-03 0. -1.
         11   -1    0    0    0    0 -0.00000000000E+00 -0.00000000000E+00 -0.45593999997E+02  0.45594000000E+02  0.51100000000E-03 0.  1.
    9900012    2    1    2    0    0 -0.42200662106E+02  0.23703892112E+00  0.10132657487E+02  0.47787276304E+02  0.20000023979E+02 0.  0.
        -12    1    1    2    0    0  0.42200662106E+02 -0.23703892112E+00 -0.10132657487E+02  0.43400723696E+02  0.00000000000E+00 0.  1.
         11    1    3    3    0    0 -0.82238899198E+01 -0.15594953433E+01  0.99738304225E+01  0.13020817359E+02  0.51100000000E-03 0. -1.
        -11    1    3    3    0    0 -0.11487820146E+02  0.18406058237E+01 -0.31057740472E+01  0.12041747141E+02  0.51100000000E-03 0.  1.
         12    1    3    3    0    0 -0.22488952040E+02 -0.44071559236E-01  0.32646011118E+01  0.22724711804E+02  0.00000000000E+00 0. -1.
</event>
<event>
 7    1  0.2732193E-010  0.4778727E+02  0.7816164E-02  0.1312668E+00
        -11   -1    0    0    0    0  0.00000000000E+00  0.00000000000E+00  0.45593999997E+02  0.45594000000E+02  0.51100000000E-03 0.  1.
         11   -1    0    0    0    0 -0.00000000000E+00 -0.00000000000E+00 -0.45593999997E+02  0.45594000000E+02  0.51100000000E-03 0. -1.
    9900012    2    1    2    0    0 -0.23477935487E+01 -0.54189796723E+01 -0.42997040420E+02  0.47787274659E+02  0.20000016479E+02 0.  0.
        -12    1    1    2    0    0  0.23477935487E+01  0.54189796723E+01  0.42997040420E+02  0.43400725341E+02  0.00000000000E+00 0.  1.
         11    1    3    3    0    0 -0.70807426964E+01 -0.63543447018E+01 -0.35811317097E+02  0.37053542964E+02  0.51100000000E-03 0. -1.
        -11    1    3    3    0    0  0.19115238979E+01  0.30128404505E+01 -0.60977118368E+01  0.70649289521E+01  0.51100000000E-03 0.  1.
         12    1    3    3    0    0  0.28214252499E+01 -0.20774754210E+01 -0.10880114865E+01  0.36688027421E+01  0.00000000000E+00 0. -1.
</event>
<event>
 7    1  0.2732193E-010  0.4778727E+02  0.7816164E-02  0.1312668E+00
        -11   -1    0    0    0    0  0.00000000000E+00  0.00000000000E+00  0.45593999997E+02  0.45594000000E+02  0.51100000000E-03 0.  1.
         11   -1    0    0    0    0 -0.00000000000E+00 -0.00000000000E+00 -0.45593999997E+02  0.45594000000E+02  0.51100000000E-03 0. -1.
    9900012    2    1    2    0    0  0.17611762902E+02 -0.19417296728E+02 -0.34589271508E+02  0.47787270649E+02  0.19999998196E+02 0.  0.
        -12    1    1    2    0    0 -0.17611762902E+02  0.19417296728E+02  0.34589271508E+02  0.43400729351E+02  0.00000000000E+00 0.  1.
         11    1    3    3    0    0  0.11033162459E+02 -0.19381848675E+02 -0.26568356035E+02  0.34688099899E+02  0.51100000000E-03 0. -1.
        -11    1    3    3    0    0  0.52204286208E+01  0.21535623413E+01 -0.11525716387E+01  0.57636036805E+01  0.51100000000E-03 0.  1.
         12    1    3    3    0    0  0.13581718228E+01 -0.21890103937E+01 -0.68683438346E+01  0.73355670697E+01  0.00000000000E+00 0. -1.
</event>
<event>
 7    1  0.2732193E-010  0.4778728E+02  0.7816164E-02  0.1312668E+00
        -11   -1    0    0    0    0  0.00000000000E+00  0.00000000000E+00  0.45593999997E+02  0.45594000000E+02  0.51100000000E-03 0.  1.
         11   -1    0    0    0    0 -0.00000000000E+00 -0.00000000000E+00 -0.45593999997E+02  0.45594000000E+02  0.51100000000E-03 0. -1.
    9900012    2    1    2    0    0  0.57398819527E+01  0.16047494284E+02 -0.39914330774E+02  0.47787284352E+02  0.20000060673E+02 0.  0.
        -12    1    1    2    0    0 -0.57398819527E+01 -0.16047494284E+02  0.39914330774E+02  0.43400715648E+02  0.00000000000E+00 0.  1.
         11    1    3    3    0    0  0.11296958102E+02  0.14331499225E+02 -0.26720684775E+02  0.32357504964E+02  0.51100000000E-03 0. -1.
        -11    1    3    3    0    0 -0.95426948881E+00 -0.18247712030E+01 -0.48004289165E+01  0.52234603706E+01  0.51100000000E-03 0.  1.
         12    1    3    3    0    0 -0.46028066605E+01  0.35407662624E+01 -0.83932170828E+01  0.10206319017E+02  0.00000000000E+00 0. -1.
</event>
<event>
 7    1  0.2732193E-010  0.4778726E+02  0.7816164E-02  0.1312668E+00
        -11   -1    0    0    0    0  0.00000000000E+00  0.00000000000E+00  0.45593999997E+02  0.45594000000E+02  0.51100000000E-03 0.  1.
         11   -1    0    0    0    0 -0.00000000000E+00 -0.00000000000E+00 -0.45593999997E+02  0.45594000000E+02  0.51100000000E-03 0. -1.
    9900012    2    1    2    0    0  0.12125538644E+02  0.41668759476E+02 -0.55658367679E+00  0.47787262805E+02  0.19999962432E+02 0.  0.
        -12    1    1    2    0    0 -0.12125538644E+02 -0.41668759476E+02  0.55658367679E+00  0.43400737195E+02  0.00000000000E+00 0.  1.
         11    1    3    3    0    0  0.46930784040E+01  0.13242754330E+02  0.45320251255E+01  0.14762614238E+02  0.51100000000E-03 0. -1.
        -11    1    3    3    0    0 -0.23972816979E+01  0.51133319819E+01 -0.52690311701E+01  0.77237175783E+01  0.51100000000E-03 0.  1.
        -12    1    3    3    0    0  0.98297419375E+01  0.23312673165E+02  0.18042236779E+00  0.25300930988E+02  0.00000000000E+00 0.  1.
</event>
<event>
 7    1  0.2732193E-010  0.4778728E+02  0.7816164E-02  0.1312668E+00
        -11   -1    0    0    0    0  0.00000000000E+00  0.00000000000E+00  0.45593999997E+02  0.45594000000E+02  0.51100000000E-03 0. -1.
         11   -1    0    0    0    0 -0.00000000000E+00 -0.00000000000E+00 -0.45593999997E+02  0.45594000000E+02  0.51100000000E-03 0.  1.
    9900012    2    1    2    0    0 -0.33773195834E+02  0.17027802896E+02  0.21284913147E+02  0.47787281619E+02  0.20000048213E+02 0.  0.
        -12    1    1    2    0    0  0.33773195834E+02 -0.17027802896E+02 -0.21284913147E+02  0.43400718381E+02  0.00000000000E+00 0.  1.
         11    1    3    3    0    0 -0.11111160799E+02 -0.14647811044E+01  0.12095234007E+02  0.16489334854E+02  0.51100000000E-03 0. -1.
        -11    1    3    3    0    0 -0.18807489589E+02  0.17996955607E+02  0.79035008251E+01  0.27204363645E+02  0.51100000000E-03 0.  1.
        -12    1    3    3    0    0 -0.38545454462E+01  0.49562839275E+00  0.12861783147E+01  0.40935831197E+01  0.00000000000E+00 0.  1.
</event>
<event>
 7    1  0.2732193E-010  0.4778727E+02  0.7816164E-02  0.1312668E+00
        -11   -1    0    0    0    0  0.00000000000E+00  0.00000000000E+00  0.45593999997E+02  0.45594000000E+02  0.51100000000E-03 0.  1.
         11   -1    0    0    0    0 -0.00000000000E+00 -0.00000000000E+00 -0.45593999997E+02  0.45594000000E+02  0.51100000000E-03 0. -1.
    9900012    2    1    2    0    0  0.17789277755E+02  0.26194996590E+02 -0.29681425736E+02  0.47787270938E+02  0.19999999514E+02 0.  0.
        -12    1    1    2    0    0 -0.17789277755E+02 -0.26194996590E+02  0.29681425736E+02  0.43400729062E+02  0.00000000000E+00 0.  1.
         11    1    3    3    0    0  0.76359154133E+01  0.99468507525E+01 -0.19492448988E+01  0.12690413706E+02  0.51100000000E-03 0. -1.
        -11    1    3    3    0    0 -0.15263653170E+01  0.10547151371E+00 -0.13839198380E+01  0.20630437950E+01  0.51100000000E-03 0.  1.
         12    1    3    3    0    0  0.11679727659E+02  0.16142674324E+02 -0.26348260999E+02  0.33033813437E+02  0.00000000000E+00 0. -1.
</event>
<event>
 7    1  0.2732193E-010  0.4778727E+02  0.7816164E-02  0.1312668E+00
        -11   -1    0    0    0    0  0.00000000000E+00  0.00000000000E+00  0.45593999997E+02  0.45594000000E+02  0.51100000000E-03 0.  1.
         11   -1    0    0    0    0 -0.00000000000E+00 -0.00000000000E+00 -0.45593999997E+02  0.45594000000E+02  0.51100000000E-03 0. -1.
    9900012    2    1    2    0    0  0.37086917067E+02 -0.11016757257E+02 -0.19667611575E+02  0.47787270708E+02  0.19999998468E+02 0.  0.
        -12    1    1    2    0    0 -0.37086917067E+02  0.11016757257E+02  0.19667611575E+02  0.43400729292E+02  0.00000000000E+00 0.  1.
         11    1    3    3    0    0  0.19231403788E+02 -0.64148689481E+00 -0.18746090904E+01  0.19333198302E+02  0.51100000000E-03 0. -1.
        -11    1    3    3    0    0  0.88003989127E+01 -0.71637614136E+01 -0.48639744097E+01  0.12346041711E+02  0.51100000000E-03 0.  1.
         12    1    3    3    0    0  0.90551143664E+01 -0.32115089485E+01 -0.12929028075E+02  0.16108030695E+02  0.00000000000E+00 0. -1.
</event>
<event>
 7    1  0.2732193E-010  0.4778727E+02  0.7816164E-02  0.1312668E+00
        -11   -1    0    0    0    0  0.00000000000E+00  0.00000000000E+00  0.45593999997E+02  0.45594000000E+02  0.51100000000E-03 0. -1.
         11   -1    0    0    0    0 -0.00000000000E+00 -0.00000000000E+00 -0.45593999997E+02  0.45594000000E+02  0.51100000000E-03 0.  1.
    9900012    2    1    2    0    0  0.10157425315E+02 -0.35833963466E+02  0.22279529918E+02  0.47787266365E+02  0.19999978664E+02 0.  0.
        -12    1    1    2    0    0 -0.10157425315E+02  0.35833963466E+02 -0.22279529918E+02  0.43400733635E+02  0.00000000000E+00 0.  1.
         11    1    3    3    0    0 -0.17945499110E+01 -0.19098512677E+02  0.44909233431E+01  0.19701319463E+02  0.51100000000E-03 0. -1.
        -11    1    3    3    0    0  0.76369687195E+01 -0.48027825016E+01  0.80443269039E+01  0.12087233206E+02  0.51100000000E-03 0.  1.
         12    1    3    3    0    0  0.43150065067E+01 -0.11932668287E+02  0.97442796712E+01  0.15998713695E+02  0.00000000000E+00 0. -1.
</event>
<event>
 7    1  0.9802060E-010  0.4778728E+02  0.7816164E-02  0.1312668E+00
        -11   -1    0    0    0    0  0.00000000000E+00  0.00000000000E+00  0.45593999997E+02  0.45594000000E+02  0.51100000000E-03 0. -1.
         11   -1    0    0    0    0 -0.00000000000E+00 -0.00000000000E+00 -0.45593999997E+02  0.45594000000E+02  0.51100000000E-03 0.  1.
    9900012    2    1    2    0    0  0.32670215095E+02  0.26749686872E+02  0.10036618399E+02  0.47787280985E+02  0.20000045324E+02 0.  0.
        -12    1    1    2    0    0 -0.32670215095E+02 -0.26749686872E+02 -0.10036618399E+02  0.43400719015E+02  0.00000000000E+00 0.  1.
         11    1    3    3    0    0  0.29436545118E+01  0.11503494181E+02  0.29093739891E+00  0.11877715483E+02  0.51100000000E-03 0. -1.
        -11    1    3    3    0    0  0.41942175699E+01 -0.60854501141E+00 -0.22559071206E+00  0.42441347157E+01  0.51100000000E-03 0.  1.
         12    1    3    3    0    0  0.25532343013E+02  0.15854737703E+02  0.99712717122E+01  0.31665430787E+02  0.00000000000E+00 0. -1.
</event>
<event>
 7    1  0.2732193E-010  0.4778727E+02  0.7816164E-02  0.1312668E+00
        -11   -1    0    0    0    0  0.00000000000E+00  0.00000000000E+00  0.45593999997E+02  0.45594000000E+02  0.51100000000E-03 0.  1.
         11   -1    0    0    0    0 -0.00000000000E+00 -0.00000000000E+00 -0.45593999997E+02  0.45594000000E+02  0.51100000000E-03 0. -1.
    9900012    2    1    2    0    0  0.13206142719E+02  0.15917807870E+01 -0.41312070113E+02  0.47787272948E+02  0.20000008679E+02 0.  0.
        -12    1    1    2    0    0 -0.13206142719E+02 -0.15917807870E+01  0.41312070113E+02  0.43400727052E+02  0.00000000000E+00 0.  1.
         11    1    3    3    0    0  0.65162872355E+01  0.33256107733E-01 -0.33151019800E+02  0.33785399500E+02  0.51100000000E-03 0. -1.
        -11    1    3    3    0    0  0.81446769996E+00 -0.30383635792E+01 -0.49837091783E+01  0.58934173710E+01  0.51100000000E-03 0.  1.
         12    1    3    3    0    0  0.58753877835E+01  0.45968882584E+01 -0.31773411346E+01  0.81084560770E+01  0.00000000000E+00 0. -1.
</event>
<event>
 7    1  0.2732193E-010  0.4778727E+02  0.7816164E-02  0.1312668E+00
        -11   -1    0    0    0    0  0.00000000000E+00  0.00000000000E+00  0.45593999997E+02  0.45594000000E+02  0.51100000000E-03 0.  1.
         11   -1    0    0    0    0 -0.00000000000E+00 -0.00000000000E+00 -0.45593999997E+02  0.45594000000E+02  0.51100000000E-03 0. -1.
    9900012    2    1    2    0    0  0.26458116181E+02  0.20039681557E+02 -0.27964309346E+02  0.47787270214E+02  0.19999996213E+02 0.  0.
        -12    1    1    2    0    0 -0.26458116181E+02 -0.20039681557E+02  0.27964309346E+02  0.43400729786E+02  0.00000000000E+00 0.  1.
         11    1    3    3    0    0  0.21130026994E+02  0.17615544624E+02 -0.16962349827E+02  0.32318829884E+02  0.51100000000E-03 0. -1.
        -11    1    3    3    0    0  0.23967806181E+00 -0.19490019897E+01  0.61105921034E+00  0.20565621675E+01  0.51100000000E-03 0.  1.
        -12    1    3    3    0    0  0.50884111255E+01  0.43731389226E+01 -0.11613018730E+02  0.13411878162E+02  0.00000000000E+00 0.  1.
</event>
<event>
 7    1  0.2732193E-010  0.4778728E+02  0.7816164E-02  0.1312668E+00
        -11   -1    0    0    0    0  0.00000000000E+00  0.00000000000E+00  0.45593999997E+02  0.45594000000E+02  0.51100000000E-03 0.  1.
         11   -1    0    0    0    0 -0.00000000000E+00 -0.00000000000E+00 -0.45593999997E+02  0.45594000000E+02  0.51100000000E-03 0. -1.
    9900012    2    1    2    0    0 -0.24899563287E+02 -0.38067328176E+01 -0.35343220846E+02  0.47787277352E+02  0.20000028758E+02 0.  0.
        -12    1    1    2    0    0  0.24899563287E+02  0.38067328176E+01  0.35343220846E+02  0.43400722648E+02  0.00000000000E+00 0.  1.
         11    1    3    3    0    0 -0.74153153021E+01  0.23397105695E+00 -0.20087546182E+02  0.21413807587E+02  0.51100000000E-03 0. -1.
        -11    1    3    3    0    0 -0.66574784533E+01 -0.75749928145E+01 -0.63684995408E+01  0.11927293161E+02  0.51100000000E-03 0.  1.
        -12    1    3    3    0    0 -0.10826769531E+02  0.35342889399E+01 -0.88871751232E+01  0.14446176604E+02  0.00000000000E+00 0.  1.
</event>
<event>
 7    1  0.2732193E-010  0.4778726E+02  0.7816164E-02  0.1312668E+00
        -11   -1    0    0    0    0  0.00000000000E+00  0.00000000000E+00  0.45593999997E+02  0.45594000000E+02  0.51100000000E-03 0.  1.
         11   -1    0    0    0    0 -0.00000000000E+00 -0.00000000000E+00 -0.45593999997E+02  0.45594000000E+02  0.51100000000E-03 0. -1.
    9900012    2    1    2    0    0  0.38993239656E+02 -0.14709686291E+00 -0.19055976280E+02  0.47787255671E+02  0.19999929905E+02 0.  0.
        -12    1    1    2    0    0 -0.38993239656E+02  0.14709686291E+00  0.19055976280E+02  0.43400744329E+02  0.00000000000E+00 0.  1.
         11    1    3    3    0    0  0.34588331569E+02  0.17632344621E+01 -0.84548264983E+01  0.35650326336E+02  0.51100000000E-03 0. -1.
        -11    1    3    3    0    0  0.68210365907E+00 -0.18321688014E+01 -0.53783013742E+01  0.57226072600E+01  0.51100000000E-03 0.  1.
         12    1    3    3    0    0  0.37228044278E+01 -0.78162523613E-01 -0.52228484077E+01  0.64143220747E+01  0.00000000000E+00 0. -1.
</event>
<event>
 7    1  0.2732193E-010  0.4778727E+02  0.7816164E-02  0.1312668E+00
        -11   -1    0    0    0    0  0.00000000000E+00  0.00000000000E+00  0.45593999997E+02  0.45594000000E+02  0.51100000000E-03 0.  1.
         11   -1    0    0    0    0 -0.00000000000E+00 -0.00000000000E+00 -0.45593999997E+02  0.45594000000E+02  0.51100000000E-03 0. -1.
    9900012    2    1    2    0    0  0.13646871825E+02  0.13855756080E+02 -0.38799535664E+02  0.47787273567E+02  0.20000011503E+02 0.  0.
        -12    1    1    2    0    0 -0.13646871825E+02 -0.13855756080E+02  0.38799535664E+02  0.43400726433E+02  0.00000000000E+00 0.  1.
         11    1    3    3    0    0  0.16686428614E+02  0.93476427835E+01 -0.32901348750E+02  0.38056721815E+02  0.51100000000E-03 0. -1.
        -11    1    3    3    0    0 -0.82116925494E+00 -0.30795141772E+00  0.80038211109E+00  0.11873351700E+01  0.51100000000E-03 0.  1.
         12    1    3    3    0    0 -0.22183875345E+01  0.48160647140E+01 -0.66985690252E+01  0.85432165820E+01  0.00000000000E+00 0. -1.
</event>
<event>
 7    1  0.2732193E-010  0.4778726E+02  0.7816164E-02  0.1312668E+00
        -11   -1    0    0    0    0  0.00000000000E+00  0.00000000000E+00  0.45593999997E+02  0.45594000000E+02  0.51100000000E-03 0. -1.
         11   -1    0    0    0    0 -0.00000000000E+00 -0.00000000000E+00 -0.45593999997E+02  0.45594000000E+02  0.51100000000E-03 0.  1.
    9900012    2    1    2    0    0 -0.16655921416E+02 -0.39062481326E+02  0.89625131323E+01  0.47787264900E+02  0.19999971986E+02 0.  0.
        -12    1    1    2    0    0  0.16655921416E+02  0.39062481326E+02 -0.89625131323E+01  0.43400735100E+02  0.00000000000E+00 0.  1.
         11    1    3    3    0    0  0.70025086504E+00 -0.17381795722E+02  0.71202992686E+01  0.18796697468E+02  0.51100000000E-03 0. -1.
        -11    1    3    3    0    0 -0.11634314686E+02 -0.10763750388E+02 -0.22384740854E+01  0.16007072410E+02  0.51100000000E-03 0.  1.
        -12    1    3    3    0    0 -0.57218575950E+01 -0.10916935216E+02  0.40806879491E+01  0.12983495022E+02  0.00000000000E+00 0.  1.
</event>
<event>
 7    1  0.2732193E-010  0.4778727E+02  0.7816164E-02  0.1312668E+00
        -11   -1    0    0    0    0  0.00000000000E+00  0.00000000000E+00  0.45593999997E+02  0.45594000000E+02  0.51100000000E-03 0. -1.
         11   -1    0    0    0    0 -0.00000000000E+00 -0.00000000000E+00 -0.45593999997E+02  0.45594000000E+02  0.51100000000E-03 0.  1.
    9900012    2    1    2    0    0 -0.36151899386E+02  0.22951225365E+02 -0.70643331123E+01  0.47787269853E+02  0.19999994568E+02 0.  0.
        -12    1    1    2    0    0  0.36151899386E+02 -0.22951225365E+02  0.70643331123E+01  0.43400730147E+02  0.00000000000E+00 0.  1.
         11    1    3    3    0    0 -0.53346357661E+01  0.78861950504E+01 -0.59231718709E+01  0.11213134103E+02  0.51100000000E-03 0. -1.
        -11    1    3    3    0    0 -0.30060733244E+02  0.14525358580E+02 -0.39467902165E+01  0.33618609108E+02  0.51100000000E-03 0.  1.
        -12    1    3    3    0    0 -0.75653037564E+00  0.53967173407E+00  0.28056289751E+01  0.29555266427E+01  0.00000000000E+00 0.  1.
</event>
<event>
 7    1  0.2732193E-010  0.4778727E+02  0.7816164E-02  0.1312668E+00
        -11   -1    0    0    0    0  0.00000000000E+00  0.00000000000E+00  0.45593999997E+02  0.45594000000E+02  0.51100000000E-03 0.  1.
         11   -1    0    0    0    0 -0.00000000000E+00 -0.00000000000E+00 -0.45593999997E+02  0.45594000000E+02  0.51100000000E-03 0. -1.
    9900012    2    1    2    0    0  0.25310116071E+01  0.32471593705E+02 -0.28684716117E+02  0.47787270096E+02  0.19999995674E+02 0.  0.
        -12    1    1    2    0    0 -0.25310116071E+01 -0.32471593705E+02  0.28684716117E+02  0.43400729904E+02  0.00000000000E+00 0.  1.
         11    1    3    3    0    0  0.73324260414E+00  0.26986883681E+02 -0.17313888493E+02  0.32071798679E+02  0.51100000000E-03 0. -1.
        -11    1    3    3    0    0  0.54979100097E+01  0.25967803049E+01 -0.54984406290E+01  0.81977516453E+01  0.51100000000E-03 0.  1.
        -12    1    3    3    0    0 -0.37001410068E+01  0.28879297193E+01 -0.58723869954E+01  0.75177197712E+01  0.00000000000E+00 0.  1.
</event>
<event>
 7    1  0.2732193E-010  0.4778727E+02  0.7816164E-02  0.1312668E+00
        -11   -1    0    0    0    0  0.00000000000E+00  0.00000000000E+00  0.45593999997E+02  0.45594000000E+02  0.51100000000E-03 0.  1.
         11   -1    0    0    0    0 -0.00000000000E+00 -0.00000000000E+00 -0.45593999997E+02  0.45594000000E+02  0.51100000000E-03 0. -1.
    9900012    2    1    2    0    0 -0.10084348596E+01 -0.37631102929E+02 -0.21598758532E+02  0.47787271681E+02  0.20000002900E+02 0.  0.
        -12    1    1    2    0    0  0.10084348596E+01  0.37631102929E+02  0.21598758532E+02  0.43400728319E+02  0.00000000000E+00 0.  1.
         11    1    3    3    0    0 -0.18392145227E+00 -0.24962202438E+00 -0.20087174498E+01  0.20325069028E+01  0.51100000000E-03 0. -1.
        -11    1    3    3    0    0  0.64958564127E+01 -0.26885523665E+02 -0.17652882484E+02  0.32812372567E+02  0.51100000000E-03 0.  1.
        -12    1    3    3    0    0 -0.73203698201E+01 -0.10495957240E+02 -0.19371585984E+01  0.12942392210E+02  0.00000000000E+00 0.  1.
</event>
<event>
 7    1  0.2732193E-010  0.4778727E+02  0.7816164E-02  0.1312668E+00
        -11   -1    0    0    0    0  0.00000000000E+00  0.00000000000E+00  0.45593999997E+02  0.45594000000E+02  0.51100000000E-03 0.  1.
         11   -1    0    0    0    0 -0.00000000000E+00 -0.00000000000E+00 -0.45593999997E+02  0.45594000000E+02  0.51100000000E-03 0. -1.
    9900012    2    1    2    0    0 -0.23430011041E+02  0.11915972492E+02 -0.34535018201E+02  0.47787270744E+02  0.19999998629E+02 0.  0.
        -12    1    1    2    0    0  0.23430011041E+02 -0.11915972492E+02  0.34535018201E+02  0.43400729256E+02  0.00000000000E+00 0.  1.
         11    1    3    3    0    0 -0.17002251322E+02  0.40357687348E+01 -0.11286836078E+02  0.20802803855E+02  0.51100000000E-03 0. -1.
        -11    1    3    3    0    0 -0.14011406014E+01 -0.92978002574E+00 -0.10785629744E+02  0.10915928504E+02  0.51100000000E-03 0.  1.
         12    1    3    3    0    0 -0.50266191174E+01  0.88099837830E+01 -0.12462552379E+02  0.16068538384E+02  0.00000000000E+00 0. -1.
</event>
<event>
 7    1  0.2732193E-010  0.4778727E+02  0.7816164E-02  0.1312668E+00
        -11   -1    0    0    0    0  0.00000000000E+00  0.00000000000E+00  0.45593999997E+02  0.45594000000E+02  0.51100000000E-03 0. -1.
         11   -1    0    0    0    0 -0.00000000000E+00 -0.00000000000E+00 -0.45593999997E+02  0.45594000000E+02  0.51100000000E-03 0.  1.
    9900012    2    1    2    0    0  0.27749038804E+02 -0.12657169603E+02  0.30877336193E+02  0.47787274346E+02  0.20000015054E+02 0.  0.
        -12    1    1    2    0    0 -0.27749038804E+02  0.12657169603E+02 -0.30877336193E+02  0.43400725654E+02  0.00000000000E+00 0.  1.
         11    1    3    3    0    0  0.24991366466E+02 -0.98047044852E+01  0.30453428913E+02  0.40596945214E+02  0.51100000000E-03 0. -1.
        -11    1    3    3    0    0 -0.56810314755E+00 -0.37011191822E+01  0.16088648857E+00  0.37479206382E+01  0.51100000000E-03 0.  1.
        -12    1    3    3    0    0  0.33257754862E+01  0.84865406428E+00  0.26302079106E+00  0.34424084943E+01  0.00000000000E+00 0.  1.
</event>
<event>
 7    1  0.2732193E-010  0.4778728E+02  0.7816164E-02  0.1312668E+00
        -11   -1    0    0    0    0  0.00000000000E+00  0.00000000000E+00  0.45593999997E+02  0.45594000000E+02  0.51100000000E-03 0. -1.
         11   -1    0    0    0    0 -0.00000000000E+00 -0.00000000000E+00 -0.45593999997E+02  0.45594000000E+02  0.51100000000E-03 0.  1.
    9900012    2    1    2    0    0  0.27894702137E+02 -0.28711234596E+02  0.16768226420E+02  0.47787276312E+02  0.20000024018E+02 0.  0.
        -12    1    1    2    0    0 -0.27894702137E+02  0.28711234596E+02 -0.16768226420E+02  0.43400723688E+02  0.00000000000E+00 0.  1.
         11    1    3    3    0    0  0.10380604578E+02 -0.15181917262E+02  0.57472406834E+01  0.19268584247E+02  0.51100000000E-03 0. -1.
        -11    1    3    3    0    0  0.47482030285E+01 -0.74502182417E+01  0.11340552711E+02  0.14375650242E+02  0.51100000000E-03 0.  1.
        -12    1    3    3    0    0  0.12765894531E+02 -0.60790990928E+01 -0.31956697441E+00  0.14143041823E+02  0.00000000000E+00 0.  1.
</event>
<event>
 7    1  0.2732193E-010  0.4778727E+02  0.7816164E-02  0.1312668E+00
        -11   -1    0    0    0    0  0.00000000000E+00  0.00000000000E+00  0.45593999997E+02  0.45594000000E+02  0.51100000000E-03 0.  1.
         11   -1    0    0    0    0 -0.00000000000E+00 -0.00000000000E+00 -0.45593999997E+02  0.45594000000E+02  0.51100000000E-03 0. -1.
    9900012    2    1    2    0    0 -0.28940331555E+02  0.14128739490E+02 -0.29093971592E+02  0.47787271284E+02  0.20000001092E+02 0.  0.
        -12    1    1    2    0    0  0.28940331555E+02 -0.14128739490E+02  0.29093971592E+02  0.43400728716E+02  0.00000000000E+00 0.  1.
         11    1    3    3    0    0 -0.19950928357E+01 -0.28988450742E+01 -0.45573078968E+00  0.35484347255E+01  0.51100000000E-03 0. -1.
        -11    1    3    3    0    0 -0.10577080263E+02  0.12134334877E+02 -0.99753719915E+01  0.18937390434E+02  0.51100000000E-03 0.  1.
         12    1    3    3    0    0 -0.16368158456E+02  0.48932496870E+01 -0.18662868811E+02  0.25301446125E+02  0.00000000000E+00 0. -1.
</event>
<event>
 7    1  0.2732193E-010  0.4778727E+02  0.7816164E-02  0.1312668E+00
        -11   -1    0    0    0    0  0.00000000000E+00  0.00000000000E+00  0.45593999997E+02  0.45594000000E+02  0.51100000000E-03 0. -1.
         11   -1    0    0    0    0 -0.00000000000E+00 -0.00000000000E+00 -0.45593999997E+02  0.45594000000E+02  0.51100000000E-03 0.  1.
    9900012    2    1    2    0    0 -0.30104436797E+02  0.29657162306E+02  0.98893236203E+01  0.47787272903E+02  0.20000008472E+02 0.  0.
        -12    1    1    2    0    0  0.30104436797E+02 -0.29657162306E+02 -0.98893236203E+01  0.43400727097E+02  0.00000000000E+00 0.  1.
         11    1    3    3    0    0 -0.15767267835E+02  0.21153911867E+02 -0.14114172435E+00  0.26383984602E+02  0.51100000000E-03 0. -1.
        -11    1    3    3    0    0 -0.61179649178E+00 -0.15529000100E+01  0.19506898676E+01  0.25672912981E+01  0.51100000000E-03 0.  1.
        -12    1    3    3    0    0 -0.13725372470E+02  0.10056150450E+02  0.80797754770E+01  0.18835997002E+02  0.00000000000E+00 0.  1.
</event>
<event>
 7    1  0.2732193E-010  0.4778727E+02  0.7816164E-02  0.1312668E+00
        -11   -1    0    0    0    0  0.00000000000E+00  0.00000000000E+00  0.45593999997E+02  0.45594000000E+02  0.51100000000E-03 0.  1.
         11   -1    0    0    0    0 -0.00000000000E+00 -0.00000000000E+00 -0.45593999997E+02  0.45594000000E+02  0.51100000000E-03 0. -1.
    9900012    2    1    2    0    0  0.58975186205E+01  0.65579558816E+01 -0.42495125673E+02  0.47787271697E+02  0.20000002977E+02 0.  0.
        -12    1    1    2    0    0 -0.58975186205E+01 -0.65579558816E+01  0.42495125673E+02  0.43400728303E+02  0.00000000000E+00 0.  1.
         11    1    3    3    0    0 -0.16308048722E+01  0.12867611819E+01 -0.82323393971E+01  0.84903881584E+01  0.51100000000E-03 0. -1.
        -11    1    3    3    0    0  0.91315504657E+01  0.83229705614E+01 -0.33582332150E+02  0.35783097767E+02  0.51100000000E-03 0.  1.
        -12    1    3    3    0    0 -0.16032269730E+01 -0.30517758617E+01 -0.68045412603E+00  0.35137857724E+01  0.00000000000E+00 0.  1.
</event>
<event>
 7    1  0.2732193E-010  0.4778727E+02  0.7816164E-02  0.1312668E+00
        -11   -1    0    0    0    0  0.00000000000E+00  0.00000000000E+00  0.45593999997E+02  0.45594000000E+02  0.51100000000E-03 0.  1.
         11   -1    0    0    0    0 -0.00000000000E+00 -0.00000000000E+00 -0.45593999997E+02  0.45594000000E+02  0.51100000000E-03 0. -1.
    9900012    2    1    2    0    0 -0.40298666203E+02 -0.14607252470E+02  0.68021248381E+01  0.47787271611E+02  0.20000002581E+02 0.  0.
        -12    1    1    2    0    0  0.40298666203E+02  0.14607252470E+02 -0.68021248381E+01  0.43400728389E+02  0.00000000000E+00 0.  1.
         11    1    3    3    0    0 -0.19942470283E+02 -0.84766710280E+01  0.80823775536E+01  0.23127492295E+02  0.51100000000E-03 0. -1.
        -11    1    3    3    0    0 -0.12694259844E+02  0.15897063000E+01 -0.40800516074E+01  0.13428262005E+02  0.51100000000E-03 0.  1.
        -12    1    3    3    0    0 -0.76619360762E+01 -0.77202877418E+01  0.27997988918E+01  0.11231517310E+02  0.00000000000E+00 0.  1.
</event>
<event>
 7    1  0.2732193E-010  0.4778727E+02  0.7816164E-02  0.1312668E+00
        -11   -1    0    0    0    0  0.00000000000E+00  0.00000000000E+00  0.45593999997E+02  0.45594000000E+02  0.51100000000E-03 0.  1.
         11   -1    0    0    0    0 -0.00000000000E+00 -0.00000000000E+00 -0.45593999997E+02  0.45594000000E+02  0.51100000000E-03 0. -1.
    9900012    2    1    2    0    0  0.30587270183E+02  0.42413739176E+01 -0.30496768911E+02  0.47787271159E+02  0.20000000523E+02 0.  0.
        -12    1    1    2    0    0 -0.30587270183E+02 -0.42413739176E+01  0.30496768911E+02  0.43400728841E+02  0.00000000000E+00 0.  1.
         11    1    3    3    0    0  0.10131567174E+02 -0.55100782769E+01 -0.11769174593E+02  0.16477957606E+02  0.51100000000E-03 0. -1.
        -11    1    3    3    0    0  0.20652293267E+02  0.92218613193E+01 -0.14111649896E+02  0.26658931082E+02  0.51100000000E-03 0.  1.
        -12    1    3    3    0    0 -0.19659025799E+00  0.52959087521E+00 -0.46159444210E+01  0.46503824706E+01  0.00000000000E+00 0.  1.
</event>
<event>
 7    1  0.2732193E-010  0.4778727E+02  0.7816164E-02  0.1312668E+00
        -11   -1    0    0    0    0  0.00000000000E+00  0.00000000000E+00  0.45593999997E+02  0.45594000000E+02  0.51100000000E-03 0.  1.
         11   -1    0    0    0    0 -0.00000000000E+00 -0.00000000000E+00 -0.45593999997E+02  0.45594000000E+02  0.51100000000E-03 0. -1.
    9900012    2    1    2    0    0  0.16243605344E+02  0.26312738324E+02 -0.30453378063E+02  0.47787272494E+02  0.20000006607E+02 0.  0.
        -12    1    1    2    0    0 -0.16243605344E+02 -0.26312738324E+02  0.30453378063E+02  0.43400727506E+02  0.00000000000E+00 0.  1.
         11    1    3    3    0    0  0.67483735128E+00 -0.18941056297E+01  0.11230898572E+01  0.23031223753E+01  0.51100000000E-03 0.  1.
        -11    1    3    3    0    0  0.14527695923E+02  0.21520604898E+02 -0.25379398039E+02  0.36308459471E+02  0.51100000000E-03 0. -1.
        -12    1    3    3    0    0  0.10410720688E+01  0.66862390548E+01 -0.61970698812E+01  0.91756906477E+01  0.00000000000E+00 0.  1.
</event>
<event>
 7    1  0.2732193E-010  0.4778728E+02  0.7816164E-02  0.1312668E+00
        -11   -1    0    0    0    0  0.00000000000E+00  0.00000000000E+00  0.45593999997E+02  0.45594000000E+02  0.51100000000E-03 0.  1.
         11   -1    0    0    0    0 -0.00000000000E+00 -0.00000000000E+00 -0.45593999997E+02  0.45594000000E+02  0.51100000000E-03 0. -1.
    9900012    2    1    2    0    0 -0.28997227538E+01  0.20009074563E+02 -0.38403788775E+02  0.47787280546E+02  0.20000043319E+02 0.  0.
        -12    1    1    2    0    0  0.28997227538E+01 -0.20009074563E+02  0.38403788775E+02  0.43400719454E+02  0.00000000000E+00 0.  1.
         11    1    3    3    0    0 -0.55389179835E+01  0.61115776863E+01 -0.26426582864E+02  0.27683845043E+02  0.51100000000E-03 0. -1.
        -11    1    3    3    0    0  0.52231299271E+01  0.11072988007E+02 -0.82700706038E+01  0.14774512435E+02  0.51100000000E-03 0.  1.
         12    1    3    3    0    0 -0.25839346974E+01  0.28245088698E+01 -0.37071353068E+01  0.53289230674E+01  0.00000000000E+00 0. -1.
</event>
<event>
 7    1  0.2732193E-010  0.4778727E+02  0.7816164E-02  0.1312668E+00
        -11   -1    0    0    0    0  0.00000000000E+00  0.00000000000E+00  0.45593999997E+02  0.45594000000E+02  0.51100000000E-03 0.  1.
         11   -1    0    0    0    0 -0.00000000000E+00 -0.00000000000E+00 -0.45593999997E+02  0.45594000000E+02  0.51100000000E-03 0. -1.
    9900012    2    1    2    0    0 -0.27764809374E+02  0.33145575212E+02  0.37562463928E+01  0.47787272095E+02  0.20000004790E+02 0.  0.
        -12    1    1    2    0    0  0.27764809374E+02 -0.33145575212E+02 -0.37562463928E+01  0.43400727905E+02  0.00000000000E+00 0.  1.
         11    1    3    3    0    0 -0.13520973636E+01  0.35580809561E+01  0.55737469639E+01  0.67494268534E+01  0.51100000000E-03 0.  1.
        -11    1    3    3    0    0 -0.23626665611E+02  0.23716977612E+02  0.19370548585E+01  0.33533066319E+02  0.51100000000E-03 0. -1.
         12    1    3    3    0    0 -0.27860463987E+01  0.58705166438E+01 -0.37545554295E+01  0.75047789224E+01  0.00000000000E+00 0. -1.
</event>
<event>
 7    1  0.2732193E-010  0.4778724E+02  0.7816164E-02  0.1312668E+00
        -11   -1    0    0    0    0  0.00000000000E+00  0.00000000000E+00  0.45593999997E+02  0.45594000000E+02  0.51100000000E-03 0.  1.
         11   -1    0    0    0    0 -0.00000000000E+00 -0.00000000000E+00 -0.45593999997E+02  0.45594000000E+02  0.51100000000E-03 0. -1.
    9900012    2    1    2    0    0  0.10811449425E+01 -0.42395536865E+02 -0.92236564100E+01  0.47787236666E+02  0.19999843254E+02 0.  0.
        -12    1    1    2    0    0 -0.10811449425E+01  0.42395536865E+02  0.92236564100E+01  0.43400763334E+02  0.00000000000E+00 0.  1.
         11    1    3    3    0    0  0.17092253548E+01 -0.10194245032E+02 -0.11457314912E+01  0.10399845383E+02  0.51100000000E-03 0. -1.
        -11    1    3    3    0    0  0.81899147012E+01 -0.18162763364E+02 -0.42041439040E+01  0.20362600572E+02  0.51100000000E-03 0.  1.
        -12    1    3    3    0    0 -0.88179951135E+01 -0.14038528468E+02 -0.38737810148E+01  0.17024790710E+02  0.00000000000E+00 0.  1.
</event>
<event>
 7    1  0.2732193E-010  0.4778723E+02  0.7816164E-02  0.1312668E+00
        -11   -1    0    0    0    0  0.00000000000E+00  0.00000000000E+00  0.45593999997E+02  0.45594000000E+02  0.51100000000E-03 0. -1.
         11   -1    0    0    0    0 -0.00000000000E+00 -0.00000000000E+00 -0.45593999997E+02  0.45594000000E+02  0.51100000000E-03 0.  1.
    9900012    2    1    2    0    0 -0.29339032690E+02 -0.31719301328E+02 -0.40907061925E+01  0.47787230501E+02  0.19999815147E+02 0.  0.
        -12    1    1    2    0    0  0.29339032690E+02  0.31719301328E+02  0.40907061925E+01  0.43400769499E+02  0.00000000000E+00 0.  1.
         11    1    3    3    0    0 -0.12520600989E+02 -0.10739361673E+02 -0.84294858119E+00  0.16516957978E+02  0.51100000000E-03 0. -1.
        -11    1    3    3    0    0 -0.29155117265E+01  0.26146206608E+00 -0.50313553391E+01  0.58209198455E+01  0.51100000000E-03 0.  1.
        -12    1    3    3    0    0 -0.13902919975E+02 -0.21241401720E+02  0.17835977277E+01  0.25449352678E+02  0.00000000000E+00 0.  1.
</event>
<event>
 7    1  0.2732193E-010  0.4778727E+02  0.7816164E-02  0.1312668E+00
        -11   -1    0    0    0    0  0.00000000000E+00  0.00000000000E+00  0.45593999997E+02  0.45594000000E+02  0.51100000000E-03 0.  1.
         11   -1    0    0    0    0 -0.00000000000E+00 -0.00000000000E+00 -0.45593999997E+02  0.45594000000E+02  0.51100000000E-03 0. -1.
    9900012    2    1    2    0    0 -0.11652760449E+02  0.24945523354E+02 -0.33549329859E+02  0.47787268492E+02  0.19999988361E+02 0.  0.
        -12    1    1    2    0    0  0.11652760449E+02 -0.24945523354E+02  0.33549329859E+02  0.43400731508E+02  0.00000000000E+00 0.  1.
         11    1    3    3    0    0 -0.12291790425E+02  0.13744991640E+02 -0.23629325890E+02  0.29972619994E+02  0.51100000000E-03 0. -1.
        -11    1    3    3    0    0  0.43979603146E+01  0.64612695239E+01 -0.86041991010E+01  0.11624211854E+02  0.51100000000E-03 0.  1.
        -12    1    3    3    0    0 -0.37589303384E+01  0.47392621901E+01 -0.13158048684E+01  0.61904366444E+01  0.00000000000E+00 0.  1.
</event>
<event>
 7    1  0.2732193E-010  0.4778727E+02  0.7816164E-02  0.1312668E+00
        -11   -1    0    0    0    0  0.00000000000E+00  0.00000000000E+00  0.45593999997E+02  0.45594000000E+02  0.51100000000E-03 0. -1.
         11   -1    0    0    0    0 -0.00000000000E+00 -0.00000000000E+00 -0.45593999997E+02  0.45594000000E+02  0.51100000000E-03 0.  1.
    9900012    2    1    2    0    0  0.63959248393E+01  0.41747608056E+02 -0.99926148092E+01  0.47787274387E+02  0.20000015242E+02 0.  0.
        -12    1    1    2    0    0 -0.63959248393E+01 -0.41747608056E+02  0.99926148092E+01  0.43400725613E+02  0.00000000000E+00 0.  1.
         11    1    3    3    0    0 -0.46638720565E+01  0.23747404680E+02 -0.38271823151E+01  0.24501801083E+02  0.51100000000E-03 0. -1.
        -11    1    3    3    0    0  0.99054834949E+01  0.12503293315E+02 -0.73205763439E+01  0.17551119202E+02  0.51100000000E-03 0.  1.
        -12    1    3    3    0    0  0.11543134009E+01  0.54969100614E+01  0.11551438498E+01  0.57343541017E+01  0.00000000000E+00 0.  1.
</event>
<event>
 7    1  0.2732193E-010  0.4778727E+02  0.7816164E-02  0.1312668E+00
        -11   -1    0    0    0    0  0.00000000000E+00  0.00000000000E+00  0.45593999997E+02  0.45594000000E+02  0.51100000000E-03 0.  1.
         11   -1    0    0    0    0 -0.00000000000E+00 -0.00000000000E+00 -0.45593999997E+02  0.45594000000E+02  0.51100000000E-03 0. -1.
    9900012    2    1    2    0    0 -0.29751718598E+02  0.15641368376E+02 -0.27455530913E+02  0.47787270261E+02  0.19999996426E+02 0.  0.
        -12    1    1    2    0    0  0.29751718598E+02 -0.15641368376E+02  0.27455530913E+02  0.43400729739E+02  0.00000000000E+00 0.  1.
         11    1    3    3    0    0 -0.15646991566E+02  0.11570256073E+02 -0.74863725436E+01  0.20850538237E+02  0.51100000000E-03 0. -1.
        -11    1    3    3    0    0 -0.36306829288E+01  0.61727318093E+01 -0.59460332716E+01  0.93080496586E+01  0.51100000000E-03 0.  1.
         12    1    3    3    0    0 -0.10474044103E+02 -0.21016195057E+01 -0.14023125098E+02  0.17628682365E+02  0.00000000000E+00 0. -1.
</event>
<event>
 7    1  0.2732193E-010  0.4778730E+02  0.7816164E-02  0.1312668E+00
        -11   -1    0    0    0    0  0.00000000000E+00  0.00000000000E+00  0.45593999997E+02  0.45594000000E+02  0.51100000000E-03 0.  1.
         11   -1    0    0    0    0 -0.00000000000E+00 -0.00000000000E+00 -0.45593999997E+02  0.45594000000E+02  0.51100000000E-03 0. -1.
    9900012    2    1    2    0    0  0.14860199539E+02  0.21217769377E+02 -0.34822426671E+02  0.47787301078E+02  0.20000136935E+02 0.  0.
        -12    1    1    2    0    0 -0.14860199539E+02 -0.21217769377E+02  0.34822426671E+02  0.43400698922E+02  0.00000000000E+00 0.  1.
         11    1    3    3    0    0  0.24591301935E+01  0.14980974275E+02 -0.11445859146E+02  0.19012748444E+02  0.51100000000E-03 0. -1.
        -11    1    3    3    0    0  0.11960789267E+02  0.75997034670E+01 -0.23383416226E+02  0.27342277289E+02  0.51100000000E-03 0.  1.
         12    1    3    3    0    0  0.44028007845E+00 -0.13629083651E+01  0.68487015608E-02  0.14322753450E+01  0.00000000000E+00 0. -1.
</event>
<event>
 7    1  0.2732193E-010  0.4778726E+02  0.7816164E-02  0.1312668E+00
        -11   -1    0    0    0    0  0.00000000000E+00  0.00000000000E+00  0.45593999997E+02  0.45594000000E+02  0.51100000000E-03 0.  1.
         11   -1    0    0    0    0 -0.00000000000E+00 -0.00000000000E+00 -0.45593999997E+02  0.45594000000E+02  0.51100000000E-03 0. -1.
    9900012    2    1    2    0    0  0.40662206908E+02  0.49063697912E+01 -0.14357446448E+02  0.47787264941E+02  0.19999972173E+02 0.  0.
        -12    1    1    2    0    0 -0.40662206908E+02 -0.49063697912E+01  0.14357446448E+02  0.43400735059E+02  0.00000000000E+00 0.  1.
         11    1    3    3    0    0  0.30652751034E+02 -0.31492606143E+01 -0.95909391341E+01  0.32272203243E+02  0.51100000000E-03 0. -1.
        -11    1    3    3    0    0  0.96311836989E+01  0.37681473050E+01 -0.24548618588E+01  0.10629439334E+02  0.51100000000E-03 0.  1.
         12    1    3    3    0    0  0.37827217425E+00  0.42874831005E+01 -0.23116454554E+01  0.48856223643E+01  0.00000000000E+00 0. -1.
</event>
<event>
 7    1  0.2732193E-010  0.4778728E+02  0.7816164E-02  0.1312668E+00
        -11   -1    0    0    0    0  0.00000000000E+00  0.00000000000E+00  0.45593999997E+02  0.45594000000E+02  0.51100000000E-03 0. -1.
         11   -1    0    0    0    0 -0.00000000000E+00 -0.00000000000E+00 -0.45593999997E+02  0.45594000000E+02  0.51100000000E-03 0.  1.
    9900012    2    1    2    0    0  0.38819583300E+02 -0.17518364451E+02  0.83528289760E+01  0.47787275438E+02  0.20000020032E+02 0.  0.
        -12    1    1    2    0    0 -0.38819583300E+02  0.17518364451E+02 -0.83528289760E+01  0.43400724562E+02  0.00000000000E+00 0.  1.
         11    1    3    3    0    0  0.49767038143E+01 -0.55060725898E+00  0.68013029673E+01  0.84456184808E+01  0.51100000000E-03 0. -1.
        -11    1    3    3    0    0  0.72422210972E+01 -0.36514902255E+01  0.47880739051E+01  0.94185348792E+01  0.51100000000E-03 0.  1.
         12    1    3    3    0    0  0.26600658388E+02 -0.13316266967E+02 -0.32365478963E+01  0.29923122078E+02  0.00000000000E+00 0. -1.
</event>
<event>
 7    1  0.2732193E-010  0.4778727E+02  0.7816164E-02  0.1312668E+00
        -11   -1    0    0    0    0  0.00000000000E+00  0.00000000000E+00  0.45593999997E+02  0.45594000000E+02  0.51100000000E-03 0.  1.
         11   -1    0    0    0    0 -0.00000000000E+00 -0.00000000000E+00 -0.45593999997E+02  0.45594000000E+02  0.51100000000E-03 0. -1.
    9900012    2    1    2    0    0 -0.38373179180E+02  0.18240891288E+02 -0.88539511657E+01  0.47787269054E+02  0.19999990925E+02 0.  0.
        -12    1    1    2    0    0  0.38373179180E+02 -0.18240891288E+02  0.88539511657E+01  0.43400730946E+02  0.00000000000E+00 0.  1.
         11    1    3    3    0    0 -0.16497093741E+02 -0.54328222285E+00 -0.91802482062E+00  0.16531546429E+02  0.51100000000E-03 0. -1.
        -11    1    3    3    0    0 -0.40660487494E+01  0.74672953753E+01 -0.52280845934E+01  0.99812885656E+01  0.51100000000E-03 0.  1.
         12    1    3    3    0    0 -0.17810036690E+02  0.11316878136E+02 -0.27078417518E+01  0.21274434060E+02  0.00000000000E+00 0. -1.
</event>
<event>
 7    1  0.2732193E-010  0.4778727E+02  0.7816164E-02  0.1312668E+00
        -11   -1    0    0    0    0  0.00000000000E+00  0.00000000000E+00  0.45593999997E+02  0.45594000000E+02  0.51100000000E-03 0.  1.
         11   -1    0    0    0    0 -0.00000000000E+00 -0.00000000000E+00 -0.45593999997E+02  0.45594000000E+02  0.51100000000E-03 0. -1.
    9900012    2    1    2    0    0  0.31171461892E+01  0.27278829616E+02 -0.33612083311E+02  0.47787270857E+02  0.19999999148E+02 0.  0.
        -12    1    1    2    0    0 -0.31171461892E+01 -0.27278829616E+02  0.33612083311E+02  0.43400729143E+02  0.00000000000E+00 0.  1.
         11    1    3    3    0    0  0.29073290247E+01  0.32932847039E+01 -0.45061783089E+01  0.62931652935E+01  0.51100000000E-03 0. -1.
        -11    1    3    3    0    0  0.29896023480E+01 -0.16375442967E+01 -0.14914003280E+01  0.37206919682E+01  0.51100000000E-03 0.  1.
        -12    1    3    3    0    0 -0.27797851835E+01  0.25623089209E+02 -0.27614504674E+02  0.37773413596E+02  0.00000000000E+00 0.  1.
</event>
<event>
 7    1  0.2732193E-010  0.4778727E+02  0.7816164E-02  0.1312668E+00
        -11   -1    0    0    0    0  0.00000000000E+00  0.00000000000E+00  0.45593999997E+02  0.45594000000E+02  0.51100000000E-03 0.  1.
         11   -1    0    0    0    0 -0.00000000000E+00 -0.00000000000E+00 -0.45593999997E+02  0.45594000000E+02  0.51100000000E-03 0. -1.
    9900012    2    1    2    0    0 -0.30031566409E+02 -0.66019618584E+01 -0.30629106639E+02  0.47787273568E+02  0.20000011507E+02 0.  0.
        -12    1    1    2    0    0  0.30031566409E+02  0.66019618584E+01  0.30629106639E+02  0.43400726432E+02  0.00000000000E+00 0.  1.
         11    1    3    3    0    0 -0.15881808090E+02  0.45296656207E+01 -0.17355769576E+02  0.23957721859E+02  0.51100000000E-03 0. -1.
        -11    1    3    3    0    0 -0.13549666956E+02 -0.11638388628E+02 -0.14049596408E+02  0.22725244200E+02  0.51100000000E-03 0.  1.
        -12    1    3    3    0    0 -0.60009136216E+00  0.50676114874E+00  0.77625934453E+00  0.11043075092E+01  0.00000000000E+00 0.  1.
</event>
<event>
 7    1  0.2732193E-010  0.4778727E+02  0.7816164E-02  0.1312668E+00
        -11   -1    0    0    0    0  0.00000000000E+00  0.00000000000E+00  0.45593999997E+02  0.45594000000E+02  0.51100000000E-03 0.  1.
         11   -1    0    0    0    0 -0.00000000000E+00 -0.00000000000E+00 -0.45593999997E+02  0.45594000000E+02  0.51100000000E-03 0. -1.
    9900012    2    1    2    0    0 -0.80790193798E+01 -0.66820518738E+00 -0.42636908213E+02  0.47787274266E+02  0.20000014688E+02 0.  0.
        -12    1    1    2    0    0  0.80790193798E+01  0.66820518738E+00  0.42636908213E+02  0.43400725734E+02  0.00000000000E+00 0.  1.
         11    1    3    3    0    0 -0.94721419971E+01  0.97912943972E+00 -0.42008161135E+02  0.43073956989E+02  0.51100000000E-03 0. -1.
        -11    1    3    3    0    0  0.40164238955E+00  0.12468161402E+01  0.56871024182E+00  0.14280401594E+01  0.51100000000E-03 0.  1.
         12    1    3    3    0    0  0.99148022776E+00 -0.28941507673E+01 -0.11974573192E+01  0.32852771172E+01  0.00000000000E+00 0. -1.
</event>
<event>
 7    1  0.2732193E-010  0.4778727E+02  0.7816164E-02  0.1312668E+00
        -11   -1    0    0    0    0  0.00000000000E+00  0.00000000000E+00  0.45593999997E+02  0.45594000000E+02  0.51100000000E-03 0. -1.
         11   -1    0    0    0    0 -0.00000000000E+00 -0.00000000000E+00 -0.45593999997E+02  0.45594000000E+02  0.51100000000E-03 0.  1.
    9900012    2    1    2    0    0  0.90967050319E+01  0.44572367476E+01  0.42201969847E+02  0.47787271195E+02  0.20000000686E+02 0.  0.
        -12    1    1    2    0    0 -0.90967050319E+01 -0.44572367476E+01 -0.42201969847E+02  0.43400728805E+02  0.00000000000E+00 0.  1.
         11    1    3    3    0    0  0.45835839895E+01  0.77603161136E+01  0.55365425001E+01  0.10577573043E+02  0.51100000000E-03 0. -1.
        -11    1    3    3    0    0  0.37185374323E+01 -0.96425963422E+00  0.24024956571E+02  0.24330142946E+02  0.51100000000E-03 0.  1.
        -12    1    3    3    0    0  0.79458361016E+00 -0.23388197319E+01  0.12640470776E+02  0.12879555206E+02  0.00000000000E+00 0.  1.
</event>
<event>
 7    1  0.2732193E-010  0.4778726E+02  0.7816164E-02  0.1312668E+00
        -11   -1    0    0    0    0  0.00000000000E+00  0.00000000000E+00  0.45593999997E+02  0.45594000000E+02  0.51100000000E-03 0. -1.
         11   -1    0    0    0    0 -0.00000000000E+00 -0.00000000000E+00 -0.45593999997E+02  0.45594000000E+02  0.51100000000E-03 0.  1.
    9900012    2    1    2    0    0  0.15650779642E+02 -0.38661898990E+02  0.11997300046E+02  0.47787256397E+02  0.19999933216E+02 0.  0.
        -12    1    1    2    0    0 -0.15650779642E+02  0.38661898990E+02 -0.11997300046E+02  0.43400743603E+02  0.00000000000E+00 0.  1.
         11    1    3    3    0    0  0.16354355412E+02 -0.26059045944E+02  0.34865193427E+01  0.30962794349E+02  0.51100000000E-03 0. -1.
        -11    1    3    3    0    0 -0.20196136876E+01 -0.21653053807E+01  0.48559342707E+01  0.56874849223E+01  0.51100000000E-03 0.  1.
        -12    1    3    3    0    0  0.13160379170E+01 -0.10437547665E+02  0.36548464324E+01  0.11136977126E+02  0.00000000000E+00 0.  1.
</event>
<event>
 7    1  0.2732193E-010  0.4778727E+02  0.7816164E-02  0.1312668E+00
        -11   -1    0    0    0    0  0.00000000000E+00  0.00000000000E+00  0.45593999997E+02  0.45594000000E+02  0.51100000000E-03 0.  1.
         11   -1    0    0    0    0 -0.00000000000E+00 -0.00000000000E+00 -0.45593999997E+02  0.45594000000E+02  0.51100000000E-03 0. -1.
    9900012    2    1    2    0    0  0.34397379698E+02  0.22598563566E+02  0.13774918091E+02  0.47787272198E+02  0.20000005260E+02 0.  0.
        -12    1    1    2    0    0 -0.34397379698E+02 -0.22598563566E+02 -0.13774918091E+02  0.43400727802E+02  0.00000000000E+00 0.  1.
         11    1    3    3    0    0  0.28553788669E+02  0.19431779459E+02  0.17203719127E+02  0.38586018871E+02  0.51100000000E-03 0. -1.
        -11    1    3    3    0    0  0.78607484214E+00  0.10917641996E+00 -0.31891924913E+01  0.32864543441E+01  0.51100000000E-03 0.  1.
         12    1    3    3    0    0  0.50575161874E+01  0.30576076864E+01 -0.23960854530E+00  0.59147989826E+01  0.00000000000E+00 0. -1.
</event>
<event>
 7    1  0.2732193E-010  0.4778727E+02  0.7816164E-02  0.1312668E+00
        -11   -1    0    0    0    0  0.00000000000E+00  0.00000000000E+00  0.45593999997E+02  0.45594000000E+02  0.51100000000E-03 0. -1.
         11   -1    0    0    0    0 -0.00000000000E+00 -0.00000000000E+00 -0.45593999997E+02  0.45594000000E+02  0.51100000000E-03 0.  1.
    9900012    2    1    2    0    0 -0.17915783720E+01  0.41853165365E+02  0.11345765965E+02  0.47787267179E+02  0.19999982374E+02 0.  0.
        -12    1    1    2    0    0  0.17915783720E+01 -0.41853165365E+02 -0.11345765965E+02  0.43400732821E+02  0.00000000000E+00 0.  1.
         11    1    3    3    0    0 -0.42775089197E+01  0.33069990858E+02  0.87222163428E+01  0.34467353192E+02  0.51100000000E-03 0. -1.
        -11    1    3    3    0    0  0.47705976976E+01  0.77354700721E+01 -0.74304376877E+00  0.91185642473E+01  0.51100000000E-03 0.  1.
         12    1    3    3    0    0 -0.22846671499E+01  0.10477044349E+01  0.33665933914E+01  0.42013497393E+01  0.00000000000E+00 0. -1.
</event>
<event>
 7    1  0.2732193E-010  0.4778727E+02  0.7816164E-02  0.1312668E+00
        -11   -1    0    0    0    0  0.00000000000E+00  0.00000000000E+00  0.45593999997E+02  0.45594000000E+02  0.51100000000E-03 0. -1.
         11   -1    0    0    0    0 -0.00000000000E+00 -0.00000000000E+00 -0.45593999997E+02  0.45594000000E+02  0.51100000000E-03 0.  1.
    9900012    2    1    2    0    0 -0.40448465879E+02 -0.82030471965E+01  0.13425896063E+02  0.47787273504E+02  0.20000011214E+02 0.  0.
        -12    1    1    2    0    0  0.40448465879E+02  0.82030471965E+01 -0.13425896063E+02  0.43400726496E+02  0.00000000000E+00 0.  1.
         11    1    3    3    0    0 -0.21353428797E+02  0.17431157693E+00  0.14872778599E+02  0.26023044584E+02  0.51100000000E-03 0. -1.
        -11    1    3    3    0    0 -0.18458685869E+01 -0.27260719372E+01 -0.14879477575E+01  0.36128503756E+01  0.51100000000E-03 0.  1.
         12    1    3    3    0    0 -0.17249168496E+02 -0.56512868363E+01  0.41065220671E-01  0.18151378544E+02  0.00000000000E+00 0. -1.
</event>
<event>
 7    1  0.2732193E-010  0.4778727E+02  0.7816164E-02  0.1312668E+00
        -11   -1    0    0    0    0  0.00000000000E+00  0.00000000000E+00  0.45593999997E+02  0.45594000000E+02  0.51100000000E-03 0.  1.
         11   -1    0    0    0    0 -0.00000000000E+00 -0.00000000000E+00 -0.45593999997E+02  0.45594000000E+02  0.51100000000E-03 0. -1.
    9900012    2    1    2    0    0 -0.97145613755E+01 -0.36980839975E+02 -0.20534565070E+02  0.47787267395E+02  0.19999983362E+02 0.  0.
        -12    1    1    2    0    0  0.97145613755E+01  0.36980839975E+02  0.20534565070E+02  0.43400732605E+02  0.00000000000E+00 0.  1.
         11    1    3    3    0    0 -0.45763024480E+01 -0.10602935849E+02 -0.93216069629E+01  0.14841062945E+02  0.51100000000E-03 0. -1.
        -11    1    3    3    0    0 -0.69144626981E+00 -0.72616107314E+01  0.38103369489E+01  0.82296874961E+01  0.51100000000E-03 0.  1.
        -12    1    3    3    0    0 -0.44468126577E+01 -0.19116293395E+02 -0.15023295056E+02  0.24716516954E+02  0.00000000000E+00 0.  1.
</event>
<event>
 7    1  0.2732193E-010  0.4778727E+02  0.7816164E-02  0.1312668E+00
        -11   -1    0    0    0    0  0.00000000000E+00  0.00000000000E+00  0.45593999997E+02  0.45594000000E+02  0.51100000000E-03 0.  1.
         11   -1    0    0    0    0 -0.00000000000E+00 -0.00000000000E+00 -0.45593999997E+02  0.45594000000E+02  0.51100000000E-03 0. -1.
    9900012    2    1    2    0    0  0.19288166112E+02 -0.37070721016E+02 -0.11719716901E+02  0.47787268753E+02  0.19999989550E+02 0.  0.
        -12    1    1    2    0    0 -0.19288166112E+02  0.37070721016E+02  0.11719716901E+02  0.43400731247E+02  0.00000000000E+00 0.  1.
         11    1    3    3    0    0  0.50001147229E+01 -0.68929582745E+01 -0.39835652069E+01  0.94012133810E+01  0.51100000000E-03 0. -1.
        -11    1    3    3    0    0 -0.24509410079E+01 -0.97639086398E+01 -0.64492162483E+01  0.11955476328E+02  0.51100000000E-03 0.  1.
        -12    1    3    3    0    0  0.16738992397E+02 -0.20413854101E+02 -0.12869354453E+01  0.26430579044E+02  0.00000000000E+00 0.  1.
</event>
<event>
 7    1  0.2732193E-010  0.4778726E+02  0.7816164E-02  0.1312668E+00
        -11   -1    0    0    0    0  0.00000000000E+00  0.00000000000E+00  0.45593999997E+02  0.45594000000E+02  0.51100000000E-03 0.  1.
         11   -1    0    0    0    0 -0.00000000000E+00 -0.00000000000E+00 -0.45593999997E+02  0.45594000000E+02  0.51100000000E-03 0. -1.
    9900012    2    1    2    0    0 -0.42109874111E+02 -0.25427040845E+01 -0.10193991242E+02  0.47787259233E+02  0.19999946146E+02 0.  0.
        -12    1    1    2    0    0  0.42109874111E+02  0.25427040845E+01  0.10193991242E+02  0.43400740767E+02  0.00000000000E+00 0.  1.
         11    1    3    3    0    0 -0.24241902465E+02 -0.65265068529E+01 -0.63552188414E+01  0.25896986960E+02  0.51100000000E-03 0. -1.
        -11    1    3    3    0    0 -0.33167773408E+01  0.33731812993E+00  0.38008757423E+01  0.50558334742E+01  0.51100000000E-03 0.  1.
         12    1    3    3    0    0 -0.14551194305E+02  0.36464846384E+01 -0.76396481424E+01  0.16834438798E+02  0.00000000000E+00 0. -1.
</event>
<event>
 7    1  0.2732193E-010  0.4778728E+02  0.7816164E-02  0.1312668E+00
        -11   -1    0    0    0    0  0.00000000000E+00  0.00000000000E+00  0.45593999997E+02  0.45594000000E+02  0.51100000000E-03 0.  1.
         11   -1    0    0    0    0 -0.00000000000E+00 -0.00000000000E+00 -0.45593999997E+02  0.45594000000E+02  0.51100000000E-03 0. -1.
    9900012    2    1    2    0    0  0.57986456576E+01  0.23061746663E+02 -0.36306392814E+02  0.47787278695E+02  0.20000034882E+02 0.  0.
        -12    1    1    2    0    0 -0.57986456576E+01 -0.23061746663E+02  0.36306392814E+02  0.43400721305E+02  0.00000000000E+00 0.  1.
         11    1    3    3    0    0  0.13219653012E+01  0.46693415161E+01 -0.70667401543E+01  0.85725818236E+01  0.51100000000E-03 0. -1.
        -11    1    3    3    0    0  0.83137027272E+01  0.20210707683E+02 -0.23751259512E+02  0.32275574151E+02  0.51100000000E-03 0.  1.
        -12    1    3    3    0    0 -0.38370223709E+01 -0.18183025363E+01 -0.54883931476E+01  0.69391227205E+01  0.00000000000E+00 0.  1.
</event>
<event>
 7    1  0.2732193E-010  0.4778727E+02  0.7816164E-02  0.1312668E+00
        -11   -1    0    0    0    0  0.00000000000E+00  0.00000000000E+00  0.45593999997E+02  0.45594000000E+02  0.51100000000E-03 0. -1.
         11   -1    0    0    0    0 -0.00000000000E+00 -0.00000000000E+00 -0.45593999997E+02  0.45594000000E+02  0.51100000000E-03 0.  1.
    9900012    2    1    2    0    0 -0.26075092340E+02 -0.18238154598E+02  0.29514109742E+02  0.47787269620E+02  0.19999993504E+02 0.  0.
        -12    1    1    2    0    0  0.26075092340E+02  0.18238154598E+02 -0.29514109742E+02  0.43400730380E+02  0.00000000000E+00 0.  1.
         11    1    3    3    0    0 -0.14932944097E+02 -0.14817936460E+02  0.82811021387E+01  0.22608421290E+02  0.51100000000E-03 0. -1.
        -11    1    3    3    0    0 -0.90036548651E+01 -0.54508391781E+01  0.15564437225E+02  0.18789070096E+02  0.51100000000E-03 0.  1.
         12    1    3    3    0    0 -0.21384933773E+01  0.20306210407E+01  0.56685703789E+01  0.63897782337E+01  0.00000000000E+00 0. -1.
</event>
<event>
 7    1  0.2732193E-010  0.4778727E+02  0.7816164E-02  0.1312668E+00
        -11   -1    0    0    0    0  0.00000000000E+00  0.00000000000E+00  0.45593999997E+02  0.45594000000E+02  0.51100000000E-03 0. -1.
         11   -1    0    0    0    0 -0.00000000000E+00 -0.00000000000E+00 -0.45593999997E+02  0.45594000000E+02  0.51100000000E-03 0.  1.
    9900012    2    1    2    0    0  0.12192836290E+01  0.75344162202E+00  0.43377057919E+02  0.47787268664E+02  0.19999989146E+02 0.  0.
        -12    1    1    2    0    0 -0.12192836290E+01 -0.75344162202E+00 -0.43377057919E+02  0.43400731336E+02  0.00000000000E+00 0.  1.
         11    1    3    3    0    0  0.49934199809E+00 -0.84118108154E+00  0.31311045826E+01  0.32803573298E+01  0.51100000000E-03 0. -1.
        -11    1    3    3    0    0 -0.13099557911E+01 -0.33550631806E+01  0.38797794608E+02  0.38964615997E+02  0.51100000000E-03 0.  1.
        -12    1    3    3    0    0  0.20298974221E+01  0.49496858842E+01  0.14481587280E+01  0.55422953366E+01  0.00000000000E+00 0.  1.
</event>
<event>
 7    1  0.2732193E-010  0.4778727E+02  0.7816164E-02  0.1312668E+00
        -11   -1    0    0    0    0  0.00000000000E+00  0.00000000000E+00  0.45593999997E+02  0.45594000000E+02  0.51100000000E-03 0.  1.
         11   -1    0    0    0    0 -0.00000000000E+00 -0.00000000000E+00 -0.45593999997E+02  0.45594000000E+02  0.51100000000E-03 0. -1.
    9900012    2    1    2    0    0  0.10361892198E+02 -0.24571174717E+01 -0.42073946610E+02  0.47787271670E+02  0.20000002853E+02 0.  0.
        -12    1    1    2    0    0 -0.10361892198E+02  0.24571174717E+01  0.42073946610E+02  0.43400728330E+02  0.00000000000E+00 0.  1.
         11    1    3    3    0    0  0.74719408400E+01 -0.78145247674E+01 -0.14710384599E+02  0.18256289671E+02  0.51100000000E-03 0. -1.
        -11    1    3    3    0    0 -0.24583003041E+01 -0.10512208659E+01 -0.51866492393E+01  0.58352066190E+01  0.51100000000E-03 0.  1.
         12    1    3    3    0    0  0.53482516622E+01  0.64086281615E+01 -0.22176912772E+02  0.23695775380E+02  0.00000000000E+00 0. -1.
</event>
<event>
 7    1  0.2732193E-010  0.4778727E+02  0.7816164E-02  0.1312668E+00
        -11   -1    0    0    0    0  0.00000000000E+00  0.00000000000E+00  0.45593999997E+02  0.45594000000E+02  0.51100000000E-03 0. -1.
         11   -1    0    0    0    0 -0.00000000000E+00 -0.00000000000E+00 -0.45593999997E+02  0.45594000000E+02  0.51100000000E-03 0.  1.
    9900012    2    1    2    0    0  0.35602702434E+02 -0.24677348254E+02 -0.26644907892E+01  0.47787269032E+02  0.19999990822E+02 0.  0.
        -12    1    1    2    0    0 -0.35602702434E+02  0.24677348254E+02  0.26644907892E+01  0.43400730968E+02  0.00000000000E+00 0.  1.
         11    1    3    3    0    0  0.15907812892E+01 -0.46973983903E+01 -0.51154609092E+01  0.71248913902E+01  0.51100000000E-03 0. -1.
        -11    1    3    3    0    0  0.55757253603E+01  0.40069518642E+00 -0.13823847690E-01  0.55901217595E+01  0.51100000000E-03 0.  1.
         12    1    3    3    0    0  0.28436195784E+02 -0.20380645050E+02  0.24647939677E+01  0.35072255882E+02  0.00000000000E+00 0. -1.
</event>
<event>
 7    1  0.2732193E-010  0.4778729E+02  0.7816164E-02  0.1312668E+00
        -11   -1    0    0    0    0  0.00000000000E+00  0.00000000000E+00  0.45593999997E+02  0.45594000000E+02  0.51100000000E-03 0.  1.
         11   -1    0    0    0    0 -0.00000000000E+00 -0.00000000000E+00 -0.45593999997E+02  0.45594000000E+02  0.51100000000E-03 0. -1.
    9900012    2    1    2    0    0  0.10697152040E+02 -0.39972307330E+02 -0.13092261269E+02  0.47787288944E+02  0.20000081611E+02 0.  0.
        -12    1    1    2    0    0 -0.10697152040E+02  0.39972307330E+02  0.13092261269E+02  0.43400711056E+02  0.00000000000E+00 0.  1.
         11    1    3    3    0    0  0.11992655662E+02 -0.26758619078E+02 -0.12026260389E+02  0.31693507600E+02  0.51100000000E-03 0. -1.
        -11    1    3    3    0    0 -0.12326594125E+01 -0.62618692425E+01  0.39639362387E+01  0.75128720476E+01  0.51100000000E-03 0.  1.
         12    1    3    3    0    0 -0.62844209345E-01 -0.69518190092E+01 -0.50299371190E+01  0.85809092964E+01  0.00000000000E+00 0. -1.
</event>
<event>
 7    1  0.2732193E-010  0.4778725E+02  0.7816164E-02  0.1312668E+00
        -11   -1    0    0    0    0  0.00000000000E+00  0.00000000000E+00  0.45593999997E+02  0.45594000000E+02  0.51100000000E-03 0.  1.
         11   -1    0    0    0    0 -0.00000000000E+00 -0.00000000000E+00 -0.45593999997E+02  0.45594000000E+02  0.51100000000E-03 0. -1.
    9900012    2    1    2    0    0 -0.39073343402E+02  0.14507920902E+02 -0.12100364098E+02  0.47787254099E+02  0.19999922737E+02 0.  0.
        -12    1    1    2    0    0  0.39073343402E+02 -0.14507920902E+02  0.12100364098E+02  0.43400745901E+02  0.00000000000E+00 0.  1.
         11    1    3    3    0    0 -0.30368290418E+02  0.68499124043E+01 -0.15244129784E+02  0.34663206084E+02  0.51100000000E-03 0. -1.
        -11    1    3    3    0    0 -0.75575081214E+01  0.84294541553E+01  0.24777207562E+01  0.11589250483E+02  0.51100000000E-03 0.  1.
         12    1    3    3    0    0 -0.11475448622E+01 -0.77144565744E+00  0.66604493006E+00  0.15347975313E+01  0.00000000000E+00 0. -1.
</event>
<event>
 7    1  0.2732193E-010  0.4778727E+02  0.7816164E-02  0.1312668E+00
        -11   -1    0    0    0    0  0.00000000000E+00  0.00000000000E+00  0.45593999997E+02  0.45594000000E+02  0.51100000000E-03 0.  1.
         11   -1    0    0    0    0 -0.00000000000E+00 -0.00000000000E+00 -0.45593999997E+02  0.45594000000E+02  0.51100000000E-03 0. -1.
    9900012    2    1    2    0    0  0.30964203824E+02 -0.16947352223E+02 -0.25251305486E+02  0.47787273110E+02  0.20000009420E+02 0.  0.
        -12    1    1    2    0    0 -0.30964203824E+02  0.16947352223E+02  0.25251305486E+02  0.43400726890E+02  0.00000000000E+00 0.  1.
         11    1    3    3    0    0  0.74174114730E+01  0.10755465331E+01 -0.71976729307E+01  0.10391404582E+02  0.51100000000E-03 0. -1.
        -11    1    3    3    0    0  0.24188810798E+02 -0.13048250445E+02 -0.13495899499E+02  0.30618535416E+02  0.51100000000E-03 0.  1.
        -12    1    3    3    0    0 -0.64201844704E+00 -0.49746483113E+01 -0.45577330557E+01  0.67773331122E+01  0.00000000000E+00 0.  1.
</event>
<event>
 7    1  0.2732193E-010  0.4778727E+02  0.7816164E-02  0.1312668E+00
        -11   -1    0    0    0    0  0.00000000000E+00  0.00000000000E+00  0.45593999997E+02  0.45594000000E+02  0.51100000000E-03 0.  1.
         11   -1    0    0    0    0 -0.00000000000E+00 -0.00000000000E+00 -0.45593999997E+02  0.45594000000E+02  0.51100000000E-03 0. -1.
    9900012    2    1    2    0    0 -0.20585976730E+02  0.24221445814E+02 -0.29549317235E+02  0.47787273920E+02  0.20000013111E+02 0.  0.
        -12    1    1    2    0    0  0.20585976730E+02 -0.24221445814E+02  0.29549317235E+02  0.43400726080E+02  0.00000000000E+00 0.  1.
         11    1    3    3    0    0 -0.17719709711E+02  0.16569777738E+02 -0.16576306464E+02  0.29382300502E+02  0.51100000000E-03 0. -1.
        -11    1    3    3    0    0  0.37163888567E+01  0.38105785300E+01 -0.41740590100E+01  0.67642312015E+01  0.51100000000E-03 0.  1.
         12    1    3    3    0    0 -0.65826558754E+01  0.38410895460E+01 -0.87989517604E+01  0.11640742217E+02  0.00000000000E+00 0. -1.
</event>
<event>
 7    1  0.2732193E-010  0.4778727E+02  0.7816164E-02  0.1312668E+00
        -11   -1    0    0    0    0  0.00000000000E+00  0.00000000000E+00  0.45593999997E+02  0.45594000000E+02  0.51100000000E-03 0.  1.
         11   -1    0    0    0    0 -0.00000000000E+00 -0.00000000000E+00 -0.45593999997E+02  0.45594000000E+02  0.51100000000E-03 0. -1.
    9900012    2    1    2    0    0 -0.29949942370E+02  0.29618432907E+02  0.10458144039E+02  0.47787269677E+02  0.19999993764E+02 0.  0.
        -12    1    1    2    0    0  0.29949942370E+02 -0.29618432907E+02 -0.10458144039E+02  0.43400730323E+02  0.00000000000E+00 0.  1.
         11    1    3    3    0    0 -0.18226242261E+02  0.29209140623E+02  0.70662040326E+01  0.35146849683E+02  0.51100000000E-03 0. -1.
        -11    1    3    3    0    0 -0.86284332773E+01  0.17194610133E+01  0.27560386257E+01  0.92196613910E+01  0.51100000000E-03 0.  1.
         12    1    3    3    0    0 -0.30952668312E+01 -0.13101687292E+01  0.63590138031E+00  0.34207586031E+01  0.00000000000E+00 0. -1.
</event>
<event>
 7    1  0.2732193E-010  0.4778728E+02  0.7816164E-02  0.1312668E+00
        -11   -1    0    0    0    0  0.00000000000E+00  0.00000000000E+00  0.45593999997E+02  0.45594000000E+02  0.51100000000E-03 0. -1.
         11   -1    0    0    0    0 -0.00000000000E+00 -0.00000000000E+00 -0.45593999997E+02  0.45594000000E+02  0.51100000000E-03 0.  1.
    9900012    2    1    2    0    0  0.33567964344E+02 -0.74563743682E+00  0.27500147773E+02  0.47787281884E+02  0.20000049422E+02 0.  0.
        -12    1    1    2    0    0 -0.33567964344E+02  0.74563743682E+00 -0.27500147773E+02  0.43400718116E+02  0.00000000000E+00 0.  1.
         11    1    3    3    0    0 -0.17875365331E+01  0.22991769765E+01  0.30407767515E+01  0.42104423924E+01  0.51100000000E-03 0. -1.
        -11    1    3    3    0    0  0.25850084397E+01 -0.44922236472E+00  0.42311109278E+01  0.49785910970E+01  0.51100000000E-03 0.  1.
         12    1    3    3    0    0  0.32770492438E+02 -0.25955920486E+01  0.20228260094E+02  0.38598248395E+02  0.00000000000E+00 0. -1.
</event>
<event>
 7    1  0.2732193E-010  0.4778728E+02  0.7816164E-02  0.1312668E+00
        -11   -1    0    0    0    0  0.00000000000E+00  0.00000000000E+00  0.45593999997E+02  0.45594000000E+02  0.51100000000E-03 0.  1.
         11   -1    0    0    0    0 -0.00000000000E+00 -0.00000000000E+00 -0.45593999997E+02  0.45594000000E+02  0.51100000000E-03 0. -1.
    9900012    2    1    2    0    0 -0.16518597330E+02  0.13112076466E+02 -0.37931940775E+02  0.47787277219E+02  0.20000028150E+02 0.  0.
        -12    1    1    2    0    0  0.16518597330E+02 -0.13112076466E+02  0.37931940775E+02  0.43400722781E+02  0.00000000000E+00 0.  1.
         11    1    3    3    0    0 -0.95293543100E+01  0.91293142678E+01 -0.69219320590E+01  0.14901882977E+02  0.51100000000E-03 0. -1.
        -11    1    3    3    0    0 -0.15492091409E+01  0.35846849239E+01 -0.22069427054E+02  0.22412265074E+02  0.51100000000E-03 0.  1.
        -12    1    3    3    0    0 -0.54400338789E+01  0.39807727420E+00 -0.89405816618E+01  0.10473129168E+02  0.00000000000E+00 0.  1.
</event>
<event>
 7    1  0.2732193E-010  0.4778727E+02  0.7816164E-02  0.1312668E+00
        -11   -1    0    0    0    0  0.00000000000E+00  0.00000000000E+00  0.45593999997E+02  0.45594000000E+02  0.51100000000E-03 0.  1.
         11   -1    0    0    0    0 -0.00000000000E+00 -0.00000000000E+00 -0.45593999997E+02  0.45594000000E+02  0.51100000000E-03 0. -1.
    9900012    2    1    2    0    0  0.27074354498E+01 -0.20978164783E+02 -0.37897355113E+02  0.47787272714E+02  0.20000007612E+02 0.  0.
        -12    1    1    2    0    0 -0.27074354498E+01  0.20978164783E+02  0.37897355113E+02  0.43400727286E+02  0.00000000000E+00 0.  1.
         11    1    3    3    0    0  0.16870873463E+01 -0.13730103912E+02 -0.37478235409E+02  0.39949720234E+02  0.51100000000E-03 0. -1.
        -11    1    3    3    0    0  0.16094356193E+01 -0.26914415269E+01  0.42974992676E+00  0.31652528755E+01  0.51100000000E-03 0.  1.
         12    1    3    3    0    0 -0.58908751576E+00 -0.45566193434E+01 -0.84886963115E+00  0.46722996043E+01  0.00000000000E+00 0. -1.
</event>
<event>
 7    1  0.2732193E-010  0.4778727E+02  0.7816164E-02  0.1312668E+00
        -11   -1    0    0    0    0  0.00000000000E+00  0.00000000000E+00  0.45593999997E+02  0.45594000000E+02  0.51100000000E-03 0. -1.
         11   -1    0    0    0    0 -0.00000000000E+00 -0.00000000000E+00 -0.45593999997E+02  0.45594000000E+02  0.51100000000E-03 0.  1.
    9900012    2    1    2    0    0 -0.22273116996E+01  0.42452282405E+01  0.43135144298E+02  0.47787267820E+02  0.19999985297E+02 0.  0.
        -12    1    1    2    0    0  0.22273116996E+01 -0.42452282405E+01 -0.43135144298E+02  0.43400732180E+02  0.00000000000E+00 0.  1.
         11    1    3    3    0    0  0.52864588992E-01  0.88306496870E+01  0.16091847638E+02  0.18355672944E+02  0.51100000000E-03 0. -1.
        -11    1    3    3    0    0 -0.26200610441E+01  0.10238133613E+01  0.13302937440E+01  0.31116869027E+01  0.51100000000E-03 0.  1.
         12    1    3    3    0    0  0.33988475554E+00 -0.56092348079E+01  0.25713002915E+02  0.26319907973E+02  0.00000000000E+00 0. -1.
</event>
<event>
 7    1  0.2732193E-010  0.4778725E+02  0.7816164E-02  0.1312668E+00
        -11   -1    0    0    0    0  0.00000000000E+00  0.00000000000E+00  0.45593999997E+02  0.45594000000E+02  0.51100000000E-03 0.  1.
         11   -1    0    0    0    0 -0.00000000000E+00 -0.00000000000E+00 -0.45593999997E+02  0.45594000000E+02  0.51100000000E-03 0. -1.
    9900012    2    1    2    0    0  0.15924648257E+02 -0.22641676203E+02 -0.33427312152E+02  0.47787249764E+02  0.19999902973E+02 0.  0.
        -12    1    1    2    0    0 -0.15924648257E+02  0.22641676203E+02  0.33427312152E+02  0.43400750236E+02  0.00000000000E+00 0.  1.
         11    1    3    3    0    0  0.21062381900E+01 -0.20770468203E+01 -0.15555172613E+02  0.15833943226E+02  0.51100000000E-03 0. -1.
        -11    1    3    3    0    0 -0.33603635444E-01 -0.43739077251E+01 -0.64046746302E+01  0.77557756138E+01  0.51100000000E-03 0.  1.
         12    1    3    3    0    0  0.13852013702E+02 -0.16190721658E+02 -0.11467464909E+02  0.24197530924E+02  0.00000000000E+00 0. -1.
</event>
<event>
 7    1  0.2732193E-010  0.4778727E+02  0.7816164E-02  0.1312668E+00
        -11   -1    0    0    0    0  0.00000000000E+00  0.00000000000E+00  0.45593999997E+02  0.45594000000E+02  0.51100000000E-03 0.  1.
         11   -1    0    0    0    0 -0.00000000000E+00 -0.00000000000E+00 -0.45593999997E+02  0.45594000000E+02  0.51100000000E-03 0. -1.
    9900012    2    1    2    0    0 -0.20753520659E+02  0.30703313550E+02 -0.22588079096E+02  0.47787269592E+02  0.19999993378E+02 0.  0.
        -12    1    1    2    0    0  0.20753520659E+02 -0.30703313550E+02  0.22588079096E+02  0.43400730408E+02  0.00000000000E+00 0.  1.
         11    1    3    3    0    0 -0.12083053731E+02  0.40596444202E+01 -0.25330975181E+01  0.12996056463E+02  0.51100000000E-03 0. -1.
        -11    1    3    3    0    0 -0.60124206414E+01  0.19259959304E+02 -0.11677332103E+02  0.23312128167E+02  0.51100000000E-03 0.  1.
         12    1    3    3    0    0 -0.26580462861E+01  0.73837098263E+01 -0.83776494745E+01  0.11479084962E+02  0.00000000000E+00 0. -1.
</event>
<event>
 7    1  0.2732193E-010  0.4778727E+02  0.7816164E-02  0.1312668E+00
        -11   -1    0    0    0    0  0.00000000000E+00  0.00000000000E+00  0.45593999997E+02  0.45594000000E+02  0.51100000000E-03 0.  1.
         11   -1    0    0    0    0 -0.00000000000E+00 -0.00000000000E+00 -0.45593999997E+02  0.45594000000E+02  0.51100000000E-03 0. -1.
    9900012    2    1    2    0    0  0.32018249871E+02  0.18786892753E+02 -0.22483494117E+02  0.47787272220E+02  0.20000005360E+02 0.  0.
        -12    1    1    2    0    0 -0.32018249871E+02 -0.18786892753E+02  0.22483494117E+02  0.43400727780E+02  0.00000000000E+00 0.  1.
         11    1    3    3    0    0  0.35267006650E+01  0.23122439582E+01 -0.59254104610E+00  0.42585437482E+01  0.51100000000E-03 0. -1.
        -11    1    3    3    0    0  0.36400668091E+01 -0.22024145865E+01  0.16193818957E+01  0.45522647519E+01  0.51100000000E-03 0.  1.
        -12    1    3    3    0    0  0.24851482397E+02  0.18677063381E+02 -0.23510334967E+02  0.38976463720E+02  0.00000000000E+00 0.  1.
</event>
<event>
 7    1  0.2732193E-010  0.4778727E+02  0.7816164E-02  0.1312668E+00
        -11   -1    0    0    0    0  0.00000000000E+00  0.00000000000E+00  0.45593999997E+02  0.45594000000E+02  0.51100000000E-03 0.  1.
         11   -1    0    0    0    0 -0.00000000000E+00 -0.00000000000E+00 -0.45593999997E+02  0.45594000000E+02  0.51100000000E-03 0. -1.
    9900012    2    1    2    0    0  0.46550355757E+01 -0.50029669184E+01 -0.42859355411E+02  0.47787269817E+02  0.19999994402E+02 0.  0.
        -12    1    1    2    0    0 -0.46550355757E+01  0.50029669184E+01  0.42859355411E+02  0.43400730183E+02  0.00000000000E+00 0.  1.
         11    1    3    3    0    0  0.80149281790E+01 -0.53300362510E+01 -0.16360628162E+02  0.18982057693E+02  0.51100000000E-03 0. -1.
        -11    1    3    3    0    0 -0.53684156703E+01  0.38870914400E+01 -0.11642366298E+02  0.13396792898E+02  0.51100000000E-03 0.  1.
        -12    1    3    3    0    0  0.20085230670E+01 -0.35600221074E+01 -0.14856360951E+02  0.15408419226E+02  0.00000000000E+00 0.  1.
</event>
<event>
 7    1  0.2732193E-010  0.4778728E+02  0.7816164E-02  0.1312668E+00
        -11   -1    0    0    0    0  0.00000000000E+00  0.00000000000E+00  0.45593999997E+02  0.45594000000E+02  0.51100000000E-03 0.  1.
         11   -1    0    0    0    0 -0.00000000000E+00 -0.00000000000E+00 -0.45593999997E+02  0.45594000000E+02  0.51100000000E-03 0. -1.
    9900012    2    1    2    0    0 -0.20372705106E+02  0.31000454797E+00 -0.38320740723E+02  0.47787281277E+02  0.20000046654E+02 0.  0.
        -12    1    1    2    0    0  0.20372705106E+02 -0.31000454797E+00  0.38320740723E+02  0.43400718723E+02  0.00000000000E+00 0.  1.
         11    1    3    3    0    0 -0.10621138466E+01 -0.27978850721E+01 -0.13834935974E+02  0.14154917886E+02  0.51100000000E-03 0. -1.
        -11    1    3    3    0    0 -0.11338841556E+02  0.68906557605E+01 -0.97831029093E+01  0.16485131708E+02  0.51100000000E-03 0.  1.
         12    1    3    3    0    0 -0.79717497031E+01 -0.37827661404E+01 -0.14702701840E+02  0.17147231683E+02  0.00000000000E+00 0. -1.
</event>
<event>
 7    1  0.2732193E-010  0.4778727E+02  0.7816164E-02  0.1312668E+00
        -11   -1    0    0    0    0  0.00000000000E+00  0.00000000000E+00  0.45593999997E+02  0.45594000000E+02  0.51100000000E-03 0.  1.
         11   -1    0    0    0    0 -0.00000000000E+00 -0.00000000000E+00 -0.45593999997E+02  0.45594000000E+02  0.51100000000E-03 0. -1.
    9900012    2    1    2    0    0  0.35967489767E+02  0.14456379756E+01 -0.24246097015E+02  0.47787269479E+02  0.19999992862E+02 0.  0.
        -12    1    1    2    0    0 -0.35967489767E+02 -0.14456379756E+01  0.24246097015E+02  0.43400730521E+02  0.00000000000E+00 0.  1.
         11    1    3    3    0    0  0.23315615903E+02 -0.16196124245E+01 -0.17057851761E+02  0.28934605515E+02  0.51100000000E-03 0. -1.
        -11    1    3    3    0    0  0.25837021265E+01 -0.32622474833E+01  0.11639372935E+01  0.43211717861E+01  0.51100000000E-03 0.  1.
        -12    1    3    3    0    0  0.10068171738E+02  0.63274978834E+01 -0.83521825476E+01  0.14531492178E+02  0.00000000000E+00 0.  1.
</event>
<event>
 7    1  0.2732193E-010  0.4778727E+02  0.7816164E-02  0.1312668E+00
        -11   -1    0    0    0    0  0.00000000000E+00  0.00000000000E+00  0.45593999997E+02  0.45594000000E+02  0.51100000000E-03 0.  1.
         11   -1    0    0    0    0 -0.00000000000E+00 -0.00000000000E+00 -0.45593999997E+02  0.45594000000E+02  0.51100000000E-03 0. -1.
    9900012    2    1    2    0    0 -0.13470182214E+02  0.36014077146E+02 -0.20128679560E+02  0.47787270716E+02  0.19999998504E+02 0.  0.
        -12    1    1    2    0    0  0.13470182214E+02 -0.36014077146E+02  0.20128679560E+02  0.43400729284E+02  0.00000000000E+00 0.  1.
         11    1    3    3    0    0 -0.29576651850E+01  0.23743929075E+02 -0.14280736724E+02  0.27865056844E+02  0.51100000000E-03 0. -1.
        -11    1    3    3    0    0 -0.11617786492E+02  0.12364959481E+02 -0.34977693539E+01  0.17323382368E+02  0.51100000000E-03 0.  1.
        -12    1    3    3    0    0  0.11052694634E+01 -0.94811411181E-01 -0.23501734821E+01  0.25988315040E+01  0.00000000000E+00 0.  1.
</event>
<event>
 7    1  0.2732193E-010  0.4778727E+02  0.7816164E-02  0.1312668E+00
        -11   -1    0    0    0    0  0.00000000000E+00  0.00000000000E+00  0.45593999997E+02  0.45594000000E+02  0.51100000000E-03 0.  1.
         11   -1    0    0    0    0 -0.00000000000E+00 -0.00000000000E+00 -0.45593999997E+02  0.45594000000E+02  0.51100000000E-03 0. -1.
    9900012    2    1    2    0    0  0.11247335261E+02 -0.39527830789E+02 -0.13952459472E+02  0.47787273247E+02  0.20000010042E+02 0.  0.
        -12    1    1    2    0    0 -0.11247335261E+02  0.39527830789E+02  0.13952459472E+02  0.43400726753E+02  0.00000000000E+00 0.  1.
         11    1    3    3    0    0 -0.74738402939E+00 -0.45882870635E+01 -0.29822544567E+01  0.55231153320E+01  0.51100000000E-03 0. -1.
        -11    1    3    3    0    0  0.19707034293E+01  0.14285946474E+01 -0.27165907793E+01  0.36475225011E+01  0.51100000000E-03 0.  1.
        -12    1    3    3    0    0  0.10024015861E+02 -0.36368138373E+02 -0.82536142358E+01  0.38616635414E+02  0.00000000000E+00 0.  1.
</event>
<event>
 7    1  0.2732193E-010  0.4778727E+02  0.7816164E-02  0.1312668E+00
        -11   -1    0    0    0    0  0.00000000000E+00  0.00000000000E+00  0.45593999997E+02  0.45594000000E+02  0.51100000000E-03 0. -1.
         11   -1    0    0    0    0 -0.00000000000E+00 -0.00000000000E+00 -0.45593999997E+02  0.45594000000E+02  0.51100000000E-03 0.  1.
    9900012    2    1    2    0    0  0.37448643956E+02  0.21721561708E+02  0.30652646682E+01  0.47787273916E+02  0.20000013092E+02 0.  0.
        -12    1    1    2    0    0 -0.37448643956E+02 -0.21721561708E+02 -0.30652646682E+01  0.43400726084E+02  0.00000000000E+00 0.  1.
         11    1    3    3    0    0  0.35339827220E+02  0.16263223268E+02  0.58425507203E+01  0.39338673315E+02  0.51100000000E-03 0. -1.
        -11    1    3    3    0    0 -0.31807723206E-01  0.14042166021E+01  0.15867230630E+01  0.21190862033E+01  0.51100000000E-03 0.  1.
         12    1    3    3    0    0  0.21406244585E+01  0.40541218378E+01 -0.43640091151E+01  0.63295143972E+01  0.00000000000E+00 0. -1.
</event>
<event>
 7    1  0.2732193E-010  0.4778727E+02  0.7816164E-02  0.1312668E+00
        -11   -1    0    0    0    0  0.00000000000E+00  0.00000000000E+00  0.45593999997E+02  0.45594000000E+02  0.51100000000E-03 0.  1.
         11   -1    0    0    0    0 -0.00000000000E+00 -0.00000000000E+00 -0.45593999997E+02  0.45594000000E+02  0.51100000000E-03 0. -1.
    9900012    2    1    2    0    0 -0.32008957787E+02  0.27784031577E+02 -0.93326085664E+01  0.47787269915E+02  0.19999994849E+02 0.  0.
        -12    1    1    2    0    0  0.32008957787E+02 -0.27784031577E+02  0.93326085664E+01  0.43400730085E+02  0.00000000000E+00 0.  1.
         11    1    3    3    0    0  0.33587129718E+00 -0.81202473356E+00 -0.24743167656E+01  0.26257260736E+01  0.51100000000E-03 0.  1.
        -11    1    3    3    0    0 -0.25107914579E+02  0.23663211830E+02 -0.98940277453E+01  0.35892154490E+02  0.51100000000E-03 0. -1.
        -12    1    3    3    0    0 -0.72369145048E+01  0.49328444803E+01  0.30357359445E+01  0.92693893511E+01  0.00000000000E+00 0.  1.
</event>
<event>
 7    1  0.2732193E-010  0.4778727E+02  0.7816164E-02  0.1312668E+00
        -11   -1    0    0    0    0  0.00000000000E+00  0.00000000000E+00  0.45593999997E+02  0.45594000000E+02  0.51100000000E-03 0.  1.
         11   -1    0    0    0    0 -0.00000000000E+00 -0.00000000000E+00 -0.45593999997E+02  0.45594000000E+02  0.51100000000E-03 0. -1.
    9900012    2    1    2    0    0  0.14316170191E+02 -0.34396557187E+02  0.22260892987E+02  0.47787271528E+02  0.20000002207E+02 0.  0.
        -12    1    1    2    0    0 -0.14316170191E+02  0.34396557187E+02 -0.22260892987E+02  0.43400728472E+02  0.00000000000E+00 0.  1.
         11    1    3    3    0    0  0.97649608516E+01 -0.33117211978E+02  0.23083372283E+02  0.41532472426E+02  0.51100000000E-03 0. -1.
        -11    1    3    3    0    0  0.14385470213E+01 -0.19148953277E+01 -0.17257190150E+01  0.29520074574E+01  0.51100000000E-03 0.  1.
         12    1    3    3    0    0  0.31126623181E+01  0.63555011812E+00  0.90323971850E+00  0.33027916447E+01  0.00000000000E+00 0. -1.
</event>
<event>
 7    1  0.2732193E-010  0.4778722E+02  0.7816164E-02  0.1312668E+00
        -11   -1    0    0    0    0  0.00000000000E+00  0.00000000000E+00  0.45593999997E+02  0.45594000000E+02  0.51100000000E-03 0. -1.
         11   -1    0    0    0    0 -0.00000000000E+00 -0.00000000000E+00 -0.45593999997E+02  0.45594000000E+02  0.51100000000E-03 0.  1.
    9900012    2    1    2    0    0 -0.41704380602E+02 -0.11935501009E+02 -0.13841361032E+01  0.47787223757E+02  0.19999784398E+02 0.  0.
        -12    1    1    2    0    0  0.41704380602E+02  0.11935501009E+02  0.13841361032E+01  0.43400776243E+02  0.00000000000E+00 0.  1.
         11    1    3    3    0    0 -0.28624407995E+02 -0.29434135790E+01  0.13703758125E+00  0.28775670211E+02  0.51100000000E-03 0. -1.
        -11    1    3    3    0    0 -0.98032546399E+01 -0.88981555842E+01  0.28550674452E+01  0.13543721228E+02  0.51100000000E-03 0.  1.
         12    1    3    3    0    0 -0.32767179673E+01 -0.93931845410E-01 -0.43762411296E+01  0.54678323175E+01  0.00000000000E+00 0. -1.
</event>
<event>
 7    1  0.2732193E-010  0.4778727E+02  0.7816164E-02  0.1312668E+00
        -11   -1    0    0    0    0  0.00000000000E+00  0.00000000000E+00  0.45593999997E+02  0.45594000000E+02  0.51100000000E-03 0.  1.
         11   -1    0    0    0    0 -0.00000000000E+00 -0.00000000000E+00 -0.45593999997E+02  0.45594000000E+02  0.51100000000E-03 0. -1.
    9900012    2    1    2    0    0 -0.32864998575E+02  0.13193978038E+02 -0.25088527134E+02  0.47787269804E+02  0.19999994344E+02 0.  0.
        -12    1    1    2    0    0  0.32864998575E+02 -0.13193978038E+02  0.25088527134E+02  0.43400730196E+02  0.00000000000E+00 0.  1.
         11    1    3    3    0    0 -0.21736167285E+02  0.96510318970E+01 -0.15107008053E+02  0.28174901552E+02  0.51100000000E-03 0. -1.
        -11    1    3    3    0    0 -0.19823917250E+01 -0.31106656575E+00  0.27905898770E+01  0.34371545619E+01  0.51100000000E-03 0.  1.
        -12    1    3    3    0    0 -0.91464395651E+01  0.38540127071E+01 -0.12772108958E+02  0.16175213690E+02  0.00000000000E+00 0.  1.
</event>
<event>
 7    1  0.2732193E-010  0.4778727E+02  0.7816164E-02  0.1312668E+00
        -11   -1    0    0    0    0  0.00000000000E+00  0.00000000000E+00  0.45593999997E+02  0.45594000000E+02  0.51100000000E-03 0. -1.
         11   -1    0    0    0    0 -0.00000000000E+00 -0.00000000000E+00 -0.45593999997E+02  0.45594000000E+02  0.51100000000E-03 0.  1.
    9900012    2    1    2    0    0  0.96963292284E+01 -0.42077019264E+02  0.43736563468E+01  0.47787271659E+02  0.20000002804E+02 0.  0.
        -12    1    1    2    0    0 -0.96963292284E+01  0.42077019264E+02 -0.43736563468E+01  0.43400728341E+02  0.00000000000E+00 0.  1.
         11    1    3    3    0    0  0.77282180619E+01 -0.31647917197E+02  0.19628036532E+01  0.32636921053E+02  0.51100000000E-03 0. -1.
        -11    1    3    3    0    0  0.59297264845E+01 -0.77512081510E+01  0.32689506017E+01  0.10292177723E+02  0.51100000000E-03 0.  1.
         12    1    3    3    0    0 -0.39616153181E+01 -0.26778939156E+01 -0.85809790809E+00  0.48581728841E+01  0.00000000000E+00 0. -1.
</event>
<event>
 7    1  0.2732193E-010  0.4778727E+02  0.7816164E-02  0.1312668E+00
        -11   -1    0    0    0    0  0.00000000000E+00  0.00000000000E+00  0.45593999997E+02  0.45594000000E+02  0.51100000000E-03 0.  1.
         11   -1    0    0    0    0 -0.00000000000E+00 -0.00000000000E+00 -0.45593999997E+02  0.45594000000E+02  0.51100000000E-03 0. -1.
    9900012    2    1    2    0    0  0.24610668727E+01  0.18035673514E+02 -0.39398998601E+02  0.47787268900E+02  0.19999990224E+02 0.  0.
        -12    1    1    2    0    0 -0.24610668727E+01 -0.18035673514E+02  0.39398998601E+02  0.43400731100E+02  0.00000000000E+00 0.  1.
         11    1    3    3    0    0 -0.75559783243E+01  0.12618003639E+02 -0.25959634488E+02  0.29836377918E+02  0.51100000000E-03 0. -1.
        -11    1    3    3    0    0  0.80134845217E+01  0.27637778848E+01 -0.10642629123E+02  0.13605879512E+02  0.51100000000E-03 0.  1.
         12    1    3    3    0    0  0.20035606754E+01  0.26538919902E+01 -0.27967349894E+01  0.43450114702E+01  0.00000000000E+00 0. -1.
</event>
<event>
 7    1  0.2732193E-010  0.4778725E+02  0.7816164E-02  0.1312668E+00
        -11   -1    0    0    0    0  0.00000000000E+00  0.00000000000E+00  0.45593999997E+02  0.45594000000E+02  0.51100000000E-03 0. -1.
         11   -1    0    0    0    0 -0.00000000000E+00 -0.00000000000E+00 -0.45593999997E+02  0.45594000000E+02  0.51100000000E-03 0.  1.
    9900012    2    1    2    0    0 -0.42568132987E+02  0.83539115822E+01 -0.13384311728E+01  0.47787249053E+02  0.19999899734E+02 0.  0.
        -12    1    1    2    0    0  0.42568132987E+02 -0.83539115822E+01  0.13384311728E+01  0.43400750947E+02  0.00000000000E+00 0.  1.
         11    1    3    3    0    0 -0.21668328013E+02  0.57805010996E+01 -0.75504653056E+01  0.23663054715E+02  0.51100000000E-03 0.  1.
        -11    1    3    3    0    0 -0.70548965035E+01  0.29733083195E+01  0.68300749329E+01  0.10259729572E+02  0.51100000000E-03 0. -1.
        -12    1    3    3    0    0 -0.13844908470E+02 -0.39989783681E+00 -0.61804080015E+00  0.13864464767E+02  0.00000000000E+00 0.  1.
</event>
<event>
 7    1  0.2732193E-010  0.4778727E+02  0.7816164E-02  0.1312668E+00
        -11   -1    0    0    0    0  0.00000000000E+00  0.00000000000E+00  0.45593999997E+02  0.45594000000E+02  0.51100000000E-03 0. -1.
         11   -1    0    0    0    0 -0.00000000000E+00 -0.00000000000E+00 -0.45593999997E+02  0.45594000000E+02  0.51100000000E-03 0.  1.
    9900012    2    1    2    0    0  0.13700509447E+02 -0.35276071859E+02  0.21248955222E+02  0.47787270710E+02  0.19999998474E+02 0.  0.
        -12    1    1    2    0    0 -0.13700509447E+02  0.35276071859E+02 -0.21248955222E+02  0.43400729290E+02  0.00000000000E+00 0.  1.
         11    1    3    3    0    0  0.13424491770E+01 -0.60109745085E+01  0.19976666873E+01  0.64749252343E+01  0.51100000000E-03 0. -1.
        -11    1    3    3    0    0  0.14409418243E+02 -0.30696209701E+02  0.18793290798E+02  0.38769529316E+02  0.51100000000E-03 0.  1.
        -12    1    3    3    0    0 -0.20513579726E+01  0.14311123512E+01  0.45799773699E+00  0.25428161594E+01  0.00000000000E+00 0.  1.
</event>
<event>
 7    1  0.2732193E-010  0.4778727E+02  0.7816164E-02  0.1312668E+00
        -11   -1    0    0    0    0  0.00000000000E+00  0.00000000000E+00  0.45593999997E+02  0.45594000000E+02  0.51100000000E-03 0. -1.
         11   -1    0    0    0    0 -0.00000000000E+00 -0.00000000000E+00 -0.45593999997E+02  0.45594000000E+02  0.51100000000E-03 0.  1.
    9900012    2    1    2    0    0  0.34281323501E+02  0.26249346857E+02 -0.44029776949E+01  0.47787267702E+02  0.19999984762E+02 0.  0.
        -12    1    1    2    0    0 -0.34281323501E+02 -0.26249346857E+02  0.44029776949E+01  0.43400732298E+02  0.00000000000E+00 0.  1.
         11    1    3    3    0    0  0.95015576660E+01  0.85318388407E+01  0.84227780903E+00  0.12797706992E+02  0.51100000000E-03 0. -1.
        -11    1    3    3    0    0  0.23171433404E+02  0.16738220645E+02 -0.96738582315E+01  0.30177257823E+02  0.51100000000E-03 0.  1.
        -12    1    3    3    0    0  0.16083324303E+01  0.97928737183E+00  0.44286027276E+01  0.48123028875E+01  0.00000000000E+00 0.  1.
</event>
<event>
 7    1  0.2732193E-010  0.4778727E+02  0.7816164E-02  0.1312668E+00
        -11   -1    0    0    0    0  0.00000000000E+00  0.00000000000E+00  0.45593999997E+02  0.45594000000E+02  0.51100000000E-03 0.  1.
         11   -1    0    0    0    0 -0.00000000000E+00 -0.00000000000E+00 -0.45593999997E+02  0.45594000000E+02  0.51100000000E-03 0. -1.
    9900012    2    1    2    0    0  0.12051338758E+02  0.39645745702E+02 -0.12907492146E+02  0.47787271070E+02  0.20000000116E+02 0.  0.
        -12    1    1    2    0    0 -0.12051338758E+02 -0.39645745702E+02  0.12907492146E+02  0.43400728930E+02  0.00000000000E+00 0.  1.
         11    1    3    3    0    0  0.75586669817E+01  0.13993085679E+02 -0.11769407384E+02  0.19785318895E+02  0.51100000000E-03 0. -1.
        -11    1    3    3    0    0 -0.28807066157E+01  0.39959765426E+01  0.99392004623E+00  0.50253533661E+01  0.51100000000E-03 0.  1.
         12    1    3    3    0    0  0.73733783924E+01  0.21656683481E+02 -0.21320048079E+01  0.22976598809E+02  0.00000000000E+00 0. -1.
</event>
<event>
 7    1  0.2732193E-010  0.4778727E+02  0.7816164E-02  0.1312668E+00
        -11   -1    0    0    0    0  0.00000000000E+00  0.00000000000E+00  0.45593999997E+02  0.45594000000E+02  0.51100000000E-03 0.  1.
         11   -1    0    0    0    0 -0.00000000000E+00 -0.00000000000E+00 -0.45593999997E+02  0.45594000000E+02  0.51100000000E-03 0. -1.
    9900012    2    1    2    0    0  0.19802411430E+02  0.30014168107E+02 -0.24303038875E+02  0.47787268622E+02  0.19999988956E+02 0.  0.
        -12    1    1    2    0    0 -0.19802411430E+02 -0.30014168107E+02  0.24303038875E+02  0.43400731378E+02  0.00000000000E+00 0.  1.
         11    1    3    3    0    0 -0.21459205390E+01  0.66365228138E+01 -0.63431799573E+01  0.94278492908E+01  0.51100000000E-03 0. -1.
        -11    1    3    3    0    0  0.13505324230E+02  0.67696387314E+01 -0.98866143997E+01  0.18054554430E+02  0.51100000000E-03 0.  1.
         12    1    3    3    0    0  0.84430077382E+01  0.16608006562E+02 -0.80732445179E+01  0.20304864901E+02  0.00000000000E+00 0. -1.
</event>
<event>
 7    1  0.2732193E-010  0.4778727E+02  0.7816164E-02  0.1312668E+00
        -11   -1    0    0    0    0  0.00000000000E+00  0.00000000000E+00  0.45593999997E+02  0.45594000000E+02  0.51100000000E-03 0.  1.
         11   -1    0    0    0    0 -0.00000000000E+00 -0.00000000000E+00 -0.45593999997E+02  0.45594000000E+02  0.51100000000E-03 0. -1.
    9900012    2    1    2    0    0  0.19015086936E+02 -0.10769427214E+02 -0.37497589526E+02  0.47787270583E+02  0.19999997894E+02 0.  0.
        -12    1    1    2    0    0 -0.19015086936E+02  0.10769427214E+02  0.37497589526E+02  0.43400729417E+02  0.00000000000E+00 0.  1.
         11    1    3    3    0    0  0.67208540418E+01 -0.79144903084E+01 -0.17711588686E+02  0.20530694337E+02  0.51100000000E-03 0. -1.
        -11    1    3    3    0    0 -0.18377443776E+01  0.17839242450E+01 -0.76262189980E+01  0.80448061864E+01  0.51100000000E-03 0.  1.
        -12    1    3    3    0    0  0.14131977272E+02 -0.46388611503E+01 -0.12159781842E+02  0.19211770059E+02  0.00000000000E+00 0.  1.
</event>
<event>
 7    1  0.2732193E-010  0.4778728E+02  0.7816164E-02  0.1312668E+00
        -11   -1    0    0    0    0  0.00000000000E+00  0.00000000000E+00  0.45593999997E+02  0.45594000000E+02  0.51100000000E-03 0. -1.
         11   -1    0    0    0    0 -0.00000000000E+00 -0.00000000000E+00 -0.45593999997E+02  0.45594000000E+02  0.51100000000E-03 0.  1.
    9900012    2    1    2    0    0 -0.10132404944E+02  0.17968522378E+02  0.38184928074E+02  0.47787283895E+02  0.20000058591E+02 0.  0.
        -12    1    1    2    0    0  0.10132404944E+02 -0.17968522378E+02 -0.38184928074E+02  0.43400716105E+02  0.00000000000E+00 0.  1.
         11    1    3    3    0    0  0.46906721922E+01  0.62293796895E+01  0.14105869295E+02  0.16117789109E+02  0.51100000000E-03 0. -1.
        -11    1    3    3    0    0 -0.53498405862E+01  0.31667168967E+01  0.27305853956E+01  0.67900653212E+01  0.51100000000E-03 0.  1.
         12    1    3    3    0    0 -0.94732365496E+01  0.85724257916E+01  0.21348473383E+02  0.24879429465E+02  0.00000000000E+00 0. -1.
</event>
<event>
 7    1  0.2732193E-010  0.4778727E+02  0.7816164E-02  0.1312668E+00
        -11   -1    0    0    0    0  0.00000000000E+00  0.00000000000E+00  0.45593999997E+02  0.45594000000E+02  0.51100000000E-03 0.  1.
         11   -1    0    0    0    0 -0.00000000000E+00 -0.00000000000E+00 -0.45593999997E+02  0.45594000000E+02  0.51100000000E-03 0. -1.
    9900012    2    1    2    0    0  0.26062468665E+02  0.32388431533E+02 -0.12464364313E+02  0.47787272497E+02  0.20000006622E+02 0.  0.
        -12    1    1    2    0    0 -0.26062468665E+02 -0.32388431533E+02  0.12464364313E+02  0.43400727503E+02  0.00000000000E+00 0.  1.
         11    1    3    3    0    0  0.13353058142E+02  0.77905465874E+01  0.12483379283E+01  0.15509839642E+02  0.51100000000E-03 0.  1.
        -11    1    3    3    0    0  0.43946056154E+00 -0.80818615541E+00 -0.91249328436E+00  0.12957371269E+01  0.51100000000E-03 0. -1.
         12    1    3    3    0    0  0.12269949962E+02  0.25406071101E+02 -0.12800208957E+02  0.30981695728E+02  0.00000000000E+00 0. -1.
</event>
<event>
 7    1  0.2732193E-010  0.4778727E+02  0.7816164E-02  0.1312668E+00
        -11   -1    0    0    0    0  0.00000000000E+00  0.00000000000E+00  0.45593999997E+02  0.45594000000E+02  0.51100000000E-03 0. -1.
         11   -1    0    0    0    0 -0.00000000000E+00 -0.00000000000E+00 -0.45593999997E+02  0.45594000000E+02  0.51100000000E-03 0.  1.
    9900012    2    1    2    0    0  0.33166076771E+02 -0.23268269533E+02 -0.15563493138E+02  0.47787270351E+02  0.19999996836E+02 0.  0.
        -12    1    1    2    0    0 -0.33166076771E+02  0.23268269533E+02  0.15563493138E+02  0.43400729649E+02  0.00000000000E+00 0.  1.
         11    1    3    3    0    0  0.16687709260E+02 -0.16503168982E+02 -0.79366770210E+01  0.24775493319E+02  0.51100000000E-03 0. -1.
        -11    1    3    3    0    0  0.39730907684E+01  0.36710487521E+01 -0.15487481511E+01  0.56267815215E+01  0.51100000000E-03 0.  1.
        -12    1    3    3    0    0  0.12505276743E+02 -0.10436149303E+02 -0.60780679656E+01  0.17384995510E+02  0.00000000000E+00 0.  1.
</event>
<event>
 7    1  0.2732193E-010  0.4778727E+02  0.7816164E-02  0.1312668E+00
        -11   -1    0    0    0    0  0.00000000000E+00  0.00000000000E+00  0.45593999997E+02  0.45594000000E+02  0.51100000000E-03 0. -1.
         11   -1    0    0    0    0 -0.00000000000E+00 -0.00000000000E+00 -0.45593999997E+02  0.45594000000E+02  0.51100000000E-03 0.  1.
    9900012    2    1    2    0    0  0.57076535733E+01 -0.19027877887E+02  0.38587376373E+02  0.47787273491E+02  0.20000011155E+02 0.  0.
        -12    1    1    2    0    0 -0.57076535733E+01  0.19027877887E+02 -0.38587376373E+02  0.43400726509E+02  0.00000000000E+00 0.  1.
         11    1    3    3    0    0  0.13745919120E+01 -0.96664716960E+00  0.17045191876E+02  0.17127827534E+02  0.51100000000E-03 0. -1.
        -11    1    3    3    0    0 -0.32236176858E+01 -0.58394609017E+01  0.10898020217E+02  0.12777239902E+02  0.51100000000E-03 0.  1.
         12    1    3    3    0    0  0.75566793471E+01 -0.12221769816E+02  0.10644164279E+02  0.17882206055E+02  0.00000000000E+00 0. -1.
</event>
<event>
 7    1  0.2732193E-010  0.4778727E+02  0.7816164E-02  0.1312668E+00
        -11   -1    0    0    0    0  0.00000000000E+00  0.00000000000E+00  0.45593999997E+02  0.45594000000E+02  0.51100000000E-03 0. -1.
         11   -1    0    0    0    0 -0.00000000000E+00 -0.00000000000E+00 -0.45593999997E+02  0.45594000000E+02  0.51100000000E-03 0.  1.
    9900012    2    1    2    0    0  0.20093761098E+02 -0.30768047481E+02  0.23090938648E+02  0.47787269263E+02  0.19999991880E+02 0.  0.
        -12    1    1    2    0    0 -0.20093761098E+02  0.30768047481E+02 -0.23090938648E+02  0.43400730737E+02  0.00000000000E+00 0.  1.
         11    1    3    3    0    0  0.15220862042E+02 -0.11338463009E+02  0.13194763136E+02  0.23115734018E+02  0.51100000000E-03 0. -1.
        -11    1    3    3    0    0 -0.76895456591E+00 -0.27961180804E+01 -0.19421539026E+01  0.34902047914E+01  0.51100000000E-03 0.  1.
         12    1    3    3    0    0  0.56418536218E+01 -0.16633466392E+02  0.11838329414E+02  0.21181330454E+02  0.00000000000E+00 0. -1.
</event>
<event>
 7    1  0.2732193E-010  0.4778728E+02  0.7816164E-02  0.1312668E+00
        -11   -1    0    0    0    0  0.00000000000E+00  0.00000000000E+00  0.45593999997E+02  0.45594000000E+02  0.51100000000E-03 0.  1.
         11   -1    0    0    0    0 -0.00000000000E+00 -0.00000000000E+00 -0.45593999997E+02  0.45594000000E+02  0.51100000000E-03 0. -1.
    9900012    2    1    2    0    0 -0.16183128756E+02 -0.26585439125E+02 -0.30248025284E+02  0.47787282686E+02  0.20000053079E+02 0.  0.
        -12    1    1    2    0    0  0.16183128756E+02  0.26585439125E+02  0.30248025284E+02  0.43400717314E+02  0.00000000000E+00 0.  1.
         11    1    3    3    0    0 -0.20087644112E+01 -0.11689939987E+02 -0.17788390016E+02  0.21380286503E+02  0.51100000000E-03 0. -1.
        -11    1    3    3    0    0 -0.62022944934E+01 -0.67208573453E+01  0.46970951592E+00  0.91574564006E+01  0.51100000000E-03 0.  1.
        -12    1    3    3    0    0 -0.79720698510E+01 -0.81746417931E+01 -0.12929344784E+02  0.17249539782E+02  0.00000000000E+00 0.  1.
</event>
<event>
 7    1  0.2732193E-010  0.4778727E+02  0.7816164E-02  0.1312668E+00
        -11   -1    0    0    0    0  0.00000000000E+00  0.00000000000E+00  0.45593999997E+02  0.45594000000E+02  0.51100000000E-03 0.  1.
         11   -1    0    0    0    0 -0.00000000000E+00 -0.00000000000E+00 -0.45593999997E+02  0.45594000000E+02  0.51100000000E-03 0. -1.
    9900012    2    1    2    0    0 -0.21258104164E+02  0.26207364627E+02 -0.27292678704E+02  0.47787271156E+02  0.20000000509E+02 0.  0.
        -12    1    1    2    0    0  0.21258104164E+02 -0.26207364627E+02  0.27292678704E+02  0.43400728844E+02  0.00000000000E+00 0.  1.
         11    1    3    3    0    0 -0.18745551213E+02  0.11601801796E+02 -0.20622552284E+02  0.30187533159E+02  0.51100000000E-03 0. -1.
        -11    1    3    3    0    0  0.17191947446E+01  0.20356990142E+01  0.18291012476E+00  0.26707971508E+01  0.51100000000E-03 0.  1.
         12    1    3    3    0    0 -0.42317476954E+01  0.12569863817E+02 -0.68530365442E+01  0.14928940847E+02  0.00000000000E+00 0. -1.
</event>
<event>
 7    1  0.2732193E-010  0.4778731E+02  0.7816164E-02  0.1312668E+00
        -11   -1    0    0    0    0  0.00000000000E+00  0.00000000000E+00  0.45593999997E+02  0.45594000000E+02  0.51100000000E-03 0. -1.
         11   -1    0    0    0    0 -0.00000000000E+00 -0.00000000000E+00 -0.45593999997E+02  0.45594000000E+02  0.51100000000E-03 0.  1.
    9900012    2    1    2    0    0 -0.25460353976E+02 -0.12914259144E+02  0.32689634500E+02  0.47787309711E+02  0.20000176295E+02 0.  0.
        -12    1    1    2    0    0  0.25460353976E+02  0.12914259144E+02 -0.32689634500E+02  0.43400690289E+02  0.00000000000E+00 0.  1.
         11    1    3    3    0    0 -0.29839159186E+01  0.42082886276E+01  0.78081376764E+01  0.93584433330E+01  0.51100000000E-03 0. -1.
        -11    1    3    3    0    0 -0.55554505464E+01 -0.85874160592E+01  0.10313705261E+02  0.14525125191E+02  0.51100000000E-03 0.  1.
         12    1    3    3    0    0 -0.16920987511E+02 -0.85351317121E+01  0.14567791563E+02  0.23903741187E+02  0.00000000000E+00 0. -1.
</event>
<event>
 7    1  0.2732193E-010  0.4778727E+02  0.7816164E-02  0.1312668E+00
        -11   -1    0    0    0    0  0.00000000000E+00  0.00000000000E+00  0.45593999997E+02  0.45594000000E+02  0.51100000000E-03 0. -1.
         11   -1    0    0    0    0 -0.00000000000E+00 -0.00000000000E+00 -0.45593999997E+02  0.45594000000E+02  0.51100000000E-03 0.  1.
    9900012    2    1    2    0    0 -0.21462445987E+02 -0.37708974633E+02 -0.10097556082E+01  0.47787274637E+02  0.20000016380E+02 0.  0.
        -12    1    1    2    0    0  0.21462445987E+02  0.37708974633E+02  0.10097556082E+01  0.43400725363E+02  0.00000000000E+00 0.  1.
         11    1    3    3    0    0 -0.12703590730E+01 -0.89557949731E+01 -0.62193702246E+01  0.10977278443E+02  0.51100000000E-03 0. -1.
        -11    1    3    3    0    0 -0.19327470954E+02 -0.27407068197E+02  0.24572451464E+01  0.33626426730E+02  0.51100000000E-03 0.  1.
         12    1    3    3    0    0 -0.86461595992E+00 -0.13461114628E+01  0.27523694699E+01  0.31835694632E+01  0.00000000000E+00 0. -1.
</event>
<event>
 7    1  0.2732193E-010  0.4778727E+02  0.7816164E-02  0.1312668E+00
        -11   -1    0    0    0    0  0.00000000000E+00  0.00000000000E+00  0.45593999997E+02  0.45594000000E+02  0.51100000000E-03 0. -1.
         11   -1    0    0    0    0 -0.00000000000E+00 -0.00000000000E+00 -0.45593999997E+02  0.45594000000E+02  0.51100000000E-03 0.  1.
    9900012    2    1    2    0    0 -0.44734852974E+01  0.42799556301E+02 -0.56399361040E+01  0.47787274550E+02  0.20000015985E+02 0.  0.
        -12    1    1    2    0    0  0.44734852974E+01 -0.42799556301E+02  0.56399361040E+01  0.43400725450E+02  0.00000000000E+00 0.  1.
         11    1    3    3    0    0 -0.29912271290E+01  0.72006993890E+01 -0.16893815502E+00  0.77991058327E+01  0.51100000000E-03 0. -1.
        -11    1    3    3    0    0 -0.87805802488E+01  0.14408105432E+02  0.18234554941E+00  0.16873806382E+02  0.51100000000E-03 0.  1.
        -12    1    3    3    0    0  0.72983220804E+01  0.21190751480E+02 -0.56533434984E+01  0.23114362336E+02  0.00000000000E+00 0.  1.
</event>
<event>
 7    1  0.2732193E-010  0.4778727E+02  0.7816164E-02  0.1312668E+00
        -11   -1    0    0    0    0  0.00000000000E+00  0.00000000000E+00  0.45593999997E+02  0.45594000000E+02  0.51100000000E-03 0.  1.
         11   -1    0    0    0    0 -0.00000000000E+00 -0.00000000000E+00 -0.45593999997E+02  0.45594000000E+02  0.51100000000E-03 0. -1.
    9900012    2    1    2    0    0  0.22589438988E+02  0.36201033374E+02 -0.79262740056E+01  0.47787269698E+02  0.19999993863E+02 0.  0.
        -12    1    1    2    0    0 -0.22589438988E+02 -0.36201033374E+02  0.79262740056E+01  0.43400730302E+02  0.00000000000E+00 0.  1.
         11    1    3    3    0    0  0.71029277497E+01  0.95266959992E+01  0.45378291181E+01  0.12720118421E+02  0.51100000000E-03 0.  1.
        -11    1    3    3    0    0  0.13554788202E+02  0.21828048073E+02 -0.14457194082E+02  0.29482307014E+02  0.51100000000E-03 0. -1.
         12    1    3    3    0    0  0.19317230356E+01  0.48462893014E+01  0.19930909582E+01  0.55848442634E+01  0.00000000000E+00 0. -1.
</event>
<event>
 7    1  0.2732193E-010  0.4778727E+02  0.7816164E-02  0.1312668E+00
        -11   -1    0    0    0    0  0.00000000000E+00  0.00000000000E+00  0.45593999997E+02  0.45594000000E+02  0.51100000000E-03 0.  1.
         11   -1    0    0    0    0 -0.00000000000E+00 -0.00000000000E+00 -0.45593999997E+02  0.45594000000E+02  0.51100000000E-03 0. -1.
    9900012    2    1    2    0    0  0.15599256928E+02 -0.40229852744E+02  0.46739188057E+01  0.47787269758E+02  0.19999994135E+02 0.  0.
        -12    1    1    2    0    0 -0.15599256928E+02  0.40229852744E+02 -0.46739188057E+01  0.43400730242E+02  0.00000000000E+00 0.  1.
         11    1    3    3    0    0  0.14026828040E+02 -0.15749386561E+02  0.46516620246E+01  0.21597060952E+02  0.51100000000E-03 0. -1.
        -11    1    3    3    0    0 -0.12891192458E+01 -0.70095770127E+01 -0.38025345168E+01  0.80780732442E+01  0.51100000000E-03 0.  1.
        -12    1    3    3    0    0  0.28615481335E+01 -0.17470889170E+02  0.38247912979E+01  0.18112135562E+02  0.00000000000E+00 0.  1.
</event>
<event>
 7    1  0.2732193E-010  0.4778727E+02  0.7816164E-02  0.1312668E+00
        -11   -1    0    0    0    0  0.00000000000E+00  0.00000000000E+00  0.45593999997E+02  0.45594000000E+02  0.51100000000E-03 0.  1.
         11   -1    0    0    0    0 -0.00000000000E+00 -0.00000000000E+00 -0.45593999997E+02  0.45594000000E+02  0.51100000000E-03 0. -1.
    9900012    2    1    2    0    0 -0.35553056465E+02  0.23740499388E+02 -0.74827923988E+01  0.47787270544E+02  0.19999997718E+02 0.  0.
        -12    1    1    2    0    0  0.35553056465E+02 -0.23740499388E+02  0.74827923988E+01  0.43400729456E+02  0.00000000000E+00 0.  1.
         11    1    3    3    0    0 -0.11519300779E+02  0.13193558496E+02 -0.85055030809E+01  0.19470692313E+02  0.51100000000E-03 0. -1.
        -11    1    3    3    0    0 -0.12239400477E+00  0.28697638130E+01 -0.11827155540E+01  0.31063388381E+01  0.51100000000E-03 0.  1.
         12    1    3    3    0    0 -0.23911361681E+02  0.76771770793E+01  0.22054262361E+01  0.25210239393E+02  0.00000000000E+00 0. -1.
</event>
<event>
 7    1  0.2732193E-010  0.4778728E+02  0.7816164E-02  0.1312668E+00
        -11   -1    0    0    0    0  0.00000000000E+00  0.00000000000E+00  0.45593999997E+02  0.45594000000E+02  0.51100000000E-03 0.  1.
         11   -1    0    0    0    0 -0.00000000000E+00 -0.00000000000E+00 -0.45593999997E+02  0.45594000000E+02  0.51100000000E-03 0. -1.
    9900012    2    1    2    0    0 -0.36330404545E+01  0.43129170258E+02 -0.32091308093E+01  0.47787276151E+02  0.20000023282E+02 0.  0.
        -12    1    1    2    0    0  0.36330404545E+01 -0.43129170258E+02  0.32091308093E+01  0.43400723849E+02  0.00000000000E+00 0.  1.
         11    1    3    3    0    0 -0.10594865340E+01  0.22748819215E+02 -0.49966628453E+01  0.23315186622E+02  0.51100000000E-03 0. -1.
        -11    1    3    3    0    0 -0.17446846001E+01 -0.12790507967E+01  0.17726689057E+01  0.27968286692E+01  0.51100000000E-03 0.  1.
        -12    1    3    3    0    0 -0.82886932038E+00  0.21659401840E+02  0.14863130217E-01  0.21675260859E+02  0.00000000000E+00 0.  1.
</event>
<event>
 7    1  0.2732193E-010  0.4778728E+02  0.7816164E-02  0.1312668E+00
        -11   -1    0    0    0    0  0.00000000000E+00  0.00000000000E+00  0.45593999997E+02  0.45594000000E+02  0.51100000000E-03 0.  1.
         11   -1    0    0    0    0 -0.00000000000E+00 -0.00000000000E+00 -0.45593999997E+02  0.45594000000E+02  0.51100000000E-03 0. -1.
    9900012    2    1    2    0    0 -0.11063158813E+02  0.35157607343E+02 -0.22916629875E+02  0.47787276943E+02  0.20000026896E+02 0.  0.
        -12    1    1    2    0    0  0.11063158813E+02 -0.35157607343E+02  0.22916629875E+02  0.43400723057E+02  0.00000000000E+00 0.  1.
         11    1    3    3    0    0 -0.31439999862E+01  0.11935584664E+02  0.69952965779E+00  0.12362534497E+02  0.51100000000E-03 0. -1.
        -11    1    3    3    0    0 -0.11833633245E+01 -0.80753819196E+00 -0.10154381267E+01  0.17560129668E+01  0.51100000000E-03 0.  1.
         12    1    3    3    0    0 -0.67357955027E+01  0.24029560871E+02 -0.22600721406E+02  0.33668729480E+02  0.00000000000E+00 0. -1.
</event>
<event>
 7    1  0.2732193E-010  0.4778727E+02  0.7816164E-02  0.1312668E+00
        -11   -1    0    0    0    0  0.00000000000E+00  0.00000000000E+00  0.45593999997E+02  0.45594000000E+02  0.51100000000E-03 0.  1.
         11   -1    0    0    0    0 -0.00000000000E+00 -0.00000000000E+00 -0.45593999997E+02  0.45594000000E+02  0.51100000000E-03 0. -1.
    9900012    2    1    2    0    0 -0.40017519442E+02  0.65382323680E+00 -0.16786720971E+02  0.47787270190E+02  0.19999996104E+02 0.  0.
        -12    1    1    2    0    0  0.40017519442E+02 -0.65382323680E+00  0.16786720971E+02  0.43400729810E+02  0.00000000000E+00 0.  1.
         11    1    3    3    0    0 -0.33195458402E+02 -0.24295963482E+01 -0.19513165714E+02  0.38582444627E+02  0.51100000000E-03 0. -1.
        -11    1    3    3    0    0 -0.59304256879E+01  0.49392288001E+00  0.25065767972E+01  0.64573087391E+01  0.51100000000E-03 0.  1.
         12    1    3    3    0    0 -0.89163535178E+00  0.25894967050E+01  0.21986794574E+00  0.27475168242E+01  0.00000000000E+00 0. -1.
</event>
<event>
 7    1  0.2732193E-010  0.4778728E+02  0.7816164E-02  0.1312668E+00
        -11   -1    0    0    0    0  0.00000000000E+00  0.00000000000E+00  0.45593999997E+02  0.45594000000E+02  0.51100000000E-03 0. -1.
         11   -1    0    0    0    0 -0.00000000000E+00 -0.00000000000E+00 -0.45593999997E+02  0.45594000000E+02  0.51100000000E-03 0.  1.
    9900012    2    1    2    0    0 -0.97805607439E+01  0.16034697309E+02  0.39126097649E+02  0.47787281071E+02  0.20000045717E+02 0.  0.
        -12    1    1    2    0    0  0.97805607439E+01 -0.16034697309E+02 -0.39126097649E+02  0.43400718929E+02  0.00000000000E+00 0.  1.
         11    1    3    3    0    0 -0.77102900266E+01  0.11482741096E+02  0.20735531000E+02  0.24925171243E+02  0.51100000000E-03 0. -1.
        -11    1    3    3    0    0  0.23186743970E+01 -0.26406561250E+01  0.11926916331E+01  0.37110415414E+01  0.51100000000E-03 0.  1.
        -12    1    3    3    0    0 -0.43889451143E+01  0.71926123380E+01  0.17197875016E+02  0.19151068287E+02  0.00000000000E+00 0.  1.
</event>
<event>
 7    1  0.2732193E-010  0.4778729E+02  0.7816164E-02  0.1312668E+00
        -11   -1    0    0    0    0  0.00000000000E+00  0.00000000000E+00  0.45593999997E+02  0.45594000000E+02  0.51100000000E-03 0.  1.
         11   -1    0    0    0    0 -0.00000000000E+00 -0.00000000000E+00 -0.45593999997E+02  0.45594000000E+02  0.51100000000E-03 0. -1.
    9900012    2    1    2    0    0 -0.27033116686E+02  0.31962303540E+02 -0.11456134483E+02  0.47787294215E+02  0.20000105644E+02 0.  0.
        -12    1    1    2    0    0  0.27033116686E+02 -0.31962303540E+02  0.11456134483E+02  0.43400705785E+02  0.00000000000E+00 0.  1.
         11    1    3    3    0    0 -0.22180721573E+02  0.23190294065E+02 -0.39053829905E+01  0.32326864446E+02  0.51100000000E-03 0. -1.
        -11    1    3    3    0    0 -0.13736245630E+01 -0.36107104718E+00 -0.52246380644E+01  0.54142460146E+01  0.51100000000E-03 0.  1.
         12    1    3    3    0    0 -0.34787705506E+01  0.91330805214E+01 -0.23261134280E+01  0.10046183755E+02  0.00000000000E+00 0. -1.
</event>
<event>
 7    1  0.2732193E-010  0.4778729E+02  0.7816164E-02  0.1312668E+00
        -11   -1    0    0    0    0  0.00000000000E+00  0.00000000000E+00  0.45593999997E+02  0.45594000000E+02  0.51100000000E-03 0. -1.
         11   -1    0    0    0    0 -0.00000000000E+00 -0.00000000000E+00 -0.45593999997E+02  0.45594000000E+02  0.51100000000E-03 0.  1.
    9900012    2    1    2    0    0  0.34037167648E+02 -0.22428136227E+02  0.14902054334E+02  0.47787293790E+02  0.20000103706E+02 0.  0.
        -12    1    1    2    0    0 -0.34037167648E+02  0.22428136227E+02 -0.14902054334E+02  0.43400706210E+02  0.00000000000E+00 0.  1.
         11    1    3    3    0    0  0.93710221282E+01 -0.99222782772E+01  0.11069153717E+02  0.17572530444E+02  0.51100000000E-03 0. -1.
        -11    1    3    3    0    0  0.11829499751E+02 -0.10755672929E+02 -0.17972293416E+01  0.16088865655E+02  0.51100000000E-03 0.  1.
         12    1    3    3    0    0  0.12836645769E+02 -0.17501850210E+01  0.56301299591E+01  0.14125897690E+02  0.00000000000E+00 0. -1.
</event>
<event>
 7    1  0.2732193E-010  0.4778727E+02  0.7816164E-02  0.1312668E+00
        -11   -1    0    0    0    0  0.00000000000E+00  0.00000000000E+00  0.45593999997E+02  0.45594000000E+02  0.51100000000E-03 0.  1.
         11   -1    0    0    0    0 -0.00000000000E+00 -0.00000000000E+00 -0.45593999997E+02  0.45594000000E+02  0.51100000000E-03 0. -1.
    9900012    2    1    2    0    0  0.12674939975E+01  0.34485940458E+01 -0.43244925691E+02  0.47787274892E+02  0.20000017541E+02 0.  0.
        -12    1    1    2    0    0 -0.12674939975E+01 -0.34485940458E+01  0.43244925691E+02  0.43400725108E+02  0.00000000000E+00 0.  1.
         11    1    3    3    0    0  0.70086168451E+01  0.43080597878E+01 -0.32171520298E+02  0.33206728351E+02  0.51100000000E-03 0. -1.
        -11    1    3    3    0    0 -0.48219063379E+01  0.26025408826E+01 -0.44830757562E+01  0.70796870181E+01  0.51100000000E-03 0.  1.
        -12    1    3    3    0    0 -0.91921650969E+00 -0.34620066246E+01 -0.65903296365E+01  0.75008595227E+01  0.00000000000E+00 0.  1.
</event>
<event>
 7    1  0.2732193E-010  0.4778729E+02  0.7816164E-02  0.1312668E+00
        -11   -1    0    0    0    0  0.00000000000E+00  0.00000000000E+00  0.45593999997E+02  0.45594000000E+02  0.51100000000E-03 0. -1.
         11   -1    0    0    0    0 -0.00000000000E+00 -0.00000000000E+00 -0.45593999997E+02  0.45594000000E+02  0.51100000000E-03 0.  1.
    9900012    2    1    2    0    0  0.40744775076E+02 -0.14580260320E+02 -0.33016911639E+01  0.47787287430E+02  0.20000074710E+02 0.  0.
        -12    1    1    2    0    0 -0.40744775076E+02  0.14580260320E+02  0.33016911639E+01  0.43400712570E+02  0.00000000000E+00 0.  1.
         11    1    3    3    0    0  0.11418631870E+02 -0.73369043933E+01 -0.42832232871E+01  0.14232403938E+02  0.51100000000E-03 0.  1.
        -11    1    3    3    0    0  0.24595235066E+02 -0.13491434053E+01  0.47867981088E+01  0.25093011223E+02  0.51100000000E-03 0. -1.
        -12    1    3    3    0    0  0.47309081406E+01 -0.58942125214E+01 -0.38052659856E+01  0.84618722694E+01  0.00000000000E+00 0.  1.
</event>
<event>
 7    1  0.2732193E-010  0.4778727E+02  0.7816164E-02  0.1312668E+00
        -11   -1    0    0    0    0  0.00000000000E+00  0.00000000000E+00  0.45593999997E+02  0.45594000000E+02  0.51100000000E-03 0. -1.
         11   -1    0    0    0    0 -0.00000000000E+00 -0.00000000000E+00 -0.45593999997E+02  0.45594000000E+02  0.51100000000E-03 0.  1.
    9900012    2    1    2    0    0  0.16938177579E+02  0.22295309560E+02  0.33160826233E+02  0.47787273226E+02  0.20000009945E+02 0.  0.
        -12    1    1    2    0    0 -0.16938177579E+02 -0.22295309560E+02 -0.33160826233E+02  0.43400726774E+02  0.00000000000E+00 0.  1.
         11    1    3    3    0    0  0.14683093358E+02  0.10241283702E+02  0.13337205837E+02  0.22323937426E+02  0.51100000000E-03 0. -1.
        -11    1    3    3    0    0 -0.40065548279E+01  0.32954915190E+01  0.71514110015E+01  0.88348981610E+01  0.51100000000E-03 0.  1.
        -12    1    3    3    0    0  0.62616390494E+01  0.87585343390E+01  0.12672209394E+02  0.16628437638E+02  0.00000000000E+00 0.  1.
</event>
<event>
 7    1  0.2732193E-010  0.4778729E+02  0.7816164E-02  0.1312668E+00
        -11   -1    0    0    0    0  0.00000000000E+00  0.00000000000E+00  0.45593999997E+02  0.45594000000E+02  0.51100000000E-03 0.  1.
         11   -1    0    0    0    0 -0.00000000000E+00 -0.00000000000E+00 -0.45593999997E+02  0.45594000000E+02  0.51100000000E-03 0. -1.
    9900012    2    1    2    0    0 -0.36521059124E+02 -0.23444037579E+02 -0.45952978299E+00  0.47787287735E+02  0.20000076097E+02 0.  0.
        -12    1    1    2    0    0  0.36521059124E+02  0.23444037579E+02  0.45952978299E+00  0.43400712265E+02  0.00000000000E+00 0.  1.
         11    1    3    3    0    0 -0.21784091502E+02 -0.81318481900E+01  0.62044136173E+01  0.24065916690E+02  0.51100000000E-03 0. -1.
        -11    1    3    3    0    0 -0.13828795429E+02 -0.16198821321E+02 -0.54957290939E+01  0.21996373195E+02  0.51100000000E-03 0.  1.
        -12    1    3    3    0    0 -0.90817219231E+00  0.88663193163E+00 -0.11682143065E+01  0.17249978490E+01  0.00000000000E+00 0.  1.
</event>
<event>
 7    1  0.2732193E-010  0.4778727E+02  0.7816164E-02  0.1312668E+00
        -11   -1    0    0    0    0  0.00000000000E+00  0.00000000000E+00  0.45593999997E+02  0.45594000000E+02  0.51100000000E-03 0.  1.
         11   -1    0    0    0    0 -0.00000000000E+00 -0.00000000000E+00 -0.45593999997E+02  0.45594000000E+02  0.51100000000E-03 0. -1.
    9900012    2    1    2    0    0 -0.38817447131E+00 -0.31321385448E+02 -0.30040695595E+02  0.47787271232E+02  0.20000000856E+02 0.  0.
        -12    1    1    2    0    0  0.38817447131E+00  0.31321385448E+02  0.30040695595E+02  0.43400728768E+02  0.00000000000E+00 0.  1.
         11    1    3    3    0    0 -0.11718486076E+01  0.12129114240E+01  0.76021834597E+00  0.18499501280E+01  0.51100000000E-03 0. -1.
        -11    1    3    3    0    0 -0.17213125044E+01 -0.95125621859E+01 -0.38542070693E+01  0.10407048980E+02  0.51100000000E-03 0.  1.
         12    1    3    3    0    0  0.25049866407E+01 -0.23021734686E+02 -0.26946706871E+02  0.35530272124E+02  0.00000000000E+00 0. -1.
</event>
<event>
 7    1  0.2732193E-010  0.4778727E+02  0.7816164E-02  0.1312668E+00
        -11   -1    0    0    0    0  0.00000000000E+00  0.00000000000E+00  0.45593999997E+02  0.45594000000E+02  0.51100000000E-03 0. -1.
         11   -1    0    0    0    0 -0.00000000000E+00 -0.00000000000E+00 -0.45593999997E+02  0.45594000000E+02  0.51100000000E-03 0.  1.
    9900012    2    1    2    0    0 -0.32801196698E+02 -0.26466365859E+02  0.10355499341E+02  0.47787269669E+02  0.19999993731E+02 0.  0.
        -12    1    1    2    0    0  0.32801196698E+02  0.26466365859E+02 -0.10355499341E+02  0.43400730331E+02  0.00000000000E+00 0.  1.
         11    1    3    3    0    0 -0.20476251211E+02 -0.17162138958E+02  0.85642664011E+01  0.28056417029E+02  0.51100000000E-03 0. -1.
        -11    1    3    3    0    0  0.24341679943E+00  0.89362797714E+00  0.33453858841E+01  0.34712288422E+01  0.51100000000E-03 0.  1.
        -12    1    3    3    0    0 -0.12568362287E+02 -0.10197854878E+02 -0.15541529437E+01  0.16259623798E+02  0.00000000000E+00 0.  1.
</event>
<event>
 7    1  0.2732193E-010  0.4778727E+02  0.7816164E-02  0.1312668E+00
        -11   -1    0    0    0    0  0.00000000000E+00  0.00000000000E+00  0.45593999997E+02  0.45594000000E+02  0.51100000000E-03 0.  1.
         11   -1    0    0    0    0 -0.00000000000E+00 -0.00000000000E+00 -0.45593999997E+02  0.45594000000E+02  0.51100000000E-03 0. -1.
    9900012    2    1    2    0    0 -0.11215459865E+02  0.38373109662E+02 -0.16892037364E+02  0.47787274068E+02  0.20000013786E+02 0.  0.
        -12    1    1    2    0    0  0.11215459865E+02 -0.38373109662E+02  0.16892037364E+02  0.43400725932E+02  0.00000000000E+00 0.  1.
         11    1    3    3    0    0 -0.99699269476E+01  0.34393138392E+02 -0.14932337054E+02  0.38797707431E+02  0.51100000000E-03 0. -1.
        -11    1    3    3    0    0 -0.28872986834E+01  0.33539834566E+01 -0.42278305064E+01  0.61204779034E+01  0.51100000000E-03 0.  1.
         12    1    3    3    0    0  0.16417657659E+01  0.62598781356E+00  0.22681301962E+01  0.28690887333E+01  0.00000000000E+00 0. -1.
</event>
<event>
 7    1  0.2732193E-010  0.4778727E+02  0.7816164E-02  0.1312668E+00
        -11   -1    0    0    0    0  0.00000000000E+00  0.00000000000E+00  0.45593999997E+02  0.45594000000E+02  0.51100000000E-03 0.  1.
         11   -1    0    0    0    0 -0.00000000000E+00 -0.00000000000E+00 -0.45593999997E+02  0.45594000000E+02  0.51100000000E-03 0. -1.
    9900012    2    1    2    0    0  0.21170915650E+02  0.26492685652E+02 -0.27084182371E+02  0.47787274231E+02  0.20000014531E+02 0.  0.
        -12    1    1    2    0    0 -0.21170915650E+02 -0.26492685652E+02  0.27084182371E+02  0.43400725769E+02  0.00000000000E+00 0.  1.
         11    1    3    3    0    0  0.80048218600E+01  0.17352886189E+02 -0.25035256839E+02  0.31495458678E+02  0.51100000000E-03 0. -1.
        -11    1    3    3    0    0  0.44383144632E+01  0.30119384451E+01  0.29932249555E+00  0.53721506576E+01  0.51100000000E-03 0.  1.
         12    1    3    3    0    0  0.87277793268E+01  0.61278610183E+01 -0.23482480280E+01  0.10919664896E+02  0.00000000000E+00 0. -1.
</event>
<event>
 7    1  0.2732193E-010  0.4778728E+02  0.7816164E-02  0.1312668E+00
        -11   -1    0    0    0    0  0.00000000000E+00  0.00000000000E+00  0.45593999997E+02  0.45594000000E+02  0.51100000000E-03 0. -1.
         11   -1    0    0    0    0 -0.00000000000E+00 -0.00000000000E+00 -0.45593999997E+02  0.45594000000E+02  0.51100000000E-03 0.  1.
    9900012    2    1    2    0    0  0.27439563808E+02  0.29909902204E+02  0.15365250681E+02  0.47787276039E+02  0.20000022772E+02 0.  0.
        -12    1    1    2    0    0 -0.27439563808E+02 -0.29909902204E+02 -0.15365250681E+02  0.43400723961E+02  0.00000000000E+00 0.  1.
         11    1    3    3    0    0  0.41354989977E+01  0.10595182895E+02  0.14548588200E+01  0.11466336249E+02  0.51100000000E-03 0. -1.
        -11    1    3    3    0    0  0.21560038468E+02  0.94694966815E+01  0.94721602181E+01  0.25381655691E+02  0.51100000000E-03 0.  1.
        -12    1    3    3    0    0  0.17440263423E+01  0.98452226281E+01  0.44382316427E+01  0.10939284099E+02  0.00000000000E+00 0.  1.
</event>
<event>
 7    1  0.2732193E-010  0.4778727E+02  0.7816164E-02  0.1312668E+00
        -11   -1    0    0    0    0  0.00000000000E+00  0.00000000000E+00  0.45593999997E+02  0.45594000000E+02  0.51100000000E-03 0.  1.
         11   -1    0    0    0    0 -0.00000000000E+00 -0.00000000000E+00 -0.45593999997E+02  0.45594000000E+02  0.51100000000E-03 0. -1.
    9900012    2    1    2    0    0 -0.97417409540E+01  0.31090971931E+02 -0.28671815106E+02  0.47787273809E+02  0.20000012607E+02 0.  0.
        -12    1    1    2    0    0  0.97417409540E+01 -0.31090971931E+02  0.28671815106E+02  0.43400726191E+02  0.00000000000E+00 0.  1.
         11    1    3    3    0    0 -0.12639802443E+02  0.23467454030E+02 -0.23141886174E+02  0.35299191215E+02  0.51100000000E-03 0. -1.
        -11    1    3    3    0    0  0.39719300753E+01  0.66710906932E+01 -0.11124964344E+01  0.78432982946E+01  0.51100000000E-03 0.  1.
        -12    1    3    3    0    0 -0.10738685865E+01  0.95242720715E+00 -0.44174324976E+01  0.46447843004E+01  0.00000000000E+00 0.  1.
</event>
<event>
 7    1  0.2732193E-010  0.4778727E+02  0.7816164E-02  0.1312668E+00
        -11   -1    0    0    0    0  0.00000000000E+00  0.00000000000E+00  0.45593999997E+02  0.45594000000E+02  0.51100000000E-03 0. -1.
         11   -1    0    0    0    0 -0.00000000000E+00 -0.00000000000E+00 -0.45593999997E+02  0.45594000000E+02  0.51100000000E-03 0.  1.
    9900012    2    1    2    0    0  0.17276668441E+02  0.70921794906E+01  0.39177048526E+02  0.47787269436E+02  0.19999992665E+02 0.  0.
        -12    1    1    2    0    0 -0.17276668441E+02 -0.70921794906E+01 -0.39177048526E+02  0.43400730564E+02  0.00000000000E+00 0.  1.
         11    1    3    3    0    0  0.17054992758E+02  0.84714702855E+01  0.17480368124E+02  0.25849600709E+02  0.51100000000E-03 0. -1.
        -11    1    3    3    0    0  0.12731369575E+01 -0.16598470784E+01  0.16180829084E+02  0.16315489577E+02  0.51100000000E-03 0.  1.
         12    1    3    3    0    0 -0.10514612746E+01  0.28055628358E+00  0.55158513169E+01  0.56221791496E+01  0.00000000000E+00 0. -1.
</event>
<event>
 7    1  0.2732193E-010  0.4778727E+02  0.7816164E-02  0.1312668E+00
        -11   -1    0    0    0    0  0.00000000000E+00  0.00000000000E+00  0.45593999997E+02  0.45594000000E+02  0.51100000000E-03 0. -1.
         11   -1    0    0    0    0 -0.00000000000E+00 -0.00000000000E+00 -0.45593999997E+02  0.45594000000E+02  0.51100000000E-03 0.  1.
    9900012    2    1    2    0    0 -0.25980184078E+02  0.32857999533E+01  0.34610066956E+02  0.47787272117E+02  0.20000004890E+02 0.  0.
        -12    1    1    2    0    0  0.25980184078E+02 -0.32857999533E+01 -0.34610066956E+02  0.43400727883E+02  0.00000000000E+00 0.  1.
         11    1    3    3    0    0 -0.64360858308E+01  0.27110240471E+01  0.11842366600E+02  0.13748254404E+02  0.51100000000E-03 0. -1.
        -11    1    3    3    0    0 -0.20768797841E+02 -0.10696367224E+01  0.23912580909E+02  0.31690670748E+02  0.51100000000E-03 0.  1.
        -12    1    3    3    0    0  0.12246995939E+01  0.16444126285E+01 -0.11448805524E+01  0.23483469649E+01  0.00000000000E+00 0.  1.
</event>
<event>
 7    1  0.2732193E-010  0.4778727E+02  0.7816164E-02  0.1312668E+00
        -11   -1    0    0    0    0  0.00000000000E+00  0.00000000000E+00  0.45593999997E+02  0.45594000000E+02  0.51100000000E-03 0.  1.
         11   -1    0    0    0    0 -0.00000000000E+00 -0.00000000000E+00 -0.45593999997E+02  0.45594000000E+02  0.51100000000E-03 0. -1.
    9900012    2    1    2    0    0  0.38605573886E+01 -0.27063596432E+02 -0.33708770088E+02  0.47787270328E+02  0.19999996736E+02 0.  0.
        -12    1    1    2    0    0 -0.38605573886E+01  0.27063596432E+02  0.33708770088E+02  0.43400729672E+02  0.00000000000E+00 0.  1.
         11    1    3    3    0    0  0.88474968469E+01 -0.15627928144E+02 -0.92149879434E+01  0.20184804720E+02  0.51100000000E-03 0. -1.
        -11    1    3    3    0    0 -0.32800633311E+01 -0.48955430042E+01 -0.99353374453E+01  0.11551453899E+02  0.51100000000E-03 0.  1.
         12    1    3    3    0    0 -0.17068761272E+01 -0.65401252836E+01 -0.14558444699E+02  0.16051011709E+02  0.00000000000E+00 0. -1.
</event>
<event>
 7    1  0.2732193E-010  0.4778727E+02  0.7816164E-02  0.1312668E+00
        -11   -1    0    0    0    0  0.00000000000E+00  0.00000000000E+00  0.45593999997E+02  0.45594000000E+02  0.51100000000E-03 0.  1.
         11   -1    0    0    0    0 -0.00000000000E+00 -0.00000000000E+00 -0.45593999997E+02  0.45594000000E+02  0.51100000000E-03 0. -1.
    9900012    2    1    2    0    0  0.75741525757E+01 -0.40929507502E+02 -0.12289457918E+02  0.47787272500E+02  0.20000006638E+02 0.  0.
        -12    1    1    2    0    0 -0.75741525757E+01  0.40929507502E+02  0.12289457918E+02  0.43400727500E+02  0.00000000000E+00 0.  1.
         11    1    3    3    0    0 -0.45176193270E+01 -0.22699685504E+02 -0.67170687786E+01  0.24099867626E+02  0.51100000000E-03 0. -1.
        -11    1    3    3    0    0  0.83012126995E+01 -0.85652666521E+01 -0.58865369930E+01  0.13301324864E+02  0.51100000000E-03 0.  1.
        -12    1    3    3    0    0  0.37905592031E+01 -0.96645553460E+01  0.31414785392E+00  0.10386080010E+02  0.00000000000E+00 0.  1.
</event>
<event>
 7    1  0.2732193E-010  0.4778727E+02  0.7816164E-02  0.1312668E+00
        -11   -1    0    0    0    0  0.00000000000E+00  0.00000000000E+00  0.45593999997E+02  0.45594000000E+02  0.51100000000E-03 0.  1.
         11   -1    0    0    0    0 -0.00000000000E+00 -0.00000000000E+00 -0.45593999997E+02  0.45594000000E+02  0.51100000000E-03 0. -1.
    9900012    2    1    2    0    0 -0.33938272351E+02  0.15384952845E+02 -0.22251292421E+02  0.47787272833E+02  0.20000008155E+02 0.  0.
        -12    1    1    2    0    0  0.33938272351E+02 -0.15384952845E+02  0.22251292421E+02  0.43400727167E+02  0.00000000000E+00 0.  1.
         11    1    3    3    0    0 -0.15832268263E+02  0.12891658431E+02 -0.48867019079E+01  0.20993699799E+02  0.51100000000E-03 0. -1.
        -11    1    3    3    0    0 -0.81295515923E+01  0.41727459290E+01 -0.12718682382E+02  0.15660980157E+02  0.51100000000E-03 0.  1.
         12    1    3    3    0    0 -0.99764524960E+01 -0.16794515155E+01 -0.46459081305E+01  0.11132592877E+02  0.00000000000E+00 0. -1.
</event>
<event>
 7    1  0.2732193E-010  0.4778727E+02  0.7816164E-02  0.1312668E+00
        -11   -1    0    0    0    0  0.00000000000E+00  0.00000000000E+00  0.45593999997E+02  0.45594000000E+02  0.51100000000E-03 0. -1.
         11   -1    0    0    0    0 -0.00000000000E+00 -0.00000000000E+00 -0.45593999997E+02  0.45594000000E+02  0.51100000000E-03 0.  1.
    9900012    2    1    2    0    0  0.53448541597E+01 -0.16949024866E+02  0.39595280068E+02  0.47787272892E+02  0.20000008422E+02 0.  0.
        -12    1    1    2    0    0 -0.53448541597E+01  0.16949024866E+02 -0.39595280068E+02  0.43400727108E+02  0.00000000000E+00 0.  1.
         11    1    3    3    0    0  0.13862421562E+01 -0.39316010758E+01  0.22379061784E+02  0.22764040963E+02  0.51100000000E-03 0. -1.
        -11    1    3    3    0    0  0.41255068579E+01 -0.29270732197E+01 -0.10228361822E-01  0.50584255800E+01  0.51100000000E-03 0.  1.
        -12    1    3    3    0    0 -0.16689485440E+00 -0.10090350570E+02  0.17226446645E+02  0.19964806349E+02  0.00000000000E+00 0.  1.
</event>
<event>
 7    1  0.2732193E-010  0.4778727E+02  0.7816164E-02  0.1312668E+00
        -11   -1    0    0    0    0  0.00000000000E+00  0.00000000000E+00  0.45593999997E+02  0.45594000000E+02  0.51100000000E-03 0. -1.
         11   -1    0    0    0    0 -0.00000000000E+00 -0.00000000000E+00 -0.45593999997E+02  0.45594000000E+02  0.51100000000E-03 0.  1.
    9900012    2    1    2    0    0  0.25808163515E+02  0.34872681730E+02  0.12076980786E+01  0.47787265332E+02  0.19999973955E+02 0.  0.
        -12    1    1    2    0    0 -0.25808163515E+02 -0.34872681730E+02 -0.12076980786E+01  0.43400734668E+02  0.00000000000E+00 0.  1.
         11    1    3    3    0    0  0.66521142731E+01  0.14411969884E+02  0.49962149127E+01  0.16640843246E+02  0.51100000000E-03 0. -1.
        -11    1    3    3    0    0  0.18904681578E+02  0.20012370632E+02 -0.65823991466E+01  0.28305652133E+02  0.51100000000E-03 0.  1.
        -12    1    3    3    0    0  0.25136766420E+00  0.44834121377E+00  0.27938823125E+01  0.28407699525E+01  0.00000000000E+00 0.  1.
</event>
<event>
 7    1  0.2732193E-010  0.4778727E+02  0.7816164E-02  0.1312668E+00
        -11   -1    0    0    0    0  0.00000000000E+00  0.00000000000E+00  0.45593999997E+02  0.45594000000E+02  0.51100000000E-03 0. -1.
         11   -1    0    0    0    0 -0.00000000000E+00 -0.00000000000E+00 -0.45593999997E+02  0.45594000000E+02  0.51100000000E-03 0.  1.
    9900012    2    1    2    0    0 -0.22419698901E+02 -0.65050195022E+01  0.36587773563E+02  0.47787270146E+02  0.19999995905E+02 0.  0.
        -12    1    1    2    0    0  0.22419698901E+02  0.65050195022E+01 -0.36587773563E+02  0.43400729854E+02  0.00000000000E+00 0.  1.
         11    1    3    3    0    0 -0.15771656515E+02 -0.52932661487E+01  0.11783927938E+02  0.20386877487E+02  0.51100000000E-03 0. -1.
        -11    1    3    3    0    0 -0.39996452875E+01  0.40732798033E+01  0.13037310507E+02  0.14232365802E+02  0.51100000000E-03 0.  1.
         12    1    3    3    0    0 -0.26483970982E+01 -0.52850331569E+01  0.11766535118E+02  0.13168026858E+02  0.00000000000E+00 0. -1.
</event>
<event>
 7    1  0.2732193E-010  0.4778728E+02  0.7816164E-02  0.1312668E+00
        -11   -1    0    0    0    0  0.00000000000E+00  0.00000000000E+00  0.45593999997E+02  0.45594000000E+02  0.51100000000E-03 0. -1.
         11   -1    0    0    0    0 -0.00000000000E+00 -0.00000000000E+00 -0.45593999997E+02  0.45594000000E+02  0.51100000000E-03 0.  1.
    9900012    2    1    2    0    0 -0.32830684869E+02 -0.28096940568E+02 -0.40411256401E+01  0.47787278409E+02  0.20000033576E+02 0.  0.
        -12    1    1    2    0    0  0.32830684869E+02  0.28096940568E+02  0.40411256401E+01  0.43400721591E+02  0.00000000000E+00 0.  1.
         11    1    3    3    0    0 -0.42501488455E+01 -0.84164216217E+01 -0.50889935585E+00  0.94423988974E+01  0.51100000000E-03 0. -1.
        -11    1    3    3    0    0 -0.15042989436E+02 -0.15069596331E+02 -0.88883847000E+01  0.23073526986E+02  0.51100000000E-03 0.  1.
        -12    1    3    3    0    0 -0.13537546587E+02 -0.46109226154E+01  0.53561584157E+01  0.15271352525E+02  0.00000000000E+00 0.  1.
</event>
<event>
 7    1  0.2732193E-010  0.4778727E+02  0.7816164E-02  0.1312668E+00
        -11   -1    0    0    0    0  0.00000000000E+00  0.00000000000E+00  0.45593999997E+02  0.45594000000E+02  0.51100000000E-03 0. -1.
         11   -1    0    0    0    0 -0.00000000000E+00 -0.00000000000E+00 -0.45593999997E+02  0.45594000000E+02  0.51100000000E-03 0.  1.
    9900012    2    1    2    0    0  0.31217423322E+02 -0.30087449139E+02 -0.19598332893E+01  0.47787273496E+02  0.20000011178E+02 0.  0.
        -12    1    1    2    0    0 -0.31217423322E+02  0.30087449139E+02  0.19598332893E+01  0.43400726504E+02  0.00000000000E+00 0.  1.
         11    1    3    3    0    0  0.33141269027E+01 -0.11324086999E+02  0.53986093603E+01  0.12975491003E+02  0.51100000000E-03 0. -1.
        -11    1    3    3    0    0  0.17502276020E+02 -0.10031395828E+02 -0.65394200205E+01  0.21206663637E+02  0.51100000000E-03 0.  1.
         12    1    3    3    0    0  0.10401020398E+02 -0.87319663127E+01 -0.81902262915E+00  0.13605118856E+02  0.00000000000E+00 0. -1.
</event>
<event>
 7    1  0.2732193E-010  0.4778727E+02  0.7816164E-02  0.1312668E+00
        -11   -1    0    0    0    0  0.00000000000E+00  0.00000000000E+00  0.45593999997E+02  0.45594000000E+02  0.51100000000E-03 0. -1.
         11   -1    0    0    0    0 -0.00000000000E+00 -0.00000000000E+00 -0.45593999997E+02  0.45594000000E+02  0.51100000000E-03 0.  1.
    9900012    2    1    2    0    0 -0.86439309963E+01  0.10265225044E+02  0.41273853281E+02  0.47787270133E+02  0.19999995846E+02 0.  0.
        -12    1    1    2    0    0  0.86439309963E+01 -0.10265225044E+02 -0.41273853281E+02  0.43400729867E+02  0.00000000000E+00 0.  1.
         11    1    3    3    0    0  0.68007099902E+00  0.65231233319E+01  0.28206299915E+02  0.28958746343E+02  0.51100000000E-03 0. -1.
        -11    1    3    3    0    0 -0.87462380874E+01 -0.49803332329E+00  0.11039126869E+02  0.14092801005E+02  0.51100000000E-03 0.  1.
         12    1    3    3    0    0 -0.57776390791E+00  0.42401350352E+01  0.20284264971E+01  0.47357227858E+01  0.00000000000E+00 0. -1.
</event>
<event>
 7    1  0.2732193E-010  0.4778721E+02  0.7816164E-02  0.1312668E+00
        -11   -1    0    0    0    0  0.00000000000E+00  0.00000000000E+00  0.45593999997E+02  0.45594000000E+02  0.51100000000E-03 0. -1.
         11   -1    0    0    0    0 -0.00000000000E+00 -0.00000000000E+00 -0.45593999997E+02  0.45594000000E+02  0.51100000000E-03 0.  1.
    9900012    2    1    2    0    0  0.20588880426E+02 -0.10740546585E+02  0.36665610165E+02  0.47787213061E+02  0.19999735631E+02 0.  0.
        -12    1    1    2    0    0 -0.20588880426E+02  0.10740546585E+02 -0.36665610165E+02  0.43400786939E+02  0.00000000000E+00 0.  1.
         11    1    3    3    0    0  0.98766448816E+01 -0.11301413948E+02  0.24431327916E+02  0.28673330036E+02  0.51100000000E-03 0. -1.
        -11    1    3    3    0    0  0.12234697142E+02  0.14121388537E+01  0.84181904988E+01  0.14918038807E+02  0.51100000000E-03 0.  1.
         12    1    3    3    0    0 -0.15224615977E+01 -0.85127149055E+00  0.38160917498E+01  0.41958442190E+01  0.00000000000E+00 0. -1.
</event>
<event>
 7    1  0.2732193E-010  0.4778727E+02  0.7816164E-02  0.1312668E+00
        -11   -1    0    0    0    0  0.00000000000E+00  0.00000000000E+00  0.45593999997E+02  0.45594000000E+02  0.51100000000E-03 0.  1.
         11   -1    0    0    0    0 -0.00000000000E+00 -0.00000000000E+00 -0.45593999997E+02  0.45594000000E+02  0.51100000000E-03 0. -1.
    9900012    2    1    2    0    0  0.40190840826E+02  0.50222384964E+00 -0.16372763830E+02  0.47787270622E+02  0.19999998072E+02 0.  0.
        -12    1    1    2    0    0 -0.40190840826E+02 -0.50222384964E+00  0.16372763830E+02  0.43400729378E+02  0.00000000000E+00 0.  1.
         11    1    3    3    0    0  0.71917585235E+01 -0.46895831315E+01 -0.55796792062E+01  0.10239453155E+02  0.51100000000E-03 0. -1.
        -11    1    3    3    0    0  0.27457443288E+02  0.32044422504E+01 -0.30365189929E+01  0.27810071735E+02  0.51100000000E-03 0.  1.
        -12    1    3    3    0    0  0.55416390153E+01  0.19873647307E+01 -0.77565656313E+01  0.97377457320E+01  0.00000000000E+00 0.  1.
</event>
<event>
 7    1  0.2732193E-010  0.4778727E+02  0.7816164E-02  0.1312668E+00
        -11   -1    0    0    0    0  0.00000000000E+00  0.00000000000E+00  0.45593999997E+02  0.45594000000E+02  0.51100000000E-03 0.  1.
         11   -1    0    0    0    0 -0.00000000000E+00 -0.00000000000E+00 -0.45593999997E+02  0.45594000000E+02  0.51100000000E-03 0. -1.
    9900012    2    1    2    0    0  0.14528891769E+02 -0.26157573899E+02 -0.31437496839E+02  0.47787267566E+02  0.19999984140E+02 0.  0.
        -12    1    1    2    0    0 -0.14528891769E+02  0.26157573899E+02  0.31437496839E+02  0.43400732434E+02  0.00000000000E+00 0.  1.
         11    1    3    3    0    0  0.94192698940E+01 -0.12236901763E+01 -0.12216829692E+02  0.15474850272E+02  0.51100000000E-03 0. -1.
        -11    1    3    3    0    0  0.31749791855E+01 -0.18191733674E+02 -0.16579765217E+02  0.24817499507E+02  0.51100000000E-03 0.  1.
        -12    1    3    3    0    0  0.19346426897E+01 -0.67421500488E+01 -0.26409019309E+01  0.74949177865E+01  0.00000000000E+00 0.  1.
</event>
<event>
 7    1  0.2732193E-010  0.4778727E+02  0.7816164E-02  0.1312668E+00
        -11   -1    0    0    0    0  0.00000000000E+00  0.00000000000E+00  0.45593999997E+02  0.45594000000E+02  0.51100000000E-03 0.  1.
         11   -1    0    0    0    0 -0.00000000000E+00 -0.00000000000E+00 -0.45593999997E+02  0.45594000000E+02  0.51100000000E-03 0. -1.
    9900012    2    1    2    0    0  0.22426474510E+02  0.17963429863E+02 -0.32526779878E+02  0.47787274423E+02  0.20000015403E+02 0.  0.
        -12    1    1    2    0    0 -0.22426474510E+02 -0.17963429863E+02  0.32526779878E+02  0.43400725577E+02  0.00000000000E+00 0.  1.
         11    1    3    3    0    0 -0.39459209426E+00 -0.18952256456E+01  0.53390360097E+00  0.20081425460E+01  0.51100000000E-03 0. -1.
        -11    1    3    3    0    0  0.94978891951E+01  0.11703224735E+02 -0.10624842442E+02  0.18440787552E+02  0.51100000000E-03 0.  1.
         12    1    3    3    0    0  0.13323177409E+02  0.81554307730E+01 -0.22435841037E+02  0.27338344325E+02  0.00000000000E+00 0. -1.
</event>
<event>
 7    1  0.2732193E-010  0.4778723E+02  0.7816164E-02  0.1312668E+00
        -11   -1    0    0    0    0  0.00000000000E+00  0.00000000000E+00  0.45593999997E+02  0.45594000000E+02  0.51100000000E-03 0.  1.
         11   -1    0    0    0    0 -0.00000000000E+00 -0.00000000000E+00 -0.45593999997E+02  0.45594000000E+02  0.51100000000E-03 0. -1.
    9900012    2    1    2    0    0  0.29703833411E+02 -0.31593653240E+02  0.17748701644E+01  0.47787230324E+02  0.19999814339E+02 0.  0.
        -12    1    1    2    0    0 -0.29703833411E+02  0.31593653240E+02 -0.17748701644E+01  0.43400769676E+02  0.00000000000E+00 0.  1.
         11    1    3    3    0    0  0.13025316191E+02 -0.60726388069E+01  0.80161892310E+01  0.16455852880E+02  0.51100000000E-03 0. -1.
        -11    1    3    3    0    0  0.75508099119E+01 -0.14182938904E+02 -0.21444477910E+01  0.16210155547E+02  0.51100000000E-03 0.  1.
         12    1    3    3    0    0  0.91277073080E+01 -0.11338075529E+02 -0.40968712757E+01  0.15121221897E+02  0.00000000000E+00 0. -1.
</event>
<event>
 7    1  0.2732193E-010  0.4778727E+02  0.7816164E-02  0.1312668E+00
        -11   -1    0    0    0    0  0.00000000000E+00  0.00000000000E+00  0.45593999997E+02  0.45594000000E+02  0.51100000000E-03 0. -1.
         11   -1    0    0    0    0 -0.00000000000E+00 -0.00000000000E+00 -0.45593999997E+02  0.45594000000E+02  0.51100000000E-03 0.  1.
    9900012    2    1    2    0    0  0.34282939585E+02  0.22444447659E+02  0.14302101600E+02  0.47787270887E+02  0.19999999283E+02 0.  0.
        -12    1    1    2    0    0 -0.34282939585E+02 -0.22444447659E+02 -0.14302101600E+02  0.43400729113E+02  0.00000000000E+00 0.  1.
         11    1    3    3    0    0  0.20321004191E+02  0.13867065826E+02  0.38215318332E+01  0.24896642981E+02  0.51100000000E-03 0. -1.
        -11    1    3    3    0    0  0.12705765933E+02  0.44587594757E+01  0.12279811420E+02  0.18223907176E+02  0.51100000000E-03 0.  1.
        -12    1    3    3    0    0  0.12561694619E+01  0.41186223578E+01 -0.17992416528E+01  0.46667207296E+01  0.00000000000E+00 0.  1.
</event>
<event>
 7    1  0.2732193E-010  0.4778727E+02  0.7816164E-02  0.1312668E+00
        -11   -1    0    0    0    0  0.00000000000E+00  0.00000000000E+00  0.45593999997E+02  0.45594000000E+02  0.51100000000E-03 0.  1.
         11   -1    0    0    0    0 -0.00000000000E+00 -0.00000000000E+00 -0.45593999997E+02  0.45594000000E+02  0.51100000000E-03 0. -1.
    9900012    2    1    2    0    0  0.67927462922E+01  0.40597001727E+02  0.13761015627E+02  0.47787268410E+02  0.19999987989E+02 0.  0.
        -12    1    1    2    0    0 -0.67927462922E+01 -0.40597001727E+02 -0.13761015627E+02  0.43400731590E+02  0.00000000000E+00 0.  1.
         11    1    3    3    0    0  0.76458581005E+01  0.18481974476E+02 -0.27277002220E+01  0.20186205076E+02  0.51100000000E-03 0. -1.
        -11    1    3    3    0    0 -0.72826999699E+00  0.17130699973E+02  0.12598219770E+02  0.21276898279E+02  0.51100000000E-03 0.  1.
         12    1    3    3    0    0 -0.12484181123E+00  0.49843272791E+01  0.38904960791E+01  0.63241650551E+01  0.00000000000E+00 0. -1.
</event>
<event>
 7    1  0.2732193E-010  0.4778727E+02  0.7816164E-02  0.1312668E+00
        -11   -1    0    0    0    0  0.00000000000E+00  0.00000000000E+00  0.45593999997E+02  0.45594000000E+02  0.51100000000E-03 0. -1.
         11   -1    0    0    0    0 -0.00000000000E+00 -0.00000000000E+00 -0.45593999997E+02  0.45594000000E+02  0.51100000000E-03 0.  1.
    9900012    2    1    2    0    0 -0.35883494064E+02 -0.22336314422E+02  0.98532904446E+01  0.47787269352E+02  0.19999992283E+02 0.  0.
        -12    1    1    2    0    0  0.35883494064E+02  0.22336314422E+02 -0.98532904446E+01  0.43400730648E+02  0.00000000000E+00 0.  1.
         11    1    3    3    0    0 -0.57610097352E+01 -0.83924248299E+01 -0.14994513941E+01  0.10289333430E+02  0.51100000000E-03 0. -1.
        -11    1    3    3    0    0 -0.30991510720E+01 -0.15709160512E+01 -0.29094995504E+01  0.45318542013E+01  0.51100000000E-03 0.  1.
         12    1    3    3    0    0 -0.27023333257E+02 -0.12372973540E+02  0.14262241389E+02  0.32966081720E+02  0.00000000000E+00 0. -1.
</event>
<event>
 7    1  0.2732193E-010  0.4778726E+02  0.7816164E-02  0.1312668E+00
        -11   -1    0    0    0    0  0.00000000000E+00  0.00000000000E+00  0.45593999997E+02  0.45594000000E+02  0.51100000000E-03 0.  1.
         11   -1    0    0    0    0 -0.00000000000E+00 -0.00000000000E+00 -0.45593999997E+02  0.45594000000E+02  0.51100000000E-03 0. -1.
    9900012    2    1    2    0    0  0.19346673126E+02  0.36009232733E+02 -0.14583059676E+02  0.47787260000E+02  0.19999949643E+02 0.  0.
        -12    1    1    2    0    0 -0.19346673126E+02 -0.36009232733E+02  0.14583059676E+02  0.43400740000E+02  0.00000000000E+00 0.  1.
         11    1    3    3    0    0 -0.14149027462E+01  0.14872607856E+02 -0.71719743563E+01  0.16572073818E+02  0.51100000000E-03 0. -1.
        -11    1    3    3    0    0  0.16686640634E+02  0.19918231803E+02 -0.55380391360E+01  0.26567834152E+02  0.51100000000E-03 0.  1.
         12    1    3    3    0    0  0.40749352382E+01  0.12183930746E+01 -0.18730461841E+01  0.46473520296E+01  0.00000000000E+00 0. -1.
</event>
<event>
 7    1  0.2732193E-010  0.4778727E+02  0.7816164E-02  0.1312668E+00
        -11   -1    0    0    0    0  0.00000000000E+00  0.00000000000E+00  0.45593999997E+02  0.45594000000E+02  0.51100000000E-03 0. -1.
         11   -1    0    0    0    0 -0.00000000000E+00 -0.00000000000E+00 -0.45593999997E+02  0.45594000000E+02  0.51100000000E-03 0.  1.
    9900012    2    1    2    0    0 -0.43011397963E+02  0.45209006119E+01  0.36337898926E+01  0.47787270444E+02  0.19999997260E+02 0.  0.
        -12    1    1    2    0    0  0.43011397963E+02 -0.45209006119E+01 -0.36337898926E+01  0.43400729556E+02  0.00000000000E+00 0.  1.
         11    1    3    3    0    0 -0.29344446878E+02  0.35564706057E+01  0.68966047291E+01  0.30353059200E+02  0.51100000000E-03 0. -1.
        -11    1    3    3    0    0 -0.98058549615E+01  0.28966587670E+01 -0.64309086722E+01  0.12078990444E+02  0.51100000000E-03 0.  1.
         12    1    3    3    0    0 -0.38610961228E+01 -0.19322287608E+01  0.31680938357E+01  0.53552207989E+01  0.00000000000E+00 0. -1.
</event>
<event>
 7    1  0.2732193E-010  0.4778727E+02  0.7816164E-02  0.1312668E+00
        -11   -1    0    0    0    0  0.00000000000E+00  0.00000000000E+00  0.45593999997E+02  0.45594000000E+02  0.51100000000E-03 0.  1.
         11   -1    0    0    0    0 -0.00000000000E+00 -0.00000000000E+00 -0.45593999997E+02  0.45594000000E+02  0.51100000000E-03 0. -1.
    9900012    2    1    2    0    0 -0.24779200385E+02 -0.20001751153E+02 -0.29488047583E+02  0.47787265316E+02  0.19999973880E+02 0.  0.
        -12    1    1    2    0    0  0.24779200385E+02  0.20001751153E+02  0.29488047583E+02  0.43400734684E+02  0.00000000000E+00 0.  1.
         11    1    3    3    0    0 -0.35823529134E+01 -0.14582553056E+00 -0.34620069271E+00  0.36019956499E+01  0.51100000000E-03 0. -1.
        -11    1    3    3    0    0 -0.15624789272E+02 -0.18032785704E+02 -0.13351941127E+02  0.27342087195E+02  0.51100000000E-03 0.  1.
        -12    1    3    3    0    0 -0.55720581991E+01 -0.18231399186E+01 -0.15789905763E+02  0.16843182471E+02  0.00000000000E+00 0.  1.
</event>
<event>
 7    1  0.2732193E-010  0.4778727E+02  0.7816164E-02  0.1312668E+00
        -11   -1    0    0    0    0  0.00000000000E+00  0.00000000000E+00  0.45593999997E+02  0.45594000000E+02  0.51100000000E-03 0. -1.
         11   -1    0    0    0    0 -0.00000000000E+00 -0.00000000000E+00 -0.45593999997E+02  0.45594000000E+02  0.51100000000E-03 0.  1.
    9900012    2    1    2    0    0  0.10880495766E+02 -0.20928325053E+02  0.36431353201E+02  0.47787268742E+02  0.19999989504E+02 0.  0.
        -12    1    1    2    0    0 -0.10880495766E+02  0.20928325053E+02 -0.36431353201E+02  0.43400731258E+02  0.00000000000E+00 0.  1.
         11    1    3    3    0    0  0.15001444219E+02 -0.14281351350E+02  0.23499982539E+02  0.31324902309E+02  0.51100000000E-03 0. -1.
        -11    1    3    3    0    0 -0.43145703639E+01 -0.26171374648E+01  0.10750995677E+02  0.11876398202E+02  0.51100000000E-03 0.  1.
         12    1    3    3    0    0  0.19362191078E+00 -0.40298362380E+01  0.21803749846E+01  0.45859682317E+01  0.00000000000E+00 0. -1.
</event>
<event>
 7    1  0.2732193E-010  0.4778727E+02  0.7816164E-02  0.1312668E+00
        -11   -1    0    0    0    0  0.00000000000E+00  0.00000000000E+00  0.45593999997E+02  0.45594000000E+02  0.51100000000E-03 0. -1.
         11   -1    0    0    0    0 -0.00000000000E+00 -0.00000000000E+00 -0.45593999997E+02  0.45594000000E+02  0.51100000000E-03 0.  1.
    9900012    2    1    2    0    0  0.13980270971E+01  0.39839081292E+02 -0.17161476191E+02  0.47787272552E+02  0.20000006872E+02 0.  0.
        -12    1    1    2    0    0 -0.13980270971E+01 -0.39839081292E+02  0.17161476191E+02  0.43400727448E+02  0.00000000000E+00 0.  1.
         11    1    3    3    0    0  0.22331178741E+01  0.34043526608E+02 -0.16560193803E+02  0.37923456309E+02  0.51100000000E-03 0. -1.
        -11    1    3    3    0    0 -0.15232986567E+01 -0.50237726309E+00 -0.27418327102E+01  0.31765497925E+01  0.51100000000E-03 0.  1.
         12    1    3    3    0    0  0.68820787966E+00  0.62979319473E+01  0.21405503216E+01  0.66872664503E+01  0.00000000000E+00 0. -1.
</event>
<event>
 7    1  0.3324622E-010  0.4778727E+02  0.7816164E-02  0.1312668E+00
        -11   -1    0    0    0    0  0.00000000000E+00  0.00000000000E+00  0.45593999997E+02  0.45594000000E+02  0.51100000000E-03 0. -1.
         11   -1    0    0    0    0 -0.00000000000E+00 -0.00000000000E+00 -0.45593999997E+02  0.45594000000E+02  0.51100000000E-03 0.  1.
    9900012    2    1    2    0    0  0.58112083816E+01 -0.51126634415E+01  0.42704960730E+02  0.47787272572E+02  0.20000006966E+02 0.  0.
        -12    1    1    2    0    0 -0.58112083816E+01  0.51126634415E+01 -0.42704960730E+02  0.43400727428E+02  0.00000000000E+00 0.  1.
         11    1    3    3    0    0 -0.89349271808E+00 -0.91088250837E+00  0.11586937888E+02  0.11656979285E+02  0.51100000000E-03 0. -1.
        -11    1    3    3    0    0  0.46416276115E+01  0.60446993610E+01  0.16335765750E+02  0.18026101635E+02  0.51100000000E-03 0.  1.
        -12    1    3    3    0    0  0.20630734881E+01 -0.10246480294E+02  0.14782257092E+02  0.18104191652E+02  0.00000000000E+00 0.  1.
</event>
<event>
 7    1  0.2732193E-010  0.4778726E+02  0.7816164E-02  0.1312668E+00
        -11   -1    0    0    0    0  0.00000000000E+00  0.00000000000E+00  0.45593999997E+02  0.45594000000E+02  0.51100000000E-03 0. -1.
         11   -1    0    0    0    0 -0.00000000000E+00 -0.00000000000E+00 -0.45593999997E+02  0.45594000000E+02  0.51100000000E-03 0.  1.
    9900012    2    1    2    0    0 -0.64284560299E+01  0.37889187271E+02  0.20167015700E+02  0.47787261743E+02  0.19999957593E+02 0.  0.
        -12    1    1    2    0    0  0.64284560299E+01 -0.37889187271E+02 -0.20167015700E+02  0.43400738257E+02  0.00000000000E+00 0.  1.
         11    1    3    3    0    0 -0.45857329808E+01  0.32990461438E+02  0.12188557503E+02  0.35467737835E+02  0.51100000000E-03 0. -1.
        -11    1    3    3    0    0  0.18416183176E+01 -0.93715171332E+00  0.46626601574E+00  0.21183048931E+01  0.51100000000E-03 0.  1.
         12    1    3    3    0    0 -0.36843413667E+01  0.58358775467E+01  0.75121921810E+01  0.10201219016E+02  0.00000000000E+00 0. -1.
</event>
<event>
 7    1  0.2732193E-010  0.4778726E+02  0.7816164E-02  0.1312668E+00
        -11   -1    0    0    0    0  0.00000000000E+00  0.00000000000E+00  0.45593999997E+02  0.45594000000E+02  0.51100000000E-03 0.  1.
         11   -1    0    0    0    0 -0.00000000000E+00 -0.00000000000E+00 -0.45593999997E+02  0.45594000000E+02  0.51100000000E-03 0. -1.
    9900012    2    1    2    0    0 -0.53926136251E+01  0.39703074223E+02 -0.16679632103E+02  0.47787256786E+02  0.19999934990E+02 0.  0.
        -12    1    1    2    0    0  0.53926136251E+01 -0.39703074223E+02  0.16679632103E+02  0.43400743214E+02  0.00000000000E+00 0.  1.
         11    1    3    3    0    0 -0.29608959456E+00  0.52025662787E+01 -0.74379953728E+01  0.90817476490E+01  0.51100000000E-03 0. -1.
        -11    1    3    3    0    0 -0.51648499439E+01  0.35846551410E+02 -0.86607248246E+01  0.37237871551E+02  0.51100000000E-03 0.  1.
        -12    1    3    3    0    0  0.68325913412E-01 -0.13460434656E+01 -0.58091190510E+00  0.14676375858E+01  0.00000000000E+00 0.  1.
</event>
<event>
 7    1  0.2732193E-010  0.4778727E+02  0.7816164E-02  0.1312668E+00
        -11   -1    0    0    0    0  0.00000000000E+00  0.00000000000E+00  0.45593999997E+02  0.45594000000E+02  0.51100000000E-03 0. -1.
         11   -1    0    0    0    0 -0.00000000000E+00 -0.00000000000E+00 -0.45593999997E+02  0.45594000000E+02  0.51100000000E-03 0.  1.
    9900012    2    1    2    0    0 -0.14608664724E+02  0.32007775749E+02  0.25410873398E+02  0.47787270971E+02  0.19999999664E+02 0.  0.
        -12    1    1    2    0    0  0.14608664724E+02 -0.32007775749E+02 -0.25410873398E+02  0.43400729029E+02  0.00000000000E+00 0.  1.
         11    1    3    3    0    0 -0.60569910354E+01  0.25136000122E+02  0.15397728431E+02  0.30093116881E+02  0.51100000000E-03 0. -1.
        -11    1    3    3    0    0 -0.19866565004E+01  0.47725849391E+00  0.80716003036E+01  0.83261822850E+01  0.51100000000E-03 0.  1.
        -12    1    3    3    0    0 -0.65650171879E+01  0.63945171335E+01  0.19415446632E+01  0.93679718044E+01  0.00000000000E+00 0.  1.
</event>
<event>
 7    1  0.2732193E-010  0.4778727E+02  0.7816164E-02  0.1312668E+00
        -11   -1    0    0    0    0  0.00000000000E+00  0.00000000000E+00  0.45593999997E+02  0.45594000000E+02  0.51100000000E-03 0.  1.
         11   -1    0    0    0    0 -0.00000000000E+00 -0.00000000000E+00 -0.45593999997E+02  0.45594000000E+02  0.51100000000E-03 0. -1.
    9900012    2    1    2    0    0  0.42069441375E+01  0.48692461491E+01 -0.42921037568E+02  0.47787269557E+02  0.19999993219E+02 0.  0.
        -12    1    1    2    0    0 -0.42069441375E+01 -0.48692461491E+01  0.42921037568E+02  0.43400730443E+02  0.00000000000E+00 0.  1.
         11    1    3    3    0    0  0.29886743129E+01 -0.31856595863E+01 -0.19028579288E+02  0.19523509703E+02  0.51100000000E-03 0. -1.
        -11    1    3    3    0    0  0.10280584635E+00  0.11255817031E+02 -0.20916868013E+02  0.23753301956E+02  0.51100000000E-03 0.  1.
        -12    1    3    3    0    0  0.11154639783E+01 -0.32009112959E+01 -0.29755902679E+01  0.45104578984E+01  0.00000000000E+00 0.  1.
</event>
<event>
 7    1  0.2732193E-010  0.4778727E+02  0.7816164E-02  0.1312668E+00
        -11   -1    0    0    0    0  0.00000000000E+00  0.00000000000E+00  0.45593999997E+02  0.45594000000E+02  0.51100000000E-03 0.  1.
         11   -1    0    0    0    0 -0.00000000000E+00 -0.00000000000E+00 -0.45593999997E+02  0.45594000000E+02  0.51100000000E-03 0. -1.
    9900012    2    1    2    0    0  0.89238811741E+01  0.23479025718E+02 -0.35393827240E+02  0.47787270622E+02  0.19999998072E+02 0.  0.
        -12    1    1    2    0    0 -0.89238811741E+01 -0.23479025718E+02  0.35393827240E+02  0.43400729378E+02  0.00000000000E+00 0.  1.
         11    1    3    3    0    0  0.10916684764E+02  0.49052046377E+01 -0.19085307451E+02  0.22527405522E+02  0.51100000000E-03 0. -1.
        -11    1    3    3    0    0 -0.59717764102E+00  0.14738808313E+02 -0.10279057881E+02  0.17979102392E+02  0.51100000000E-03 0.  1.
         12    1    3    3    0    0 -0.13956259492E+01  0.38350127670E+01 -0.60294619078E+01  0.72807627080E+01  0.00000000000E+00 0. -1.
</event>
<event>
 7    1  0.2732193E-010  0.4778727E+02  0.7816164E-02  0.1312668E+00
        -11   -1    0    0    0    0  0.00000000000E+00  0.00000000000E+00  0.45593999997E+02  0.45594000000E+02  0.51100000000E-03 0.  1.
         11   -1    0    0    0    0 -0.00000000000E+00 -0.00000000000E+00 -0.45593999997E+02  0.45594000000E+02  0.51100000000E-03 0. -1.
    9900012    2    1    2    0    0 -0.19672381713E+02 -0.28878553070E+02 -0.25741985881E+02  0.47787271127E+02  0.20000000375E+02 0.  0.
        -12    1    1    2    0    0  0.19672381713E+02  0.28878553070E+02  0.25741985881E+02  0.43400728873E+02  0.00000000000E+00 0.  1.
         11    1    3    3    0    0 -0.47887314883E+01 -0.13321763150E+02 -0.15961244731E+02  0.21334541390E+02  0.51100000000E-03 0. -1.
        -11    1    3    3    0    0 -0.83515358749E+01 -0.21717226128E+01  0.93822003991E-02  0.86292884332E+01  0.51100000000E-03 0.  1.
        -12    1    3    3    0    0 -0.65321143496E+01 -0.13385067307E+02 -0.97901233497E+01  0.17823441303E+02  0.00000000000E+00 0.  1.
</event>
<event>
 7    1  0.2732193E-010  0.4778724E+02  0.7816164E-02  0.1312668E+00
        -11   -1    0    0    0    0  0.00000000000E+00  0.00000000000E+00  0.45593999997E+02  0.45594000000E+02  0.51100000000E-03 0.  1.
         11   -1    0    0    0    0 -0.00000000000E+00 -0.00000000000E+00 -0.45593999997E+02  0.45594000000E+02  0.51100000000E-03 0. -1.
    9900012    2    1    2    0    0  0.19338953840E+02 -0.33944260489E+02 -0.18905492570E+02  0.47787244188E+02  0.19999877550E+02 0.  0.
        -12    1    1    2    0    0 -0.19338953840E+02  0.33944260489E+02  0.18905492570E+02  0.43400755812E+02  0.00000000000E+00 0.  1.
         11    1    3    3    0    0  0.61813066045E+01 -0.18682662563E+02 -0.11366562605E+02  0.22725518201E+02  0.51100000000E-03 0. -1.
        -11    1    3    3    0    0 -0.94533570796E-01  0.17481984978E+01 -0.22660801832E+01  0.28636086048E+01  0.51100000000E-03 0.  1.
        -12    1    3    3    0    0  0.13252180806E+02 -0.17009796424E+02 -0.52728497814E+01  0.22198117382E+02  0.00000000000E+00 0.  1.
</event>
<event>
 7    1  0.2732193E-010  0.4778728E+02  0.7816164E-02  0.1312668E+00
        -11   -1    0    0    0    0  0.00000000000E+00  0.00000000000E+00  0.45593999997E+02  0.45594000000E+02  0.51100000000E-03 0.  1.
         11   -1    0    0    0    0 -0.00000000000E+00 -0.00000000000E+00 -0.45593999997E+02  0.45594000000E+02  0.51100000000E-03 0. -1.
    9900012    2    1    2    0    0 -0.29926517007E+02 -0.31152111945E+02  0.41919319899E+01  0.47787276589E+02  0.20000025278E+02 0.  0.
        -12    1    1    2    0    0  0.29926517007E+02  0.31152111945E+02 -0.41919319899E+01  0.43400723411E+02  0.00000000000E+00 0.  1.
         11    1    3    3    0    0 -0.57817794346E+01 -0.17648551763E+02  0.51830293703E+00  0.18578724148E+02  0.51100000000E-03 0. -1.
        -11    1    3    3    0    0 -0.52111395428E+01 -0.39225132380E+01  0.45793684699E+01  0.79694856346E+01  0.51100000000E-03 0.  1.
         12    1    3    3    0    0 -0.18933598030E+02 -0.95810469438E+01 -0.90573941707E+00  0.21239066806E+02  0.00000000000E+00 0. -1.
</event>
<event>
 7    1  0.2732193E-010  0.4778727E+02  0.7816164E-02  0.1312668E+00
        -11   -1    0    0    0    0  0.00000000000E+00  0.00000000000E+00  0.45593999997E+02  0.45594000000E+02  0.51100000000E-03 0.  1.
         11   -1    0    0    0    0 -0.00000000000E+00 -0.00000000000E+00 -0.45593999997E+02  0.45594000000E+02  0.51100000000E-03 0. -1.
    9900012    2    1    2    0    0 -0.85553636434E+01 -0.23614514003E+02 -0.35394687900E+02  0.47787269013E+02  0.19999990739E+02 0.  0.
        -12    1    1    2    0    0  0.85553636434E+01  0.23614514003E+02  0.35394687900E+02  0.43400730987E+02  0.00000000000E+00 0.  1.
         11    1    3    3    0    0 -0.21489582396E+01 -0.22490128369E+02 -0.21254456740E+02  0.31018959156E+02  0.51100000000E-03 0. -1.
        -11    1    3    3    0    0 -0.26898012115E+01  0.27726727572E-01 -0.70476707924E+00  0.27807366337E+01  0.51100000000E-03 0.  1.
         12    1    3    3    0    0 -0.37166041923E+01 -0.11521123615E+01 -0.13435464081E+02  0.13987573223E+02  0.00000000000E+00 0. -1.
</event>
<event>
 7    1  0.2732193E-010  0.4778728E+02  0.7816164E-02  0.1312668E+00
        -11   -1    0    0    0    0  0.00000000000E+00  0.00000000000E+00  0.45593999997E+02  0.45594000000E+02  0.51100000000E-03 0.  1.
         11   -1    0    0    0    0 -0.00000000000E+00 -0.00000000000E+00 -0.45593999997E+02  0.45594000000E+02  0.51100000000E-03 0. -1.
    9900012    2    1    2    0    0 -0.27031432667E+02  0.15501265487E+02 -0.30209855080E+02  0.47787275033E+02  0.20000018186E+02 0.  0.
        -12    1    1    2    0    0  0.27031432667E+02 -0.15501265487E+02  0.30209855080E+02  0.43400724967E+02  0.00000000000E+00 0.  1.
         11    1    3    3    0    0 -0.20457241733E+02  0.12082912533E+02 -0.21829973084E+02  0.32265201684E+02  0.51100000000E-03 0. -1.
        -11    1    3    3    0    0  0.23286296621E+01  0.23571789424E+01 -0.48773329226E+01  0.58963705250E+01  0.51100000000E-03 0.  1.
        -12    1    3    3    0    0 -0.89028205961E+01  0.10611740117E+01 -0.35025490733E+01  0.96257028242E+01  0.00000000000E+00 0.  1.
</event>
<event>
 7    1  0.2732193E-010  0.4778727E+02  0.7816164E-02  0.1312668E+00
        -11   -1    0    0    0    0  0.00000000000E+00  0.00000000000E+00  0.45593999997E+02  0.45594000000E+02  0.51100000000E-03 0.  1.
         11   -1    0    0    0    0 -0.00000000000E+00 -0.00000000000E+00 -0.45593999997E+02  0.45594000000E+02  0.51100000000E-03 0. -1.
    9900012    2    1    2    0    0  0.65350260332E+01  0.40232465037E+02 -0.14908573600E+02  0.47787269880E+02  0.19999994691E+02 0.  0.
        -12    1    1    2    0    0 -0.65350260332E+01 -0.40232465037E+02  0.14908573600E+02  0.43400730120E+02  0.00000000000E+00 0.  1.
         11    1    3    3    0    0  0.84660793152E+00  0.76307650440E+01 -0.10401486105E+02  0.12928117945E+02  0.51100000000E-03 0.  1.
        -11    1    3    3    0    0  0.39026950268E+01  0.30723413872E+02 -0.64315982549E+01  0.31631070877E+02  0.51100000000E-03 0. -1.
         12    1    3    3    0    0  0.17857230749E+01  0.18782861206E+01  0.19245107605E+01  0.32280810582E+01  0.00000000000E+00 0. -1.
</event>
<event>
 7    1  0.2732193E-010  0.4778727E+02  0.7816164E-02  0.1312668E+00
        -11   -1    0    0    0    0  0.00000000000E+00  0.00000000000E+00  0.45593999997E+02  0.45594000000E+02  0.51100000000E-03 0.  1.
         11   -1    0    0    0    0 -0.00000000000E+00 -0.00000000000E+00 -0.45593999997E+02  0.45594000000E+02  0.51100000000E-03 0. -1.
    9900012    2    1    2    0    0  0.10873237042E+02 -0.33089700394E+02 -0.25893392303E+02  0.47787270502E+02  0.19999997528E+02 0.  0.
        -12    1    1    2    0    0 -0.10873237042E+02  0.33089700394E+02  0.25893392303E+02  0.43400729498E+02  0.00000000000E+00 0.  1.
         11    1    3    3    0    0 -0.89053467415E+00 -0.75040905730E+01 -0.50611417135E+01  0.90950306783E+01  0.51100000000E-03 0. -1.
        -11    1    3    3    0    0  0.10246341359E+02 -0.26751467469E+02 -0.22281505728E+02  0.36291789991E+02  0.51100000000E-03 0.  1.
        -12    1    3    3    0    0  0.15174303572E+01  0.11658576479E+01  0.14492551380E+01  0.24004498327E+01  0.00000000000E+00 0.  1.
</event>
<event>
 7    1  0.2732193E-010  0.4778727E+02  0.7816164E-02  0.1312668E+00
        -11   -1    0    0    0    0  0.00000000000E+00  0.00000000000E+00  0.45593999997E+02  0.45594000000E+02  0.51100000000E-03 0.  1.
         11   -1    0    0    0    0 -0.00000000000E+00 -0.00000000000E+00 -0.45593999997E+02  0.45594000000E+02  0.51100000000E-03 0. -1.
    9900012    2    1    2    0    0 -0.42035822317E+02  0.13467611777E+01  0.10714444906E+02  0.47787268979E+02  0.19999990582E+02 0.  0.
        -12    1    1    2    0    0  0.42035822317E+02 -0.13467611777E+01 -0.10714444906E+02  0.43400731021E+02  0.00000000000E+00 0.  1.
         11    1    3    3    0    0 -0.21292051230E+02  0.45615218397E+01  0.71216766594E+01  0.22910198728E+02  0.51100000000E-03 0. -1.
        -11    1    3    3    0    0  0.72183185013E+00 -0.11043468205E+01 -0.21806083036E+01  0.25486616006E+01  0.51100000000E-03 0.  1.
         12    1    3    3    0    0 -0.21465602937E+02 -0.21104138415E+01  0.57733765497E+01  0.22328408650E+02  0.00000000000E+00 0. -1.
</event>
<event>
 7    1  0.2732193E-010  0.4778727E+02  0.7816164E-02  0.1312668E+00
        -11   -1    0    0    0    0  0.00000000000E+00  0.00000000000E+00  0.45593999997E+02  0.45594000000E+02  0.51100000000E-03 0.  1.
         11   -1    0    0    0    0 -0.00000000000E+00 -0.00000000000E+00 -0.45593999997E+02  0.45594000000E+02  0.51100000000E-03 0. -1.
    9900012    2    1    2    0    0  0.37960704935E+02 -0.86191896547E+01 -0.19191603283E+02  0.47787272056E+02  0.20000004614E+02 0.  0.
        -12    1    1    2    0    0 -0.37960704935E+02  0.86191896547E+01  0.19191603283E+02  0.43400727944E+02  0.00000000000E+00 0.  1.
         11    1    3    3    0    0  0.54229754365E+01 -0.66048122381E+01 -0.38745108339E+01  0.93831786591E+01  0.51100000000E-03 0. -1.
        -11    1    3    3    0    0  0.11038835996E+02  0.56243768466E+01 -0.58829487398E+01  0.13714904345E+02  0.51100000000E-03 0.  1.
        -12    1    3    3    0    0  0.21498893502E+02 -0.76387542632E+01 -0.94341437093E+01  0.24689189052E+02  0.00000000000E+00 0.  1.
</event>
<event>
 7    1  0.2732193E-010  0.4778727E+02  0.7816164E-02  0.1312668E+00
        -11   -1    0    0    0    0  0.00000000000E+00  0.00000000000E+00  0.45593999997E+02  0.45594000000E+02  0.51100000000E-03 0.  1.
         11   -1    0    0    0    0 -0.00000000000E+00 -0.00000000000E+00 -0.45593999997E+02  0.45594000000E+02  0.51100000000E-03 0. -1.
    9900012    2    1    2    0    0  0.69530021525E+01  0.26860722978E+02 -0.33373351843E+02  0.47787270846E+02  0.19999999097E+02 0.  0.
        -12    1    1    2    0    0 -0.69530021525E+01 -0.26860722978E+02  0.33373351843E+02  0.43400729154E+02  0.00000000000E+00 0.  1.
         11    1    3    3    0    0  0.20586124386E+01  0.64068140411E+01 -0.43604226045E+01  0.80186306113E+01  0.51100000000E-03 0. -1.
        -11    1    3    3    0    0  0.89740304565E+01  0.21227586034E+02 -0.24520992397E+02  0.33651488821E+02  0.51100000000E-03 0.  1.
        -12    1    3    3    0    0 -0.40796407426E+01 -0.77367709698E+00 -0.44919368405E+01  0.61171514137E+01  0.00000000000E+00 0.  1.
</event>
<event>
 7    1  0.2732193E-010  0.4778727E+02  0.7816164E-02  0.1312668E+00
        -11   -1    0    0    0    0  0.00000000000E+00  0.00000000000E+00  0.45593999997E+02  0.45594000000E+02  0.51100000000E-03 0.  1.
         11   -1    0    0    0    0 -0.00000000000E+00 -0.00000000000E+00 -0.45593999997E+02  0.45594000000E+02  0.51100000000E-03 0. -1.
    9900012    2    1    2    0    0  0.11332622906E+02  0.23629889244E+02 -0.34595140536E+02  0.47787265486E+02  0.19999974658E+02 0.  0.
        -12    1    1    2    0    0 -0.11332622906E+02 -0.23629889244E+02  0.34595140536E+02  0.43400734514E+02  0.00000000000E+00 0.  1.
         11    1    3    3    0    0  0.99393432271E+01  0.21018315102E+02 -0.20225977809E+02  0.30816396481E+02  0.51100000000E-03 0. -1.
        -11    1    3    3    0    0 -0.19768615373E+01  0.25807442284E+01 -0.12884113349E+02  0.13287911775E+02  0.51100000000E-03 0.  1.
         12    1    3    3    0    0  0.33701412157E+01  0.30829913816E-01 -0.14850493790E+01  0.36829572297E+01  0.00000000000E+00 0. -1.
</event>
<event>
 7    1  0.2732193E-010  0.4778727E+02  0.7816164E-02  0.1312668E+00
        -11   -1    0    0    0    0  0.00000000000E+00  0.00000000000E+00  0.45593999997E+02  0.45594000000E+02  0.51100000000E-03 0.  1.
         11   -1    0    0    0    0 -0.00000000000E+00 -0.00000000000E+00 -0.45593999997E+02  0.45594000000E+02  0.51100000000E-03 0. -1.
    9900012    2    1    2    0    0  0.41895695347E+02 -0.34608519157E+01 -0.10788704829E+02  0.47787274931E+02  0.20000017723E+02 0.  0.
        -12    1    1    2    0    0 -0.41895695347E+02  0.34608519157E+01  0.10788704829E+02  0.43400725069E+02  0.00000000000E+00 0.  1.
         11    1    3    3    0    0  0.26697126795E+02 -0.25923889522E+01 -0.13416259572E+02  0.29990883294E+02  0.51100000000E-03 0. -1.
        -11    1    3    3    0    0  0.14808007190E+02 -0.15909000078E+01 -0.15618204877E+00  0.14894040179E+02  0.51100000000E-03 0.  1.
         12    1    3    3    0    0  0.39056136200E+00  0.72243704427E+00  0.27837367918E+01  0.29023514581E+01  0.00000000000E+00 0. -1.
</event>
<event>
 7    1  0.2732193E-010  0.4778726E+02  0.7816164E-02  0.1312668E+00
        -11   -1    0    0    0    0  0.00000000000E+00  0.00000000000E+00  0.45593999997E+02  0.45594000000E+02  0.51100000000E-03 0.  1.
         11   -1    0    0    0    0 -0.00000000000E+00 -0.00000000000E+00 -0.45593999997E+02  0.45594000000E+02  0.51100000000E-03 0. -1.
    9900012    2    1    2    0    0  0.40680914614E+01  0.41755266325E+02  0.11116320249E+02  0.47787260261E+02  0.19999950834E+02 0.  0.
        -12    1    1    2    0    0 -0.40680914614E+01 -0.41755266325E+02 -0.11116320249E+02  0.43400739739E+02  0.00000000000E+00 0.  1.
         11    1    3    3    0    0  0.90430935845E+00  0.30690156467E+02  0.14882776097E+01  0.30739525857E+02  0.51100000000E-03 0. -1.
        -11    1    3    3    0    0  0.14836993630E+00  0.65511347000E+00  0.53564298578E+01  0.53983820150E+01  0.51100000000E-03 0.  1.
         12    1    3    3    0    0  0.30154121667E+01  0.10409996388E+02  0.42716127813E+01  0.11649352389E+02  0.00000000000E+00 0. -1.
</event>
<event>
 7    1  0.2732193E-010  0.4778727E+02  0.7816164E-02  0.1312668E+00
        -11   -1    0    0    0    0  0.00000000000E+00  0.00000000000E+00  0.45593999997E+02  0.45594000000E+02  0.51100000000E-03 0. -1.
         11   -1    0    0    0    0 -0.00000000000E+00 -0.00000000000E+00 -0.45593999997E+02  0.45594000000E+02  0.51100000000E-03 0.  1.
    9900012    2    1    2    0    0  0.21565356420E+02  0.15625423232E+02  0.34269589244E+02  0.47787271946E+02  0.20000004109E+02 0.  0.
        -12    1    1    2    0    0 -0.21565356420E+02 -0.15625423232E+02 -0.34269589244E+02  0.43400728054E+02  0.00000000000E+00 0.  1.
         11    1    3    3    0    0  0.17790486075E+02  0.83111816634E+01  0.20250583900E+02  0.28207504037E+02  0.51100000000E-03 0. -1.
        -11    1    3    3    0    0 -0.13292130605E+01 -0.12074561666E+01 -0.61043821209E+00  0.18966794211E+01  0.51100000000E-03 0.  1.
         12    1    3    3    0    0  0.51040834048E+01  0.85216977356E+01  0.14629443556E+02  0.17683088488E+02  0.00000000000E+00 0. -1.
</event>
<event>
 7    1  0.2732193E-010  0.4778728E+02  0.7816164E-02  0.1312668E+00
        -11   -1    0    0    0    0  0.00000000000E+00  0.00000000000E+00  0.45593999997E+02  0.45594000000E+02  0.51100000000E-03 0.  1.
         11   -1    0    0    0    0 -0.00000000000E+00 -0.00000000000E+00 -0.45593999997E+02  0.45594000000E+02  0.51100000000E-03 0. -1.
    9900012    2    1    2    0    0  0.18179110461E+02  0.10810112106E+02 -0.37898342072E+02  0.47787275205E+02  0.20000018969E+02 0.  0.
        -12    1    1    2    0    0 -0.18179110461E+02 -0.10810112106E+02  0.37898342072E+02  0.43400724795E+02  0.00000000000E+00 0.  1.
         11    1    3    3    0    0  0.18007312147E+02  0.82535501470E+01 -0.19083276846E+02  0.27505560097E+02  0.51100000000E-03 0. -1.
        -11    1    3    3    0    0 -0.28978367873E+01  0.19734598926E+01 -0.14714384339E+02  0.15126305191E+02  0.51100000000E-03 0.  1.
        -12    1    3    3    0    0  0.30696351011E+01  0.58310206643E+00 -0.41006808869E+01  0.51554099168E+01  0.00000000000E+00 0.  1.
</event>
<event>
 7    1  0.2732193E-010  0.4778733E+02  0.7816164E-02  0.1312668E+00
        -11   -1    0    0    0    0  0.00000000000E+00  0.00000000000E+00  0.45593999997E+02  0.45594000000E+02  0.51100000000E-03 0. -1.
         11   -1    0    0    0    0 -0.00000000000E+00 -0.00000000000E+00 -0.45593999997E+02  0.45594000000E+02  0.51100000000E-03 0.  1.
    9900012    2    1    2    0    0 -0.35285455950E+02 -0.39754135978E+01  0.24954980093E+02  0.47787327813E+02  0.20000258828E+02 0.  0.
        -12    1    1    2    0    0  0.35285455950E+02  0.39754135978E+01 -0.24954980093E+02  0.43400672187E+02  0.00000000000E+00 0.  1.
         11    1    3    3    0    0 -0.76568824198E+01  0.25149582988E+00  0.55714442359E+01  0.94727023429E+01  0.51100000000E-03 0. -1.
        -11    1    3    3    0    0 -0.21150036120E+02  0.28363751956E+00  0.47365252599E+01  0.21675773341E+02  0.51100000000E-03 0.  1.
        -12    1    3    3    0    0 -0.64785374099E+01 -0.45105469473E+01  0.14647010598E+02  0.16638852129E+02  0.00000000000E+00 0.  1.
</event>
<event>
 7    1  0.2732193E-010  0.4778727E+02  0.7816164E-02  0.1312668E+00
        -11   -1    0    0    0    0  0.00000000000E+00  0.00000000000E+00  0.45593999997E+02  0.45594000000E+02  0.51100000000E-03 0.  1.
         11   -1    0    0    0    0 -0.00000000000E+00 -0.00000000000E+00 -0.45593999997E+02  0.45594000000E+02  0.51100000000E-03 0. -1.
    9900012    2    1    2    0    0  0.43682262494E+01  0.37603810706E+02 -0.21224873744E+02  0.47787271370E+02  0.20000001485E+02 0.  0.
        -12    1    1    2    0    0 -0.43682262494E+01 -0.37603810706E+02  0.21224873744E+02  0.43400728630E+02  0.00000000000E+00 0.  1.
         11    1    3    3    0    0  0.56383371983E+01  0.33999277551E+01 -0.43013138923E+01  0.78645824150E+01  0.51100000000E-03 0. -1.
        -11    1    3    3    0    0 -0.46855798140E+01  0.23503944241E+02 -0.70866294603E+01  0.24992206194E+02  0.51100000000E-03 0.  1.
         12    1    3    3    0    0  0.34154688651E+01  0.10699938710E+02 -0.98369303914E+01  0.14930482761E+02  0.00000000000E+00 0. -1.
</event>
<event>
 7    1  0.2732193E-010  0.4778727E+02  0.7816164E-02  0.1312668E+00
        -11   -1    0    0    0    0  0.00000000000E+00  0.00000000000E+00  0.45593999997E+02  0.45594000000E+02  0.51100000000E-03 0. -1.
         11   -1    0    0    0    0 -0.00000000000E+00 -0.00000000000E+00 -0.45593999997E+02  0.45594000000E+02  0.51100000000E-03 0.  1.
    9900012    2    1    2    0    0 -0.35066832196E+01  0.34423241471E+02  0.26198607443E+02  0.47787269447E+02  0.19999992717E+02 0.  0.
        -12    1    1    2    0    0  0.35066832196E+01 -0.34423241471E+02 -0.26198607443E+02  0.43400730553E+02  0.00000000000E+00 0.  1.
         11    1    3    3    0    0  0.34823825656E+01  0.29258096843E+02  0.21983082638E+02  0.36761653142E+02  0.51100000000E-03 0. -1.
        -11    1    3    3    0    0 -0.18892611441E+01  0.46830022939E+01  0.17874476847E+01  0.53567515942E+01  0.51100000000E-03 0.  1.
         12    1    3    3    0    0 -0.50998046410E+01  0.48214233398E+00  0.24280771201E+01  0.56688647107E+01  0.00000000000E+00 0. -1.
</event>
<event>
 7    1  0.2732193E-010  0.4778727E+02  0.7816164E-02  0.1312668E+00
        -11   -1    0    0    0    0  0.00000000000E+00  0.00000000000E+00  0.45593999997E+02  0.45594000000E+02  0.51100000000E-03 0. -1.
         11   -1    0    0    0    0 -0.00000000000E+00 -0.00000000000E+00 -0.45593999997E+02  0.45594000000E+02  0.51100000000E-03 0.  1.
    9900012    2    1    2    0    0  0.74158754138E+01  0.20353370073E+02  0.37608088158E+02  0.47787272168E+02  0.20000005123E+02 0.  0.
        -12    1    1    2    0    0 -0.74158754138E+01 -0.20353370073E+02 -0.37608088158E+02  0.43400727832E+02  0.00000000000E+00 0.  1.
         11    1    3    3    0    0  0.15692119586E+01  0.26572117167E+01  0.85015942923E+01  0.90443521631E+01  0.51100000000E-03 0. -1.
        -11    1    3    3    0    0  0.58134733552E+00  0.19774252618E+02  0.20945801764E+02  0.28811206902E+02  0.51100000000E-03 0.  1.
        -12    1    3    3    0    0  0.52653161198E+01 -0.20780942616E+01  0.81606921009E+01  0.99317131033E+01  0.00000000000E+00 0.  1.
</event>
<event>
 7    1  0.2732193E-010  0.4778723E+02  0.7816164E-02  0.1312668E+00
        -11   -1    0    0    0    0  0.00000000000E+00  0.00000000000E+00  0.45593999997E+02  0.45594000000E+02  0.51100000000E-03 0. -1.
         11   -1    0    0    0    0 -0.00000000000E+00 -0.00000000000E+00 -0.45593999997E+02  0.45594000000E+02  0.51100000000E-03 0.  1.
    9900012    2    1    2    0    0 -0.35209603183E+02  0.25374558201E+02  0.20645041136E+00  0.47787228326E+02  0.19999805227E+02 0.  0.
        -12    1    1    2    0    0  0.35209603183E+02 -0.25374558201E+02 -0.20645041136E+00  0.43400771674E+02  0.00000000000E+00 0.  1.
         11    1    3    3    0    0 -0.32766183592E+02  0.20563836513E+02  0.46284854830E+01  0.38960454790E+02  0.51100000000E-03 0. -1.
        -11    1    3    3    0    0  0.16318306619E+00 -0.73344625134E+00  0.55452305829E+00  0.93384591876E+00  0.51100000000E-03 0.  1.
         12    1    3    3    0    0 -0.26066026574E+01  0.55441679391E+01 -0.49765581299E+01  0.78929276172E+01  0.00000000000E+00 0. -1.
</event>
<event>
 7    1  0.2732193E-010  0.4778727E+02  0.7816164E-02  0.1312668E+00
        -11   -1    0    0    0    0  0.00000000000E+00  0.00000000000E+00  0.45593999997E+02  0.45594000000E+02  0.51100000000E-03 0. -1.
         11   -1    0    0    0    0 -0.00000000000E+00 -0.00000000000E+00 -0.45593999997E+02  0.45594000000E+02  0.51100000000E-03 0.  1.
    9900012    2    1    2    0    0  0.42730691177E+02  0.53696731525E+00  0.75777991110E+01  0.47787270263E+02  0.19999996436E+02 0.  0.
        -12    1    1    2    0    0 -0.42730691177E+02 -0.53696731525E+00 -0.75777991110E+01  0.43400729737E+02  0.00000000000E+00 0.  1.
         11    1    3    3    0    0  0.22208282137E+02 -0.13043868811E+01  0.82571304577E+01  0.23729505352E+02  0.51100000000E-03 0. -1.
        -11    1    3    3    0    0  0.99432583050E+01  0.50136865081E+01 -0.49888488327E+01  0.12202215006E+02  0.51100000000E-03 0.  1.
        -12    1    3    3    0    0  0.10579150735E+02 -0.31723323117E+01  0.43095174860E+01  0.11855549905E+02  0.00000000000E+00 0.  1.
</event>
<event>
 7    1  0.2732193E-010  0.4778727E+02  0.7816164E-02  0.1312668E+00
        -11   -1    0    0    0    0  0.00000000000E+00  0.00000000000E+00  0.45593999997E+02  0.45594000000E+02  0.51100000000E-03 0. -1.
         11   -1    0    0    0    0 -0.00000000000E+00 -0.00000000000E+00 -0.45593999997E+02  0.45594000000E+02  0.51100000000E-03 0.  1.
    9900012    2    1    2    0    0  0.19102185025E+01 -0.39656666675E+02 -0.17530634783E+02  0.47787270716E+02  0.19999998504E+02 0.  0.
        -12    1    1    2    0    0 -0.19102185025E+01  0.39656666675E+02  0.17530634783E+02  0.43400729284E+02  0.00000000000E+00 0.  1.
         11    1    3    3    0    0  0.15647107602E+01 -0.78260157619E+01 -0.47150387788E+01  0.92696512025E+01  0.51100000000E-03 0. -1.
        -11    1    3    3    0    0 -0.97606037526E+00 -0.24350423509E+02 -0.17124082200E+02  0.29784727804E+02  0.51100000000E-03 0.  1.
        -12    1    3    3    0    0  0.13215681176E+01 -0.74802274042E+01  0.43084861965E+01  0.87328917097E+01  0.00000000000E+00 0.  1.
</event>
<event>
 7    1  0.2732193E-010  0.4778728E+02  0.7816164E-02  0.1312668E+00
        -11   -1    0    0    0    0  0.00000000000E+00  0.00000000000E+00  0.45593999997E+02  0.45594000000E+02  0.51100000000E-03 0.  1.
         11   -1    0    0    0    0 -0.00000000000E+00 -0.00000000000E+00 -0.45593999997E+02  0.45594000000E+02  0.51100000000E-03 0. -1.
    9900012    2    1    2    0    0  0.45036550676E+01 -0.17670435281E+02 -0.39383947650E+02  0.47787279678E+02  0.20000039365E+02 0.  0.
        -12    1    1    2    0    0 -0.45036550676E+01  0.17670435281E+02  0.39383947650E+02  0.43400720322E+02  0.00000000000E+00 0.  1.
         11    1    3    3    0    0  0.48631419848E+01 -0.13339378491E+02 -0.26815358313E+02  0.30342257830E+02  0.51100000000E-03 0. -1.
        -11    1    3    3    0    0 -0.55906453661E+01 -0.10143737624E+01 -0.43613526348E+01  0.71627974148E+01  0.51100000000E-03 0.  1.
        -12    1    3    3    0    0  0.52311584490E+01 -0.33166830272E+01 -0.82072367020E+01  0.10282224434E+02  0.00000000000E+00 0.  1.
</event>
<event>
 7    1  0.2732193E-010  0.4778726E+02  0.7816164E-02  0.1312668E+00
        -11   -1    0    0    0    0  0.00000000000E+00  0.00000000000E+00  0.45593999997E+02  0.45594000000E+02  0.51100000000E-03 0.  1.
         11   -1    0    0    0    0 -0.00000000000E+00 -0.00000000000E+00 -0.45593999997E+02  0.45594000000E+02  0.51100000000E-03 0. -1.
    9900012    2    1    2    0    0  0.30773900178E+02  0.29481877868E+02 -0.82103530005E+01  0.47787263242E+02  0.19999964423E+02 0.  0.
        -12    1    1    2    0    0 -0.30773900178E+02 -0.29481877868E+02  0.82103530005E+01  0.43400736758E+02  0.00000000000E+00 0.  1.
         11    1    3    3    0    0  0.14213750440E+02  0.16734891301E+02 -0.20914669880E+01  0.22055872752E+02  0.51100000000E-03 0. -1.
        -11    1    3    3    0    0  0.92524705765E+01 -0.10870736707E+01 -0.16598975913E+01  0.94628326208E+01  0.51100000000E-03 0.  1.
        -12    1    3    3    0    0  0.73076791614E+01  0.13834060238E+02 -0.44589884212E+01  0.16268557869E+02  0.00000000000E+00 0.  1.
</event>
<event>
 7    1  0.2732193E-010  0.4778727E+02  0.7816164E-02  0.1312668E+00
        -11   -1    0    0    0    0  0.00000000000E+00  0.00000000000E+00  0.45593999997E+02  0.45594000000E+02  0.51100000000E-03 0.  1.
         11   -1    0    0    0    0 -0.00000000000E+00 -0.00000000000E+00 -0.45593999997E+02  0.45594000000E+02  0.51100000000E-03 0. -1.
    9900012    2    1    2    0    0 -0.17166498854E+02 -0.31475735399E+02 -0.24458387093E+02  0.47787270732E+02  0.19999998574E+02 0.  0.
        -12    1    1    2    0    0  0.17166498854E+02  0.31475735399E+02  0.24458387093E+02  0.43400729268E+02  0.00000000000E+00 0.  1.
         11    1    3    3    0    0 -0.41252235992E+01 -0.10440347207E+02 -0.12429744415E+02  0.16748637737E+02  0.51100000000E-03 0. -1.
        -11    1    3    3    0    0 -0.15360221615E+02 -0.17110499031E+02 -0.65438401236E+01  0.23906639851E+02  0.51100000000E-03 0.  1.
        -12    1    3    3    0    0  0.23189463599E+01 -0.39248891618E+01 -0.54848025539E+01  0.71319931441E+01  0.00000000000E+00 0.  1.
</event>
<event>
 7    1  0.2732193E-010  0.4778727E+02  0.7816164E-02  0.1312668E+00
        -11   -1    0    0    0    0  0.00000000000E+00  0.00000000000E+00  0.45593999997E+02  0.45594000000E+02  0.51100000000E-03 0.  1.
         11   -1    0    0    0    0 -0.00000000000E+00 -0.00000000000E+00 -0.45593999997E+02  0.45594000000E+02  0.51100000000E-03 0. -1.
    9900012    2    1    2    0    0 -0.17501949273E+02  0.33701526741E+02 -0.21012199863E+02  0.47787266411E+02  0.19999978873E+02 0.  0.
        -12    1    1    2    0    0  0.17501949273E+02 -0.33701526741E+02  0.21012199863E+02  0.43400733589E+02  0.00000000000E+00 0.  1.
         11    1    3    3    0    0 -0.11668281214E+02  0.14351189649E+02 -0.39240986317E+01  0.18907775680E+02  0.51100000000E-03 0.  1.
        -11    1    3    3    0    0 -0.21776189368E+01  0.82928595080E+01 -0.14659458538E+02  0.16982734407E+02  0.51100000000E-03 0. -1.
         12    1    3    3    0    0 -0.36560491226E+01  0.11057477584E+02 -0.24286426934E+01  0.11896756324E+02  0.00000000000E+00 0. -1.
</event>
<event>
 7    1  0.2732193E-010  0.4778727E+02  0.7816164E-02  0.1312668E+00
        -11   -1    0    0    0    0  0.00000000000E+00  0.00000000000E+00  0.45593999997E+02  0.45594000000E+02  0.51100000000E-03 0.  1.
         11   -1    0    0    0    0 -0.00000000000E+00 -0.00000000000E+00 -0.45593999997E+02  0.45594000000E+02  0.51100000000E-03 0. -1.
    9900012    2    1    2    0    0  0.73420907012E+01  0.16630496506E+02 -0.39409938418E+02  0.47787274707E+02  0.20000016697E+02 0.  0.
        -12    1    1    2    0    0 -0.73420907012E+01 -0.16630496506E+02  0.39409938418E+02  0.43400725293E+02  0.00000000000E+00 0.  1.
         11    1    3    3    0    0 -0.43085081976E+01  0.22046095493E+01 -0.14045993270E+02  0.14856428688E+02  0.51100000000E-03 0. -1.
        -11    1    3    3    0    0  0.12357597497E+02  0.98934018505E+01 -0.22541950518E+02  0.27545038564E+02  0.51100000000E-03 0.  1.
         12    1    3    3    0    0 -0.70699859775E+00  0.45324851059E+01 -0.28219946302E+01  0.53858074553E+01  0.00000000000E+00 0. -1.
</event>
<event>
 7    1  0.2732193E-010  0.4778727E+02  0.7816164E-02  0.1312668E+00
        -11   -1    0    0    0    0  0.00000000000E+00  0.00000000000E+00  0.45593999997E+02  0.45594000000E+02  0.51100000000E-03 0. -1.
         11   -1    0    0    0    0 -0.00000000000E+00 -0.00000000000E+00 -0.45593999997E+02  0.45594000000E+02  0.51100000000E-03 0.  1.
    9900012    2    1    2    0    0 -0.38498001020E+02  0.13383776397E+02 -0.14913143008E+02  0.47787269735E+02  0.19999994030E+02 0.  0.
        -12    1    1    2    0    0  0.38498001020E+02 -0.13383776397E+02  0.14913143008E+02  0.43400730265E+02  0.00000000000E+00 0.  1.
         11    1    3    3    0    0 -0.37310265200E+02  0.63757336514E+01 -0.13285345223E+02  0.40114913273E+02  0.51100000000E-03 0. -1.
        -11    1    3    3    0    0  0.58265135335E+00  0.21488604510E+01 -0.10715222240E+01  0.24708791907E+01  0.51100000000E-03 0.  1.
         12    1    3    3    0    0 -0.17703871728E+01  0.48591822942E+01 -0.55627556077E+00  0.52014772718E+01  0.00000000000E+00 0. -1.
</event>
<event>
 7    1  0.2732193E-010  0.4778727E+02  0.7816164E-02  0.1312668E+00
        -11   -1    0    0    0    0  0.00000000000E+00  0.00000000000E+00  0.45593999997E+02  0.45594000000E+02  0.51100000000E-03 0.  1.
         11   -1    0    0    0    0 -0.00000000000E+00 -0.00000000000E+00 -0.45593999997E+02  0.45594000000E+02  0.51100000000E-03 0. -1.
    9900012    2    1    2    0    0 -0.34462205017E+01 -0.18013529026E+01 -0.43226169736E+02  0.47787273531E+02  0.20000011335E+02 0.  0.
        -12    1    1    2    0    0  0.34462205017E+01  0.18013529026E+01  0.43226169736E+02  0.43400726469E+02  0.00000000000E+00 0.  1.
         11    1    3    3    0    0 -0.41092994030E+01  0.44496968958E+01 -0.16312957588E+02  0.17401112883E+02  0.51100000000E-03 0. -1.
        -11    1    3    3    0    0  0.47164209172E+00 -0.10152593182E+02 -0.20393903590E+02  0.22786155852E+02  0.51100000000E-03 0.  1.
        -12    1    3    3    0    0  0.19143680955E+00  0.39015433834E+01 -0.65193085577E+01  0.76000047958E+01  0.00000000000E+00 0.  1.
</event>
<event>
 7    1  0.2732193E-010  0.4778726E+02  0.7816164E-02  0.1312668E+00
        -11   -1    0    0    0    0  0.00000000000E+00  0.00000000000E+00  0.45593999997E+02  0.45594000000E+02  0.51100000000E-03 0.  1.
         11   -1    0    0    0    0 -0.00000000000E+00 -0.00000000000E+00 -0.45593999997E+02  0.45594000000E+02  0.51100000000E-03 0. -1.
    9900012    2    1    2    0    0  0.32099737980E+02 -0.16662173474E+02 -0.23991733828E+02  0.47787256972E+02  0.19999935838E+02 0.  0.
        -12    1    1    2    0    0 -0.32099737980E+02  0.16662173474E+02  0.23991733828E+02  0.43400743028E+02  0.00000000000E+00 0.  1.
         11    1    3    3    0    0  0.84019532565E+01 -0.14605763836E+01 -0.37860809978E+01  0.93306222451E+01  0.51100000000E-03 0. -1.
        -11    1    3    3    0    0  0.24901319840E+02 -0.16991492626E+02 -0.17048070667E+02  0.34632690700E+02  0.51100000000E-03 0.  1.
        -12    1    3    3    0    0 -0.12035351158E+01  0.17898955350E+01 -0.31575821636E+01  0.38239440269E+01  0.00000000000E+00 0.  1.
</event>
<event>
 7    1  0.2732193E-010  0.4778727E+02  0.7816164E-02  0.1312668E+00
        -11   -1    0    0    0    0  0.00000000000E+00  0.00000000000E+00  0.45593999997E+02  0.45594000000E+02  0.51100000000E-03 0.  1.
         11   -1    0    0    0    0 -0.00000000000E+00 -0.00000000000E+00 -0.45593999997E+02  0.45594000000E+02  0.51100000000E-03 0. -1.
    9900012    2    1    2    0    0 -0.16378091595E+02  0.32362259480E+02  0.23834123568E+02  0.47787272250E+02  0.20000005498E+02 0.  0.
        -12    1    1    2    0    0  0.16378091595E+02 -0.32362259480E+02 -0.23834123568E+02  0.43400727750E+02  0.00000000000E+00 0.  1.
         11    1    3    3    0    0 -0.18405568884E+01  0.14703464716E+02  0.49883714899E+01  0.15635324580E+02  0.51100000000E-03 0. -1.
        -11    1    3    3    0    0 -0.12509097693E+02  0.15002487729E+02  0.20590511594E+02  0.28381707685E+02  0.51100000000E-03 0.  1.
        -12    1    3    3    0    0 -0.20284370139E+01  0.26563070346E+01 -0.17447595157E+01  0.37702399857E+01  0.00000000000E+00 0.  1.
</event>
<event>
 7    1  0.2732193E-010  0.4778728E+02  0.7816164E-02  0.1312668E+00
        -11   -1    0    0    0    0  0.00000000000E+00  0.00000000000E+00  0.45593999997E+02  0.45594000000E+02  0.51100000000E-03 0.  1.
         11   -1    0    0    0    0 -0.00000000000E+00 -0.00000000000E+00 -0.45593999997E+02  0.45594000000E+02  0.51100000000E-03 0. -1.
    9900012    2    1    2    0    0 -0.24150593220E+02  0.35821937754E+02  0.41425267066E+01  0.47787275296E+02  0.20000019385E+02 0.  0.
        -12    1    1    2    0    0  0.24150593220E+02 -0.35821937754E+02 -0.41425267066E+01  0.43400724704E+02  0.00000000000E+00 0.  1.
         11    1    3    3    0    0 -0.21480859010E+01  0.16288435647E+01  0.16990003166E+01  0.31865352240E+01  0.51100000000E-03 0. -1.
        -11    1    3    3    0    0 -0.59804446405E+01 -0.80489876913E+00  0.37221320059E-01  0.60344814040E+01  0.51100000000E-03 0.  1.
        -12    1    3    3    0    0 -0.16022062679E+02  0.34997992958E+02  0.24063050699E+01  0.38566258668E+02  0.00000000000E+00 0.  1.
</event>
<event>
 7    1  0.2732193E-010  0.4778727E+02  0.7816164E-02  0.1312668E+00
        -11   -1    0    0    0    0  0.00000000000E+00  0.00000000000E+00  0.45593999997E+02  0.45594000000E+02  0.51100000000E-03 0.  1.
         11   -1    0    0    0    0 -0.00000000000E+00 -0.00000000000E+00 -0.45593999997E+02  0.45594000000E+02  0.51100000000E-03 0. -1.
    9900012    2    1    2    0    0  0.27701736410E+02 -0.74081271653E+01 -0.32578469443E+02  0.47787271672E+02  0.20000002860E+02 0.  0.
        -12    1    1    2    0    0 -0.27701736410E+02  0.74081271653E+01  0.32578469443E+02  0.43400728328E+02  0.00000000000E+00 0.  1.
         11    1    3    3    0    0  0.65097306305E+01 -0.12517274952E+01 -0.73343694049E+01  0.98861716267E+01  0.51100000000E-03 0. -1.
        -11    1    3    3    0    0  0.23789465266E+02 -0.38293304481E+01 -0.24442880016E+02  0.34322832241E+02  0.51100000000E-03 0.  1.
        -12    1    3    3    0    0 -0.25974594869E+01 -0.23270692220E+01 -0.80122002150E+00  0.35782678034E+01  0.00000000000E+00 0.  1.
</event>
<event>
 7    1  0.2732193E-010  0.4778726E+02  0.7816164E-02  0.1312668E+00
        -11   -1    0    0    0    0  0.00000000000E+00  0.00000000000E+00  0.45593999997E+02  0.45594000000E+02  0.51100000000E-03 0.  1.
         11   -1    0    0    0    0 -0.00000000000E+00 -0.00000000000E+00 -0.45593999997E+02  0.45594000000E+02  0.51100000000E-03 0. -1.
    9900012    2    1    2    0    0  0.13522648856E+01 -0.30479577891E+02 -0.30867308865E+02  0.47787262157E+02  0.19999959479E+02 0.  0.
        -12    1    1    2    0    0 -0.13522648856E+01  0.30479577891E+02  0.30867308865E+02  0.43400737843E+02  0.00000000000E+00 0.  1.
         11    1    3    3    0    0  0.47924963415E+01 -0.56151354269E+01 -0.16496979726E+02  0.18073408848E+02  0.51100000000E-03 0.  1.
        -11    1    3    3    0    0 -0.28700025648E+01 -0.97282543814E+01 -0.24384814586E+01  0.10431780295E+02  0.51100000000E-03 0. -1.
         12    1    3    3    0    0 -0.57022889111E+00 -0.15136188083E+02 -0.11931847680E+02  0.19282073014E+02  0.00000000000E+00 0. -1.
</event>
<event>
 7    1  0.2732193E-010  0.4778727E+02  0.7816164E-02  0.1312668E+00
        -11   -1    0    0    0    0  0.00000000000E+00  0.00000000000E+00  0.45593999997E+02  0.45594000000E+02  0.51100000000E-03 0. -1.
         11   -1    0    0    0    0 -0.00000000000E+00 -0.00000000000E+00 -0.45593999997E+02  0.45594000000E+02  0.51100000000E-03 0.  1.
    9900012    2    1    2    0    0  0.14186984473E+02  0.39857267440E+02  0.96825006637E+01  0.47787272871E+02  0.20000008327E+02 0.  0.
        -12    1    1    2    0    0 -0.14186984473E+02 -0.39857267440E+02 -0.96825006637E+01  0.43400727129E+02  0.00000000000E+00 0.  1.
         11    1    3    3    0    0  0.33363513845E+01  0.97702211956E+01 -0.14847353651E+01  0.10430383604E+02  0.51100000000E-03 0. -1.
        -11    1    3    3    0    0  0.95466693581E+01  0.25286069963E+02  0.15149556304E+02  0.30984403924E+02  0.51100000000E-03 0.  1.
        -12    1    3    3    0    0  0.13039637306E+01  0.48009762813E+01 -0.39823202755E+01  0.63724853425E+01  0.00000000000E+00 0.  1.
</event>
<event>
 7    1  0.2732193E-010  0.4778727E+02  0.7816164E-02  0.1312668E+00
        -11   -1    0    0    0    0  0.00000000000E+00  0.00000000000E+00  0.45593999997E+02  0.45594000000E+02  0.51100000000E-03 0. -1.
         11   -1    0    0    0    0 -0.00000000000E+00 -0.00000000000E+00 -0.45593999997E+02  0.45594000000E+02  0.51100000000E-03 0.  1.
    9900012    2    1    2    0    0 -0.37454966430E+02 -0.82369521537E+01 -0.20319974218E+02  0.47787271397E+02  0.20000001607E+02 0.  0.
        -12    1    1    2    0    0  0.37454966430E+02  0.82369521537E+01  0.20319974218E+02  0.43400728603E+02  0.00000000000E+00 0.  1.
         11    1    3    3    0    0 -0.21027035979E+02  0.10453947401E+01 -0.12151554643E+02  0.24308216156E+02  0.51100000000E-03 0. -1.
        -11    1    3    3    0    0 -0.12734066437E+02 -0.11068210055E+02 -0.34405885820E+01  0.17219157119E+02  0.51100000000E-03 0.  1.
         12    1    3    3    0    0 -0.36938640140E+01  0.17858631611E+01 -0.47278309935E+01  0.62598981211E+01  0.00000000000E+00 0. -1.
</event>
<event>
 7    1  0.2732193E-010  0.4778729E+02  0.7816164E-02  0.1312668E+00
        -11   -1    0    0    0    0  0.00000000000E+00  0.00000000000E+00  0.45593999997E+02  0.45594000000E+02  0.51100000000E-03 0.  1.
         11   -1    0    0    0    0 -0.00000000000E+00 -0.00000000000E+00 -0.45593999997E+02  0.45594000000E+02  0.51100000000E-03 0. -1.
    9900012    2    1    2    0    0 -0.24359331548E+02  0.29520416862E+02  0.20464350090E+02  0.47787289524E+02  0.20000084257E+02 0.  0.
        -12    1    1    2    0    0  0.24359331548E+02 -0.29520416862E+02 -0.20464350090E+02  0.43400710476E+02  0.00000000000E+00 0.  1.
         11    1    3    3    0    0 -0.77618068372E+01  0.93343959759E+01 -0.26949673018E+01  0.12435410835E+02  0.51100000000E-03 0. -1.
        -11    1    3    3    0    0 -0.15999052628E+02  0.20089757439E+02  0.21202620173E+02  0.33303440384E+02  0.51100000000E-03 0.  1.
         12    1    3    3    0    0 -0.59847208299E+00  0.96263447116E-01  0.19566972184E+01  0.20484383051E+01  0.00000000000E+00 0. -1.
</event>
<event>
 7    1  0.2732193E-010  0.4778727E+02  0.7816164E-02  0.1312668E+00
        -11   -1    0    0    0    0  0.00000000000E+00  0.00000000000E+00  0.45593999997E+02  0.45594000000E+02  0.51100000000E-03 0.  1.
         11   -1    0    0    0    0 -0.00000000000E+00 -0.00000000000E+00 -0.45593999997E+02  0.45594000000E+02  0.51100000000E-03 0. -1.
    9900012    2    1    2    0    0 -0.38302377876E+02 -0.12480082646E+02 -0.16149269225E+02  0.47787268321E+02  0.19999987581E+02 0.  0.
        -12    1    1    2    0    0  0.38302377876E+02  0.12480082646E+02  0.16149269225E+02  0.43400731679E+02  0.00000000000E+00 0.  1.
         11    1    3    3    0    0 -0.14085604457E+02 -0.12812785348E+01 -0.13322050396E+02  0.19429949938E+02  0.51100000000E-03 0. -1.
        -11    1    3    3    0    0 -0.24750552823E+01  0.50909140896E+00  0.19674374823E+01  0.32024807917E+01  0.51100000000E-03 0.  1.
         12    1    3    3    0    0 -0.21741718137E+02 -0.11707895520E+02 -0.47946563111E+01  0.25154837591E+02  0.00000000000E+00 0. -1.
</event>
<event>
 7    1  0.2732193E-010  0.4778725E+02  0.7816164E-02  0.1312668E+00
        -11   -1    0    0    0    0  0.00000000000E+00  0.00000000000E+00  0.45593999997E+02  0.45594000000E+02  0.51100000000E-03 0. -1.
         11   -1    0    0    0    0 -0.00000000000E+00 -0.00000000000E+00 -0.45593999997E+02  0.45594000000E+02  0.51100000000E-03 0.  1.
    9900012    2    1    2    0    0  0.19723422311E+02  0.17187206468E+02  0.34629640944E+02  0.47787245562E+02  0.19999883816E+02 0.  0.
        -12    1    1    2    0    0 -0.19723422311E+02 -0.17187206468E+02 -0.34629640944E+02  0.43400754438E+02  0.00000000000E+00 0.  1.
         11    1    3    3    0    0  0.84369493858E+01  0.14606609254E+02  0.29710443708E+02  0.34164976429E+02  0.51100000000E-03 0. -1.
        -11    1    3    3    0    0  0.11151871342E+02  0.10923559413E+01  0.44424070084E+01  0.12053732045E+02  0.51100000000E-03 0.  1.
         12    1    3    3    0    0  0.13460158334E+00  0.14882412733E+01  0.47679022797E+00  0.15685370876E+01  0.00000000000E+00 0. -1.
</event>
<event>
 7    1  0.2732193E-010  0.4778726E+02  0.7816164E-02  0.1312668E+00
        -11   -1    0    0    0    0  0.00000000000E+00  0.00000000000E+00  0.45593999997E+02  0.45594000000E+02  0.51100000000E-03 0.  1.
         11   -1    0    0    0    0 -0.00000000000E+00 -0.00000000000E+00 -0.45593999997E+02  0.45594000000E+02  0.51100000000E-03 0. -1.
    9900012    2    1    2    0    0  0.36694111795E+02  0.31068163042E+01 -0.22967668961E+02  0.47787263077E+02  0.19999963672E+02 0.  0.
        -12    1    1    2    0    0 -0.36694111795E+02 -0.31068163042E+01  0.22967668961E+02  0.43400736923E+02  0.00000000000E+00 0.  1.
         11    1    3    3    0    0  0.13814598040E+02  0.69171638150E+01 -0.45129169105E+01  0.16095238226E+02  0.51100000000E-03 0. -1.
        -11    1    3    3    0    0  0.12981917428E+01 -0.39421061170E+01 -0.35769118364E+01  0.54790328512E+01  0.51100000000E-03 0.  1.
        -12    1    3    3    0    0  0.21581322012E+02  0.13175860608E+00 -0.14877840214E+02  0.26212991999E+02  0.00000000000E+00 0.  1.
</event>
<event>
 7    1  0.2732193E-010  0.4778726E+02  0.7816164E-02  0.1312668E+00
        -11   -1    0    0    0    0  0.00000000000E+00  0.00000000000E+00  0.45593999997E+02  0.45594000000E+02  0.51100000000E-03 0.  1.
         11   -1    0    0    0    0 -0.00000000000E+00 -0.00000000000E+00 -0.45593999997E+02  0.45594000000E+02  0.51100000000E-03 0. -1.
    9900012    2    1    2    0    0  0.15437399224E+02 -0.40309361085E+02  0.45239449497E+01  0.47787263096E+02  0.19999963760E+02 0.  0.
        -12    1    1    2    0    0 -0.15437399224E+02  0.40309361085E+02 -0.45239449497E+01  0.43400736904E+02  0.00000000000E+00 0.  1.
         11    1    3    3    0    0  0.16023533077E+02 -0.29049843424E+02  0.83647178149E+01  0.34214259010E+02  0.51100000000E-03 0.  1.
        -11    1    3    3    0    0 -0.19440818401E+01 -0.11475637810E+02 -0.35383777728E+01  0.12165107269E+02  0.51100000000E-03 0. -1.
        -12    1    3    3    0    0  0.13579479872E+01  0.21612014886E+00 -0.30239509245E+00  0.14078968168E+01  0.00000000000E+00 0.  1.
</event>
<event>
 7    1  0.2732193E-010  0.4778730E+02  0.7816164E-02  0.1312668E+00
        -11   -1    0    0    0    0  0.00000000000E+00  0.00000000000E+00  0.45593999997E+02  0.45594000000E+02  0.51100000000E-03 0.  1.
         11   -1    0    0    0    0 -0.00000000000E+00 -0.00000000000E+00 -0.45593999997E+02  0.45594000000E+02  0.51100000000E-03 0. -1.
    9900012    2    1    2    0    0 -0.91320423937E+01  0.29138284284E+02 -0.30841323791E+02  0.47787296521E+02  0.20000116157E+02 0.  0.
        -12    1    1    2    0    0  0.91320423937E+01 -0.29138284284E+02  0.30841323791E+02  0.43400703479E+02  0.00000000000E+00 0.  1.
         11    1    3    3    0    0 -0.13089068156E+02  0.16285667542E+02 -0.17796630101E+02  0.27445704868E+02  0.51100000000E-03 0. -1.
        -11    1    3    3    0    0  0.52966833812E+01  0.12009291156E+02 -0.87767391001E+01  0.15789524324E+02  0.51100000000E-03 0.  1.
        -12    1    3    3    0    0 -0.13396576188E+01  0.84332558620E+00 -0.42679545906E+01  0.45520673290E+01  0.00000000000E+00 0.  1.
</event>
<event>
 7    1  0.2732193E-010  0.4778727E+02  0.7816164E-02  0.1312668E+00
        -11   -1    0    0    0    0  0.00000000000E+00  0.00000000000E+00  0.45593999997E+02  0.45594000000E+02  0.51100000000E-03 0.  1.
         11   -1    0    0    0    0 -0.00000000000E+00 -0.00000000000E+00 -0.45593999997E+02  0.45594000000E+02  0.51100000000E-03 0. -1.
    9900012    2    1    2    0    0 -0.58662172442E+01  0.92396605815E+01 -0.41998084952E+02  0.47787274522E+02  0.20000015855E+02 0.  0.
        -12    1    1    2    0    0  0.58662172442E+01 -0.92396605815E+01  0.41998084952E+02  0.43400725478E+02  0.00000000000E+00 0.  1.
         11    1    3    3    0    0 -0.18993489060E+01  0.98353436711E+01 -0.17879081904E+02  0.20493976710E+02  0.51100000000E-03 0. -1.
        -11    1    3    3    0    0 -0.72249605817E+01 -0.46165497460E+00 -0.22532483534E+02  0.23666981117E+02  0.51100000000E-03 0.  1.
        -12    1    3    3    0    0  0.32580922436E+01 -0.13402811502E+00 -0.15865195136E+01  0.36263166948E+01  0.00000000000E+00 0.  1.
</event>
<event>
 7    1  0.2732193E-010  0.4778727E+02  0.7816164E-02  0.1312668E+00
        -11   -1    0    0    0    0  0.00000000000E+00  0.00000000000E+00  0.45593999997E+02  0.45594000000E+02  0.51100000000E-03 0.  1.
         11   -1    0    0    0    0 -0.00000000000E+00 -0.00000000000E+00 -0.45593999997E+02  0.45594000000E+02  0.51100000000E-03 0. -1.
    9900012    2    1    2    0    0  0.59576248554E+01  0.13357525975E+01 -0.42969125296E+02  0.47787271232E+02  0.20000000855E+02 0.  0.
        -12    1    1    2    0    0 -0.59576248554E+01 -0.13357525975E+01  0.42969125296E+02  0.43400728768E+02  0.00000000000E+00 0.  1.
         11    1    3    3    0    0  0.11454556093E+02 -0.32183532079E+00 -0.37073015211E+02  0.38803593781E+02  0.51100000000E-03 0. -1.
        -11    1    3    3    0    0 -0.51975839920E+01  0.95204300298E+00 -0.31926470300E+01  0.61736748014E+01  0.51100000000E-03 0.  1.
        -12    1    3    3    0    0 -0.29934724540E+00  0.70554491532E+00 -0.27034630548E+01  0.28100026494E+01  0.00000000000E+00 0.  1.
</event>
<event>
 7    1  0.2732193E-010  0.4778728E+02  0.7816164E-02  0.1312668E+00
        -11   -1    0    0    0    0  0.00000000000E+00  0.00000000000E+00  0.45593999997E+02  0.45594000000E+02  0.51100000000E-03 0.  1.
         11   -1    0    0    0    0 -0.00000000000E+00 -0.00000000000E+00 -0.45593999997E+02  0.45594000000E+02  0.51100000000E-03 0. -1.
    9900012    2    1    2    0    0 -0.16649501552E+02 -0.39982516846E+02 -0.27955928434E+01  0.47787275414E+02  0.20000019923E+02 0.  0.
        -12    1    1    2    0    0  0.16649501552E+02  0.39982516846E+02  0.27955928434E+01  0.43400724586E+02  0.00000000000E+00 0.  1.
         11    1    3    3    0    0 -0.88690101109E+01 -0.19803399773E+02 -0.85569645217E+01  0.23325000000E+02  0.51100000000E-03 0. -1.
        -11    1    3    3    0    0  0.29343038821E+00 -0.89449089619E+01  0.57314651390E+01  0.10627661579E+02  0.51100000000E-03 0.  1.
         12    1    3    3    0    0 -0.80739218289E+01 -0.11234208111E+02  0.29906539327E-01  0.13834613835E+02  0.00000000000E+00 0. -1.
</event>
<event>
 7    1  0.2732193E-010  0.4778727E+02  0.7816164E-02  0.1312668E+00
        -11   -1    0    0    0    0  0.00000000000E+00  0.00000000000E+00  0.45593999997E+02  0.45594000000E+02  0.51100000000E-03 0. -1.
         11   -1    0    0    0    0 -0.00000000000E+00 -0.00000000000E+00 -0.45593999997E+02  0.45594000000E+02  0.51100000000E-03 0.  1.
    9900012    2    1    2    0    0  0.27516920382E+02 -0.31315024289E+01  0.33416104020E+02  0.47787271634E+02  0.20000002689E+02 0.  0.
        -12    1    1    2    0    0 -0.27516920382E+02  0.31315024289E+01 -0.33416104020E+02  0.43400728366E+02  0.00000000000E+00 0.  1.
         11    1    3    3    0    0  0.20020081739E+02  0.45472746536E+01  0.27984464553E+02  0.34707515557E+02  0.51100000000E-03 0. -1.
        -11    1    3    3    0    0  0.20786176348E+01 -0.58041084519E+01  0.28492692485E+01  0.67916611889E+01  0.51100000000E-03 0.  1.
        -12    1    3    3    0    0  0.54182210088E+01 -0.18746686305E+01  0.25823702193E+01  0.62880948882E+01  0.00000000000E+00 0.  1.
</event>
<event>
 7    1  0.2732193E-010  0.4778727E+02  0.7816164E-02  0.1312668E+00
        -11   -1    0    0    0    0  0.00000000000E+00  0.00000000000E+00  0.45593999997E+02  0.45594000000E+02  0.51100000000E-03 0. -1.
         11   -1    0    0    0    0 -0.00000000000E+00 -0.00000000000E+00 -0.45593999997E+02  0.45594000000E+02  0.51100000000E-03 0.  1.
    9900012    2    1    2    0    0 -0.18563306651E+01  0.37853980385E+02  0.21148376707E+02  0.47787266920E+02  0.19999981196E+02 0.  0.
        -12    1    1    2    0    0  0.18563306651E+01 -0.37853980385E+02 -0.21148376707E+02  0.43400733080E+02  0.00000000000E+00 0.  1.
         11    1    3    3    0    0 -0.31967270122E+01  0.30951022194E+02  0.12205545443E+02  0.33423946180E+02  0.51100000000E-03 0. -1.
        -11    1    3    3    0    0  0.40964534172E+01  0.68800276778E+01  0.83007821381E+01  0.11533373132E+02  0.51100000000E-03 0.  1.
         12    1    3    3    0    0 -0.27560570702E+01  0.22930513353E-01  0.64204912614E+00  0.28299476078E+01  0.00000000000E+00 0. -1.
</event>
<event>
 7    1  0.2732193E-010  0.4778727E+02  0.7816164E-02  0.1312668E+00
        -11   -1    0    0    0    0  0.00000000000E+00  0.00000000000E+00  0.45593999997E+02  0.45594000000E+02  0.51100000000E-03 0.  1.
         11   -1    0    0    0    0 -0.00000000000E+00 -0.00000000000E+00 -0.45593999997E+02  0.45594000000E+02  0.51100000000E-03 0. -1.
    9900012    2    1    2    0    0  0.22075488829E+02 -0.22724821514E+02 -0.29662745809E+02  0.47787271794E+02  0.20000003416E+02 0.  0.
        -12    1    1    2    0    0 -0.22075488829E+02  0.22724821514E+02  0.29662745809E+02  0.43400728206E+02  0.00000000000E+00 0.  1.
         11    1    3    3    0    0  0.15903558383E+02 -0.18242144802E+02 -0.26602686476E+02  0.35963897789E+02  0.51100000000E-03 0. -1.
        -11    1    3    3    0    0 -0.20377579476E+01 -0.85510657258E-01 -0.10574501735E+01  0.22973834369E+01  0.51100000000E-03 0.  1.
         12    1    3    3    0    0  0.82096883944E+01 -0.43971660550E+01 -0.20026091602E+01  0.95259905677E+01  0.00000000000E+00 0. -1.
</event>
<event>
 7    1  0.2732193E-010  0.4778725E+02  0.7816164E-02  0.1312668E+00
        -11   -1    0    0    0    0  0.00000000000E+00  0.00000000000E+00  0.45593999997E+02  0.45594000000E+02  0.51100000000E-03 0. -1.
         11   -1    0    0    0    0 -0.00000000000E+00 -0.00000000000E+00 -0.45593999997E+02  0.45594000000E+02  0.51100000000E-03 0.  1.
    9900012    2    1    2    0    0 -0.20986340901E+02  0.37723639547E+02 -0.44861539049E+01  0.47787250445E+02  0.19999906077E+02 0.  0.
        -12    1    1    2    0    0  0.20986340901E+02 -0.37723639547E+02  0.44861539049E+01  0.43400749555E+02  0.00000000000E+00 0.  1.
         11    1    3    3    0    0  0.60601328442E-01 -0.11648641065E+01  0.19384271471E+01  0.22623176111E+01  0.51100000000E-03 0. -1.
        -11    1    3    3    0    0 -0.63673638684E+00  0.78747219980E+01 -0.38610912281E+00  0.79098521028E+01  0.51100000000E-03 0.  1.
         12    1    3    3    0    0 -0.20410205843E+02  0.31013781656E+02 -0.60384719292E+01  0.37615080731E+02  0.00000000000E+00 0. -1.
</event>
<event>
 7    1  0.2732193E-010  0.4778727E+02  0.7816164E-02  0.1312668E+00
        -11   -1    0    0    0    0  0.00000000000E+00  0.00000000000E+00  0.45593999997E+02  0.45594000000E+02  0.51100000000E-03 0.  1.
         11   -1    0    0    0    0 -0.00000000000E+00 -0.00000000000E+00 -0.45593999997E+02  0.45594000000E+02  0.51100000000E-03 0. -1.
    9900012    2    1    2    0    0 -0.14041935917E+02 -0.13015266109E+01 -0.41045745635E+02  0.47787272235E+02  0.20000005430E+02 0.  0.
        -12    1    1    2    0    0  0.14041935917E+02  0.13015266109E+01  0.41045745635E+02  0.43400727765E+02  0.00000000000E+00 0.  1.
         11    1    3    3    0    0 -0.10882880599E+02 -0.64673180127E+00 -0.32045690816E+02  0.33849396631E+02  0.51100000000E-03 0. -1.
        -11    1    3    3    0    0  0.35496107251E+01 -0.13540016780E+00 -0.49215507346E+01  0.60695742354E+01  0.51100000000E-03 0.  1.
         12    1    3    3    0    0 -0.67086660432E+01 -0.51939464185E+00 -0.40785040844E+01  0.78683013693E+01  0.00000000000E+00 0. -1.
</event>
<event>
 7    1  0.2732193E-010  0.4778727E+02  0.7816164E-02  0.1312668E+00
        -11   -1    0    0    0    0  0.00000000000E+00  0.00000000000E+00  0.45593999997E+02  0.45594000000E+02  0.51100000000E-03 0. -1.
         11   -1    0    0    0    0 -0.00000000000E+00 -0.00000000000E+00 -0.45593999997E+02  0.45594000000E+02  0.51100000000E-03 0.  1.
    9900012    2    1    2    0    0  0.25144903729E+02  0.34589444474E+02 -0.74112970061E+01  0.47787272174E+02  0.20000005148E+02 0.  0.
        -12    1    1    2    0    0 -0.25144903729E+02 -0.34589444474E+02  0.74112970061E+01  0.43400727826E+02  0.00000000000E+00 0.  1.
         11    1    3    3    0    0  0.64540483858E+01  0.98516994326E+01 -0.12812182529E-01  0.11777558605E+02  0.51100000000E-03 0. -1.
        -11    1    3    3    0    0  0.13648880086E+02  0.86737652900E+01  0.26721996388E+01  0.16391058022E+02  0.51100000000E-03 0.  1.
        -12    1    3    3    0    0  0.50419752579E+01  0.16063979751E+02 -0.10070684462E+02  0.19618655547E+02  0.00000000000E+00 0.  1.
</event>
<event>
 7    1  0.2732193E-010  0.4778727E+02  0.7816164E-02  0.1312668E+00
        -11   -1    0    0    0    0  0.00000000000E+00  0.00000000000E+00  0.45593999997E+02  0.45594000000E+02  0.51100000000E-03 0.  1.
         11   -1    0    0    0    0 -0.00000000000E+00 -0.00000000000E+00 -0.45593999997E+02  0.45594000000E+02  0.51100000000E-03 0. -1.
    9900012    2    1    2    0    0  0.30435783881E+02 -0.52216230623E+01 -0.30496243188E+02  0.47787272627E+02  0.20000007217E+02 0.  0.
        -12    1    1    2    0    0 -0.30435783881E+02  0.52216230623E+01  0.30496243188E+02  0.43400727373E+02  0.00000000000E+00 0.  1.
         11    1    3    3    0    0  0.96007905671E+00  0.99082688648E+00 -0.62720261615E+00  0.15155438288E+01  0.51100000000E-03 0. -1.
        -11    1    3    3    0    0  0.20995406165E+01  0.46831500449E+01 -0.82903880609E+01  0.97504102275E+01  0.51100000000E-03 0.  1.
        -12    1    3    3    0    0  0.27376164208E+02 -0.10895599994E+02 -0.21578652511E+02  0.36521318571E+02  0.00000000000E+00 0.  1.
</event>
<event>
 7    1  0.2732193E-010  0.4778727E+02  0.7816164E-02  0.1312668E+00
        -11   -1    0    0    0    0  0.00000000000E+00  0.00000000000E+00  0.45593999997E+02  0.45594000000E+02  0.51100000000E-03 0.  1.
         11   -1    0    0    0    0 -0.00000000000E+00 -0.00000000000E+00 -0.45593999997E+02  0.45594000000E+02  0.51100000000E-03 0. -1.
    9900012    2    1    2    0    0  0.36615799978E+02 -0.16687711021E+02 -0.16261204158E+02  0.47787271114E+02  0.20000000319E+02 0.  0.
        -12    1    1    2    0    0 -0.36615799978E+02  0.16687711021E+02  0.16261204158E+02  0.43400728886E+02  0.00000000000E+00 0.  1.
         11    1    3    3    0    0  0.87820428663E+01 -0.16795367646E+01 -0.11720816027E+02  0.14741867224E+02  0.51100000000E-03 0. -1.
        -11    1    3    3    0    0  0.20083342367E+02 -0.11369374410E+02 -0.70361330907E+01  0.24126965915E+02  0.51100000000E-03 0.  1.
         12    1    3    3    0    0  0.77504147445E+01 -0.36387998458E+01  0.24957449594E+01  0.89184379760E+01  0.00000000000E+00 0. -1.
</event>
<event>
 7    1  0.2732193E-010  0.4778726E+02  0.7816164E-02  0.1312668E+00
        -11   -1    0    0    0    0  0.00000000000E+00  0.00000000000E+00  0.45593999997E+02  0.45594000000E+02  0.51100000000E-03 0.  1.
         11   -1    0    0    0    0 -0.00000000000E+00 -0.00000000000E+00 -0.45593999997E+02  0.45594000000E+02  0.51100000000E-03 0. -1.
    9900012    2    1    2    0    0 -0.37843134355E+02 -0.19421601270E+02 -0.86210445747E+01  0.47787264716E+02  0.19999971145E+02 0.  0.
        -12    1    1    2    0    0  0.37843134355E+02  0.19421601270E+02  0.86210445747E+01  0.43400735284E+02  0.00000000000E+00 0.  1.
         11    1    3    3    0    0 -0.11722410063E+02 -0.59671549329E-01  0.32969735498E+01  0.12177376287E+02  0.51100000000E-03 0. -1.
        -11    1    3    3    0    0 -0.17334350102E+02 -0.16463437552E+02 -0.60721458075E+01  0.24665672998E+02  0.51100000000E-03 0.  1.
         12    1    3    3    0    0 -0.87863741896E+01 -0.28984921685E+01 -0.58458723170E+01  0.10944215431E+02  0.00000000000E+00 0. -1.
</event>
<event>
 7    1  0.2732193E-010  0.4778727E+02  0.7816164E-02  0.1312668E+00
        -11   -1    0    0    0    0  0.00000000000E+00  0.00000000000E+00  0.45593999997E+02  0.45594000000E+02  0.51100000000E-03 0.  1.
         11   -1    0    0    0    0 -0.00000000000E+00 -0.00000000000E+00 -0.45593999997E+02  0.45594000000E+02  0.51100000000E-03 0. -1.
    9900012    2    1    2    0    0  0.40905093251E+02  0.12136643420E+02 -0.79434587673E+01  0.47787270691E+02  0.19999998390E+02 0.  0.
        -12    1    1    2    0    0 -0.40905093251E+02 -0.12136643420E+02  0.79434587673E+01  0.43400729309E+02  0.00000000000E+00 0.  1.
         11    1    3    3    0    0  0.15191127182E+02  0.29943248005E+01 -0.10510293898E+02  0.18713700974E+02  0.51100000000E-03 0.  1.
        -11    1    3    3    0    0  0.25785397727E+02  0.10151555192E+02  0.31750911635E+01  0.27893045960E+02  0.51100000000E-03 0. -1.
        -12    1    3    3    0    0 -0.71431658032E-01 -0.10092365726E+01 -0.60825603267E+00  0.11805237577E+01  0.00000000000E+00 0.  1.
</event>
<event>
 7    1  0.2732193E-010  0.4778727E+02  0.7816164E-02  0.1312668E+00
        -11   -1    0    0    0    0  0.00000000000E+00  0.00000000000E+00  0.45593999997E+02  0.45594000000E+02  0.51100000000E-03 0. -1.
         11   -1    0    0    0    0 -0.00000000000E+00 -0.00000000000E+00 -0.45593999997E+02  0.45594000000E+02  0.51100000000E-03 0.  1.
    9900012    2    1    2    0    0 -0.31022092686E+02  0.17010923776E+02  0.25137248672E+02  0.47787273818E+02  0.20000012647E+02 0.  0.
        -12    1    1    2    0    0  0.31022092686E+02 -0.17010923776E+02 -0.25137248672E+02  0.43400726182E+02  0.00000000000E+00 0.  1.
         11    1    3    3    0    0 -0.10033704944E+02  0.43851796350E+01  0.11984495630E+02  0.16233704787E+02  0.51100000000E-03 0. -1.
        -11    1    3    3    0    0 -0.18901096565E+02  0.93829327767E+01  0.38059114148E+01  0.21442384215E+02  0.51100000000E-03 0.  1.
        -12    1    3    3    0    0 -0.20872911766E+01  0.32428113639E+01  0.93468416273E+01  0.10111184817E+02  0.00000000000E+00 0.  1.
</event>
<event>
 7    1  0.2732193E-010  0.4778727E+02  0.7816164E-02  0.1312668E+00
        -11   -1    0    0    0    0  0.00000000000E+00  0.00000000000E+00  0.45593999997E+02  0.45594000000E+02  0.51100000000E-03 0.  1.
         11   -1    0    0    0    0 -0.00000000000E+00 -0.00000000000E+00 -0.45593999997E+02  0.45594000000E+02  0.51100000000E-03 0. -1.
    9900012    2    1    2    0    0 -0.89685693681E+01  0.90604382065E+01 -0.41486096345E+02  0.47787274580E+02  0.20000016122E+02 0.  0.
        -12    1    1    2    0    0  0.89685693681E+01 -0.90604382065E+01  0.41486096345E+02  0.43400725420E+02  0.00000000000E+00 0.  1.
         11    1    3    3    0    0 -0.79536814872E+01  0.64259181731E+01 -0.34638202289E+02  0.36115904137E+02  0.51100000000E-03 0. -1.
        -11    1    3    3    0    0  0.18761695734E+01 -0.27309237651E+01 -0.18880197566E+01  0.38134729239E+01  0.51100000000E-03 0.  1.
         12    1    3    3    0    0 -0.28910574543E+01  0.53654437985E+01 -0.49598742992E+01  0.78578975192E+01  0.00000000000E+00 0. -1.
</event>
<event>
 7    1  0.2732193E-010  0.4778727E+02  0.7816164E-02  0.1312668E+00
        -11   -1    0    0    0    0  0.00000000000E+00  0.00000000000E+00  0.45593999997E+02  0.45594000000E+02  0.51100000000E-03 0.  1.
         11   -1    0    0    0    0 -0.00000000000E+00 -0.00000000000E+00 -0.45593999997E+02  0.45594000000E+02  0.51100000000E-03 0. -1.
    9900012    2    1    2    0    0  0.38864705518E+02  0.18807257439E+02  0.44097008552E+01  0.47787265801E+02  0.19999976095E+02 0.  0.
        -12    1    1    2    0    0 -0.38864705518E+02 -0.18807257439E+02 -0.44097008552E+01  0.43400734199E+02  0.00000000000E+00 0.  1.
         11    1    3    3    0    0  0.20541878686E+02  0.15671573313E+02  0.83470225968E+01  0.27152159703E+02  0.51100000000E-03 0. -1.
        -11    1    3    3    0    0  0.10099117272E+01 -0.53368485884E-01  0.18463557808E+01  0.21051840353E+01  0.51100000000E-03 0.  1.
         12    1    3    3    0    0  0.17312915104E+02  0.31890526119E+01 -0.57836775223E+01  0.18529922063E+02  0.00000000000E+00 0. -1.
</event>
<event>
 7    1  0.2732193E-010  0.4778727E+02  0.7816164E-02  0.1312668E+00
        -11   -1    0    0    0    0  0.00000000000E+00  0.00000000000E+00  0.45593999997E+02  0.45594000000E+02  0.51100000000E-03 0.  1.
         11   -1    0    0    0    0 -0.00000000000E+00 -0.00000000000E+00 -0.45593999997E+02  0.45594000000E+02  0.51100000000E-03 0. -1.
    9900012    2    1    2    0    0 -0.42260516748E+02  0.18351994557E+01 -0.97110248313E+01  0.47787271479E+02  0.20000001982E+02 0.  0.
        -12    1    1    2    0    0  0.42260516748E+02 -0.18351994557E+01  0.97110248313E+01  0.43400728521E+02  0.00000000000E+00 0.  1.
         11    1    3    3    0    0 -0.31290991817E+02  0.72278762306E+01 -0.88753493098E+01  0.33318766323E+02  0.51100000000E-03 0. -1.
        -11    1    3    3    0    0 -0.59138145288E+01 -0.56694370499E+01  0.23046934379E+01  0.85104248335E+01  0.51100000000E-03 0.  1.
        -12    1    3    3    0    0 -0.50557104026E+01  0.27676027500E+00 -0.31403689593E+01  0.59580803221E+01  0.00000000000E+00 0.  1.
</event>
<event>
 7    1  0.2732193E-010  0.4778727E+02  0.7816164E-02  0.1312668E+00
        -11   -1    0    0    0    0  0.00000000000E+00  0.00000000000E+00  0.45593999997E+02  0.45594000000E+02  0.51100000000E-03 0. -1.
         11   -1    0    0    0    0 -0.00000000000E+00 -0.00000000000E+00 -0.45593999997E+02  0.45594000000E+02  0.51100000000E-03 0.  1.
    9900012    2    1    2    0    0 -0.40945206144E+02  0.14140924522E+02  0.26735095853E+01  0.47787270675E+02  0.19999998314E+02 0.  0.
        -12    1    1    2    0    0  0.40945206144E+02 -0.14140924522E+02 -0.26735095853E+01  0.43400729325E+02  0.00000000000E+00 0.  1.
         11    1    3    3    0    0 -0.29535725319E+02  0.82088386476E+01  0.46058052381E+01  0.30999315222E+02  0.51100000000E-03 0. -1.
        -11    1    3    3    0    0 -0.15251318759E+01 -0.28458167900E+01  0.71296425413E+00  0.33065115650E+01  0.51100000000E-03 0.  1.
        -12    1    3    3    0    0 -0.98843489486E+01  0.87779026644E+01 -0.26452599070E+01  0.13481443888E+02  0.00000000000E+00 0.  1.
</event>
<event>
 7    1  0.2732193E-010  0.4778727E+02  0.7816164E-02  0.1312668E+00
        -11   -1    0    0    0    0  0.00000000000E+00  0.00000000000E+00  0.45593999997E+02  0.45594000000E+02  0.51100000000E-03 0. -1.
         11   -1    0    0    0    0 -0.00000000000E+00 -0.00000000000E+00 -0.45593999997E+02  0.45594000000E+02  0.51100000000E-03 0.  1.
    9900012    2    1    2    0    0  0.35627583829E+02  0.16686323298E+02 -0.18326619584E+02  0.47787273047E+02  0.20000009128E+02 0.  0.
        -12    1    1    2    0    0 -0.35627583829E+02 -0.16686323298E+02  0.18326619584E+02  0.43400726953E+02  0.00000000000E+00 0.  1.
         11    1    3    3    0    0  0.11146552470E+02  0.84860836099E+01 -0.56145219370E+01  0.15092451883E+02  0.51100000000E-03 0. -1.
        -11    1    3    3    0    0  0.19950487225E+02  0.81632714807E+01 -0.16210121835E+02  0.26970891567E+02  0.51100000000E-03 0.  1.
        -12    1    3    3    0    0  0.45305441350E+01  0.36968207413E-01  0.34980241879E+01  0.57239295966E+01  0.00000000000E+00 0.  1.
</event>
<event>
 7    1  0.2732193E-010  0.4778727E+02  0.7816164E-02  0.1312668E+00
        -11   -1    0    0    0    0  0.00000000000E+00  0.00000000000E+00  0.45593999997E+02  0.45594000000E+02  0.51100000000E-03 0. -1.
         11   -1    0    0    0    0 -0.00000000000E+00 -0.00000000000E+00 -0.45593999997E+02  0.45594000000E+02  0.51100000000E-03 0.  1.
    9900012    2    1    2    0    0 -0.19387603772E+02  0.16609065033E+02  0.35098190316E+02  0.47787272071E+02  0.20000004682E+02 0.  0.
        -12    1    1    2    0    0  0.19387603772E+02 -0.16609065033E+02 -0.35098190316E+02  0.43400727929E+02  0.00000000000E+00 0.  1.
         11    1    3    3    0    0 -0.13689715844E+02  0.11226567980E+02  0.20252812231E+02  0.26900196134E+02  0.51100000000E-03 0. -1.
        -11    1    3    3    0    0  0.39736364762E+01  0.15763504719E+01  0.48861805583E+01  0.64922591110E+01  0.51100000000E-03 0.  1.
        -12    1    3    3    0    0 -0.96715244045E+01  0.38061465816E+01  0.99591975263E+01  0.14394816827E+02  0.00000000000E+00 0.  1.
</event>
<event>
 7    1  0.2732193E-010  0.4778727E+02  0.7816164E-02  0.1312668E+00
        -11   -1    0    0    0    0  0.00000000000E+00  0.00000000000E+00  0.45593999997E+02  0.45594000000E+02  0.51100000000E-03 0.  1.
         11   -1    0    0    0    0 -0.00000000000E+00 -0.00000000000E+00 -0.45593999997E+02  0.45594000000E+02  0.51100000000E-03 0. -1.
    9900012    2    1    2    0    0  0.20964327499E+02 -0.38472051052E+01 -0.37806335588E+02  0.47787273909E+02  0.20000013061E+02 0.  0.
        -12    1    1    2    0    0 -0.20964327499E+02  0.38472051052E+01  0.37806335588E+02  0.43400726091E+02  0.00000000000E+00 0.  1.
         11    1    3    3    0    0  0.49772767137E+01  0.43359154848E+01 -0.17364735902E+02  0.18577069192E+02  0.51100000000E-03 0. -1.
        -11    1    3    3    0    0  0.75767467590E+01 -0.89654898011E+00 -0.23734099750E+01  0.79902419672E+01  0.51100000000E-03 0.  1.
         12    1    3    3    0    0  0.84103040266E+01 -0.72865716098E+01 -0.18068189712E+02  0.21219962750E+02  0.00000000000E+00 0. -1.
</event>
<event>
 7    1  0.2732193E-010  0.4778728E+02  0.7816164E-02  0.1312668E+00
        -11   -1    0    0    0    0  0.00000000000E+00  0.00000000000E+00  0.45593999997E+02  0.45594000000E+02  0.51100000000E-03 0.  1.
         11   -1    0    0    0    0 -0.00000000000E+00 -0.00000000000E+00 -0.45593999997E+02  0.45594000000E+02  0.51100000000E-03 0. -1.
    9900012    2    1    2    0    0 -0.29239196825E+02  0.31600641442E+02 -0.54855702968E+01  0.47787278209E+02  0.20000032664E+02 0.  0.
        -12    1    1    2    0    0  0.29239196825E+02 -0.31600641442E+02  0.54855702968E+01  0.43400721791E+02  0.00000000000E+00 0.  1.
         11    1    3    3    0    0 -0.11184991749E+02  0.25126858029E+02 -0.16377234709E+01  0.27552589230E+02  0.51100000000E-03 0. -1.
        -11    1    3    3    0    0 -0.70472950751E+01 -0.36930896781E-01 -0.18985491991E+01  0.72986451544E+01  0.51100000000E-03 0.  1.
         12    1    3    3    0    0 -0.11006910001E+02  0.65107143100E+01 -0.19492976267E+01  0.12936043825E+02  0.00000000000E+00 0. -1.
</event>
<event>
 7    1  0.2732193E-010  0.4778728E+02  0.7816164E-02  0.1312668E+00
        -11   -1    0    0    0    0  0.00000000000E+00  0.00000000000E+00  0.45593999997E+02  0.45594000000E+02  0.51100000000E-03 0.  1.
         11   -1    0    0    0    0 -0.00000000000E+00 -0.00000000000E+00 -0.45593999997E+02  0.45594000000E+02  0.51100000000E-03 0. -1.
    9900012    2    1    2    0    0 -0.26536638238E+02 -0.34231385168E+02  0.27642730932E+01  0.47787284508E+02  0.20000061383E+02 0.  0.
        -12    1    1    2    0    0  0.26536638238E+02  0.34231385168E+02 -0.27642730932E+01  0.43400715492E+02  0.00000000000E+00 0.  1.
         11    1    3    3    0    0 -0.96414357599E+00 -0.59209390548E+01 -0.34042662163E+01  0.68975445528E+01  0.51100000000E-03 0. -1.
        -11    1    3    3    0    0 -0.93144396166E+01 -0.74356042160E+01 -0.39589475609E+01  0.12558672759E+02  0.51100000000E-03 0.  1.
         12    1    3    3    0    0 -0.16258055046E+02 -0.20874841897E+02  0.10127486870E+02  0.28331067195E+02  0.00000000000E+00 0. -1.
</event>
<event>
 7    1  0.2732193E-010  0.4778727E+02  0.7816164E-02  0.1312668E+00
        -11   -1    0    0    0    0  0.00000000000E+00  0.00000000000E+00  0.45593999997E+02  0.45594000000E+02  0.51100000000E-03 0.  1.
         11   -1    0    0    0    0 -0.00000000000E+00 -0.00000000000E+00 -0.45593999997E+02  0.45594000000E+02  0.51100000000E-03 0. -1.
    9900012    2    1    2    0    0  0.28727990388E+02  0.31488152604E+02 -0.81744784062E+01  0.47787270935E+02  0.19999999500E+02 0.  0.
        -12    1    1    2    0    0 -0.28727990388E+02 -0.31488152604E+02  0.81744784062E+01  0.43400729065E+02  0.00000000000E+00 0.  1.
         11    1    3    3    0    0  0.48789286721E+01  0.82670860448E+01 -0.63574247376E+01  0.11513709490E+02  0.51100000000E-03 0. -1.
        -11    1    3    3    0    0 -0.11242557872E+01 -0.25064356745E+00 -0.16360081372E+01  0.20008238700E+01  0.51100000000E-03 0.  1.
        -12    1    3    3    0    0  0.24973317504E+02  0.23471710127E+02 -0.18104553149E+00  0.34272737575E+02  0.00000000000E+00 0.  1.
</event>
<event>
 7    1  0.2732193E-010  0.4778727E+02  0.7816164E-02  0.1312668E+00
        -11   -1    0    0    0    0  0.00000000000E+00  0.00000000000E+00  0.45593999997E+02  0.45594000000E+02  0.51100000000E-03 0.  1.
         11   -1    0    0    0    0 -0.00000000000E+00 -0.00000000000E+00 -0.45593999997E+02  0.45594000000E+02  0.51100000000E-03 0. -1.
    9900012    2    1    2    0    0  0.40845841953E+02 -0.58571106652E+01 -0.13451202446E+02  0.47787269621E+02  0.19999993511E+02 0.  0.
        -12    1    1    2    0    0 -0.40845841953E+02  0.58571106652E+01  0.13451202446E+02  0.43400730379E+02  0.00000000000E+00 0.  1.
         11    1    3    3    0    0  0.10344975805E+02 -0.32148028618E+01  0.32446955710E+01  0.11308471668E+02  0.51100000000E-03 0. -1.
        -11    1    3    3    0    0  0.29528799488E+02 -0.29116159686E+01 -0.12558526097E+02  0.32220243399E+02  0.51100000000E-03 0.  1.
        -12    1    3    3    0    0  0.97206665973E+00  0.26930816524E+00 -0.41373719207E+01  0.42585545540E+01  0.00000000000E+00 0.  1.
</event>
<event>
 7    1  0.2732193E-010  0.4778727E+02  0.7816164E-02  0.1312668E+00
        -11   -1    0    0    0    0  0.00000000000E+00  0.00000000000E+00  0.45593999997E+02  0.45594000000E+02  0.51100000000E-03 0. -1.
         11   -1    0    0    0    0 -0.00000000000E+00 -0.00000000000E+00 -0.45593999997E+02  0.45594000000E+02  0.51100000000E-03 0.  1.
    9900012    2    1    2    0    0  0.33514102792E+02  0.21447939213E+02  0.17332456781E+02  0.47787271429E+02  0.20000001753E+02 0.  0.
        -12    1    1    2    0    0 -0.33514102792E+02 -0.21447939213E+02 -0.17332456781E+02  0.43400728571E+02  0.00000000000E+00 0.  1.
         11    1    3    3    0    0  0.19836900424E+02  0.21485071798E+02  0.98373180977E+01  0.30852613442E+02  0.51100000000E-03 0. -1.
        -11    1    3    3    0    0  0.39760274160E+01 -0.29435484486E+01  0.34411794981E+01  0.60261918391E+01  0.51100000000E-03 0.  1.
         12    1    3    3    0    0  0.97011749522E+01  0.29064158641E+01  0.40539591857E+01  0.10908466148E+02  0.00000000000E+00 0. -1.
</event>
<event>
 7    1  0.2732193E-010  0.4778727E+02  0.7816164E-02  0.1312668E+00
        -11   -1    0    0    0    0  0.00000000000E+00  0.00000000000E+00  0.45593999997E+02  0.45594000000E+02  0.51100000000E-03 0. -1.
         11   -1    0    0    0    0 -0.00000000000E+00 -0.00000000000E+00 -0.45593999997E+02  0.45594000000E+02  0.51100000000E-03 0.  1.
    9900012    2    1    2    0    0 -0.35736292766E+02  0.24120880043E+02 -0.49722933499E+01  0.47787272173E+02  0.20000005146E+02 0.  0.
        -12    1    1    2    0    0  0.35736292766E+02 -0.24120880043E+02  0.49722933499E+01  0.43400727827E+02  0.00000000000E+00 0.  1.
         11    1    3    3    0    0  0.15599510763E+01  0.27074178777E+01  0.30894805122E+00  0.31399057445E+01  0.51100000000E-03 0. -1.
        -11    1    3    3    0    0 -0.64398853211E+01 -0.52100932674E+00 -0.36280311479E+00  0.64711050083E+01  0.51100000000E-03 0.  1.
         12    1    3    3    0    0 -0.30856358522E+02  0.21934471492E+02 -0.49184382864E+01  0.38176261420E+02  0.00000000000E+00 0. -1.
</event>
<event>
 7    1  0.2732193E-010  0.4778727E+02  0.7816164E-02  0.1312668E+00
        -11   -1    0    0    0    0  0.00000000000E+00  0.00000000000E+00  0.45593999997E+02  0.45594000000E+02  0.51100000000E-03 0.  1.
         11   -1    0    0    0    0 -0.00000000000E+00 -0.00000000000E+00 -0.45593999997E+02  0.45594000000E+02  0.51100000000E-03 0. -1.
    9900012    2    1    2    0    0 -0.31525396351E+02  0.12903204694E+02 -0.26893863850E+02  0.47787271674E+02  0.20000002870E+02 0.  0.
        -12    1    1    2    0    0  0.31525396351E+02 -0.12903204694E+02  0.26893863850E+02  0.43400728326E+02  0.00000000000E+00 0.  1.
         11    1    3    3    0    0 -0.18252581907E+01  0.80605728376E+01 -0.65196356610E+01  0.10526635329E+02  0.51100000000E-03 0. -1.
        -11    1    3    3    0    0 -0.29340702077E+02  0.42456527567E+01 -0.17768415509E+02  0.34563260200E+02  0.51100000000E-03 0.  1.
         12    1    3    3    0    0 -0.35943608293E+00  0.59697909968E+00 -0.26058126800E+01  0.26973761448E+01  0.00000000000E+00 0. -1.
</event>
<event>
 7    1  0.2732193E-010  0.4778726E+02  0.7816164E-02  0.1312668E+00
        -11   -1    0    0    0    0  0.00000000000E+00  0.00000000000E+00  0.45593999997E+02  0.45594000000E+02  0.51100000000E-03 0.  1.
         11   -1    0    0    0    0 -0.00000000000E+00 -0.00000000000E+00 -0.45593999997E+02  0.45594000000E+02  0.51100000000E-03 0. -1.
    9900012    2    1    2    0    0 -0.21073435088E+02  0.31124475267E+02 -0.21697961078E+02  0.47787261043E+02  0.19999954400E+02 0.  0.
        -12    1    1    2    0    0  0.21073435088E+02 -0.31124475267E+02  0.21697961078E+02  0.43400738957E+02  0.00000000000E+00 0.  1.
         11    1    3    3    0    0 -0.16189895813E+02  0.18847355414E+02 -0.76302754231E+01  0.25991472367E+02  0.51100000000E-03 0. -1.
        -11    1    3    3    0    0 -0.12740585249E+01  0.10015310280E+01 -0.86064134929E+01  0.87576619595E+01  0.51100000000E-03 0.  1.
        -12    1    3    3    0    0 -0.36094807499E+01  0.11275588825E+02 -0.54612721620E+01  0.13038126716E+02  0.00000000000E+00 0.  1.
</event>
<event>
 7    1  0.2732193E-010  0.4778727E+02  0.7816164E-02  0.1312668E+00
        -11   -1    0    0    0    0  0.00000000000E+00  0.00000000000E+00  0.45593999997E+02  0.45594000000E+02  0.51100000000E-03 0. -1.
         11   -1    0    0    0    0 -0.00000000000E+00 -0.00000000000E+00 -0.45593999997E+02  0.45594000000E+02  0.51100000000E-03 0.  1.
    9900012    2    1    2    0    0  0.23517076004E+01 -0.21049953138E+02  0.37881290252E+02  0.47787271816E+02  0.20000003519E+02 0.  0.
        -12    1    1    2    0    0 -0.23517076004E+01  0.21049953138E+02 -0.37881290252E+02  0.43400728184E+02  0.00000000000E+00 0.  1.
         11    1    3    3    0    0 -0.10913149959E+01 -0.27728697272E+01  0.52962278238E+01  0.60769897455E+01  0.51100000000E-03 0. -1.
        -11    1    3    3    0    0  0.85280735905E+01 -0.16555751600E+02  0.16959482730E+02  0.25188191775E+02  0.51100000000E-03 0.  1.
        -12    1    3    3    0    0 -0.50850509941E+01 -0.17213318109E+01  0.15625579698E+02  0.16522090295E+02  0.00000000000E+00 0.  1.
</event>
<event>
 7    1  0.2732193E-010  0.4778727E+02  0.7816164E-02  0.1312668E+00
        -11   -1    0    0    0    0  0.00000000000E+00  0.00000000000E+00  0.45593999997E+02  0.45594000000E+02  0.51100000000E-03 0.  1.
         11   -1    0    0    0    0 -0.00000000000E+00 -0.00000000000E+00 -0.45593999997E+02  0.45594000000E+02  0.51100000000E-03 0. -1.
    9900012    2    1    2    0    0  0.20956285539E+02 -0.37991325811E+02  0.10566358861E+01  0.47787271666E+02  0.20000002835E+02 0.  0.
        -12    1    1    2    0    0 -0.20956285539E+02  0.37991325811E+02 -0.10566358861E+01  0.43400728334E+02  0.00000000000E+00 0.  1.
         11    1    3    3    0    0  0.16841706822E+02 -0.18699563174E+02  0.46265251702E+01  0.25587526004E+02  0.51100000000E-03 0. -1.
        -11    1    3    3    0    0 -0.35706352313E+00 -0.11927148603E+02 -0.58470237481E+01  0.13288041809E+02  0.51100000000E-03 0.  1.
        -12    1    3    3    0    0  0.44716422406E+01 -0.73646140344E+01  0.22771344640E+01  0.89117038534E+01  0.00000000000E+00 0.  1.
</event>
<event>
 7    1  0.2732193E-010  0.4778727E+02  0.7816164E-02  0.1312668E+00
        -11   -1    0    0    0    0  0.00000000000E+00  0.00000000000E+00  0.45593999997E+02  0.45594000000E+02  0.51100000000E-03 0.  1.
         11   -1    0    0    0    0 -0.00000000000E+00 -0.00000000000E+00 -0.45593999997E+02  0.45594000000E+02  0.51100000000E-03 0. -1.
    9900012    2    1    2    0    0  0.26033979188E+01 -0.40243633712E+02 -0.16040438902E+02  0.47787269416E+02  0.19999992574E+02 0.  0.
        -12    1    1    2    0    0 -0.26033979188E+01  0.40243633712E+02  0.16040438902E+02  0.43400730584E+02  0.00000000000E+00 0.  1.
         11    1    3    3    0    0  0.57111766501E+01 -0.15794273963E+02 -0.14866278478E+00  0.16795794999E+02  0.51100000000E-03 0.  1.
        -11    1    3    3    0    0 -0.21994242790E+01 -0.69275904924E+01  0.74772179192E-01  0.72687391155E+01  0.51100000000E-03 0. -1.
         12    1    3    3    0    0 -0.90835445237E+00 -0.17521769256E+02 -0.15966548296E+02  0.23722735301E+02  0.00000000000E+00 0. -1.
</event>
<event>
 7    1  0.2732193E-010  0.4778728E+02  0.7816164E-02  0.1312668E+00
        -11   -1    0    0    0    0  0.00000000000E+00  0.00000000000E+00  0.45593999997E+02  0.45594000000E+02  0.51100000000E-03 0.  1.
         11   -1    0    0    0    0 -0.00000000000E+00 -0.00000000000E+00 -0.45593999997E+02  0.45594000000E+02  0.51100000000E-03 0. -1.
    9900012    2    1    2    0    0  0.33263218133E+02  0.79152746676E+01 -0.26730675801E+02  0.47787282467E+02  0.20000052078E+02 0.  0.
        -12    1    1    2    0    0 -0.33263218133E+02 -0.79152746676E+01  0.26730675801E+02  0.43400717533E+02  0.00000000000E+00 0.  1.
         11    1    3    3    0    0  0.27158186712E+02  0.13959782518E+02 -0.22716043168E+02  0.38058655401E+02  0.51100000000E-03 0. -1.
        -11    1    3    3    0    0  0.27146766737E+01 -0.32376883114E+01 -0.85579764526E+00  0.43109726183E+01  0.51100000000E-03 0.  1.
         12    1    3    3    0    0  0.33903547467E+01 -0.28068195385E+01 -0.31588349883E+01  0.54176544477E+01  0.00000000000E+00 0. -1.
</event>
<event>
 7    1  0.2732193E-010  0.4778727E+02  0.7816164E-02  0.1312668E+00
        -11   -1    0    0    0    0  0.00000000000E+00  0.00000000000E+00  0.45593999997E+02  0.45594000000E+02  0.51100000000E-03 0.  1.
         11   -1    0    0    0    0 -0.00000000000E+00 -0.00000000000E+00 -0.45593999997E+02  0.45594000000E+02  0.51100000000E-03 0. -1.
    9900012    2    1    2    0    0  0.26958002223E+02 -0.91246225470E+01 -0.32766301145E+02  0.47787272919E+02  0.20000008547E+02 0.  0.
        -12    1    1    2    0    0 -0.26958002223E+02  0.91246225470E+01  0.32766301145E+02  0.43400727081E+02  0.00000000000E+00 0.  1.
         11    1    3    3    0    0  0.99228614551E+01 -0.72231239979E+01 -0.19900595541E+02  0.23380983788E+02  0.51100000000E-03 0. -1.
        -11    1    3    3    0    0  0.24857200530E+01  0.37645125847E+01 -0.59994485700E+00  0.45508563232E+01  0.51100000000E-03 0.  1.
         12    1    3    3    0    0  0.14549420715E+02 -0.56660111338E+01 -0.12265760746E+02  0.19855432808E+02  0.00000000000E+00 0. -1.
</event>
<event>
 7    1  0.2732193E-010  0.4778727E+02  0.7816164E-02  0.1312668E+00
        -11   -1    0    0    0    0  0.00000000000E+00  0.00000000000E+00  0.45593999997E+02  0.45594000000E+02  0.51100000000E-03 0.  1.
         11   -1    0    0    0    0 -0.00000000000E+00 -0.00000000000E+00 -0.45593999997E+02  0.45594000000E+02  0.51100000000E-03 0. -1.
    9900012    2    1    2    0    0 -0.10380036008E+02  0.35012788887E+02 -0.23451709621E+02  0.47787271696E+02  0.20000002969E+02 0.  0.
        -12    1    1    2    0    0  0.10380036008E+02 -0.35012788887E+02  0.23451709621E+02  0.43400728304E+02  0.00000000000E+00 0.  1.
         11    1    3    3    0    0 -0.75347450577E+01  0.22050706146E+02 -0.59017222859E+01  0.24038226866E+02  0.51100000000E-03 0. -1.
        -11    1    3    3    0    0  0.24562920539E+01  0.88326145995E+01 -0.87181489485E+01  0.12651267631E+02  0.51100000000E-03 0.  1.
         12    1    3    3    0    0 -0.53015830037E+01  0.41294681415E+01 -0.88318383867E+01  0.11097777199E+02  0.00000000000E+00 0. -1.
</event>
<event>
 7    1  0.2732193E-010  0.4778727E+02  0.7816164E-02  0.1312668E+00
        -11   -1    0    0    0    0  0.00000000000E+00  0.00000000000E+00  0.45593999997E+02  0.45594000000E+02  0.51100000000E-03 0.  1.
         11   -1    0    0    0    0 -0.00000000000E+00 -0.00000000000E+00 -0.45593999997E+02  0.45594000000E+02  0.51100000000E-03 0. -1.
    9900012    2    1    2    0    0  0.77145238455E+00 -0.54020349920E+01 -0.43056312109E+02  0.47787272665E+02  0.20000007387E+02 0.  0.
        -12    1    1    2    0    0 -0.77145238455E+00  0.54020349920E+01  0.43056312109E+02  0.43400727335E+02  0.00000000000E+00 0.  1.
         11    1    3    3    0    0  0.34190817081E+01  0.24411176963E+01 -0.30895746624E+00  0.42124375736E+01  0.51100000000E-03 0. -1.
        -11    1    3    3    0    0 -0.98511432535E+00 -0.41688564490E+01 -0.18120231007E+02  0.18619682766E+02  0.51100000000E-03 0.  1.
         12    1    3    3    0    0 -0.16625149982E+01 -0.36742962393E+01 -0.24627123636E+02  0.24955152325E+02  0.00000000000E+00 0. -1.
</event>
<event>
 7    1  0.2732193E-010  0.4778727E+02  0.7816164E-02  0.1312668E+00
        -11   -1    0    0    0    0  0.00000000000E+00  0.00000000000E+00  0.45593999997E+02  0.45594000000E+02  0.51100000000E-03 0.  1.
         11   -1    0    0    0    0 -0.00000000000E+00 -0.00000000000E+00 -0.45593999997E+02  0.45594000000E+02  0.51100000000E-03 0. -1.
    9900012    2    1    2    0    0 -0.37022763626E+02 -0.20651037677E+02  0.92990777934E+01  0.47787271533E+02  0.20000002229E+02 0.  0.
        -12    1    1    2    0    0  0.37022763626E+02  0.20651037677E+02 -0.92990777934E+01  0.43400728467E+02  0.00000000000E+00 0.  1.
         11    1    3    3    0    0 -0.59885356214E+01  0.22939637974E+00 -0.24091173132E+01  0.64590268677E+01  0.51100000000E-03 0. -1.
        -11    1    3    3    0    0 -0.24063378130E+02 -0.11218183759E+02  0.12585222774E+02  0.29381654930E+02  0.51100000000E-03 0.  1.
        -12    1    3    3    0    0 -0.69708498742E+01 -0.96622502974E+01 -0.87702766716E+00  0.11946589735E+02  0.00000000000E+00 0.  1.
</event>
<event>
 7    1  0.2732193E-010  0.4778727E+02  0.7816164E-02  0.1312668E+00
        -11   -1    0    0    0    0  0.00000000000E+00  0.00000000000E+00  0.45593999997E+02  0.45594000000E+02  0.51100000000E-03 0.  1.
         11   -1    0    0    0    0 -0.00000000000E+00 -0.00000000000E+00 -0.45593999997E+02  0.45594000000E+02  0.51100000000E-03 0. -1.
    9900012    2    1    2    0    0  0.41093070208E+02 -0.12863373100E+02 -0.54329054959E+01  0.47787271334E+02  0.20000001322E+02 0.  0.
        -12    1    1    2    0    0 -0.41093070208E+02  0.12863373100E+02  0.54329054959E+01  0.43400728666E+02  0.00000000000E+00 0.  1.
         11    1    3    3    0    0  0.33760287236E+01  0.29279541782E+01 -0.20165034668E+01  0.49027310863E+01  0.51100000000E-03 0. -1.
        -11    1    3    3    0    0  0.20022838057E+02 -0.92322945289E+01  0.43574830815E+01  0.22475252283E+02  0.51100000000E-03 0.  1.
        -12    1    3    3    0    0  0.17694203427E+02 -0.65590327490E+01 -0.77738851107E+01  0.20409287965E+02  0.00000000000E+00 0.  1.
</event>
<event>
 7    1  0.2732193E-010  0.4778728E+02  0.7816164E-02  0.1312668E+00
        -11   -1    0    0    0    0  0.00000000000E+00  0.00000000000E+00  0.45593999997E+02  0.45594000000E+02  0.51100000000E-03 0. -1.
         11   -1    0    0    0    0 -0.00000000000E+00 -0.00000000000E+00 -0.45593999997E+02  0.45594000000E+02  0.51100000000E-03 0.  1.
    9900012    2    1    2    0    0  0.33267308020E+02  0.82481690443E+01  0.26624728743E+02  0.47787282770E+02  0.20000053460E+02 0.  0.
        -12    1    1    2    0    0 -0.33267308020E+02 -0.82481690443E+01 -0.26624728743E+02  0.43400717230E+02  0.00000000000E+00 0.  1.
         11    1    3    3    0    0  0.28132246659E+02  0.17705370332E+01  0.20419720603E+02  0.34806940303E+02  0.51100000000E-03 0. -1.
        -11    1    3    3    0    0  0.58000775758E+01  0.79142250531E+01  0.54876924831E+01  0.11242358611E+02  0.51100000000E-03 0.  1.
         12    1    3    3    0    0 -0.66501621476E+00 -0.14365930420E+01  0.71731565624E+00  0.17379838563E+01  0.00000000000E+00 0. -1.
</event>
<event>
 7    1  0.2732193E-010  0.4778727E+02  0.7816164E-02  0.1312668E+00
        -11   -1    0    0    0    0  0.00000000000E+00  0.00000000000E+00  0.45593999997E+02  0.45594000000E+02  0.51100000000E-03 0.  1.
         11   -1    0    0    0    0 -0.00000000000E+00 -0.00000000000E+00 -0.45593999997E+02  0.45594000000E+02  0.51100000000E-03 0. -1.
    9900012    2    1    2    0    0 -0.36671833039E+02  0.10791993968E+02 -0.20550735583E+02  0.47787271835E+02  0.20000003603E+02 0.  0.
        -12    1    1    2    0    0  0.36671833039E+02 -0.10791993968E+02  0.20550735583E+02  0.43400728165E+02  0.00000000000E+00 0.  1.
         11    1    3    3    0    0 -0.18421526102E+02  0.27540283800E+01 -0.15140914610E+02  0.24003845353E+02  0.51100000000E-03 0. -1.
        -11    1    3    3    0    0 -0.78969591374E+00  0.54255588551E+01 -0.84076641667E+00  0.55468186337E+01  0.51100000000E-03 0.  1.
        -12    1    3    3    0    0 -0.17460611024E+02  0.26124067325E+01 -0.45690545560E+01  0.18236607848E+02  0.00000000000E+00 0.  1.
</event>
<event>
 7    1  0.2732193E-010  0.4778727E+02  0.7816164E-02  0.1312668E+00
        -11   -1    0    0    0    0  0.00000000000E+00  0.00000000000E+00  0.45593999997E+02  0.45594000000E+02  0.51100000000E-03 0.  1.
         11   -1    0    0    0    0 -0.00000000000E+00 -0.00000000000E+00 -0.45593999997E+02  0.45594000000E+02  0.51100000000E-03 0. -1.
    9900012    2    1    2    0    0 -0.41204477684E+01  0.24002480029E+02 -0.35923891266E+02  0.47787273035E+02  0.20000009078E+02 0.  0.
        -12    1    1    2    0    0  0.41204477684E+01 -0.24002480029E+02  0.35923891266E+02  0.43400726965E+02  0.00000000000E+00 0.  1.
         11    1    3    3    0    0  0.11517607123E+01  0.70602800522E+01 -0.10903548068E+02  0.13040761783E+02  0.51100000000E-03 0. -1.
        -11    1    3    3    0    0 -0.88014441307E+01  0.10030071840E+02 -0.68750212225E+01  0.15011118445E+02  0.51100000000E-03 0.  1.
        -12    1    3    3    0    0  0.35292356500E+01  0.69121281371E+01 -0.18145321976E+02  0.19735392807E+02  0.00000000000E+00 0.  1.
</event>
<event>
 7    1  0.2732193E-010  0.4778727E+02  0.7816164E-02  0.1312668E+00
        -11   -1    0    0    0    0  0.00000000000E+00  0.00000000000E+00  0.45593999997E+02  0.45594000000E+02  0.51100000000E-03 0. -1.
         11   -1    0    0    0    0 -0.00000000000E+00 -0.00000000000E+00 -0.45593999997E+02  0.45594000000E+02  0.51100000000E-03 0.  1.
    9900012    2    1    2    0    0  0.24312756242E+02 -0.64272464791E+01  0.35372355775E+02  0.47787272282E+02  0.20000005644E+02 0.  0.
        -12    1    1    2    0    0 -0.24312756242E+02  0.64272464791E+01 -0.35372355775E+02  0.43400727718E+02  0.00000000000E+00 0.  1.
         11    1    3    3    0    0  0.11553799220E+02  0.12947055121E+01  0.19018155587E+02  0.22290284453E+02  0.51100000000E-03 0. -1.
        -11    1    3    3    0    0  0.77372286025E+01 -0.10772661851E+02  0.13637511338E+02  0.19023581828E+02  0.51100000000E-03 0.  1.
        -12    1    3    3    0    0  0.50217284193E+01  0.30507098594E+01  0.27166888495E+01  0.64734060021E+01  0.00000000000E+00 0.  1.
</event>
<event>
 7    1  0.2732193E-010  0.4778727E+02  0.7816164E-02  0.1312668E+00
        -11   -1    0    0    0    0  0.00000000000E+00  0.00000000000E+00  0.45593999997E+02  0.45594000000E+02  0.51100000000E-03 0. -1.
         11   -1    0    0    0    0 -0.00000000000E+00 -0.00000000000E+00 -0.45593999997E+02  0.45594000000E+02  0.51100000000E-03 0.  1.
    9900012    2    1    2    0    0 -0.16664327908E+02 -0.14826353304E+01  0.40046544212E+02  0.47787265727E+02  0.19999975754E+02 0.  0.
        -12    1    1    2    0    0  0.16664327908E+02  0.14826353304E+01 -0.40046544212E+02  0.43400734273E+02  0.00000000000E+00 0.  1.
         11    1    3    3    0    0 -0.41796788257E+01  0.49682162744E+01  0.10134596987E+02  0.12035902308E+02  0.51100000000E-03 0. -1.
        -11    1    3    3    0    0 -0.12502159525E+02 -0.83081376106E+01  0.30335516366E+02  0.33846309944E+02  0.51100000000E-03 0.  1.
        -12    1    3    3    0    0  0.17510443414E-01  0.18572860058E+01 -0.42356914093E+00  0.19050534743E+01  0.00000000000E+00 0.  1.
</event>
<event>
 7    1  0.2732193E-010  0.4778728E+02  0.7816164E-02  0.1312668E+00
        -11   -1    0    0    0    0  0.00000000000E+00  0.00000000000E+00  0.45593999997E+02  0.45594000000E+02  0.51100000000E-03 0. -1.
         11   -1    0    0    0    0 -0.00000000000E+00 -0.00000000000E+00 -0.45593999997E+02  0.45594000000E+02  0.51100000000E-03 0.  1.
    9900012    2    1    2    0    0  0.31406844383E+02 -0.10207332585E+01  0.29936450135E+02  0.47787276306E+02  0.20000023991E+02 0.  0.
        -12    1    1    2    0    0 -0.31406844383E+02  0.10207332585E+01 -0.29936450135E+02  0.43400723694E+02  0.00000000000E+00 0.  1.
         11    1    3    3    0    0  0.10225828465E+02  0.45654373765E+00  0.46434602353E+01  0.11240005480E+02  0.51100000000E-03 0. -1.
        -11    1    3    3    0    0 -0.22816131374E+01 -0.15618182761E+01  0.15618797608E+01  0.31756107262E+01  0.51100000000E-03 0.  1.
        -12    1    3    3    0    0  0.23462629055E+02  0.84541279923E-01  0.23731110139E+02  0.33371660100E+02  0.00000000000E+00 0.  1.
</event>
<event>
 7    1  0.2732193E-010  0.4778727E+02  0.7816164E-02  0.1312668E+00
        -11   -1    0    0    0    0  0.00000000000E+00  0.00000000000E+00  0.45593999997E+02  0.45594000000E+02  0.51100000000E-03 0. -1.
         11   -1    0    0    0    0 -0.00000000000E+00 -0.00000000000E+00 -0.45593999997E+02  0.45594000000E+02  0.51100000000E-03 0.  1.
    9900012    2    1    2    0    0  0.40922928835E+02 -0.11981862048E+02  0.80853220472E+01  0.47787267804E+02  0.19999985226E+02 0.  0.
        -12    1    1    2    0    0 -0.40922928835E+02  0.11981862048E+02 -0.80853220472E+01  0.43400732196E+02  0.00000000000E+00 0.  1.
         11    1    3    3    0    0  0.91607896430E+01 -0.33312513129E+01 -0.11881543603E+01  0.98198275564E+01  0.51100000000E-03 0. -1.
        -11    1    3    3    0    0  0.17660465955E+02  0.37318981172E+01  0.46447481632E+01  0.18638476522E+02  0.51100000000E-03 0.  1.
        -12    1    3    3    0    0  0.14101673237E+02 -0.12382508852E+02  0.46287282443E+01  0.19328963726E+02  0.00000000000E+00 0.  1.
</event>
<event>
 7    1  0.2732193E-010  0.4778727E+02  0.7816164E-02  0.1312668E+00
        -11   -1    0    0    0    0  0.00000000000E+00  0.00000000000E+00  0.45593999997E+02  0.45594000000E+02  0.51100000000E-03 0.  1.
         11   -1    0    0    0    0 -0.00000000000E+00 -0.00000000000E+00 -0.45593999997E+02  0.45594000000E+02  0.51100000000E-03 0. -1.
    9900012    2    1    2    0    0  0.10804254862E+02  0.41784554354E+02 -0.45762508068E+01  0.47787274463E+02  0.20000015588E+02 0.  0.
        -12    1    1    2    0    0 -0.10804254862E+02 -0.41784554354E+02  0.45762508068E+01  0.43400725537E+02  0.00000000000E+00 0.  1.
         11    1    3    3    0    0  0.18009477634E+01  0.30401519612E+02 -0.80472402994E+01  0.31500061655E+02  0.51100000000E-03 0. -1.
        -11    1    3    3    0    0  0.10036657889E+02  0.10695096045E+02  0.30929455474E+01  0.14989526123E+02  0.51100000000E-03 0.  1.
         12    1    3    3    0    0 -0.10333507908E+01  0.68793869746E+00  0.37804394530E+00  0.12976866852E+01  0.00000000000E+00 0. -1.
</event>
<event>
 7    1  0.2732193E-010  0.4778727E+02  0.7816164E-02  0.1312668E+00
        -11   -1    0    0    0    0  0.00000000000E+00  0.00000000000E+00  0.45593999997E+02  0.45594000000E+02  0.51100000000E-03 0.  1.
         11   -1    0    0    0    0 -0.00000000000E+00 -0.00000000000E+00 -0.45593999997E+02  0.45594000000E+02  0.51100000000E-03 0. -1.
    9900012    2    1    2    0    0 -0.20931376772E+02  0.34831719359E+02 -0.15239821694E+02  0.47787269910E+02  0.19999994828E+02 0.  0.
        -12    1    1    2    0    0  0.20931376772E+02 -0.34831719359E+02  0.15239821694E+02  0.43400730090E+02  0.00000000000E+00 0.  1.
         11    1    3    3    0    0 -0.20604145682E+02  0.26097103786E+02 -0.16366241405E+02  0.37059998695E+02  0.51100000000E-03 0. -1.
        -11    1    3    3    0    0  0.20584868782E+01  0.17576261863E+01 -0.12482345464E+01  0.29807226946E+01  0.51100000000E-03 0.  1.
         12    1    3    3    0    0 -0.23857179685E+01  0.69769893874E+01  0.23746542581E+01  0.77465485207E+01  0.00000000000E+00 0. -1.
</event>
<event>
 7    1  0.2732193E-010  0.4778724E+02  0.7816164E-02  0.1312668E+00
        -11   -1    0    0    0    0  0.00000000000E+00  0.00000000000E+00  0.45593999997E+02  0.45594000000E+02  0.51100000000E-03 0.  1.
         11   -1    0    0    0    0 -0.00000000000E+00 -0.00000000000E+00 -0.45593999997E+02  0.45594000000E+02  0.51100000000E-03 0. -1.
    9900012    2    1    2    0    0  0.10997251310E+02  0.15347771423E+02 -0.39078535568E+02  0.47787244636E+02  0.19999879592E+02 0.  0.
        -12    1    1    2    0    0 -0.10997251310E+02 -0.15347771423E+02  0.39078535568E+02  0.43400755364E+02  0.00000000000E+00 0.  1.
         11    1    3    3    0    0 -0.36433436065E+00 -0.32936936125E+00 -0.19066127773E+02  0.19072452706E+02  0.51100000000E-03 0. -1.
        -11    1    3    3    0    0  0.73450949137E+01  0.53413677782E+01 -0.61741644628E+01  0.10981845751E+02  0.51100000000E-03 0.  1.
         12    1    3    3    0    0  0.40164907566E+01  0.10335773006E+02 -0.13838243333E+02  0.17732946178E+02  0.00000000000E+00 0. -1.
</event>
<event>
 7    1  0.2732193E-010  0.4778727E+02  0.7816164E-02  0.1312668E+00
        -11   -1    0    0    0    0  0.00000000000E+00  0.00000000000E+00  0.45593999997E+02  0.45594000000E+02  0.51100000000E-03 0.  1.
         11   -1    0    0    0    0 -0.00000000000E+00 -0.00000000000E+00 -0.45593999997E+02  0.45594000000E+02  0.51100000000E-03 0. -1.
    9900012    2    1    2    0    0  0.38820307351E+02 -0.11552584088E+02 -0.15593097156E+02  0.47787272577E+02  0.20000006988E+02 0.  0.
        -12    1    1    2    0    0 -0.38820307351E+02  0.11552584088E+02  0.15593097156E+02  0.43400727423E+02  0.00000000000E+00 0.  1.
         11    1    3    3    0    0  0.23750504029E+02 -0.33043129252E+01 -0.16358623367E+02  0.29027736464E+02  0.51100000000E-03 0. -1.
        -11    1    3    3    0    0  0.15457885462E+02 -0.63828803826E+01  0.49001532503E-01  0.16723928556E+02  0.51100000000E-03 0.  1.
         12    1    3    3    0    0 -0.38808214021E+00 -0.18653907800E+01  0.71652467815E+00  0.20356075565E+01  0.00000000000E+00 0. -1.
</event>
<event>
 7    1  0.2732193E-010  0.4778727E+02  0.7816164E-02  0.1312668E+00
        -11   -1    0    0    0    0  0.00000000000E+00  0.00000000000E+00  0.45593999997E+02  0.45594000000E+02  0.51100000000E-03 0. -1.
         11   -1    0    0    0    0 -0.00000000000E+00 -0.00000000000E+00 -0.45593999997E+02  0.45594000000E+02  0.51100000000E-03 0.  1.
    9900012    2    1    2    0    0 -0.37646075575E+02  0.20478320305E+02  0.68581748698E+01  0.47787272227E+02  0.20000005390E+02 0.  0.
        -12    1    1    2    0    0  0.37646075575E+02 -0.20478320305E+02 -0.68581748698E+01  0.43400727773E+02  0.00000000000E+00 0.  1.
         11    1    3    3    0    0 -0.15309021154E+02  0.63169300308E+01  0.36798680978E+01  0.16964998178E+02  0.51100000000E-03 0.  1.
        -11    1    3    3    0    0 -0.20414839966E+02  0.89513023150E+01 -0.30261074676E+01  0.22495529125E+02  0.51100000000E-03 0. -1.
        -12    1    3    3    0    0 -0.19222144551E+01  0.52100879593E+01  0.62044142396E+01  0.83267449229E+01  0.00000000000E+00 0.  1.
</event>
<event>
 7    1  0.2732193E-010  0.4778729E+02  0.7816164E-02  0.1312668E+00
        -11   -1    0    0    0    0  0.00000000000E+00  0.00000000000E+00  0.45593999997E+02  0.45594000000E+02  0.51100000000E-03 0.  1.
         11   -1    0    0    0    0 -0.00000000000E+00 -0.00000000000E+00 -0.45593999997E+02  0.45594000000E+02  0.51100000000E-03 0. -1.
    9900012    2    1    2    0    0  0.95325993341E+01 -0.33998749755E+02 -0.25235621032E+02  0.47787285676E+02  0.20000066711E+02 0.  0.
        -12    1    1    2    0    0 -0.95325993341E+01  0.33998749755E+02  0.25235621032E+02  0.43400714324E+02  0.00000000000E+00 0.  1.
         11    1    3    3    0    0  0.86566869027E+01 -0.95595254576E+01 -0.23197838168E+01  0.13103593107E+02  0.51100000000E-03 0. -1.
        -11    1    3    3    0    0 -0.24963646623E+01 -0.10001664332E+02 -0.50858661633E+01  0.11494831919E+02  0.51100000000E-03 0.  1.
         12    1    3    3    0    0  0.33722770937E+01 -0.14437559965E+02 -0.17829971052E+02  0.23188860650E+02  0.00000000000E+00 0. -1.
</event>
<event>
 7    1  0.2732193E-010  0.4778727E+02  0.7816164E-02  0.1312668E+00
        -11   -1    0    0    0    0  0.00000000000E+00  0.00000000000E+00  0.45593999997E+02  0.45594000000E+02  0.51100000000E-03 0.  1.
         11   -1    0    0    0    0 -0.00000000000E+00 -0.00000000000E+00 -0.45593999997E+02  0.45594000000E+02  0.51100000000E-03 0. -1.
    9900012    2    1    2    0    0  0.20586945324E+02  0.30061655585E+02 -0.23581729648E+02  0.47787269275E+02  0.19999991931E+02 0.  0.
        -12    1    1    2    0    0 -0.20586945324E+02 -0.30061655585E+02  0.23581729648E+02  0.43400730725E+02  0.00000000000E+00 0.  1.
         11    1    3    3    0    0  0.16910543298E+02  0.25184506093E+02 -0.16069575600E+02  0.34328662689E+02  0.51100000000E-03 0. -1.
        -11    1    3    3    0    0 -0.10761993629E+01  0.52656904957E+01 -0.67520615171E+01  0.86299499684E+01  0.51100000000E-03 0.  1.
         12    1    3    3    0    0  0.47526013891E+01 -0.38854100352E+00 -0.76009253163E+00  0.48286566177E+01  0.00000000000E+00 0. -1.
</event>
<event>
 7    1  0.2732193E-010  0.4778727E+02  0.7816164E-02  0.1312668E+00
        -11   -1    0    0    0    0  0.00000000000E+00  0.00000000000E+00  0.45593999997E+02  0.45594000000E+02  0.51100000000E-03 0. -1.
         11   -1    0    0    0    0 -0.00000000000E+00 -0.00000000000E+00 -0.45593999997E+02  0.45594000000E+02  0.51100000000E-03 0.  1.
    9900012    2    1    2    0    0 -0.32876689587E+02 -0.27027284262E+02  0.85013183558E+01  0.47787271590E+02  0.20000002486E+02 0.  0.
        -12    1    1    2    0    0  0.32876689587E+02  0.27027284262E+02 -0.85013183558E+01  0.43400728410E+02  0.00000000000E+00 0.  1.
         11    1    3    3    0    0 -0.30319765345E+02 -0.19589210461E+02  0.31852374857E+01  0.36237702398E+02  0.51100000000E-03 0. -1.
        -11    1    3    3    0    0 -0.31205162200E+01 -0.84912991695E+01  0.45091932209E+01  0.10108046638E+02  0.51100000000E-03 0.  1.
        -12    1    3    3    0    0  0.56359197763E+00  0.10532253685E+01  0.80688764919E+00  0.14415225536E+01  0.00000000000E+00 0.  1.
</event>
<event>
 7    1  0.2732193E-010  0.4778727E+02  0.7816164E-02  0.1312668E+00
        -11   -1    0    0    0    0  0.00000000000E+00  0.00000000000E+00  0.45593999997E+02  0.45594000000E+02  0.51100000000E-03 0.  1.
         11   -1    0    0    0    0 -0.00000000000E+00 -0.00000000000E+00 -0.45593999997E+02  0.45594000000E+02  0.51100000000E-03 0. -1.
    9900012    2    1    2    0    0 -0.50746851490E+00  0.30353211188E+02 -0.31016906718E+02  0.47787268945E+02  0.19999990429E+02 0.  0.
        -12    1    1    2    0    0  0.50746851490E+00 -0.30353211188E+02  0.31016906718E+02  0.43400731055E+02  0.00000000000E+00 0.  1.
         11    1    3    3    0    0  0.33363886028E+01  0.20314877866E+02 -0.25747749775E+02  0.32966230758E+02  0.51100000000E-03 0. -1.
        -11    1    3    3    0    0 -0.22927934468E+01  0.45832024421E+01 -0.71933479815E+01  0.88321515985E+01  0.51100000000E-03 0.  1.
         12    1    3    3    0    0 -0.15510636710E+01  0.54551308796E+01  0.19241910383E+01  0.59888865891E+01  0.00000000000E+00 0. -1.
</event>
<event>
 7    1  0.2732193E-010  0.4778727E+02  0.7816164E-02  0.1312668E+00
        -11   -1    0    0    0    0  0.00000000000E+00  0.00000000000E+00  0.45593999997E+02  0.45594000000E+02  0.51100000000E-03 0. -1.
         11   -1    0    0    0    0 -0.00000000000E+00 -0.00000000000E+00 -0.45593999997E+02  0.45594000000E+02  0.51100000000E-03 0.  1.
    9900012    2    1    2    0    0  0.27119887406E+02  0.12718714815E+02  0.31406519027E+02  0.47787269167E+02  0.19999991440E+02 0.  0.
        -12    1    1    2    0    0 -0.27119887406E+02 -0.12718714815E+02 -0.31406519027E+02  0.43400730833E+02  0.00000000000E+00 0.  1.
         11    1    3    3    0    0  0.99888164071E+01  0.41958819285E+01  0.82118897486E+01  0.13594742067E+02  0.51100000000E-03 0. -1.
        -11    1    3    3    0    0  0.13092191256E+02  0.10851052944E+02  0.89737996109E+01  0.19227061700E+02  0.51100000000E-03 0.  1.
        -12    1    3    3    0    0  0.40388797431E+01 -0.23282200580E+01  0.14220829667E+02  0.14965465400E+02  0.00000000000E+00 0.  1.
</event>
<event>
 7    1  0.2732193E-010  0.4778727E+02  0.7816164E-02  0.1312668E+00
        -11   -1    0    0    0    0  0.00000000000E+00  0.00000000000E+00  0.45593999997E+02  0.45594000000E+02  0.51100000000E-03 0.  1.
         11   -1    0    0    0    0 -0.00000000000E+00 -0.00000000000E+00 -0.45593999997E+02  0.45594000000E+02  0.51100000000E-03 0. -1.
    9900012    2    1    2    0    0 -0.35110344494E+02 -0.13147113342E+01 -0.25478588719E+02  0.47787271440E+02  0.20000001806E+02 0.  0.
        -12    1    1    2    0    0  0.35110344494E+02  0.13147113342E+01  0.25478588719E+02  0.43400728560E+02  0.00000000000E+00 0.  1.
         11    1    3    3    0    0 -0.10798708391E+02  0.27033590974E+01 -0.16249203415E+02  0.19696620654E+02  0.51100000000E-03 0. -1.
        -11    1    3    3    0    0 -0.24680241284E+02 -0.40767202344E+01 -0.10227734413E+02  0.27024812843E+02  0.51100000000E-03 0.  1.
        -12    1    3    3    0    0  0.36860518158E+00  0.58649802749E-01  0.99834910812E+00  0.10658379431E+01  0.00000000000E+00 0.  1.
</event>
<event>
 7    1  0.2732193E-010  0.4778727E+02  0.7816164E-02  0.1312668E+00
        -11   -1    0    0    0    0  0.00000000000E+00  0.00000000000E+00  0.45593999997E+02  0.45594000000E+02  0.51100000000E-03 0. -1.
         11   -1    0    0    0    0 -0.00000000000E+00 -0.00000000000E+00 -0.45593999997E+02  0.45594000000E+02  0.51100000000E-03 0.  1.
    9900012    2    1    2    0    0 -0.22521890870E+02  0.37054529467E+02  0.18302879438E+01  0.47787266408E+02  0.19999978861E+02 0.  0.
        -12    1    1    2    0    0  0.22521890870E+02 -0.37054529467E+02 -0.18302879438E+01  0.43400733592E+02  0.00000000000E+00 0.  1.
         11    1    3    3    0    0 -0.78194770740E+01  0.27069870513E+02  0.38894898056E+01  0.28443808510E+02  0.51100000000E-03 0. -1.
        -11    1    3    3    0    0 -0.14856300343E+02  0.81386782096E+01 -0.54060220545E+00  0.16948156061E+02  0.51100000000E-03 0.  1.
         12    1    3    3    0    0  0.15388654667E+00  0.18459807436E+01 -0.15185996564E+01  0.23953018372E+01  0.00000000000E+00 0. -1.
</event>
<event>
 7    1  0.2732193E-010  0.4778727E+02  0.7816164E-02  0.1312668E+00
        -11   -1    0    0    0    0  0.00000000000E+00  0.00000000000E+00  0.45593999997E+02  0.45594000000E+02  0.51100000000E-03 0.  1.
         11   -1    0    0    0    0 -0.00000000000E+00 -0.00000000000E+00 -0.45593999997E+02  0.45594000000E+02  0.51100000000E-03 0. -1.
    9900012    2    1    2    0    0  0.35386281596E+01  0.10669561663E+02 -0.41919708044E+02  0.47787270077E+02  0.19999995590E+02 0.  0.
        -12    1    1    2    0    0 -0.35386281596E+01 -0.10669561663E+02  0.41919708044E+02  0.43400729923E+02  0.00000000000E+00 0.  1.
         11    1    3    3    0    0  0.39168766724E+01  0.11185242241E+02 -0.20640198192E+02  0.23800616557E+02  0.51100000000E-03 0. -1.
        -11    1    3    3    0    0 -0.47988437096E+01 -0.28567630029E+01 -0.76766740110E+01  0.94932249492E+01  0.51100000000E-03 0.  1.
         12    1    3    3    0    0  0.44205951967E+01  0.23410824248E+01 -0.13602835842E+02  0.14493428571E+02  0.00000000000E+00 0. -1.
</event>
<event>
 7    1  0.2732193E-010  0.4778728E+02  0.7816164E-02  0.1312668E+00
        -11   -1    0    0    0    0  0.00000000000E+00  0.00000000000E+00  0.45593999997E+02  0.45594000000E+02  0.51100000000E-03 0. -1.
         11   -1    0    0    0    0 -0.00000000000E+00 -0.00000000000E+00 -0.45593999997E+02  0.45594000000E+02  0.51100000000E-03 0.  1.
    9900012    2    1    2    0    0 -0.31865920328E+02  0.29439182210E+02 -0.12330701082E+01  0.47787276625E+02  0.20000025445E+02 0.  0.
        -12    1    1    2    0    0  0.31865920328E+02 -0.29439182210E+02  0.12330701082E+01  0.43400723375E+02  0.00000000000E+00 0.  1.
         11    1    3    3    0    0 -0.64897611939E+01  0.23717211966E+01  0.37506823185E+01  0.78619132470E+01  0.51100000000E-03 0. -1.
        -11    1    3    3    0    0 -0.61969283809E+01  0.63482240264E+01  0.47475645477E+01  0.10061870554E+02  0.51100000000E-03 0.  1.
        -12    1    3    3    0    0 -0.19179230754E+02  0.20719236987E+02 -0.97313169744E+01  0.29863492824E+02  0.00000000000E+00 0.  1.
</event>
<event>
 7    1  0.2732193E-010  0.4778727E+02  0.7816164E-02  0.1312668E+00
        -11   -1    0    0    0    0  0.00000000000E+00  0.00000000000E+00  0.45593999997E+02  0.45594000000E+02  0.51100000000E-03 0.  1.
         11   -1    0    0    0    0 -0.00000000000E+00 -0.00000000000E+00 -0.45593999997E+02  0.45594000000E+02  0.51100000000E-03 0. -1.
    9900012    2    1    2    0    0  0.15102102148E+02  0.18646399917E+02 -0.36164371639E+02  0.47787268494E+02  0.19999988374E+02 0.  0.
        -12    1    1    2    0    0 -0.15102102148E+02 -0.18646399917E+02  0.36164371639E+02  0.43400731506E+02  0.00000000000E+00 0.  1.
         11    1    3    3    0    0 -0.67757629263E+00  0.99320169572E+01 -0.66068237768E+01  0.11947978538E+02  0.51100000000E-03 0. -1.
        -11    1    3    3    0    0  0.14821878603E+02  0.96147202321E+01 -0.22233596057E+02  0.28398304956E+02  0.51100000000E-03 0.  1.
         12    1    3    3    0    0  0.95779983765E+00 -0.90033727222E+00 -0.73239518053E+01  0.74409850006E+01  0.00000000000E+00 0. -1.
</event>
<event>
 7    1  0.2732193E-010  0.4778727E+02  0.7816164E-02  0.1312668E+00
        -11   -1    0    0    0    0  0.00000000000E+00  0.00000000000E+00  0.45593999997E+02  0.45594000000E+02  0.51100000000E-03 0.  1.
         11   -1    0    0    0    0 -0.00000000000E+00 -0.00000000000E+00 -0.45593999997E+02  0.45594000000E+02  0.51100000000E-03 0. -1.
    9900012    2    1    2    0    0  0.24949628123E+02  0.13680867722E+02 -0.32771529631E+02  0.47787271441E+02  0.20000001808E+02 0.  0.
        -12    1    1    2    0    0 -0.24949628123E+02 -0.13680867722E+02  0.32771529631E+02  0.43400728559E+02  0.00000000000E+00 0.  1.
         11    1    3    3    0    0  0.10538698182E+02  0.10296372313E+02 -0.18882572219E+02  0.23950594482E+02  0.51100000000E-03 0. -1.
        -11    1    3    3    0    0  0.49138152276E+01  0.27615596961E+01  0.14178213447E+01  0.58122293204E+01  0.51100000000E-03 0.  1.
         12    1    3    3    0    0  0.94971147129E+01  0.62293571367E+00 -0.15306778757E+02  0.18024447639E+02  0.00000000000E+00 0. -1.
</event>
<event>
 7    1  0.2732193E-010  0.4778727E+02  0.7816164E-02  0.1312668E+00
        -11   -1    0    0    0    0  0.00000000000E+00  0.00000000000E+00  0.45593999997E+02  0.45594000000E+02  0.51100000000E-03 0.  1.
         11   -1    0    0    0    0 -0.00000000000E+00 -0.00000000000E+00 -0.45593999997E+02  0.45594000000E+02  0.51100000000E-03 0. -1.
    9900012    2    1    2    0    0  0.33250680502E+02 -0.10303973865E+02 -0.25919952877E+02  0.47787267421E+02  0.19999983478E+02 0.  0.
        -12    1    1    2    0    0 -0.33250680502E+02  0.10303973865E+02  0.25919952877E+02  0.43400732579E+02  0.00000000000E+00 0.  1.
         11    1    3    3    0    0  0.25167401377E+02 -0.44534769848E+01 -0.12285639259E+02  0.28357864545E+02  0.51100000000E-03 0. -1.
        -11    1    3    3    0    0  0.28076794409E+01  0.15341628707E+01 -0.18549841252E+00  0.32048602901E+01  0.51100000000E-03 0.  1.
         12    1    3    3    0    0  0.52755996848E+01 -0.73846597514E+01 -0.13448815205E+02  0.16224542585E+02  0.00000000000E+00 0. -1.
</event>
<event>
 7    1  0.2732193E-010  0.4778727E+02  0.7816164E-02  0.1312668E+00
        -11   -1    0    0    0    0  0.00000000000E+00  0.00000000000E+00  0.45593999997E+02  0.45594000000E+02  0.51100000000E-03 0.  1.
         11   -1    0    0    0    0 -0.00000000000E+00 -0.00000000000E+00 -0.45593999997E+02  0.45594000000E+02  0.51100000000E-03 0. -1.
    9900012    2    1    2    0    0  0.16944143517E+02 -0.31915824820E+02 -0.24039538671E+02  0.47787270824E+02  0.19999998996E+02 0.  0.
        -12    1    1    2    0    0 -0.16944143517E+02  0.31915824820E+02  0.24039538671E+02  0.43400729176E+02  0.00000000000E+00 0.  1.
         11    1    3    3    0    0  0.10978497937E+02 -0.15806968356E+02 -0.11207990959E+02  0.22271208480E+02  0.51100000000E-03 0. -1.
        -11    1    3    3    0    0 -0.17825735184E+01 -0.12793910912E+02 -0.45362508306E+01  0.13690847185E+02  0.51100000000E-03 0.  1.
        -12    1    3    3    0    0  0.77482190986E+01 -0.33149455513E+01 -0.82952968810E+01  0.11825215159E+02  0.00000000000E+00 0.  1.
</event>
<event>
 7    1  0.2732193E-010  0.4778728E+02  0.7816164E-02  0.1312668E+00
        -11   -1    0    0    0    0  0.00000000000E+00  0.00000000000E+00  0.45593999997E+02  0.45594000000E+02  0.51100000000E-03 0.  1.
         11   -1    0    0    0    0 -0.00000000000E+00 -0.00000000000E+00 -0.45593999997E+02  0.45594000000E+02  0.51100000000E-03 0. -1.
    9900012    2    1    2    0    0 -0.31335133728E+01 -0.19162051388E+02 -0.38815195098E+02  0.47787280075E+02  0.20000041176E+02 0.  0.
        -12    1    1    2    0    0  0.31335133728E+01  0.19162051388E+02  0.38815195098E+02  0.43400719925E+02  0.00000000000E+00 0.  1.
         11    1    3    3    0    0  0.35250029279E+01 -0.71500866058E+01 -0.18671496043E+02  0.20302072526E+02  0.51100000000E-03 0. -1.
        -11    1    3    3    0    0 -0.13357193010E+01 -0.63199236440E+01 -0.65079247890E+00  0.64922347484E+01  0.51100000000E-03 0.  1.
        -12    1    3    3    0    0 -0.53227969997E+01 -0.56920411379E+01 -0.19492906577E+02  0.20992972801E+02  0.00000000000E+00 0.  1.
</event>
<event>
 7    1  0.2732193E-010  0.4778727E+02  0.7816164E-02  0.1312668E+00
        -11   -1    0    0    0    0  0.00000000000E+00  0.00000000000E+00  0.45593999997E+02  0.45594000000E+02  0.51100000000E-03 0.  1.
         11   -1    0    0    0    0 -0.00000000000E+00 -0.00000000000E+00 -0.45593999997E+02  0.45594000000E+02  0.51100000000E-03 0. -1.
    9900012    2    1    2    0    0  0.52113684782E+01  0.31069637454E+02 -0.29852017412E+02  0.47787266405E+02  0.19999978849E+02 0.  0.
        -12    1    1    2    0    0 -0.52113684782E+01 -0.31069637454E+02  0.29852017412E+02  0.43400733595E+02  0.00000000000E+00 0.  1.
         11    1    3    3    0    0 -0.74037439466E+00  0.57907619051E+01 -0.16612379014E+02  0.17608299590E+02  0.51100000000E-03 0. -1.
        -11    1    3    3    0    0  0.71679451070E+01  0.23031512774E+02 -0.13445362371E+02  0.27615354194E+02  0.51100000000E-03 0.  1.
        -12    1    3    3    0    0 -0.12162022342E+01  0.22473627755E+01  0.20572397297E+00  0.25636126213E+01  0.00000000000E+00 0.  1.
</event>
<event>
 7    1  0.2732193E-010  0.4778728E+02  0.7816164E-02  0.1312668E+00
        -11   -1    0    0    0    0  0.00000000000E+00  0.00000000000E+00  0.45593999997E+02  0.45594000000E+02  0.51100000000E-03 0.  1.
         11   -1    0    0    0    0 -0.00000000000E+00 -0.00000000000E+00 -0.45593999997E+02  0.45594000000E+02  0.51100000000E-03 0. -1.
    9900012    2    1    2    0    0 -0.69370973774E+01  0.32511812852E+02 -0.27901278317E+02  0.47787278500E+02  0.20000033995E+02 0.  0.
        -12    1    1    2    0    0  0.69370973774E+01 -0.32511812852E+02  0.27901278317E+02  0.43400721500E+02  0.00000000000E+00 0.  1.
         11    1    3    3    0    0  0.11661738607E+01 -0.17744421051E+01 -0.12590905158E+01  0.24685857177E+01  0.51100000000E-03 0. -1.
        -11    1    3    3    0    0 -0.23831046412E+01  0.56304967735E+00 -0.20003766250E+01  0.31619170725E+01  0.51100000000E-03 0.  1.
         12    1    3    3    0    0 -0.57201665969E+01  0.33723205280E+02 -0.24641811176E+02  0.42156775710E+02  0.00000000000E+00 0. -1.
</event>
<event>
 7    1  0.2732193E-010  0.4778727E+02  0.7816164E-02  0.1312668E+00
        -11   -1    0    0    0    0  0.00000000000E+00  0.00000000000E+00  0.45593999997E+02  0.45594000000E+02  0.51100000000E-03 0.  1.
         11   -1    0    0    0    0 -0.00000000000E+00 -0.00000000000E+00 -0.45593999997E+02  0.45594000000E+02  0.51100000000E-03 0. -1.
    9900012    2    1    2    0    0 -0.72931859090E+01 -0.41407792029E+02 -0.10762331828E+02  0.47787267428E+02  0.19999983510E+02 0.  0.
        -12    1    1    2    0    0  0.72931859090E+01  0.41407792029E+02  0.10762331828E+02  0.43400732572E+02  0.00000000000E+00 0.  1.
         11    1    3    3    0    0 -0.18281806534E-01 -0.32425294512E+02 -0.53920356288E+01  0.32870565966E+02  0.51100000000E-03 0. -1.
        -11    1    3    3    0    0 -0.50648703230E+01 -0.35209957284E+01  0.98939172685E+00  0.62473369173E+01  0.51100000000E-03 0.  1.
         12    1    3    3    0    0 -0.22100337795E+01 -0.54615017889E+01 -0.63596879257E+01  0.86693645447E+01  0.00000000000E+00 0. -1.
</event>
<event>
 7    1  0.2732193E-010  0.4778727E+02  0.7816164E-02  0.1312668E+00
        -11   -1    0    0    0    0  0.00000000000E+00  0.00000000000E+00  0.45593999997E+02  0.45594000000E+02  0.51100000000E-03 0.  1.
         11   -1    0    0    0    0 -0.00000000000E+00 -0.00000000000E+00 -0.45593999997E+02  0.45594000000E+02  0.51100000000E-03 0. -1.
    9900012    2    1    2    0    0 -0.35115222563E+01  0.13342361413E+02 -0.41149409383E+02  0.47787270868E+02  0.19999999194E+02 0.  0.
        -12    1    1    2    0    0  0.35115222563E+01 -0.13342361413E+02  0.41149409383E+02  0.43400729132E+02  0.00000000000E+00 0.  1.
         11    1    3    3    0    0 -0.16041238835E+01  0.14930916408E+02 -0.25125089843E+02  0.29270729716E+02  0.51100000000E-03 0. -1.
        -11    1    3    3    0    0 -0.50331592268E+01 -0.22281937436E+01 -0.13013368537E+02  0.14129589524E+02  0.51100000000E-03 0.  1.
        -12    1    3    3    0    0  0.31257608539E+01  0.63963874864E+00 -0.30109510031E+01  0.43869516281E+01  0.00000000000E+00 0.  1.
</event>
<event>
 7    1  0.2732193E-010  0.4778727E+02  0.7816164E-02  0.1312668E+00
        -11   -1    0    0    0    0  0.00000000000E+00  0.00000000000E+00  0.45593999997E+02  0.45594000000E+02  0.51100000000E-03 0. -1.
         11   -1    0    0    0    0 -0.00000000000E+00 -0.00000000000E+00 -0.45593999997E+02  0.45594000000E+02  0.51100000000E-03 0.  1.
    9900012    2    1    2    0    0  0.20761432120E+02 -0.37893523178E+02 -0.40825133470E+01  0.47787273304E+02  0.20000010301E+02 0.  0.
        -12    1    1    2    0    0 -0.20761432120E+02  0.37893523178E+02  0.40825133470E+01  0.43400726696E+02  0.00000000000E+00 0.  1.
         11    1    3    3    0    0  0.15122168019E+02 -0.25705391933E+02 -0.89798930854E+01  0.31146197522E+02  0.51100000000E-03 0. -1.
        -11    1    3    3    0    0  0.40542390834E+01 -0.17802333660E+01  0.41792784264E+01  0.60887152840E+01  0.51100000000E-03 0.  1.
         12    1    3    3    0    0  0.15850250183E+01 -0.10407897879E+02  0.71810131202E+00  0.10552360498E+02  0.00000000000E+00 0. -1.
</event>
<event>
 7    1  0.2732193E-010  0.4778727E+02  0.7816164E-02  0.1312668E+00
        -11   -1    0    0    0    0  0.00000000000E+00  0.00000000000E+00  0.45593999997E+02  0.45594000000E+02  0.51100000000E-03 0.  1.
         11   -1    0    0    0    0 -0.00000000000E+00 -0.00000000000E+00 -0.45593999997E+02  0.45594000000E+02  0.51100000000E-03 0. -1.
    9900012    2    1    2    0    0 -0.15273132047E+02 -0.17225825942E+02 -0.36791654062E+02  0.47787269009E+02  0.19999990720E+02 0.  0.
        -12    1    1    2    0    0  0.15273132047E+02  0.17225825942E+02  0.36791654062E+02  0.43400730991E+02  0.00000000000E+00 0.  1.
         11    1    3    3    0    0  0.19773394276E+01 -0.74416279264E+01 -0.13153864104E+02  0.15241779375E+02  0.51100000000E-03 0. -1.
        -11    1    3    3    0    0 -0.11764422463E+02 -0.54618464351E+01 -0.75519299905E+01  0.15008832374E+02  0.51100000000E-03 0.  1.
         12    1    3    3    0    0 -0.54860490115E+01 -0.43223515801E+01 -0.16085859968E+02  0.17536657260E+02  0.00000000000E+00 0. -1.
</event>
<event>
 7    1  0.2732193E-010  0.4778725E+02  0.7816164E-02  0.1312668E+00
        -11   -1    0    0    0    0  0.00000000000E+00  0.00000000000E+00  0.45593999997E+02  0.45594000000E+02  0.51100000000E-03 0.  1.
         11   -1    0    0    0    0 -0.00000000000E+00 -0.00000000000E+00 -0.45593999997E+02  0.45594000000E+02  0.51100000000E-03 0. -1.
    9900012    2    1    2    0    0 -0.59260181812E+01 -0.12152761074E+02 -0.41240974340E+02  0.47787248189E+02  0.19999895794E+02 0.  0.
        -12    1    1    2    0    0  0.59260181812E+01  0.12152761074E+02  0.41240974340E+02  0.43400751811E+02  0.00000000000E+00 0.  1.
         11    1    3    3    0    0 -0.17101703683E+01 -0.71281711518E+00 -0.18984494310E+02  0.19074690441E+02  0.51100000000E-03 0. -1.
        -11    1    3    3    0    0 -0.38802894310E+01 -0.14357909514E+02 -0.16265171171E+02  0.22040009191E+02  0.51100000000E-03 0.  1.
        -12    1    3    3    0    0 -0.33555838196E+00  0.29179655547E+01 -0.59913088588E+01  0.66725485571E+01  0.00000000000E+00 0.  1.
</event>
<event>
 7    1  0.2732193E-010  0.4778727E+02  0.7816164E-02  0.1312668E+00
        -11   -1    0    0    0    0  0.00000000000E+00  0.00000000000E+00  0.45593999997E+02  0.45594000000E+02  0.51100000000E-03 0. -1.
         11   -1    0    0    0    0 -0.00000000000E+00 -0.00000000000E+00 -0.45593999997E+02  0.45594000000E+02  0.51100000000E-03 0.  1.
    9900012    2    1    2    0    0  0.39302187827E+02  0.13084018566E+02 -0.12952586691E+02  0.47787274064E+02  0.20000013766E+02 0.  0.
        -12    1    1    2    0    0 -0.39302187827E+02 -0.13084018566E+02  0.12952586691E+02  0.43400725936E+02  0.00000000000E+00 0.  1.
         11    1    3    3    0    0  0.66996627837E+01 -0.51323191643E+00 -0.12285075010E+01  0.68306748830E+01  0.51100000000E-03 0. -1.
        -11    1    3    3    0    0  0.16239410134E+02  0.67504548287E+01  0.30781003488E+01  0.17853901084E+02  0.51100000000E-03 0.  1.
        -12    1    3    3    0    0  0.16363114909E+02  0.68467956542E+01 -0.14802179539E+02  0.23102698097E+02  0.00000000000E+00 0.  1.
</event>
<event>
 7    1  0.2732193E-010  0.4778727E+02  0.7816164E-02  0.1312668E+00
        -11   -1    0    0    0    0  0.00000000000E+00  0.00000000000E+00  0.45593999997E+02  0.45594000000E+02  0.51100000000E-03 0.  1.
         11   -1    0    0    0    0 -0.00000000000E+00 -0.00000000000E+00 -0.45593999997E+02  0.45594000000E+02  0.51100000000E-03 0. -1.
    9900012    2    1    2    0    0 -0.32320832575E+02  0.83698739093E+01 -0.27729624063E+02  0.47787273528E+02  0.20000011326E+02 0.  0.
        -12    1    1    2    0    0  0.32320832575E+02 -0.83698739093E+01  0.27729624063E+02  0.43400726472E+02  0.00000000000E+00 0.  1.
         11    1    3    3    0    0 -0.15358388517E+02  0.61594989514E+01 -0.48536258036E+01  0.17244628406E+02  0.51100000000E-03 0. -1.
        -11    1    3    3    0    0 -0.63176055228E+01  0.45758469050E+01 -0.40568947638E+01  0.87925485398E+01  0.51100000000E-03 0.  1.
         12    1    3    3    0    0 -0.10644838535E+02 -0.23654719471E+01 -0.18819103495E+02  0.21750096582E+02  0.00000000000E+00 0. -1.
</event>
<event>
 7    1  0.2732193E-010  0.4778728E+02  0.7816164E-02  0.1312668E+00
        -11   -1    0    0    0    0  0.00000000000E+00  0.00000000000E+00  0.45593999997E+02  0.45594000000E+02  0.51100000000E-03 0.  1.
         11   -1    0    0    0    0 -0.00000000000E+00 -0.00000000000E+00 -0.45593999997E+02  0.45594000000E+02  0.51100000000E-03 0. -1.
    9900012    2    1    2    0    0 -0.20593817798E+02  0.23924608384E+02 -0.29784737132E+02  0.47787276690E+02  0.20000025741E+02 0.  0.
        -12    1    1    2    0    0  0.20593817798E+02 -0.23924608384E+02  0.29784737132E+02  0.43400723310E+02  0.00000000000E+00 0.  1.
         11    1    3    3    0    0 -0.26119430757E+01 -0.24608438257E+01 -0.12205421447E+01  0.37904778529E+01  0.51100000000E-03 0. -1.
        -11    1    3    3    0    0 -0.40279007767E+01  0.14532332337E+02 -0.14367920307E+02  0.20829061477E+02  0.51100000000E-03 0.  1.
         12    1    3    3    0    0 -0.13953973945E+02  0.11853119873E+02 -0.14196274681E+02  0.23167737360E+02  0.00000000000E+00 0. -1.
</event>
<event>
 7    1  0.2732193E-010  0.4778727E+02  0.7816164E-02  0.1312668E+00
        -11   -1    0    0    0    0  0.00000000000E+00  0.00000000000E+00  0.45593999997E+02  0.45594000000E+02  0.51100000000E-03 0.  1.
         11   -1    0    0    0    0 -0.00000000000E+00 -0.00000000000E+00 -0.45593999997E+02  0.45594000000E+02  0.51100000000E-03 0. -1.
    9900012    2    1    2    0    0 -0.20794057031E+02  0.26526617170E+02 -0.27341712513E+02  0.47787268791E+02  0.19999989727E+02 0.  0.
        -12    1    1    2    0    0  0.20794057031E+02 -0.26526617170E+02  0.27341712513E+02  0.43400731209E+02  0.00000000000E+00 0.  1.
         11    1    3    3    0    0 -0.70792430579E+01  0.64425340077E+01 -0.10202171680E+02  0.13989504421E+02  0.51100000000E-03 0. -1.
        -11    1    3    3    0    0 -0.11061031914E+02  0.80906178455E+01 -0.16567560970E+02  0.21500897676E+02  0.51100000000E-03 0.  1.
        -12    1    3    3    0    0 -0.26537820588E+01  0.11993465317E+02 -0.57197986380E+00  0.12296866694E+02  0.00000000000E+00 0.  1.
</event>
<event>
 7    1  0.2732193E-010  0.4778727E+02  0.7816164E-02  0.1312668E+00
        -11   -1    0    0    0    0  0.00000000000E+00  0.00000000000E+00  0.45593999997E+02  0.45594000000E+02  0.51100000000E-03 0.  1.
         11   -1    0    0    0    0 -0.00000000000E+00 -0.00000000000E+00 -0.45593999997E+02  0.45594000000E+02  0.51100000000E-03 0. -1.
    9900012    2    1    2    0    0  0.27626263735E+02  0.64136225184E+01 -0.32852369071E+02  0.47787272410E+02  0.20000006226E+02 0.  0.
        -12    1    1    2    0    0 -0.27626263735E+02 -0.64136225184E+01  0.32852369071E+02  0.43400727590E+02  0.00000000000E+00 0.  1.
         11    1    3    3    0    0  0.44919016957E+01 -0.17418870880E+01 -0.12709196120E+02  0.13591726077E+02  0.51100000000E-03 0. -1.
        -11    1    3    3    0    0  0.24583021835E+02  0.82749000584E+01 -0.19962633555E+02  0.32730806166E+02  0.51100000000E-03 0.  1.
        -12    1    3    3    0    0 -0.14486597959E+01 -0.11939045199E+00 -0.18053939572E+00  0.14647401673E+01  0.00000000000E+00 0.  1.
</event>
<event>
 7    1  0.2732193E-010  0.4778727E+02  0.7816164E-02  0.1312668E+00
        -11   -1    0    0    0    0  0.00000000000E+00  0.00000000000E+00  0.45593999997E+02  0.45594000000E+02  0.51100000000E-03 0.  1.
         11   -1    0    0    0    0 -0.00000000000E+00 -0.00000000000E+00 -0.45593999997E+02  0.45594000000E+02  0.51100000000E-03 0. -1.
    9900012    2    1    2    0    0  0.36027721797E+02 -0.14751593857E+00 -0.24199267710E+02  0.47787273549E+02  0.20000011418E+02 0.  0.
        -12    1    1    2    0    0 -0.36027721797E+02  0.14751593857E+00  0.24199267710E+02  0.43400726451E+02  0.00000000000E+00 0.  1.
         11    1    3    3    0    0  0.13754779896E+02  0.38064462259E+01 -0.66346290435E+01  0.15738529336E+02  0.51100000000E-03 0. -1.
        -11    1    3    3    0    0  0.13656303225E+02 -0.93277660508E+01 -0.12297841791E+02  0.20609190917E+02  0.51100000000E-03 0.  1.
        -12    1    3    3    0    0  0.86166386754E+01  0.53738038864E+01 -0.52667968747E+01  0.11439553295E+02  0.00000000000E+00 0.  1.
</event>
<event>
 7    1  0.2732193E-010  0.4778727E+02  0.7816164E-02  0.1312668E+00
        -11   -1    0    0    0    0  0.00000000000E+00  0.00000000000E+00  0.45593999997E+02  0.45594000000E+02  0.51100000000E-03 0.  1.
         11   -1    0    0    0    0 -0.00000000000E+00 -0.00000000000E+00 -0.45593999997E+02  0.45594000000E+02  0.51100000000E-03 0. -1.
    9900012    2    1    2    0    0 -0.60219077727E+01 -0.11139292820E+02 -0.41512360682E+02  0.47787270661E+02  0.19999998254E+02 0.  0.
        -12    1    1    2    0    0  0.60219077727E+01  0.11139292820E+02  0.41512360682E+02  0.43400729339E+02  0.00000000000E+00 0.  1.
         11    1    3    3    0    0 -0.56699640390E+00 -0.25335994403E+01  0.87418280309E+00  0.27394902592E+01  0.51100000000E-03 0.  1.
        -11    1    3    3    0    0 -0.19528496960E+01 -0.47426371409E+01 -0.37667894697E+02  0.38015477376E+02  0.51100000000E-03 0. -1.
         12    1    3    3    0    0 -0.35020616728E+01 -0.38630562392E+01 -0.47186487879E+01  0.70323030260E+01  0.00000000000E+00 0. -1.
</event>
<event>
 7    1  0.2732193E-010  0.4778727E+02  0.7816164E-02  0.1312668E+00
        -11   -1    0    0    0    0  0.00000000000E+00  0.00000000000E+00  0.45593999997E+02  0.45594000000E+02  0.51100000000E-03 0.  1.
         11   -1    0    0    0    0 -0.00000000000E+00 -0.00000000000E+00 -0.45593999997E+02  0.45594000000E+02  0.51100000000E-03 0. -1.
    9900012    2    1    2    0    0  0.90753124627E+01  0.16091784913E+02 -0.39272336069E+02  0.47787271685E+02  0.20000002921E+02 0.  0.
        -12    1    1    2    0    0 -0.90753124627E+01 -0.16091784913E+02  0.39272336069E+02  0.43400728315E+02  0.00000000000E+00 0.  1.
         11    1    3    3    0    0  0.48011775210E+01  0.75403246122E+01 -0.30800851971E+02  0.32071798878E+02  0.51100000000E-03 0. -1.
        -11    1    3    3    0    0  0.17734076173E+01 -0.14134026710E+01 -0.38094106929E+01  0.44333161151E+01  0.51100000000E-03 0.  1.
         12    1    3    3    0    0  0.25007273243E+01  0.99648629718E+01 -0.46620734041E+01  0.11282156692E+02  0.00000000000E+00 0. -1.
</event>
<event>
 7    1  0.2732193E-010  0.4778726E+02  0.7816164E-02  0.1312668E+00
        -11   -1    0    0    0    0  0.00000000000E+00  0.00000000000E+00  0.45593999997E+02  0.45594000000E+02  0.51100000000E-03 0.  1.
         11   -1    0    0    0    0 -0.00000000000E+00 -0.00000000000E+00 -0.45593999997E+02  0.45594000000E+02  0.51100000000E-03 0. -1.
    9900012    2    1    2    0    0 -0.26545534252E+02  0.26516557765E+02 -0.21813541474E+02  0.47787264798E+02  0.19999971520E+02 0.  0.
        -12    1    1    2    0    0  0.26545534252E+02 -0.26516557765E+02  0.21813541474E+02  0.43400735202E+02  0.00000000000E+00 0.  1.
         11    1    3    3    0    0 -0.28396843163E+02  0.20753837754E+02 -0.18363939971E+02  0.39677912932E+02  0.51100000000E-03 0. -1.
        -11    1    3    3    0    0  0.20038929916E+01  0.10289326738E+01 -0.23334953439E+01  0.32433763812E+01  0.51100000000E-03 0.  1.
         12    1    3    3    0    0 -0.15258408109E+00  0.47337873374E+01 -0.11161061587E+01  0.48659754844E+01  0.00000000000E+00 0. -1.
</event>
<event>
 7    1  0.2732193E-010  0.4778727E+02  0.7816164E-02  0.1312668E+00
        -11   -1    0    0    0    0  0.00000000000E+00  0.00000000000E+00  0.45593999997E+02  0.45594000000E+02  0.51100000000E-03 0.  1.
         11   -1    0    0    0    0 -0.00000000000E+00 -0.00000000000E+00 -0.45593999997E+02  0.45594000000E+02  0.51100000000E-03 0. -1.
    9900012    2    1    2    0    0 -0.18899477698E+02 -0.33992988686E+02 -0.19259018862E+02  0.47787270230E+02  0.19999996288E+02 0.  0.
        -12    1    1    2    0    0  0.18899477698E+02  0.33992988686E+02  0.19259018862E+02  0.43400729770E+02  0.00000000000E+00 0.  1.
         11    1    3    3    0    0 -0.10065898306E+02 -0.10238886412E+02 -0.51793672900E+01  0.15263779003E+02  0.51100000000E-03 0. -1.
        -11    1    3    3    0    0  0.29664370140E+01 -0.36347489712E+01  0.93544724719E+00  0.47839534336E+01  0.51100000000E-03 0.  1.
        -12    1    3    3    0    0 -0.11800016406E+02 -0.20119353302E+02 -0.15015098819E+02  0.27739537794E+02  0.00000000000E+00 0.  1.
</event>
<event>
 7    1  0.2732193E-010  0.4778727E+02  0.7816164E-02  0.1312668E+00
        -11   -1    0    0    0    0  0.00000000000E+00  0.00000000000E+00  0.45593999997E+02  0.45594000000E+02  0.51100000000E-03 0.  1.
         11   -1    0    0    0    0 -0.00000000000E+00 -0.00000000000E+00 -0.45593999997E+02  0.45594000000E+02  0.51100000000E-03 0. -1.
    9900012    2    1    2    0    0 -0.73502591218E+01 -0.20701098378E+02 -0.37430755349E+02  0.47787271559E+02  0.20000002346E+02 0.  0.
        -12    1    1    2    0    0  0.73502591218E+01  0.20701098378E+02  0.37430755349E+02  0.43400728441E+02  0.00000000000E+00 0.  1.
         11    1    3    3    0    0  0.59715042100E+00 -0.20438495366E+02 -0.25883822476E+02  0.32985768866E+02  0.51100000000E-03 0. -1.
        -11    1    3    3    0    0 -0.30077057231E+01  0.21664455590E+01 -0.54037929372E+01  0.65529198413E+01  0.51100000000E-03 0.  1.
         12    1    3    3    0    0 -0.49397038197E+01 -0.24290485702E+01 -0.61431399362E+01  0.82485828516E+01  0.00000000000E+00 0. -1.
</event>
<event>
 7    1  0.2732193E-010  0.4778727E+02  0.7816164E-02  0.1312668E+00
        -11   -1    0    0    0    0  0.00000000000E+00  0.00000000000E+00  0.45593999997E+02  0.45594000000E+02  0.51100000000E-03 0.  1.
         11   -1    0    0    0    0 -0.00000000000E+00 -0.00000000000E+00 -0.45593999997E+02  0.45594000000E+02  0.51100000000E-03 0. -1.
    9900012    2    1    2    0    0  0.27840309481E+02 -0.14132147363E+02 -0.30146685953E+02  0.47787273104E+02  0.20000009392E+02 0.  0.
        -12    1    1    2    0    0 -0.27840309481E+02  0.14132147363E+02  0.30146685953E+02  0.43400726896E+02  0.00000000000E+00 0.  1.
         11    1    3    3    0    0  0.10839682465E+02  0.19328612598E+01 -0.36018279297E+01  0.11584810455E+02  0.51100000000E-03 0.  1.
        -11    1    3    3    0    0  0.89352844919E+01 -0.12482753780E+02 -0.13440750787E+02  0.20403730856E+02  0.51100000000E-03 0. -1.
        -12    1    3    3    0    0  0.80653425247E+01 -0.35822548427E+01 -0.13104107236E+02  0.15798731793E+02  0.00000000000E+00 0.  1.
</event>
<event>
 7    1  0.2732193E-010  0.4778727E+02  0.7816164E-02  0.1312668E+00
        -11   -1    0    0    0    0  0.00000000000E+00  0.00000000000E+00  0.45593999997E+02  0.45594000000E+02  0.51100000000E-03 0.  1.
         11   -1    0    0    0    0 -0.00000000000E+00 -0.00000000000E+00 -0.45593999997E+02  0.45594000000E+02  0.51100000000E-03 0. -1.
    9900012    2    1    2    0    0 -0.36311559654E+02 -0.22880778059E+02 -0.64470053364E+01  0.47787271356E+02  0.20000001419E+02 0.  0.
        -12    1    1    2    0    0  0.36311559654E+02  0.22880778059E+02  0.64470053364E+01  0.43400728644E+02  0.00000000000E+00 0.  1.
         11    1    3    3    0    0 -0.25511387575E+02 -0.19270632826E+02 -0.99025932278E+01  0.33470129047E+02  0.51100000000E-03 0. -1.
        -11    1    3    3    0    0 -0.66150259411E+00 -0.60268226805E-01 -0.21147450634E+01  0.22166111264E+01  0.51100000000E-03 0.  1.
         12    1    3    3    0    0 -0.10138669484E+02 -0.35498770058E+01  0.55703329549E+01  0.12100531182E+02  0.00000000000E+00 0. -1.
</event>
<event>
 7    1  0.2732193E-010  0.4778727E+02  0.7816164E-02  0.1312668E+00
        -11   -1    0    0    0    0  0.00000000000E+00  0.00000000000E+00  0.45593999997E+02  0.45594000000E+02  0.51100000000E-03 0. -1.
         11   -1    0    0    0    0 -0.00000000000E+00 -0.00000000000E+00 -0.45593999997E+02  0.45594000000E+02  0.51100000000E-03 0.  1.
    9900012    2    1    2    0    0  0.13756813249E+02 -0.40688635896E+02  0.62296348439E+01  0.47787270143E+02  0.19999995889E+02 0.  0.
        -12    1    1    2    0    0 -0.13756813249E+02  0.40688635896E+02 -0.62296348439E+01  0.43400729857E+02  0.00000000000E+00 0.  1.
         11    1    3    3    0    0 -0.23393308640E+01 -0.40085662309E+00  0.75007486169E+00  0.24891298646E+01  0.51100000000E-03 0. -1.
        -11    1    3    3    0    0 -0.12480688762E+01 -0.32105363492E+01  0.25004637306E+01  0.42564702158E+01  0.51100000000E-03 0.  1.
         12    1    3    3    0    0  0.17344212989E+02 -0.37077242924E+02  0.29790962516E+01  0.41041670062E+02  0.00000000000E+00 0. -1.
</event>
<event>
 7    1  0.2732193E-010  0.4778728E+02  0.7816164E-02  0.1312668E+00
        -11   -1    0    0    0    0  0.00000000000E+00  0.00000000000E+00  0.45593999997E+02  0.45594000000E+02  0.51100000000E-03 0.  1.
         11   -1    0    0    0    0 -0.00000000000E+00 -0.00000000000E+00 -0.45593999997E+02  0.45594000000E+02  0.51100000000E-03 0. -1.
    9900012    2    1    2    0    0 -0.20024000236E+02 -0.15455337595E+02 -0.35267467458E+02  0.47787282189E+02  0.20000050813E+02 0.  0.
        -12    1    1    2    0    0  0.20024000236E+02  0.15455337595E+02  0.35267467458E+02  0.43400717811E+02  0.00000000000E+00 0.  1.
         11    1    3    3    0    0 -0.58815113540E+01  0.29156306916E+01 -0.84057898896E+01  0.10665382415E+02  0.51100000000E-03 0. -1.
        -11    1    3    3    0    0 -0.37079555341E+01 -0.13659622993E+02 -0.15561715043E+02  0.21035712726E+02  0.51100000000E-03 0.  1.
         12    1    3    3    0    0 -0.10434533348E+02 -0.47113452933E+01 -0.11299962525E+02  0.16086187048E+02  0.00000000000E+00 0. -1.
</event>
<event>
 7    1  0.2732193E-010  0.4778726E+02  0.7816164E-02  0.1312668E+00
        -11   -1    0    0    0    0  0.00000000000E+00  0.00000000000E+00  0.45593999997E+02  0.45594000000E+02  0.51100000000E-03 0.  1.
         11   -1    0    0    0    0 -0.00000000000E+00 -0.00000000000E+00 -0.45593999997E+02  0.45594000000E+02  0.51100000000E-03 0. -1.
    9900012    2    1    2    0    0  0.23390326575E+01 -0.19983699171E+02 -0.38455231099E+02  0.47787261467E+02  0.19999956331E+02 0.  0.
        -12    1    1    2    0    0 -0.23390326575E+01  0.19983699171E+02  0.38455231099E+02  0.43400738533E+02  0.00000000000E+00 0.  1.
         11    1    3    3    0    0 -0.72561376481E+01 -0.14448047163E+02 -0.26617592508E+02  0.31143118527E+02  0.51100000000E-03 0. -1.
        -11    1    3    3    0    0  0.65117953552E+01 -0.18107646326E+01 -0.79852912055E+01  0.10461702691E+02  0.51100000000E-03 0.  1.
         12    1    3    3    0    0  0.30833749504E+01 -0.37248873758E+01 -0.38523473859E+01  0.61824402487E+01  0.00000000000E+00 0. -1.
</event>
<event>
 7    1  0.2732193E-010  0.4778727E+02  0.7816164E-02  0.1312668E+00
        -11   -1    0    0    0    0  0.00000000000E+00  0.00000000000E+00  0.45593999997E+02  0.45594000000E+02  0.51100000000E-03 0.  1.
         11   -1    0    0    0    0 -0.00000000000E+00 -0.00000000000E+00 -0.45593999997E+02  0.45594000000E+02  0.51100000000E-03 0. -1.
    9900012    2    1    2    0    0  0.18313903693E+02 -0.33508302234E+02 -0.20625663745E+02  0.47787269684E+02  0.19999993795E+02 0.  0.
        -12    1    1    2    0    0 -0.18313903693E+02  0.33508302234E+02  0.20625663745E+02  0.43400730316E+02  0.00000000000E+00 0.  1.
         11    1    3    3    0    0  0.19905866702E+02 -0.21673293865E+02 -0.16714160517E+02  0.33842847962E+02  0.51100000000E-03 0. -1.
        -11    1    3    3    0    0 -0.18186991057E+01 -0.35022137155E+00 -0.15421210365E+00  0.18585217460E+01  0.51100000000E-03 0.  1.
        -12    1    3    3    0    0  0.22673609673E+00 -0.11484786997E+02 -0.37572911241E+01  0.12085899976E+02  0.00000000000E+00 0.  1.
</event>
<event>
 7    1  0.2732193E-010  0.4778727E+02  0.7816164E-02  0.1312668E+00
        -11   -1    0    0    0    0  0.00000000000E+00  0.00000000000E+00  0.45593999997E+02  0.45594000000E+02  0.51100000000E-03 0.  1.
         11   -1    0    0    0    0 -0.00000000000E+00 -0.00000000000E+00 -0.45593999997E+02  0.45594000000E+02  0.51100000000E-03 0. -1.
    9900012    2    1    2    0    0 -0.29825196220E+02  0.73983798469E+01 -0.30648732025E+02  0.47787272717E+02  0.20000007627E+02 0.  0.
        -12    1    1    2    0    0  0.29825196220E+02 -0.73983798469E+01  0.30648732025E+02  0.43400727283E+02  0.00000000000E+00 0.  1.
         11    1    3    3    0    0 -0.23098782903E+01  0.22659165245E+01  0.18772682045E+01  0.37408624119E+01  0.51100000000E-03 0. -1.
        -11    1    3    3    0    0 -0.34533928676E+01 -0.27013197558E+01 -0.43772215928E+01  0.61954111933E+01  0.51100000000E-03 0.  1.
         12    1    3    3    0    0 -0.24061925062E+02  0.78337830782E+01 -0.28148778637E+02  0.37850999112E+02  0.00000000000E+00 0. -1.
</event>
<event>
 7    1  0.2732193E-010  0.4778727E+02  0.7816164E-02  0.1312668E+00
        -11   -1    0    0    0    0  0.00000000000E+00  0.00000000000E+00  0.45593999997E+02  0.45594000000E+02  0.51100000000E-03 0.  1.
         11   -1    0    0    0    0 -0.00000000000E+00 -0.00000000000E+00 -0.45593999997E+02  0.45594000000E+02  0.51100000000E-03 0. -1.
    9900012    2    1    2    0    0 -0.82538288528E+01  0.27532619607E+02 -0.32518492516E+02  0.47787272026E+02  0.20000004474E+02 0.  0.
        -12    1    1    2    0    0  0.82538288528E+01 -0.27532619607E+02  0.32518492516E+02  0.43400727974E+02  0.00000000000E+00 0.  1.
         11    1    3    3    0    0 -0.11033942891E+02  0.11998420128E+02 -0.10972635506E+02  0.19649649144E+02  0.51100000000E-03 0. -1.
        -11    1    3    3    0    0 -0.16311934107E+01 -0.16923131558E+00 -0.10662053268E+01  0.19560739355E+01  0.51100000000E-03 0.  1.
         12    1    3    3    0    0  0.44113074487E+01  0.15703430795E+02 -0.20479651683E+02  0.26181548946E+02  0.00000000000E+00 0. -1.
</event>
<event>
 7    1  0.2732193E-010  0.4778727E+02  0.7816164E-02  0.1312668E+00
        -11   -1    0    0    0    0  0.00000000000E+00  0.00000000000E+00  0.45593999997E+02  0.45594000000E+02  0.51100000000E-03 0.  1.
         11   -1    0    0    0    0 -0.00000000000E+00 -0.00000000000E+00 -0.45593999997E+02  0.45594000000E+02  0.51100000000E-03 0. -1.
    9900012    2    1    2    0    0 -0.42440374176E+02  0.49287502379E+01  0.76253291764E+01  0.47787267469E+02  0.19999983700E+02 0.  0.
        -12    1    1    2    0    0  0.42440374176E+02 -0.49287502379E+01 -0.76253291764E+01  0.43400732531E+02  0.00000000000E+00 0.  1.
         11    1    3    3    0    0 -0.58373938175E+01 -0.23413811837E+01 -0.25210715036E+01  0.67759157473E+01  0.51100000000E-03 0. -1.
        -11    1    3    3    0    0 -0.37262452302E+02  0.75007280317E+01  0.11307603924E+02  0.39656187151E+02  0.51100000000E-03 0.  1.
        -12    1    3    3    0    0  0.65947194309E+00 -0.23059661016E+00 -0.11612032445E+01  0.13551645714E+01  0.00000000000E+00 0.  1.
</event>
<event>
 7    1  0.2732193E-010  0.4778727E+02  0.7816164E-02  0.1312668E+00
        -11   -1    0    0    0    0  0.00000000000E+00  0.00000000000E+00  0.45593999997E+02  0.45594000000E+02  0.51100000000E-03 0.  1.
         11   -1    0    0    0    0 -0.00000000000E+00 -0.00000000000E+00 -0.45593999997E+02  0.45594000000E+02  0.51100000000E-03 0. -1.
    9900012    2    1    2    0    0 -0.35290057846E+02 -0.22143381329E+02 -0.12161662664E+02  0.47787267769E+02  0.19999985066E+02 0.  0.
        -12    1    1    2    0    0  0.35290057846E+02  0.22143381329E+02  0.12161662664E+02  0.43400732231E+02  0.00000000000E+00 0.  1.
         11    1    3    3    0    0 -0.51340881354E+01  0.93479646303E+00 -0.44062395970E+01  0.68299087151E+01  0.51100000000E-03 0. -1.
        -11    1    3    3    0    0 -0.25119270480E+02 -0.16237397019E+02 -0.70653236338E+00  0.29918723229E+02  0.51100000000E-03 0.  1.
        -12    1    3    3    0    0 -0.50366992302E+01 -0.68407807727E+01 -0.70488907038E+01  0.11038635825E+02  0.00000000000E+00 0.  1.
</event>
<event>
 7    1  0.2732193E-010  0.4778729E+02  0.7816164E-02  0.1312668E+00
        -11   -1    0    0    0    0  0.00000000000E+00  0.00000000000E+00  0.45593999997E+02  0.45594000000E+02  0.51100000000E-03 0.  1.
         11   -1    0    0    0    0 -0.00000000000E+00 -0.00000000000E+00 -0.45593999997E+02  0.45594000000E+02  0.51100000000E-03 0. -1.
    9900012    2    1    2    0    0  0.25119236653E+02  0.19213530298E+02 -0.29723483716E+02  0.47787294006E+02  0.20000104692E+02 0.  0.
        -12    1    1    2    0    0 -0.25119236653E+02 -0.19213530298E+02  0.29723483716E+02  0.43400705994E+02  0.00000000000E+00 0.  1.
         11    1    3    3    0    0  0.24219293597E+02  0.12775432912E+02 -0.17721182898E+02  0.32616348538E+02  0.51100000000E-03 0. -1.
        -11    1    3    3    0    0 -0.24874841656E+01  0.39266752940E+01 -0.40295957477E+01  0.61517475964E+01  0.51100000000E-03 0.  1.
        -12    1    3    3    0    0  0.33874272221E+01  0.25114220925E+01 -0.79727050703E+01  0.90191978717E+01  0.00000000000E+00 0.  1.
</event>
<event>
 7    1  0.2732193E-010  0.4778728E+02  0.7816164E-02  0.1312668E+00
        -11   -1    0    0    0    0  0.00000000000E+00  0.00000000000E+00  0.45593999997E+02  0.45594000000E+02  0.51100000000E-03 0.  1.
         11   -1    0    0    0    0 -0.00000000000E+00 -0.00000000000E+00 -0.45593999997E+02  0.45594000000E+02  0.51100000000E-03 0. -1.
    9900012    2    1    2    0    0 -0.14116848473E+02 -0.35755269570E+02 -0.20146910380E+02  0.47787277532E+02  0.20000029581E+02 0.  0.
        -12    1    1    2    0    0  0.14116848473E+02  0.35755269570E+02  0.20146910380E+02  0.43400722468E+02  0.00000000000E+00 0.  1.
         11    1    3    3    0    0  0.39352445470E+01 -0.51834225434E+01 -0.17922928473E+01  0.67502839066E+01  0.51100000000E-03 0. -1.
        -11    1    3    3    0    0 -0.41958271401E+01 -0.67770144445E+01 -0.46775369352E-01  0.79708894339E+01  0.51100000000E-03 0.  1.
         12    1    3    3    0    0 -0.13856265880E+02 -0.23794832582E+02 -0.18307842163E+02  0.33066104192E+02  0.00000000000E+00 0. -1.
</event>
<event>
 7    1  0.2732193E-010  0.4778727E+02  0.7816164E-02  0.1312668E+00
        -11   -1    0    0    0    0  0.00000000000E+00  0.00000000000E+00  0.45593999997E+02  0.45594000000E+02  0.51100000000E-03 0.  1.
         11   -1    0    0    0    0 -0.00000000000E+00 -0.00000000000E+00 -0.45593999997E+02  0.45594000000E+02  0.51100000000E-03 0. -1.
    9900012    2    1    2    0    0 -0.68144336226E+01 -0.38990458340E+02 -0.17802551229E+02  0.47787272156E+02  0.20000005067E+02 0.  0.
        -12    1    1    2    0    0  0.68144336226E+01  0.38990458340E+02  0.17802551229E+02  0.43400727844E+02  0.00000000000E+00 0.  1.
         11    1    3    3    0    0 -0.62095644779E-02 -0.21963726243E+02 -0.71528040944E+00  0.21975371109E+02  0.51100000000E-03 0. -1.
        -11    1    3    3    0    0 -0.77487161650E+01 -0.15828942727E+02 -0.14555496749E+02  0.22857395213E+02  0.51100000000E-03 0.  1.
        -12    1    3    3    0    0  0.94049210695E+00 -0.11977893697E+01 -0.25317740706E+01  0.29545058338E+01  0.00000000000E+00 0.  1.
</event>
<event>
 7    1  0.2732193E-010  0.4778723E+02  0.7816164E-02  0.1312668E+00
        -11   -1    0    0    0    0  0.00000000000E+00  0.00000000000E+00  0.45593999997E+02  0.45594000000E+02  0.51100000000E-03 0. -1.
         11   -1    0    0    0    0 -0.00000000000E+00 -0.00000000000E+00 -0.45593999997E+02  0.45594000000E+02  0.51100000000E-03 0.  1.
    9900012    2    1    2    0    0  0.94714593215E+01  0.22456277307E+02  0.35911471061E+02  0.47787231736E+02  0.19999820775E+02 0.  0.
        -12    1    1    2    0    0 -0.94714593215E+01 -0.22456277307E+02 -0.35911471061E+02  0.43400768264E+02  0.00000000000E+00 0.  1.
         11    1    3    3    0    0  0.98108421421E+01  0.94076571957E+01  0.60206412827E+01  0.14866228814E+02  0.51100000000E-03 0. -1.
        -11    1    3    3    0    0 -0.15618820372E+01  0.10577726720E+02  0.26326313585E+02  0.28414830024E+02  0.51100000000E-03 0.  1.
         12    1    3    3    0    0  0.12224992166E+01  0.24708933920E+01  0.35645161929E+01  0.45061728971E+01  0.00000000000E+00 0. -1.
</event>
<event>
 7    1  0.2732193E-010  0.4778727E+02  0.7816164E-02  0.1312668E+00
        -11   -1    0    0    0    0  0.00000000000E+00  0.00000000000E+00  0.45593999997E+02  0.45594000000E+02  0.51100000000E-03 0. -1.
         11   -1    0    0    0    0 -0.00000000000E+00 -0.00000000000E+00 -0.45593999997E+02  0.45594000000E+02  0.51100000000E-03 0.  1.
    9900012    2    1    2    0    0  0.52730051727E+01 -0.24929713792E+02  0.35133007676E+02  0.47787269112E+02  0.19999991187E+02 0.  0.
        -12    1    1    2    0    0 -0.52730051727E+01  0.24929713792E+02 -0.35133007676E+02  0.43400730888E+02  0.00000000000E+00 0.  1.
         11    1    3    3    0    0  0.16106718284E+00  0.42829516595E+00  0.79099233559E+01  0.79231475528E+01  0.51100000000E-03 0. -1.
        -11    1    3    3    0    0  0.69227750162E+01 -0.17090714704E+02  0.10750462506E+02  0.21344549360E+02  0.51100000000E-03 0.  1.
        -12    1    3    3    0    0 -0.18108370264E+01 -0.82672942543E+01  0.16472621813E+02  0.18519572199E+02  0.00000000000E+00 0.  1.
</event>
<event>
 7    1  0.2732193E-010  0.4778727E+02  0.7816164E-02  0.1312668E+00
        -11   -1    0    0    0    0  0.00000000000E+00  0.00000000000E+00  0.45593999997E+02  0.45594000000E+02  0.51100000000E-03 0. -1.
         11   -1    0    0    0    0 -0.00000000000E+00 -0.00000000000E+00 -0.45593999997E+02  0.45594000000E+02  0.51100000000E-03 0.  1.
    9900012    2    1    2    0    0  0.77197855734E+01 -0.14441237156E+02  0.40193021343E+02  0.47787269769E+02  0.19999994184E+02 0.  0.
        -12    1    1    2    0    0 -0.77197855734E+01  0.14441237156E+02 -0.40193021343E+02  0.43400730231E+02  0.00000000000E+00 0.  1.
         11    1    3    3    0    0  0.64346230306E+01 -0.69974789008E+01  0.45373436592E+01  0.10533592562E+02  0.51100000000E-03 0.  1.
        -11    1    3    3    0    0 -0.64739747477E+00 -0.80023814288E+01  0.21394201939E+02  0.22851019865E+02  0.51100000000E-03 0. -1.
        -12    1    3    3    0    0  0.19325600175E+01  0.55862317387E+00  0.14261475745E+02  0.14402657342E+02  0.00000000000E+00 0.  1.
</event>
<event>
 7    1  0.2732193E-010  0.4778728E+02  0.7816164E-02  0.1312668E+00
        -11   -1    0    0    0    0  0.00000000000E+00  0.00000000000E+00  0.45593999997E+02  0.45594000000E+02  0.51100000000E-03 0. -1.
         11   -1    0    0    0    0 -0.00000000000E+00 -0.00000000000E+00 -0.45593999997E+02  0.45594000000E+02  0.51100000000E-03 0.  1.
    9900012    2    1    2    0    0  0.22954432780E+02  0.28090533747E+02  0.23825160452E+02  0.47787281791E+02  0.20000048999E+02 0.  0.
        -12    1    1    2    0    0 -0.22954432780E+02 -0.28090533747E+02 -0.23825160452E+02  0.43400718209E+02  0.00000000000E+00 0.  1.
         11    1    3    3    0    0  0.50210558000E+01  0.12519746872E+02  0.16454707108E+02  0.21277040428E+02  0.51100000000E-03 0. -1.
        -11    1    3    3    0    0  0.11784687311E+02  0.14197125086E+02  0.26555010407E+01  0.18641054202E+02  0.51100000000E-03 0.  1.
         12    1    3    3    0    0  0.61486896692E+01  0.13736617891E+01  0.47149523033E+01  0.78691871615E+01  0.00000000000E+00 0. -1.
</event>
<event>
 7    1  0.2732193E-010  0.4778727E+02  0.7816164E-02  0.1312668E+00
        -11   -1    0    0    0    0  0.00000000000E+00  0.00000000000E+00  0.45593999997E+02  0.45594000000E+02  0.51100000000E-03 0. -1.
         11   -1    0    0    0    0 -0.00000000000E+00 -0.00000000000E+00 -0.45593999997E+02  0.45594000000E+02  0.51100000000E-03 0.  1.
    9900012    2    1    2    0    0 -0.37405094553E+02 -0.19178840164E+02  0.10800684350E+02  0.47787265087E+02  0.19999972839E+02 0.  0.
        -12    1    1    2    0    0  0.37405094553E+02  0.19178840164E+02 -0.10800684350E+02  0.43400734913E+02  0.00000000000E+00 0.  1.
         11    1    3    3    0    0 -0.37686581781E+01 -0.29931862006E+01  0.37786065044E+01  0.61188083375E+01  0.51100000000E-03 0. -1.
        -11    1    3    3    0    0  0.93441221488E+00 -0.28722208492E+01  0.32409693585E+01  0.44301988034E+01  0.51100000000E-03 0.  1.
        -12    1    3    3    0    0 -0.34570848589E+02 -0.13313433114E+02  0.37811084873E+01  0.37238257946E+02  0.00000000000E+00 0.  1.
</event>
<event>
 7    1  0.2732193E-010  0.4778727E+02  0.7816164E-02  0.1312668E+00
        -11   -1    0    0    0    0  0.00000000000E+00  0.00000000000E+00  0.45593999997E+02  0.45594000000E+02  0.51100000000E-03 0. -1.
         11   -1    0    0    0    0 -0.00000000000E+00 -0.00000000000E+00 -0.45593999997E+02  0.45594000000E+02  0.51100000000E-03 0.  1.
    9900012    2    1    2    0    0  0.25969795102E+02 -0.13928711044E+02 -0.31861953016E+02  0.47787270755E+02  0.19999998683E+02 0.  0.
        -12    1    1    2    0    0 -0.25969795102E+02  0.13928711044E+02  0.31861953016E+02  0.43400729245E+02  0.00000000000E+00 0.  1.
         11    1    3    3    0    0  0.69157379569E+01 -0.13214751681E+02 -0.16039981591E+02  0.21902924535E+02  0.51100000000E-03 0. -1.
        -11    1    3    3    0    0  0.46109734803E+01  0.18417200097E+01 -0.75754061539E+01  0.90575817793E+01  0.51100000000E-03 0.  1.
         12    1    3    3    0    0  0.14443083664E+02 -0.25556793721E+01 -0.82465652713E+01  0.16826764441E+02  0.00000000000E+00 0. -1.
</event>
<event>
 7    1  0.2732193E-010  0.4778727E+02  0.7816164E-02  0.1312668E+00
        -11   -1    0    0    0    0  0.00000000000E+00  0.00000000000E+00  0.45593999997E+02  0.45594000000E+02  0.51100000000E-03 0.  1.
         11   -1    0    0    0    0 -0.00000000000E+00 -0.00000000000E+00 -0.45593999997E+02  0.45594000000E+02  0.51100000000E-03 0. -1.
    9900012    2    1    2    0    0  0.30755894960E+02  0.24734626356E+02 -0.18052601891E+02  0.47787271310E+02  0.20000001209E+02 0.  0.
        -12    1    1    2    0    0 -0.30755894960E+02 -0.24734626356E+02  0.18052601891E+02  0.43400728690E+02  0.00000000000E+00 0.  1.
         11    1    3    3    0    0  0.11272672665E+02  0.97177968130E+01 -0.15917920804E+02  0.21791946377E+02  0.51100000000E-03 0. -1.
        -11    1    3    3    0    0  0.74936698006E+01  0.13741403909E+01  0.53684482976E+00  0.76375095107E+01  0.51100000000E-03 0.  1.
         12    1    3    3    0    0  0.11989552495E+02  0.13642689153E+02 -0.26715259166E+01  0.18357815422E+02  0.00000000000E+00 0. -1.
</event>
<event>
 7    1  0.2732193E-010  0.4778727E+02  0.7816164E-02  0.1312668E+00
        -11   -1    0    0    0    0  0.00000000000E+00  0.00000000000E+00  0.45593999997E+02  0.45594000000E+02  0.51100000000E-03 0.  1.
         11   -1    0    0    0    0 -0.00000000000E+00 -0.00000000000E+00 -0.45593999997E+02  0.45594000000E+02  0.51100000000E-03 0. -1.
    9900012    2    1    2    0    0 -0.19846642716E+02 -0.21385627465E+02 -0.32130814971E+02  0.47787267750E+02  0.19999984979E+02 0.  0.
        -12    1    1    2    0    0  0.19846642716E+02  0.21385627465E+02  0.32130814971E+02  0.43400732250E+02  0.00000000000E+00 0.  1.
         11    1    3    3    0    0 -0.12816624866E+02 -0.42705453921E+01 -0.10717848057E+02  0.17244584603E+02  0.51100000000E-03 0. -1.
        -11    1    3    3    0    0  0.81278173539E+00 -0.10232426323E+02 -0.58776797162E+01  0.11828367669E+02  0.51100000000E-03 0.  1.
        -12    1    3    3    0    0 -0.78427995857E+01 -0.68826557499E+01 -0.15535287197E+02  0.18714315478E+02  0.00000000000E+00 0.  1.
</event>
<event>
 7    1  0.2732193E-010  0.4778728E+02  0.7816164E-02  0.1312668E+00
        -11   -1    0    0    0    0  0.00000000000E+00  0.00000000000E+00  0.45593999997E+02  0.45594000000E+02  0.51100000000E-03 0. -1.
         11   -1    0    0    0    0 -0.00000000000E+00 -0.00000000000E+00 -0.45593999997E+02  0.45594000000E+02  0.51100000000E-03 0.  1.
    9900012    2    1    2    0    0  0.29229758021E+02  0.31437032914E+02  0.63997615398E+01  0.47787277193E+02  0.20000028035E+02 0.  0.
        -12    1    1    2    0    0 -0.29229758021E+02 -0.31437032914E+02 -0.63997615398E+01  0.43400722807E+02  0.00000000000E+00 0.  1.
         11    1    3    3    0    0  0.46384961812E+01  0.46519368292E+01  0.87298611465E+00  0.66270859436E+01  0.51100000000E-03 0. -1.
        -11    1    3    3    0    0  0.47708065610E+00  0.29532893839E+01 -0.48550635846E+01  0.57027332753E+01  0.51100000000E-03 0.  1.
        -12    1    3    3    0    0  0.24114181184E+02  0.23831806701E+02  0.10381839010E+02  0.35457457974E+02  0.00000000000E+00 0.  1.
</event>
<event>
 7    1  0.2732193E-010  0.4778727E+02  0.7816164E-02  0.1312668E+00
        -11   -1    0    0    0    0  0.00000000000E+00  0.00000000000E+00  0.45593999997E+02  0.45594000000E+02  0.51100000000E-03 0.  1.
         11   -1    0    0    0    0 -0.00000000000E+00 -0.00000000000E+00 -0.45593999997E+02  0.45594000000E+02  0.51100000000E-03 0. -1.
    9900012    2    1    2    0    0  0.20331938650E+02  0.19540232708E+02 -0.32991129084E+02  0.47787273948E+02  0.20000013239E+02 0.  0.
        -12    1    1    2    0    0 -0.20331938650E+02 -0.19540232708E+02  0.32991129084E+02  0.43400726052E+02  0.00000000000E+00 0.  1.
         11    1    3    3    0    0  0.11199916865E+02  0.61782232461E+01 -0.16741141278E+02  0.21068326744E+02  0.51100000000E-03 0. -1.
        -11    1    3    3    0    0 -0.33700505950E+01  0.11211156110E+01 -0.15858100129E+01  0.38895931515E+01  0.51100000000E-03 0.  1.
        -12    1    3    3    0    0  0.12502072380E+02  0.12240893851E+02 -0.14664177794E+02  0.22829354052E+02  0.00000000000E+00 0.  1.
</event>
<event>
 7    1  0.2732193E-010  0.4778727E+02  0.7816164E-02  0.1312668E+00
        -11   -1    0    0    0    0  0.00000000000E+00  0.00000000000E+00  0.45593999997E+02  0.45594000000E+02  0.51100000000E-03 0.  1.
         11   -1    0    0    0    0 -0.00000000000E+00 -0.00000000000E+00 -0.45593999997E+02  0.45594000000E+02  0.51100000000E-03 0. -1.
    9900012    2    1    2    0    0 -0.34082035026E+02 -0.26833457772E+02  0.14155395644E+01  0.47787270516E+02  0.19999997590E+02 0.  0.
        -12    1    1    2    0    0  0.34082035026E+02  0.26833457772E+02 -0.14155395644E+01  0.43400729484E+02  0.00000000000E+00 0.  1.
         11    1    3    3    0    0 -0.13875412626E+02 -0.69419758183E+01 -0.22186767214E+01  0.15672926672E+02  0.51100000000E-03 0. -1.
        -11    1    3    3    0    0 -0.12076824506E+02 -0.63958327792E+01  0.79090096661E+01  0.15789515548E+02  0.51100000000E-03 0.  1.
        -12    1    3    3    0    0 -0.81297978933E+01 -0.13495649175E+02 -0.42747933804E+01  0.16324828296E+02  0.00000000000E+00 0.  1.
</event>
<event>
 7    1  0.2732193E-010  0.4778727E+02  0.7816164E-02  0.1312668E+00
        -11   -1    0    0    0    0  0.00000000000E+00  0.00000000000E+00  0.45593999997E+02  0.45594000000E+02  0.51100000000E-03 0.  1.
         11   -1    0    0    0    0 -0.00000000000E+00 -0.00000000000E+00 -0.45593999997E+02  0.45594000000E+02  0.51100000000E-03 0. -1.
    9900012    2    1    2    0    0  0.44131950938E+01  0.10604215385E+02 -0.41853286027E+02  0.47787271594E+02  0.20000002506E+02 0.  0.
        -12    1    1    2    0    0 -0.44131950938E+01 -0.10604215385E+02  0.41853286027E+02  0.43400728406E+02  0.00000000000E+00 0.  1.
         11    1    3    3    0    0  0.27066127001E+01  0.13519781480E+02 -0.23639228313E+02  0.27366464132E+02  0.51100000000E-03 0. -1.
        -11    1    3    3    0    0 -0.24964928431E+01  0.96147205300E+00 -0.23612585014E+01  0.35682554556E+01  0.51100000000E-03 0.  1.
         12    1    3    3    0    0  0.42030752368E+01 -0.38770381482E+01 -0.15852799213E+02  0.16852552007E+02  0.00000000000E+00 0. -1.
</event>
<event>
 7    1  0.2732193E-010  0.4778727E+02  0.7816164E-02  0.1312668E+00
        -11   -1    0    0    0    0  0.00000000000E+00  0.00000000000E+00  0.45593999997E+02  0.45594000000E+02  0.51100000000E-03 0. -1.
         11   -1    0    0    0    0 -0.00000000000E+00 -0.00000000000E+00 -0.45593999997E+02  0.45594000000E+02  0.51100000000E-03 0.  1.
    9900012    2    1    2    0    0 -0.13190364838E+02 -0.63452449905E+01  0.40857994376E+02  0.47787267714E+02  0.19999984813E+02 0.  0.
        -12    1    1    2    0    0  0.13190364838E+02  0.63452449905E+01 -0.40857994376E+02  0.43400732286E+02  0.00000000000E+00 0.  1.
         11    1    3    3    0    0 -0.27705691345E+01 -0.71658867958E+01  0.29929243531E+02  0.30899605265E+02  0.51100000000E-03 0. -1.
        -11    1    3    3    0    0 -0.22147411169E+01  0.35394338599E+01  0.28408652264E+01  0.50500678965E+01  0.51100000000E-03 0.  1.
         12    1    3    3    0    0 -0.82050545870E+01 -0.27187920545E+01  0.80878856186E+01  0.11837594553E+02  0.00000000000E+00 0. -1.
</event>
<event>
 7    1  0.2732193E-010  0.4778726E+02  0.7816164E-02  0.1312668E+00
        -11   -1    0    0    0    0  0.00000000000E+00  0.00000000000E+00  0.45593999997E+02  0.45594000000E+02  0.51100000000E-03 0.  1.
         11   -1    0    0    0    0 -0.00000000000E+00 -0.00000000000E+00 -0.45593999997E+02  0.45594000000E+02  0.51100000000E-03 0. -1.
    9900012    2    1    2    0    0  0.15679907952E+02 -0.51989872355E+01 -0.40133961896E+02  0.47787264071E+02  0.19999968207E+02 0.  0.
        -12    1    1    2    0    0 -0.15679907952E+02  0.51989872355E+01  0.40133961896E+02  0.43400735929E+02  0.00000000000E+00 0.  1.
         11    1    3    3    0    0  0.11071827857E+02 -0.65930968417E+01 -0.16632766230E+02  0.21040513558E+02  0.51100000000E-03 0. -1.
        -11    1    3    3    0    0  0.35807366572E+01  0.62561880045E+01 -0.97513069465E+01  0.12126398921E+02  0.51100000000E-03 0.  1.
        -12    1    3    3    0    0  0.10273434375E+01 -0.48620783982E+01 -0.13749888719E+02  0.14620351592E+02  0.00000000000E+00 0.  1.
</event>
<event>
 7    1  0.2732193E-010  0.4778727E+02  0.7816164E-02  0.1312668E+00
        -11   -1    0    0    0    0  0.00000000000E+00  0.00000000000E+00  0.45593999997E+02  0.45594000000E+02  0.51100000000E-03 0.  1.
         11   -1    0    0    0    0 -0.00000000000E+00 -0.00000000000E+00 -0.45593999997E+02  0.45594000000E+02  0.51100000000E-03 0. -1.
    9900012    2    1    2    0    0  0.30335837900E+02  0.19765327288E+02 -0.23930985479E+02  0.47787270860E+02  0.19999999160E+02 0.  0.
        -12    1    1    2    0    0 -0.30335837900E+02 -0.19765327288E+02  0.23930985479E+02  0.43400729140E+02  0.00000000000E+00 0.  1.
         11    1    3    3    0    0  0.12230624752E+02 -0.15401936860E+01 -0.53865255349E+01  0.13452696236E+02  0.51100000000E-03 0. -1.
        -11    1    3    3    0    0  0.19692597270E+01  0.71850464432E+01 -0.50270366470E+01  0.89874342265E+01  0.51100000000E-03 0.  1.
         12    1    3    3    0    0  0.16135953421E+02  0.14120474531E+02 -0.13517423297E+02  0.25347140398E+02  0.00000000000E+00 0. -1.
</event>
<event>
 7    1  0.2732193E-010  0.4778727E+02  0.7816164E-02  0.1312668E+00
        -11   -1    0    0    0    0  0.00000000000E+00  0.00000000000E+00  0.45593999997E+02  0.45594000000E+02  0.51100000000E-03 0.  1.
         11   -1    0    0    0    0 -0.00000000000E+00 -0.00000000000E+00 -0.45593999997E+02  0.45594000000E+02  0.51100000000E-03 0. -1.
    9900012    2    1    2    0    0 -0.58952789560E+01 -0.88557429175E+01 -0.42076652700E+02  0.47787271907E+02  0.20000003931E+02 0.  0.
        -12    1    1    2    0    0  0.58952789560E+01  0.88557429175E+01  0.42076652700E+02  0.43400728093E+02  0.00000000000E+00 0.  1.
         11    1    3    3    0    0 -0.66567844283E+01 -0.80062158255E+01 -0.13764458873E+02  0.17258986039E+02  0.51100000000E-03 0. -1.
        -11    1    3    3    0    0  0.15240646323E+01 -0.45790770425E+01 -0.51596918006E+01  0.70649231632E+01  0.51100000000E-03 0.  1.
         12    1    3    3    0    0 -0.76255915998E+00  0.37295499505E+01 -0.23152502026E+02  0.23463362704E+02  0.00000000000E+00 0. -1.
</event>
<event>
 7    1  0.2732193E-010  0.4778727E+02  0.7816164E-02  0.1312668E+00
        -11   -1    0    0    0    0  0.00000000000E+00  0.00000000000E+00  0.45593999997E+02  0.45594000000E+02  0.51100000000E-03 0.  1.
         11   -1    0    0    0    0 -0.00000000000E+00 -0.00000000000E+00 -0.45593999997E+02  0.45594000000E+02  0.51100000000E-03 0. -1.
    9900012    2    1    2    0    0 -0.39448147138E+02  0.12208323056E+02 -0.13357544903E+02  0.47787268782E+02  0.19999989683E+02 0.  0.
        -12    1    1    2    0    0  0.39448147138E+02 -0.12208323056E+02  0.13357544903E+02  0.43400731218E+02  0.00000000000E+00 0.  1.
         11    1    3    3    0    0 -0.14616660433E+02 -0.33420650661E+01 -0.31846689916E+01  0.15328348834E+02  0.51100000000E-03 0. -1.
        -11    1    3    3    0    0 -0.86992389482E+01  0.10681410424E+02 -0.27597760945E+01  0.14049400388E+02  0.51100000000E-03 0.  1.
        -12    1    3    3    0    0 -0.16132247757E+02  0.48689776979E+01 -0.74130998169E+01  0.18409519559E+02  0.00000000000E+00 0.  1.
</event>
<event>
 7    1  0.2732193E-010  0.4778727E+02  0.7816164E-02  0.1312668E+00
        -11   -1    0    0    0    0  0.00000000000E+00  0.00000000000E+00  0.45593999997E+02  0.45594000000E+02  0.51100000000E-03 0.  1.
         11   -1    0    0    0    0 -0.00000000000E+00 -0.00000000000E+00 -0.45593999997E+02  0.45594000000E+02  0.51100000000E-03 0. -1.
    9900012    2    1    2    0    0 -0.33711304046E+02 -0.17763623242E+02 -0.20775588908E+02  0.47787269296E+02  0.19999992027E+02 0.  0.
        -12    1    1    2    0    0  0.33711304046E+02  0.17763623242E+02  0.20775588908E+02  0.43400730704E+02  0.00000000000E+00 0.  1.
         11    1    3    3    0    0 -0.14009018572E+02 -0.11152628144E+02 -0.19174526276E+02  0.26235399254E+02  0.51100000000E-03 0. -1.
        -11    1    3    3    0    0 -0.30548736588E+01 -0.76958095050E-01  0.14951973183E+01  0.34020274693E+01  0.51100000000E-03 0.  1.
         12    1    3    3    0    0 -0.16647411815E+02 -0.65340370030E+01 -0.30962599504E+01  0.18149842572E+02  0.00000000000E+00 0. -1.
</event>
<event>
 7    1  0.2732193E-010  0.4778728E+02  0.7816164E-02  0.1312668E+00
        -11   -1    0    0    0    0  0.00000000000E+00  0.00000000000E+00  0.45593999997E+02  0.45594000000E+02  0.51100000000E-03 0.  1.
         11   -1    0    0    0    0 -0.00000000000E+00 -0.00000000000E+00 -0.45593999997E+02  0.45594000000E+02  0.51100000000E-03 0. -1.
    9900012    2    1    2    0    0  0.21245394075E+02  0.30549643751E+02  0.22337756868E+02  0.47787275529E+02  0.20000020446E+02 0.  0.
        -12    1    1    2    0    0 -0.21245394075E+02 -0.30549643751E+02 -0.22337756868E+02  0.43400724471E+02  0.00000000000E+00 0.  1.
         11    1    3    3    0    0 -0.11522690081E+01  0.86183749834E+01  0.46077276146E+00  0.87072626594E+01  0.51100000000E-03 0. -1.
        -11    1    3    3    0    0  0.10277291343E+02  0.70981906137E+01  0.12795432211E+02  0.17880998659E+02  0.51100000000E-03 0.  1.
         12    1    3    3    0    0  0.12120371740E+02  0.14833078154E+02  0.90815518962E+01  0.21199014210E+02  0.00000000000E+00 0. -1.
</event>
<event>
 7    1  0.2732193E-010  0.4778727E+02  0.7816164E-02  0.1312668E+00
        -11   -1    0    0    0    0  0.00000000000E+00  0.00000000000E+00  0.45593999997E+02  0.45594000000E+02  0.51100000000E-03 0.  1.
         11   -1    0    0    0    0 -0.00000000000E+00 -0.00000000000E+00 -0.45593999997E+02  0.45594000000E+02  0.51100000000E-03 0. -1.
    9900012    2    1    2    0    0  0.29883350591E+02  0.27746322911E+02 -0.14857667763E+02  0.47787269949E+02  0.19999995005E+02 0.  0.
        -12    1    1    2    0    0 -0.29883350591E+02 -0.27746322911E+02  0.14857667763E+02  0.43400730051E+02  0.00000000000E+00 0.  1.
         11    1    3    3    0    0  0.24112330812E+02  0.12953201176E+02 -0.56792088823E+01  0.27954307927E+02  0.51100000000E-03 0. -1.
        -11    1    3    3    0    0 -0.13620610242E+01  0.27996379757E+00 -0.48297409046E+00  0.14720238431E+01  0.51100000000E-03 0.  1.
         12    1    3    3    0    0  0.71330808027E+01  0.14513157938E+02 -0.86954847904E+01  0.18360938179E+02  0.00000000000E+00 0. -1.
</event>
<event>
 7    1  0.2732193E-010  0.4778727E+02  0.7816164E-02  0.1312668E+00
        -11   -1    0    0    0    0  0.00000000000E+00  0.00000000000E+00  0.45593999997E+02  0.45594000000E+02  0.51100000000E-03 0.  1.
         11   -1    0    0    0    0 -0.00000000000E+00 -0.00000000000E+00 -0.45593999997E+02  0.45594000000E+02  0.51100000000E-03 0. -1.
    9900012    2    1    2    0    0 -0.32769605573E+02 -0.18253713808E+02 -0.21830671707E+02  0.47787270233E+02  0.19999996299E+02 0.  0.
        -12    1    1    2    0    0  0.32769605573E+02  0.18253713808E+02  0.21830671707E+02  0.43400729767E+02  0.00000000000E+00 0.  1.
         11    1    3    3    0    0 -0.15159489094E+02  0.12730693881E+00 -0.42974840440E+01  0.15757369261E+02  0.51100000000E-03 0. -1.
        -11    1    3    3    0    0 -0.27592386955E+01 -0.34944385514E+01  0.29431638288E+00  0.44621879568E+01  0.51100000000E-03 0.  1.
         12    1    3    3    0    0 -0.14850877783E+02 -0.14886582195E+02 -0.17827504045E+02  0.27567713015E+02  0.00000000000E+00 0. -1.
</event>
<event>
 7    1  0.2732193E-010  0.4778727E+02  0.7816164E-02  0.1312668E+00
        -11   -1    0    0    0    0  0.00000000000E+00  0.00000000000E+00  0.45593999997E+02  0.45594000000E+02  0.51100000000E-03 0.  1.
         11   -1    0    0    0    0 -0.00000000000E+00 -0.00000000000E+00 -0.45593999997E+02  0.45594000000E+02  0.51100000000E-03 0. -1.
    9900012    2    1    2    0    0 -0.79181756042E+01 -0.60635346667E+00 -0.42668004038E+02  0.47787265697E+02  0.19999975621E+02 0.  0.
        -12    1    1    2    0    0  0.79181756042E+01  0.60635346667E+00  0.42668004038E+02  0.43400734303E+02  0.00000000000E+00 0.  1.
         11    1    3    3    0    0  0.50705591674E+01 -0.45481430132E+01 -0.21581313794E+02  0.22630715421E+02  0.51100000000E-03 0. -1.
        -11    1    3    3    0    0 -0.51443736786E+01  0.25709851407E+01 -0.85277088950E+01  0.10285735968E+02  0.51100000000E-03 0.  1.
         12    1    3    3    0    0 -0.78443610930E+01  0.13708044059E+01 -0.12558981349E+02  0.14870814309E+02  0.00000000000E+00 0. -1.
</event>
<event>
 7    1  0.2732193E-010  0.4778726E+02  0.7816164E-02  0.1312668E+00
        -11   -1    0    0    0    0  0.00000000000E+00  0.00000000000E+00  0.45593999997E+02  0.45594000000E+02  0.51100000000E-03 0. -1.
         11   -1    0    0    0    0 -0.00000000000E+00 -0.00000000000E+00 -0.45593999997E+02  0.45594000000E+02  0.51100000000E-03 0.  1.
    9900012    2    1    2    0    0 -0.45949341776E+01  0.40690369485E+02  0.14380697892E+02  0.47787261978E+02  0.19999958665E+02 0.  0.
        -12    1    1    2    0    0  0.45949341776E+01 -0.40690369485E+02 -0.14380697892E+02  0.43400738022E+02  0.00000000000E+00 0.  1.
         11    1    3    3    0    0 -0.73558767719E+01  0.39069536994E+02  0.10038897764E+02  0.41003867044E+02  0.51100000000E-03 0. -1.
        -11    1    3    3    0    0  0.29159744480E+01  0.25391954786E+01  0.43909841772E+01  0.58507403775E+01  0.51100000000E-03 0.  1.
         12    1    3    3    0    0 -0.15503185361E+00 -0.91836298705E+00 -0.49184049121E-01  0.93265455680E+00  0.00000000000E+00 0. -1.
</event>
<event>
 7    1  0.2732193E-010  0.4778727E+02  0.7816164E-02  0.1312668E+00
        -11   -1    0    0    0    0  0.00000000000E+00  0.00000000000E+00  0.45593999997E+02  0.45594000000E+02  0.51100000000E-03 0.  1.
         11   -1    0    0    0    0 -0.00000000000E+00 -0.00000000000E+00 -0.45593999997E+02  0.45594000000E+02  0.51100000000E-03 0. -1.
    9900012    2    1    2    0    0 -0.43149224580E+02  0.37381918046E+01  0.27916738105E+01  0.47787273019E+02  0.20000009001E+02 0.  0.
        -12    1    1    2    0    0  0.43149224580E+02 -0.37381918046E+01 -0.27916738105E+01  0.43400726981E+02  0.00000000000E+00 0.  1.
         11    1    3    3    0    0 -0.11327203869E+02  0.50415691027E+01 -0.37662483777E+01  0.12957916253E+02  0.51100000000E-03 0. -1.
        -11    1    3    3    0    0 -0.36769993480E+01 -0.94259007326E+00 -0.32755298570E+01  0.50137706725E+01  0.51100000000E-03 0.  1.
         12    1    3    3    0    0 -0.28145021363E+02 -0.36078722489E+00  0.98334520452E+01  0.29815586093E+02  0.00000000000E+00 0. -1.
</event>
<event>
 7    1  0.2732193E-010  0.4778727E+02  0.7816164E-02  0.1312668E+00
        -11   -1    0    0    0    0  0.00000000000E+00  0.00000000000E+00  0.45593999997E+02  0.45594000000E+02  0.51100000000E-03 0. -1.
         11   -1    0    0    0    0 -0.00000000000E+00 -0.00000000000E+00 -0.45593999997E+02  0.45594000000E+02  0.51100000000E-03 0.  1.
    9900012    2    1    2    0    0 -0.15433305059E+02 -0.79305788376E+01  0.39781186512E+02  0.47787265144E+02  0.19999973096E+02 0.  0.
        -12    1    1    2    0    0  0.15433305059E+02  0.79305788376E+01 -0.39781186512E+02  0.43400734856E+02  0.00000000000E+00 0.  1.
         11    1    3    3    0    0 -0.16092144068E+02 -0.75548862755E+00  0.15624474002E+02  0.22442193562E+02  0.51100000000E-03 0. -1.
        -11    1    3    3    0    0  0.14558249832E+01 -0.34169569112E+01  0.97046703309E+01  0.10391133115E+02  0.51100000000E-03 0.  1.
         12    1    3    3    0    0 -0.79698597444E+00 -0.37581332989E+01  0.14452042179E+02  0.14953938467E+02  0.00000000000E+00 0. -1.
</event>
<event>
 7    1  0.2732193E-010  0.4778727E+02  0.7816164E-02  0.1312668E+00
        -11   -1    0    0    0    0  0.00000000000E+00  0.00000000000E+00  0.45593999997E+02  0.45594000000E+02  0.51100000000E-03 0. -1.
         11   -1    0    0    0    0 -0.00000000000E+00 -0.00000000000E+00 -0.45593999997E+02  0.45594000000E+02  0.51100000000E-03 0.  1.
    9900012    2    1    2    0    0  0.26499866062E+02 -0.31284398040E+02  0.14236098069E+02  0.47787274773E+02  0.20000016999E+02 0.  0.
        -12    1    1    2    0    0 -0.26499866062E+02  0.31284398040E+02 -0.14236098069E+02  0.43400725227E+02  0.00000000000E+00 0.  1.
         11    1    3    3    0    0 -0.14026265507E+00  0.13257167866E+01  0.35975161121E+01  0.38365767357E+01  0.51100000000E-03 0. -1.
        -11    1    3    3    0    0  0.46561995138E+01 -0.23398304133E+01  0.84582735930E+00  0.52792446863E+01  0.51100000000E-03 0.  1.
         12    1    3    3    0    0  0.21983929203E+02 -0.30270284413E+02  0.97927545974E+01  0.38671453351E+02  0.00000000000E+00 0. -1.
</event>
<event>
 7    1  0.2732193E-010  0.4778727E+02  0.7816164E-02  0.1312668E+00
        -11   -1    0    0    0    0  0.00000000000E+00  0.00000000000E+00  0.45593999997E+02  0.45594000000E+02  0.51100000000E-03 0.  1.
         11   -1    0    0    0    0 -0.00000000000E+00 -0.00000000000E+00 -0.45593999997E+02  0.45594000000E+02  0.51100000000E-03 0. -1.
    9900012    2    1    2    0    0 -0.47599363510E+01  0.43119077568E+02  0.13082416830E+01  0.47787270274E+02  0.19999996489E+02 0.  0.
        -12    1    1    2    0    0  0.47599363510E+01 -0.43119077568E+02 -0.13082416830E+01  0.43400729726E+02  0.00000000000E+00 0.  1.
         11    1    3    3    0    0  0.42889197586E+01  0.31463789310E+02  0.59067902779E+01  0.32299458851E+02  0.51100000000E-03 0.  1.
        -11    1    3    3    0    0 -0.57103953047E+01  0.80795822069E+01 -0.29160484763E+01  0.10314630490E+02  0.51100000000E-03 0. -1.
        -12    1    3    3    0    0 -0.33384608050E+01  0.35757060517E+01 -0.16825001186E+01  0.51731809328E+01  0.00000000000E+00 0.  1.
</event>
<event>
 7    1  0.2732193E-010  0.4778727E+02  0.7816164E-02  0.1312668E+00
        -11   -1    0    0    0    0  0.00000000000E+00  0.00000000000E+00  0.45593999997E+02  0.45594000000E+02  0.51100000000E-03 0.  1.
         11   -1    0    0    0    0 -0.00000000000E+00 -0.00000000000E+00 -0.45593999997E+02  0.45594000000E+02  0.51100000000E-03 0. -1.
    9900012    2    1    2    0    0 -0.58126734003E+01  0.12707292343E+02 -0.41089672501E+02  0.47787266861E+02  0.19999980925E+02 0.  0.
        -12    1    1    2    0    0  0.58126734003E+01 -0.12707292343E+02  0.41089672501E+02  0.43400733139E+02  0.00000000000E+00 0.  1.
         11    1    3    3    0    0 -0.91817236396E+01  0.67322782504E+01 -0.31400645536E+02  0.33401020340E+02  0.51100000000E-03 0. -1.
        -11    1    3    3    0    0 -0.10832439094E+01 -0.12629608113E+01 -0.34944395121E+01  0.38703481940E+01  0.51100000000E-03 0.  1.
         12    1    3    3    0    0  0.44522941487E+01  0.72379749038E+01 -0.61945874534E+01  0.10515898326E+02  0.00000000000E+00 0. -1.
</event>
<event>
 7    1  0.2732193E-010  0.4778727E+02  0.7816164E-02  0.1312668E+00
        -11   -1    0    0    0    0  0.00000000000E+00  0.00000000000E+00  0.45593999997E+02  0.45594000000E+02  0.51100000000E-03 0. -1.
         11   -1    0    0    0    0 -0.00000000000E+00 -0.00000000000E+00 -0.45593999997E+02  0.45594000000E+02  0.51100000000E-03 0.  1.
    9900012    2    1    2    0    0 -0.84042948946E+01 -0.36645644684E+02  0.21681510790E+02  0.47787270085E+02  0.19999995627E+02 0.  0.
        -12    1    1    2    0    0  0.84042948946E+01  0.36645644684E+02 -0.21681510790E+02  0.43400729915E+02  0.00000000000E+00 0.  1.
         11    1    3    3    0    0  0.29559096711E+01 -0.17493622937E+01  0.68061828119E+01  0.76237651557E+01  0.51100000000E-03 0. -1.
        -11    1    3    3    0    0 -0.10636490459E+02 -0.26189562180E+02  0.91218159437E+01  0.29702451462E+02  0.51100000000E-03 0.  1.
        -12    1    3    3    0    0 -0.72371410687E+00 -0.87067202100E+01  0.57535120347E+01  0.10461053468E+02  0.00000000000E+00 0.  1.
</event>
<event>
 7    1  0.2732193E-010  0.4778727E+02  0.7816164E-02  0.1312668E+00
        -11   -1    0    0    0    0  0.00000000000E+00  0.00000000000E+00  0.45593999997E+02  0.45594000000E+02  0.51100000000E-03 0.  1.
         11   -1    0    0    0    0 -0.00000000000E+00 -0.00000000000E+00 -0.45593999997E+02  0.45594000000E+02  0.51100000000E-03 0. -1.
    9900012    2    1    2    0    0  0.17781341391E+02 -0.34384802446E+02 -0.19624794251E+02  0.47787270855E+02  0.19999999136E+02 0.  0.
        -12    1    1    2    0    0 -0.17781341391E+02  0.34384802446E+02  0.19624794251E+02  0.43400729145E+02  0.00000000000E+00 0.  1.
         11    1    3    3    0    0  0.89740271894E+01 -0.24013090699E+02 -0.17299370058E+02  0.30926200762E+02  0.51100000000E-03 0. -1.
        -11    1    3    3    0    0  0.49887788979E+01 -0.10675723036E+02  0.94856285825E+00  0.11821960455E+02  0.51100000000E-03 0.  1.
         12    1    3    3    0    0  0.38185353036E+01  0.30401128914E+00 -0.32739870519E+01  0.50391096381E+01  0.00000000000E+00 0. -1.
</event>
<event>
 7    1  0.2732193E-010  0.4778727E+02  0.7816164E-02  0.1312668E+00
        -11   -1    0    0    0    0  0.00000000000E+00  0.00000000000E+00  0.45593999997E+02  0.45594000000E+02  0.51100000000E-03 0.  1.
         11   -1    0    0    0    0 -0.00000000000E+00 -0.00000000000E+00 -0.45593999997E+02  0.45594000000E+02  0.51100000000E-03 0. -1.
    9900012    2    1    2    0    0  0.33208583167E+02 -0.11490515436E+02 -0.25471185975E+02  0.47787271252E+02  0.20000000945E+02 0.  0.
        -12    1    1    2    0    0 -0.33208583167E+02  0.11490515436E+02  0.25471185975E+02  0.43400728748E+02  0.00000000000E+00 0.  1.
         11    1    3    3    0    0  0.11863340875E+02 -0.55071452896E+01 -0.16883230052E+01  0.13187795145E+02  0.51100000000E-03 0. -1.
        -11    1    3    3    0    0  0.12288325183E+02  0.17906658023E+01 -0.16377041493E+02  0.20552783465E+02  0.51100000000E-03 0.  1.
        -12    1    3    3    0    0  0.90569171095E+01 -0.77740359485E+01 -0.74058214763E+01  0.14046692643E+02  0.00000000000E+00 0.  1.
</event>
<event>
 7    1  0.2732193E-010  0.4778727E+02  0.7816164E-02  0.1312668E+00
        -11   -1    0    0    0    0  0.00000000000E+00  0.00000000000E+00  0.45593999997E+02  0.45594000000E+02  0.51100000000E-03 0.  1.
         11   -1    0    0    0    0 -0.00000000000E+00 -0.00000000000E+00 -0.45593999997E+02  0.45594000000E+02  0.51100000000E-03 0. -1.
    9900012    2    1    2    0    0 -0.32229763155E+02  0.40144623877E+01 -0.28788015061E+02  0.47787270139E+02  0.19999995873E+02 0.  0.
        -12    1    1    2    0    0  0.32229763155E+02 -0.40144623877E+01  0.28788015061E+02  0.43400729861E+02  0.00000000000E+00 0.  1.
         11    1    3    3    0    0 -0.66328987564E+01  0.64853122078E+00 -0.92038514808E+01  0.11363398303E+02  0.51100000000E-03 0. -1.
        -11    1    3    3    0    0 -0.14415966653E+02  0.10151646352E+02 -0.11321573279E+02  0.20953616394E+02  0.51100000000E-03 0.  1.
        -12    1    3    3    0    0 -0.11180897745E+02 -0.67857151852E+01 -0.82625903017E+01  0.15470255443E+02  0.00000000000E+00 0.  1.
</event>
<event>
 7    1  0.2732193E-010  0.4778725E+02  0.7816164E-02  0.1312668E+00
        -11   -1    0    0    0    0  0.00000000000E+00  0.00000000000E+00  0.45593999997E+02  0.45594000000E+02  0.51100000000E-03 0.  1.
         11   -1    0    0    0    0 -0.00000000000E+00 -0.00000000000E+00 -0.45593999997E+02  0.45594000000E+02  0.51100000000E-03 0. -1.
    9900012    2    1    2    0    0  0.42950492256E+02 -0.16225303954E+01 -0.60206000783E+01  0.47787250984E+02  0.19999908535E+02 0.  0.
        -12    1    1    2    0    0 -0.42950492256E+02  0.16225303954E+01  0.60206000783E+01  0.43400749016E+02  0.00000000000E+00 0.  1.
         11    1    3    3    0    0  0.19504139406E+02  0.61867398111E+01  0.19885998733E+01  0.20558252192E+02  0.51100000000E-03 0.  1.
        -11    1    3    3    0    0  0.21885335214E+02 -0.76869775132E+01 -0.48422280233E+01  0.23696090251E+02  0.51100000000E-03 0. -1.
        -12    1    3    3    0    0  0.15610176356E+01 -0.12229269329E+00 -0.31669719283E+01  0.35329085406E+01  0.00000000000E+00 0.  1.
</event>
<event>
 7    1  0.2732193E-010  0.4778726E+02  0.7816164E-02  0.1312668E+00
        -11   -1    0    0    0    0  0.00000000000E+00  0.00000000000E+00  0.45593999997E+02  0.45594000000E+02  0.51100000000E-03 0. -1.
         11   -1    0    0    0    0 -0.00000000000E+00 -0.00000000000E+00 -0.45593999997E+02  0.45594000000E+02  0.51100000000E-03 0.  1.
    9900012    2    1    2    0    0 -0.33768661744E+02 -0.19476808650E+02  0.19077616983E+02  0.47787261977E+02  0.19999958657E+02 0.  0.
        -12    1    1    2    0    0  0.33768661744E+02  0.19476808650E+02 -0.19077616983E+02  0.43400738023E+02  0.00000000000E+00 0.  1.
         11    1    3    3    0    0 -0.60868380587E+01 -0.12896064197E+01  0.88037739402E+01  0.10780497118E+02  0.51100000000E-03 0. -1.
        -11    1    3    3    0    0 -0.23435710582E+02 -0.11224578948E+02  0.31445104506E+01  0.26174637519E+02  0.51100000000E-03 0.  1.
        -12    1    3    3    0    0 -0.42461131035E+01 -0.69626232832E+01  0.71293325925E+01  0.10832127339E+02  0.00000000000E+00 0.  1.
</event>
<event>
 7    1  0.2732193E-010  0.4778728E+02  0.7816164E-02  0.1312668E+00
        -11   -1    0    0    0    0  0.00000000000E+00  0.00000000000E+00  0.45593999997E+02  0.45594000000E+02  0.51100000000E-03 0.  1.
         11   -1    0    0    0    0 -0.00000000000E+00 -0.00000000000E+00 -0.45593999997E+02  0.45594000000E+02  0.51100000000E-03 0. -1.
    9900012    2    1    2    0    0  0.12612040953E+02 -0.30714452602E+02 -0.27949626673E+02  0.47787276425E+02  0.20000024533E+02 0.  0.
        -12    1    1    2    0    0 -0.12612040953E+02  0.30714452602E+02  0.27949626673E+02  0.43400723575E+02  0.00000000000E+00 0.  1.
         11    1    3    3    0    0  0.21905173458E+01 -0.16861264068E+02 -0.88621336037E+01  0.19173888611E+02  0.51100000000E-03 0. -1.
        -11    1    3    3    0    0  0.65715077597E+01 -0.10304094853E+02 -0.19861365413E+02  0.23320225584E+02  0.51100000000E-03 0.  1.
        -12    1    3    3    0    0  0.38500158475E+01 -0.35490936815E+01  0.77387234359E+00  0.52931622297E+01  0.00000000000E+00 0.  1.
</event>
<event>
 7    1  0.2732193E-010  0.4778727E+02  0.7816164E-02  0.1312668E+00
        -11   -1    0    0    0    0  0.00000000000E+00  0.00000000000E+00  0.45593999997E+02  0.45594000000E+02  0.51100000000E-03 0.  1.
         11   -1    0    0    0    0 -0.00000000000E+00 -0.00000000000E+00 -0.45593999997E+02  0.45594000000E+02  0.51100000000E-03 0. -1.
    9900012    2    1    2    0    0 -0.69700377074E+01  0.27284445160E+02 -0.33024246780E+02  0.47787271334E+02  0.20000001322E+02 0.  0.
        -12    1    1    2    0    0  0.69700377074E+01 -0.27284445160E+02  0.33024246780E+02  0.43400728666E+02  0.00000000000E+00 0.  1.
         11    1    3    3    0    0 -0.10967717023E+02  0.60453219137E+01 -0.10135077041E+02  0.16110757916E+02  0.51100000000E-03 0.  1.
        -11    1    3    3    0    0  0.13307529402E+01  0.13905303077E+02 -0.16267971468E+02  0.21442370508E+02  0.51100000000E-03 0. -1.
        -12    1    3    3    0    0  0.26669263757E+01  0.73338201690E+01 -0.66211982717E+01  0.10234142911E+02  0.00000000000E+00 0.  1.
</event>
<event>
 7    1  0.2732193E-010  0.4778729E+02  0.7816164E-02  0.1312668E+00
        -11   -1    0    0    0    0  0.00000000000E+00  0.00000000000E+00  0.45593999997E+02  0.45594000000E+02  0.51100000000E-03 0.  1.
         11   -1    0    0    0    0 -0.00000000000E+00 -0.00000000000E+00 -0.45593999997E+02  0.45594000000E+02  0.51100000000E-03 0. -1.
    9900012    2    1    2    0    0 -0.47297364054E+01  0.50050742599E+01 -0.42850913523E+02  0.47787286129E+02  0.20000068775E+02 0.  0.
        -12    1    1    2    0    0  0.47297364054E+01 -0.50050742599E+01  0.42850913523E+02  0.43400713871E+02  0.00000000000E+00 0.  1.
         11    1    3    3    0    0 -0.84728028609E+00 -0.25068795818E+01 -0.94411822151E+01  0.98050115247E+01  0.51100000000E-03 0. -1.
        -11    1    3    3    0    0 -0.18422576567E+01  0.23290433928E+00  0.14225034506E+01  0.23391609678E+01  0.51100000000E-03 0.  1.
        -12    1    3    3    0    0 -0.20401984626E+01  0.72790495024E+01 -0.34832234758E+02  0.35643113636E+02  0.00000000000E+00 0.  1.
</event>
<event>
 7    1  0.2732193E-010  0.4778733E+02  0.7816164E-02  0.1312668E+00
        -11   -1    0    0    0    0  0.00000000000E+00  0.00000000000E+00  0.45593999997E+02  0.45594000000E+02  0.51100000000E-03 0.  1.
         11   -1    0    0    0    0 -0.00000000000E+00 -0.00000000000E+00 -0.45593999997E+02  0.45594000000E+02  0.51100000000E-03 0. -1.
    9900012    2    1    2    0    0 -0.33368337290E+02  0.27551972127E+02 -0.33258712782E+01  0.47787325796E+02  0.20000249634E+02 0.  0.
        -12    1    1    2    0    0  0.33368337290E+02 -0.27551972127E+02  0.33258712782E+01  0.43400674204E+02  0.00000000000E+00 0.  1.
         11    1    3    3    0    0 -0.71222286758E+01  0.99532079419E+01 -0.45390660066E+01  0.13053566950E+02  0.51100000000E-03 0. -1.
        -11    1    3    3    0    0 -0.12568093161E+02  0.71377509554E+01 -0.65214212903E+01  0.15856651296E+02  0.51100000000E-03 0.  1.
        -12    1    3    3    0    0 -0.13678015453E+02  0.10461013230E+02  0.77346160187E+01  0.18877107551E+02  0.00000000000E+00 0.  1.
</event>
<event>
 7    1  0.2732193E-010  0.4778727E+02  0.7816164E-02  0.1312668E+00
        -11   -1    0    0    0    0  0.00000000000E+00  0.00000000000E+00  0.45593999997E+02  0.45594000000E+02  0.51100000000E-03 0.  1.
         11   -1    0    0    0    0 -0.00000000000E+00 -0.00000000000E+00 -0.45593999997E+02  0.45594000000E+02  0.51100000000E-03 0. -1.
    9900012    2    1    2    0    0 -0.43098115805E+02 -0.33791876946E+01 -0.38414463853E+01  0.47787271830E+02  0.20000003580E+02 0.  0.
        -12    1    1    2    0    0  0.43098115805E+02  0.33791876946E+01  0.38414463853E+01  0.43400728170E+02  0.00000000000E+00 0.  1.
         11    1    3    3    0    0 -0.36636120567E+01  0.13119406489E+01 -0.58934012161E+01  0.70622531619E+01  0.51100000000E-03 0. -1.
        -11    1    3    3    0    0 -0.16533849453E+01 -0.19184225429E+01 -0.99256964252E+00  0.27201510228E+01  0.51100000000E-03 0.  1.
         12    1    3    3    0    0 -0.37781118803E+02 -0.27727058007E+01  0.30445244733E+01  0.38004867645E+02  0.00000000000E+00 0. -1.
</event>
<event>
 7    1  0.2732193E-010  0.4778727E+02  0.7816164E-02  0.1312668E+00
        -11   -1    0    0    0    0  0.00000000000E+00  0.00000000000E+00  0.45593999997E+02  0.45594000000E+02  0.51100000000E-03 0.  1.
         11   -1    0    0    0    0 -0.00000000000E+00 -0.00000000000E+00 -0.45593999997E+02  0.45594000000E+02  0.51100000000E-03 0. -1.
    9900012    2    1    2    0    0 -0.28760708599E+02  0.10325453948E+02 -0.30819311988E+02  0.47787270170E+02  0.19999996015E+02 0.  0.
        -12    1    1    2    0    0  0.28760708599E+02 -0.10325453948E+02  0.30819311988E+02  0.43400729830E+02  0.00000000000E+00 0.  1.
         11    1    3    3    0    0 -0.16583789384E+02  0.42688183455E+01 -0.26748896355E+02  0.31760798744E+02  0.51100000000E-03 0. -1.
        -11    1    3    3    0    0 -0.84815043948E+01  0.18419321510E+01  0.64273729743E+00  0.87029731899E+01  0.51100000000E-03 0.  1.
         12    1    3    3    0    0 -0.36954148199E+01  0.42147034511E+01 -0.47131529302E+01  0.73234982362E+01  0.00000000000E+00 0. -1.
</event>
<event>
 7    1  0.2732193E-010  0.4778726E+02  0.7816164E-02  0.1312668E+00
        -11   -1    0    0    0    0  0.00000000000E+00  0.00000000000E+00  0.45593999997E+02  0.45594000000E+02  0.51100000000E-03 0.  1.
         11   -1    0    0    0    0 -0.00000000000E+00 -0.00000000000E+00 -0.45593999997E+02  0.45594000000E+02  0.51100000000E-03 0. -1.
    9900012    2    1    2    0    0  0.18716161530E+01 -0.18162222190E+02 -0.39373275244E+02  0.47787261926E+02  0.19999958426E+02 0.  0.
        -12    1    1    2    0    0 -0.18716161530E+01  0.18162222190E+02  0.39373275244E+02  0.43400738074E+02  0.00000000000E+00 0.  1.
         11    1    3    3    0    0  0.56209050264E+01 -0.64299247703E+01 -0.24344613336E+02  0.25799199689E+02  0.51100000000E-03 0. -1.
        -11    1    3    3    0    0 -0.72745306001E+01 -0.69135359442E+01 -0.86247605542E+01  0.13232621418E+02  0.51100000000E-03 0.  1.
         12    1    3    3    0    0  0.35252417267E+01 -0.48187614750E+01 -0.64039013546E+01  0.87554408195E+01  0.00000000000E+00 0. -1.
</event>
<event>
 7    1  0.2732193E-010  0.4778727E+02  0.7816164E-02  0.1312668E+00
        -11   -1    0    0    0    0  0.00000000000E+00  0.00000000000E+00  0.45593999997E+02  0.45594000000E+02  0.51100000000E-03 0.  1.
         11   -1    0    0    0    0 -0.00000000000E+00 -0.00000000000E+00 -0.45593999997E+02  0.45594000000E+02  0.51100000000E-03 0. -1.
    9900012    2    1    2    0    0 -0.20279103385E+02 -0.28855298371E+02 -0.25293347332E+02  0.47787266165E+02  0.19999977754E+02 0.  0.
        -12    1    1    2    0    0  0.20279103385E+02  0.28855298371E+02  0.25293347332E+02  0.43400733835E+02  0.00000000000E+00 0.  1.
         11    1    3    3    0    0 -0.22508227267E+02 -0.23950675304E+02 -0.21540372436E+02  0.39296854672E+02  0.51100000000E-03 0. -1.
        -11    1    3    3    0    0 -0.16688192012E+01 -0.10904855999E+01 -0.25101526763E+00  0.20092598875E+01  0.51100000000E-03 0.  1.
         12    1    3    3    0    0  0.38979430831E+01 -0.38141374665E+01 -0.35019596284E+01  0.64811516054E+01  0.00000000000E+00 0. -1.
</event>
<event>
 7    1  0.2732193E-010  0.4778727E+02  0.7816164E-02  0.1312668E+00
        -11   -1    0    0    0    0  0.00000000000E+00  0.00000000000E+00  0.45593999997E+02  0.45594000000E+02  0.51100000000E-03 0.  1.
         11   -1    0    0    0    0 -0.00000000000E+00 -0.00000000000E+00 -0.45593999997E+02  0.45594000000E+02  0.51100000000E-03 0. -1.
    9900012    2    1    2    0    0 -0.26945584348E+02 -0.98236560074E+01 -0.32573831334E+02  0.47787271654E+02  0.20000002778E+02 0.  0.
        -12    1    1    2    0    0  0.26945584348E+02  0.98236560074E+01  0.32573831334E+02  0.43400728346E+02  0.00000000000E+00 0.  1.
         11    1    3    3    0    0 -0.61811207225E+01 -0.34570871528E+01 -0.75742793749E+01  0.10369542578E+02  0.51100000000E-03 0. -1.
        -11    1    3    3    0    0 -0.20822867754E+02 -0.62853187216E+01 -0.12840319723E+02  0.25258085117E+02  0.51100000000E-03 0.  1.
        -12    1    3    3    0    0  0.58404128676E-01 -0.81250132997E-01 -0.12159232236E+02  0.12159643959E+02  0.00000000000E+00 0.  1.
</event>
<event>
 7    1  0.2732193E-010  0.4778727E+02  0.7816164E-02  0.1312668E+00
        -11   -1    0    0    0    0  0.00000000000E+00  0.00000000000E+00  0.45593999997E+02  0.45594000000E+02  0.51100000000E-03 0. -1.
         11   -1    0    0    0    0 -0.00000000000E+00 -0.00000000000E+00 -0.45593999997E+02  0.45594000000E+02  0.51100000000E-03 0.  1.
    9900012    2    1    2    0    0 -0.84350011418E+01  0.41934453783E+02  0.73467962794E+01  0.47787273348E+02  0.20000010504E+02 0.  0.
        -12    1    1    2    0    0  0.84350011418E+01 -0.41934453783E+02 -0.73467962794E+01  0.43400726652E+02  0.00000000000E+00 0.  1.
         11    1    3    3    0    0  0.40281950156E+01  0.79937704341E+01  0.14334591394E+01  0.90654027049E+01  0.51100000000E-03 0. -1.
        -11    1    3    3    0    0 -0.12987568233E+02  0.17375426048E+02  0.31989914734E+01  0.21927514808E+02  0.51100000000E-03 0.  1.
        -12    1    3    3    0    0  0.52437207562E+00  0.16565257301E+02  0.27143456667E+01  0.16794355835E+02  0.00000000000E+00 0.  1.
</event>
<event>
 7    1  0.2732193E-010  0.4778729E+02  0.7816164E-02  0.1312668E+00
        -11   -1    0    0    0    0  0.00000000000E+00  0.00000000000E+00  0.45593999997E+02  0.45594000000E+02  0.51100000000E-03 0.  1.
         11   -1    0    0    0    0 -0.00000000000E+00 -0.00000000000E+00 -0.45593999997E+02  0.45594000000E+02  0.51100000000E-03 0. -1.
    9900012    2    1    2    0    0  0.65115608193E+01  0.24827965486E+02 -0.34997053680E+02  0.47787285020E+02  0.20000063719E+02 0.  0.
        -12    1    1    2    0    0 -0.65115608193E+01 -0.24827965486E+02  0.34997053680E+02  0.43400714980E+02  0.00000000000E+00 0.  1.
         11    1    3    3    0    0  0.96773486133E+01  0.10408769486E+02 -0.19529112869E+02  0.24153256677E+02  0.51100000000E-03 0. -1.
        -11    1    3    3    0    0 -0.42659458235E+01  0.15418049367E+02 -0.12453500695E+02  0.20273239008E+02  0.51100000000E-03 0.  1.
        -12    1    3    3    0    0  0.11001580296E+01 -0.99885336658E+00 -0.30144401162E+01  0.33607893346E+01  0.00000000000E+00 0.  1.
</event>
<event>
 7    1  0.2732193E-010  0.4778727E+02  0.7816164E-02  0.1312668E+00
        -11   -1    0    0    0    0  0.00000000000E+00  0.00000000000E+00  0.45593999997E+02  0.45594000000E+02  0.51100000000E-03 0.  1.
         11   -1    0    0    0    0 -0.00000000000E+00 -0.00000000000E+00 -0.45593999997E+02  0.45594000000E+02  0.51100000000E-03 0. -1.
    9900012    2    1    2    0    0 -0.24782068922E+02  0.54269976930E+01 -0.35213918367E+02  0.47787270850E+02  0.19999999113E+02 0.  0.
        -12    1    1    2    0    0  0.24782068922E+02 -0.54269976930E+01  0.35213918367E+02  0.43400729150E+02  0.00000000000E+00 0.  1.
         11    1    3    3    0    0 -0.21616894738E+02  0.43204264099E+01 -0.30247581489E+02  0.37428230103E+02  0.51100000000E-03 0. -1.
        -11    1    3    3    0    0  0.16060366318E+01  0.28666178237E+01 -0.40101903728E+01  0.51844458236E+01  0.51100000000E-03 0.  1.
         12    1    3    3    0    0 -0.47712108165E+01 -0.17600465407E+01 -0.95614650500E+00  0.51745949233E+01  0.00000000000E+00 0. -1.
</event>
<event>
 7    1  0.2732193E-010  0.4778728E+02  0.7816164E-02  0.1312668E+00
        -11   -1    0    0    0    0  0.00000000000E+00  0.00000000000E+00  0.45593999997E+02  0.45594000000E+02  0.51100000000E-03 0. -1.
         11   -1    0    0    0    0 -0.00000000000E+00 -0.00000000000E+00 -0.45593999997E+02  0.45594000000E+02  0.51100000000E-03 0.  1.
    9900012    2    1    2    0    0 -0.28715024907E+02  0.16556570250E+02  0.28016958707E+02  0.47787278243E+02  0.20000032821E+02 0.  0.
        -12    1    1    2    0    0  0.28715024907E+02 -0.16556570250E+02 -0.28016958707E+02  0.43400721757E+02  0.00000000000E+00 0.  1.
         11    1    3    3    0    0 -0.27832854967E+01  0.12039788277E+01  0.67650334277E+01  0.74136307375E+01  0.51100000000E-03 0. -1.
        -11    1    3    3    0    0 -0.23941310553E+02  0.74548916679E+01  0.11272220364E+02  0.27492266421E+02  0.51100000000E-03 0.  1.
        -12    1    3    3    0    0 -0.19904288576E+01  0.78976997539E+01  0.99797049158E+01  0.12881381085E+02  0.00000000000E+00 0.  1.
</event>
<event>
 7    1  0.2732193E-010  0.4778727E+02  0.7816164E-02  0.1312668E+00
        -11   -1    0    0    0    0  0.00000000000E+00  0.00000000000E+00  0.45593999997E+02  0.45594000000E+02  0.51100000000E-03 0.  1.
         11   -1    0    0    0    0 -0.00000000000E+00 -0.00000000000E+00 -0.45593999997E+02  0.45594000000E+02  0.51100000000E-03 0. -1.
    9900012    2    1    2    0    0  0.30426312164E+02 -0.12900529798E+02 -0.28132525285E+02  0.47787272818E+02  0.20000008088E+02 0.  0.
        -12    1    1    2    0    0 -0.30426312164E+02  0.12900529798E+02  0.28132525285E+02  0.43400727182E+02  0.00000000000E+00 0.  1.
         11    1    3    3    0    0  0.34573572362E+01 -0.82429174845E+01 -0.13596362074E+02  0.16271449524E+02  0.51100000000E-03 0. -1.
        -11    1    3    3    0    0  0.29718321392E+01 -0.24602088678E+01 -0.17527900414E+01  0.42375331417E+01  0.51100000000E-03 0.  1.
         12    1    3    3    0    0  0.23997122789E+02 -0.21974034455E+01 -0.12783373170E+02  0.27278290153E+02  0.00000000000E+00 0. -1.
</event>
<event>
 7    1  0.2732193E-010  0.4778727E+02  0.7816164E-02  0.1312668E+00
        -11   -1    0    0    0    0  0.00000000000E+00  0.00000000000E+00  0.45593999997E+02  0.45594000000E+02  0.51100000000E-03 0.  1.
         11   -1    0    0    0    0 -0.00000000000E+00 -0.00000000000E+00 -0.45593999997E+02  0.45594000000E+02  0.51100000000E-03 0. -1.
    9900012    2    1    2    0    0  0.27663991561E+01 -0.31882715603E+02 -0.29316597121E+02  0.47787269761E+02  0.19999994150E+02 0.  0.
        -12    1    1    2    0    0 -0.27663991561E+01  0.31882715603E+02  0.29316597121E+02  0.43400730239E+02  0.00000000000E+00 0.  1.
         11    1    3    3    0    0 -0.10403799769E+00 -0.57199925030E+01 -0.25929752844E+01  0.62811351861E+01  0.51100000000E-03 0. -1.
        -11    1    3    3    0    0  0.13419346766E+01  0.22472915228E+01 -0.22638279244E+00  0.26272337723E+01  0.51100000000E-03 0.  1.
        -12    1    3    3    0    0  0.15285024772E+01 -0.28410014623E+02 -0.26497239044E+02  0.38878900803E+02  0.00000000000E+00 0.  1.
</event>
<event>
 7    1  0.2732193E-010  0.4778727E+02  0.7816164E-02  0.1312668E+00
        -11   -1    0    0    0    0  0.00000000000E+00  0.00000000000E+00  0.45593999997E+02  0.45594000000E+02  0.51100000000E-03 0. -1.
         11   -1    0    0    0    0 -0.00000000000E+00 -0.00000000000E+00 -0.45593999997E+02  0.45594000000E+02  0.51100000000E-03 0.  1.
    9900012    2    1    2    0    0 -0.28978750206E+02 -0.31301169416E+02  0.80057629219E+01  0.47787269473E+02  0.19999992837E+02 0.  0.
        -12    1    1    2    0    0  0.28978750206E+02  0.31301169416E+02 -0.80057629219E+01  0.43400730527E+02  0.00000000000E+00 0.  1.
         11    1    3    3    0    0 -0.88213225584E+00 -0.25795938029E+01  0.70649294674E+00  0.28163085857E+01  0.51100000000E-03 0. -1.
        -11    1    3    3    0    0 -0.71800712813E+01 -0.20347893933E+02  0.11109483585E+01  0.21606119912E+02  0.51100000000E-03 0.  1.
        -12    1    3    3    0    0 -0.20916546669E+02 -0.83736816796E+01  0.61883216166E+01  0.23364840976E+02  0.00000000000E+00 0.  1.
</event>
<event>
 7    1  0.2732193E-010  0.4778729E+02  0.7816164E-02  0.1312668E+00
        -11   -1    0    0    0    0  0.00000000000E+00  0.00000000000E+00  0.45593999997E+02  0.45594000000E+02  0.51100000000E-03 0.  1.
         11   -1    0    0    0    0 -0.00000000000E+00 -0.00000000000E+00 -0.45593999997E+02  0.45594000000E+02  0.51100000000E-03 0. -1.
    9900012    2    1    2    0    0 -0.30646712824E+02  0.29557597063E+02 -0.84112340032E+01  0.47787292535E+02  0.20000097982E+02 0.  0.
        -12    1    1    2    0    0  0.30646712824E+02 -0.29557597063E+02  0.84112340032E+01  0.43400707465E+02  0.00000000000E+00 0.  1.
         11    1    3    3    0    0 -0.84965610198E+01  0.82308018667E+01 -0.23629454581E+01  0.12063215161E+02  0.51100000000E-03 0. -1.
        -11    1    3    3    0    0 -0.10467130673E+02  0.11942265350E+02 -0.11682553371E+02  0.19714476400E+02  0.51100000000E-03 0.  1.
        -12    1    3    3    0    0 -0.11683021131E+02  0.93845298464E+01  0.56342648257E+01  0.16009600973E+02  0.00000000000E+00 0.  1.
</event>
<event>
 7    1  0.2732193E-010  0.4778727E+02  0.7816164E-02  0.1312668E+00
        -11   -1    0    0    0    0  0.00000000000E+00  0.00000000000E+00  0.45593999997E+02  0.45594000000E+02  0.51100000000E-03 0. -1.
         11   -1    0    0    0    0 -0.00000000000E+00 -0.00000000000E+00 -0.45593999997E+02  0.45594000000E+02  0.51100000000E-03 0.  1.
    9900012    2    1    2    0    0 -0.21133765930E+02  0.24797610780E+02  0.28671688694E+02  0.47787270797E+02  0.19999998871E+02 0.  0.
        -12    1    1    2    0    0  0.21133765930E+02 -0.24797610780E+02 -0.28671688694E+02  0.43400729203E+02  0.00000000000E+00 0.  1.
         11    1    3    3    0    0 -0.17586121268E+02  0.25367193799E+02  0.29687398608E+02  0.42826485016E+02  0.51100000000E-03 0. -1.
        -11    1    3    3    0    0 -0.27471865408E+01 -0.14192989263E+01 -0.17776910765E+01  0.35667392892E+01  0.51100000000E-03 0.  1.
        -12    1    3    3    0    0 -0.80045812154E+00  0.84971590747E+00  0.76198116251E+00  0.13940464913E+01  0.00000000000E+00 0.  1.
</event>
<event>
 7    1  0.2732193E-010  0.4778727E+02  0.7816164E-02  0.1312668E+00
        -11   -1    0    0    0    0  0.00000000000E+00  0.00000000000E+00  0.45593999997E+02  0.45594000000E+02  0.51100000000E-03 0.  1.
         11   -1    0    0    0    0 -0.00000000000E+00 -0.00000000000E+00 -0.45593999997E+02  0.45594000000E+02  0.51100000000E-03 0. -1.
    9900012    2    1    2    0    0 -0.26190089870E+02 -0.22892290152E+02 -0.25954678890E+02  0.47787272908E+02  0.20000008497E+02 0.  0.
        -12    1    1    2    0    0  0.26190089870E+02  0.22892290152E+02  0.25954678890E+02  0.43400727092E+02  0.00000000000E+00 0.  1.
         11    1    3    3    0    0 -0.17144873209E+02 -0.16489970487E+02 -0.26233354724E+02  0.35412634812E+02  0.51100000000E-03 0. -1.
        -11    1    3    3    0    0 -0.62370003405E+00 -0.70600517086E+00  0.18603257957E+01  0.20852475539E+01  0.51100000000E-03 0.  1.
        -12    1    3    3    0    0 -0.84215166274E+01 -0.56963144941E+01 -0.15816499615E+01  0.10289390542E+02  0.00000000000E+00 0.  1.
</event>
<event>
 7    1  0.2732193E-010  0.4778727E+02  0.7816164E-02  0.1312668E+00
        -11   -1    0    0    0    0  0.00000000000E+00  0.00000000000E+00  0.45593999997E+02  0.45594000000E+02  0.51100000000E-03 0. -1.
         11   -1    0    0    0    0 -0.00000000000E+00 -0.00000000000E+00 -0.45593999997E+02  0.45594000000E+02  0.51100000000E-03 0.  1.
    9900012    2    1    2    0    0 -0.32103904132E+02  0.59559783723E+01  0.28591768879E+02  0.47787267442E+02  0.19999983577E+02 0.  0.
        -12    1    1    2    0    0  0.32103904132E+02 -0.59559783723E+01 -0.28591768879E+02  0.43400732558E+02  0.00000000000E+00 0.  1.
         11    1    3    3    0    0 -0.12171506768E+02  0.28807115162E+01  0.10747963837E+02  0.16491294756E+02  0.51100000000E-03 0. -1.
        -11    1    3    3    0    0 -0.10015897965E+02 -0.23644537940E+01  0.17103929716E+02  0.19961294191E+02  0.51100000000E-03 0.  1.
        -12    1    3    3    0    0 -0.99164993997E+01  0.54397206502E+01  0.73987532623E+00  0.11334678495E+02  0.00000000000E+00 0.  1.
</event>
<event>
 7    1  0.2732193E-010  0.4778727E+02  0.7816164E-02  0.1312668E+00
        -11   -1    0    0    0    0  0.00000000000E+00  0.00000000000E+00  0.45593999997E+02  0.45594000000E+02  0.51100000000E-03 0.  1.
         11   -1    0    0    0    0 -0.00000000000E+00 -0.00000000000E+00 -0.45593999997E+02  0.45594000000E+02  0.51100000000E-03 0. -1.
    9900012    2    1    2    0    0  0.36052450165E+02  0.25712937279E+01 -0.24025667248E+02  0.47787269579E+02  0.19999993320E+02 0.  0.
        -12    1    1    2    0    0 -0.36052450165E+02 -0.25712937279E+01  0.24025667248E+02  0.43400730421E+02  0.00000000000E+00 0.  1.
         11    1    3    3    0    0  0.32325356104E+02  0.57919698051E+01 -0.17625279247E+02  0.37270981074E+02  0.51100000000E-03 0. -1.
        -11    1    3    3    0    0  0.34731315118E+01 -0.33574771169E+01 -0.78563575696E+00  0.48941310661E+01  0.51100000000E-03 0.  1.
         12    1    3    3    0    0  0.25396254963E+00  0.13680103976E+00 -0.56147522446E+01  0.56221574390E+01  0.00000000000E+00 0. -1.
</event>
<event>
 7    1  0.2732193E-010  0.4778727E+02  0.7816164E-02  0.1312668E+00
        -11   -1    0    0    0    0  0.00000000000E+00  0.00000000000E+00  0.45593999997E+02  0.45594000000E+02  0.51100000000E-03 0.  1.
         11   -1    0    0    0    0 -0.00000000000E+00 -0.00000000000E+00 -0.45593999997E+02  0.45594000000E+02  0.51100000000E-03 0. -1.
    9900012    2    1    2    0    0 -0.46322232014E+01  0.43044204956E+02 -0.30597760114E+01  0.47787270729E+02  0.19999998560E+02 0.  0.
        -12    1    1    2    0    0  0.46322232014E+01 -0.43044204956E+02  0.30597760114E+01  0.43400729271E+02  0.00000000000E+00 0.  1.
         11    1    3    3    0    0 -0.82910142157E+01  0.31376773208E+02 -0.89002536656E+00  0.32465904563E+02  0.51100000000E-03 0. -1.
        -11    1    3    3    0    0  0.30553862052E+01 -0.39490111835E-01 -0.18952703640E+01  0.35956910804E+01  0.51100000000E-03 0.  1.
        -12    1    3    3    0    0  0.60340480912E+00  0.11706921859E+02 -0.27448028082E+00  0.11725675085E+02  0.00000000000E+00 0.  1.
</event>
<event>
 7    1  0.2732193E-010  0.4778727E+02  0.7816164E-02  0.1312668E+00
        -11   -1    0    0    0    0  0.00000000000E+00  0.00000000000E+00  0.45593999997E+02  0.45594000000E+02  0.51100000000E-03 0. -1.
         11   -1    0    0    0    0 -0.00000000000E+00 -0.00000000000E+00 -0.45593999997E+02  0.45594000000E+02  0.51100000000E-03 0.  1.
    9900012    2    1    2    0    0  0.41713086762E+02 -0.36002433857E+01  0.11431539711E+02  0.47787268902E+02  0.19999990233E+02 0.  0.
        -12    1    1    2    0    0 -0.41713086762E+02  0.36002433857E+01 -0.11431539711E+02  0.43400731098E+02  0.00000000000E+00 0.  1.
         11    1    3    3    0    0  0.27660926562E+02 -0.69460046032E+01  0.10158443463E+02  0.30274870967E+02  0.51100000000E-03 0. -1.
        -11    1    3    3    0    0  0.73397911863E+01  0.15243811705E+01 -0.42622944236E+01  0.86234231385E+01  0.51100000000E-03 0.  1.
        -12    1    3    3    0    0  0.67123690138E+01  0.18213800469E+01  0.55353906714E+01  0.88889747968E+01  0.00000000000E+00 0.  1.
</event>
<event>
 7    1  0.2732193E-010  0.4778727E+02  0.7816164E-02  0.1312668E+00
        -11   -1    0    0    0    0  0.00000000000E+00  0.00000000000E+00  0.45593999997E+02  0.45594000000E+02  0.51100000000E-03 0.  1.
         11   -1    0    0    0    0 -0.00000000000E+00 -0.00000000000E+00 -0.45593999997E+02  0.45594000000E+02  0.51100000000E-03 0. -1.
    9900012    2    1    2    0    0  0.13029172136E+02  0.29874562259E+02 -0.28659632729E+02  0.47787270227E+02  0.19999996272E+02 0.  0.
        -12    1    1    2    0    0 -0.13029172136E+02 -0.29874562259E+02  0.28659632729E+02  0.43400729773E+02  0.00000000000E+00 0.  1.
         11    1    3    3    0    0  0.49903193556E+01  0.16475927619E+02 -0.63791434728E+01  0.18359001876E+02  0.51100000000E-03 0. -1.
        -11    1    3    3    0    0  0.69986614835E+01  0.62038103590E+01 -0.19533381327E+02  0.21656904485E+02  0.51100000000E-03 0.  1.
        -12    1    3    3    0    0  0.10401912973E+01  0.71948242804E+01 -0.27471079289E+01  0.77713638658E+01  0.00000000000E+00 0.  1.
</event>
<event>
 7    1  0.2732193E-010  0.4778727E+02  0.7816164E-02  0.1312668E+00
        -11   -1    0    0    0    0  0.00000000000E+00  0.00000000000E+00  0.45593999997E+02  0.45594000000E+02  0.51100000000E-03 0.  1.
         11   -1    0    0    0    0 -0.00000000000E+00 -0.00000000000E+00 -0.45593999997E+02  0.45594000000E+02  0.51100000000E-03 0. -1.
    9900012    2    1    2    0    0 -0.24981157103E+02  0.35369226600E+02  0.29296715909E+01  0.47787269867E+02  0.19999994631E+02 0.  0.
        -12    1    1    2    0    0  0.24981157103E+02 -0.35369226600E+02 -0.29296715909E+01  0.43400730133E+02  0.00000000000E+00 0.  1.
         11    1    3    3    0    0 -0.12742251657E+02  0.78398416572E+01 -0.50597161193E+01  0.15793315737E+02  0.51100000000E-03 0. -1.
        -11    1    3    3    0    0 -0.55821616540E+01  0.14395506937E+02  0.77307400994E+01  0.17267179604E+02  0.51100000000E-03 0.  1.
        -12    1    3    3    0    0 -0.66567437919E+01  0.13133878005E+02  0.25864761077E+00  0.14726774526E+02  0.00000000000E+00 0.  1.
</event>
<event>
 7    1  0.2732193E-010  0.4778727E+02  0.7816164E-02  0.1312668E+00
        -11   -1    0    0    0    0  0.00000000000E+00  0.00000000000E+00  0.45593999997E+02  0.45594000000E+02  0.51100000000E-03 0.  1.
         11   -1    0    0    0    0 -0.00000000000E+00 -0.00000000000E+00 -0.45593999997E+02  0.45594000000E+02  0.51100000000E-03 0. -1.
    9900012    2    1    2    0    0 -0.28098478781E+02 -0.67139813042E+01 -0.32388593958E+02  0.47787273355E+02  0.20000010533E+02 0.  0.
        -12    1    1    2    0    0  0.28098478781E+02  0.67139813042E+01  0.32388593958E+02  0.43400726645E+02  0.00000000000E+00 0.  1.
         11    1    3    3    0    0 -0.15806148083E+02  0.38590972475E+01 -0.14845194646E+02  0.22025139117E+02  0.51100000000E-03 0. -1.
        -11    1    3    3    0    0 -0.78076606035E+01 -0.27581758392E+01 -0.13609226893E+02  0.15930416031E+02  0.51100000000E-03 0.  1.
         12    1    3    3    0    0 -0.44846700946E+01 -0.78149027125E+01 -0.39341724197E+01  0.98317182065E+01  0.00000000000E+00 0. -1.
</event>
<event>
 7    1  0.2732193E-010  0.4778726E+02  0.7816164E-02  0.1312668E+00
        -11   -1    0    0    0    0  0.00000000000E+00  0.00000000000E+00  0.45593999997E+02  0.45594000000E+02  0.51100000000E-03 0.  1.
         11   -1    0    0    0    0 -0.00000000000E+00 -0.00000000000E+00 -0.45593999997E+02  0.45594000000E+02  0.51100000000E-03 0. -1.
    9900012    2    1    2    0    0 -0.18766041883E+02 -0.38922790743E+02 -0.40591070981E+01  0.47787259020E+02  0.19999945177E+02 0.  0.
        -12    1    1    2    0    0  0.18766041883E+02  0.38922790743E+02  0.40591070981E+01  0.43400740980E+02  0.00000000000E+00 0.  1.
         11    1    3    3    0    0 -0.16670390393E+02 -0.22342719535E+02  0.94330995293E+00  0.27892451775E+02  0.51100000000E-03 0. -1.
        -11    1    3    3    0    0 -0.46764470498E+00 -0.23258859308E-01  0.18454547767E+01  0.19039265055E+01  0.51100000000E-03 0.  1.
         12    1    3    3    0    0 -0.16280067853E+01 -0.16556812348E+02 -0.68478718277E+01  0.17990880740E+02  0.00000000000E+00 0. -1.
</event>
<event>
 7    1  0.2732193E-010  0.4778727E+02  0.7816164E-02  0.1312668E+00
        -11   -1    0    0    0    0  0.00000000000E+00  0.00000000000E+00  0.45593999997E+02  0.45594000000E+02  0.51100000000E-03 0.  1.
         11   -1    0    0    0    0 -0.00000000000E+00 -0.00000000000E+00 -0.45593999997E+02  0.45594000000E+02  0.51100000000E-03 0. -1.
    9900012    2    1    2    0    0 -0.21345323752E+02 -0.11228872198E+02 -0.36082027708E+02  0.47787272581E+02  0.20000007008E+02 0.  0.
        -12    1    1    2    0    0  0.21345323752E+02  0.11228872198E+02  0.36082027708E+02  0.43400727419E+02  0.00000000000E+00 0.  1.
         11    1    3    3    0    0 -0.82500480873E+01 -0.99020399517E+01 -0.23453651070E+02  0.26761678524E+02  0.51100000000E-03 0. -1.
        -11    1    3    3    0    0 -0.55424999787E+01 -0.32205417412E+01 -0.26649355262E+00  0.64157785338E+01  0.51100000000E-03 0.  1.
         12    1    3    3    0    0 -0.75527756856E+01  0.18937094946E+01 -0.12361883086E+02  0.14609815523E+02  0.00000000000E+00 0. -1.
</event>
<event>
 7    1  0.2732193E-010  0.4778729E+02  0.7816164E-02  0.1312668E+00
        -11   -1    0    0    0    0  0.00000000000E+00  0.00000000000E+00  0.45593999997E+02  0.45594000000E+02  0.51100000000E-03 0.  1.
         11   -1    0    0    0    0 -0.00000000000E+00 -0.00000000000E+00 -0.45593999997E+02  0.45594000000E+02  0.51100000000E-03 0. -1.
    9900012    2    1    2    0    0 -0.12355867477E+02 -0.20995987375E+02 -0.35918277052E+02  0.47787290635E+02  0.20000089322E+02 0.  0.
        -12    1    1    2    0    0  0.12355867477E+02  0.20995987375E+02  0.35918277052E+02  0.43400709365E+02  0.00000000000E+00 0.  1.
         11    1    3    3    0    0 -0.29989238994E+01  0.75320720926E+00 -0.13731101400E+02  0.14074942685E+02  0.51100000000E-03 0. -1.
        -11    1    3    3    0    0 -0.55219746228E+01 -0.47706837498E+01 -0.32423765492E+01  0.79852760205E+01  0.51100000000E-03 0.  1.
         12    1    3    3    0    0 -0.38349689546E+01 -0.16978510835E+02 -0.18944799103E+02  0.25727071930E+02  0.00000000000E+00 0. -1.
</event>
<event>
 7    1  0.2732193E-010  0.4778729E+02  0.7816164E-02  0.1312668E+00
        -11   -1    0    0    0    0  0.00000000000E+00  0.00000000000E+00  0.45593999997E+02  0.45594000000E+02  0.51100000000E-03 0.  1.
         11   -1    0    0    0    0 -0.00000000000E+00 -0.00000000000E+00 -0.45593999997E+02  0.45594000000E+02  0.51100000000E-03 0. -1.
    9900012    2    1    2    0    0 -0.17663817181E+02  0.99571805524E+01 -0.38372720475E+02  0.47787290805E+02  0.20000090098E+02 0.  0.
        -12    1    1    2    0    0  0.17663817181E+02 -0.99571805524E+01  0.38372720475E+02  0.43400709195E+02  0.00000000000E+00 0.  1.
         11    1    3    3    0    0 -0.48626969484E+01  0.94193682537E+00 -0.21708933151E+02  0.22266810400E+02  0.51100000000E-03 0. -1.
        -11    1    3    3    0    0 -0.13297995079E+02  0.90167461331E+01 -0.10185610852E+02  0.19023276601E+02  0.51100000000E-03 0.  1.
        -12    1    3    3    0    0  0.49687484632E+00 -0.15024060205E-02 -0.64781764721E+01  0.64972038043E+01  0.00000000000E+00 0.  1.
</event>
<event>
 7    1  0.2732193E-010  0.4778727E+02  0.7816164E-02  0.1312668E+00
        -11   -1    0    0    0    0  0.00000000000E+00  0.00000000000E+00  0.45593999997E+02  0.45594000000E+02  0.51100000000E-03 0.  1.
         11   -1    0    0    0    0 -0.00000000000E+00 -0.00000000000E+00 -0.45593999997E+02  0.45594000000E+02  0.51100000000E-03 0. -1.
    9900012    2    1    2    0    0  0.18557469213E+02 -0.10848733198E+02 -0.37703426793E+02  0.47787273422E+02  0.20000010839E+02 0.  0.
        -12    1    1    2    0    0 -0.18557469213E+02  0.10848733198E+02  0.37703426793E+02  0.43400726578E+02  0.00000000000E+00 0.  1.
         11    1    3    3    0    0  0.45265346646E+01  0.52223410060E+01 -0.10739543461E+02  0.12771067131E+02  0.51100000000E-03 0. -1.
        -11    1    3    3    0    0  0.58648307493E+01 -0.94462723330E+01 -0.18199639741E+02  0.21327334285E+02  0.51100000000E-03 0.  1.
         12    1    3    3    0    0  0.81661037988E+01 -0.66248018710E+01 -0.87642435904E+01  0.13688872006E+02  0.00000000000E+00 0. -1.
</event>
<event>
 7    1  0.2732193E-010  0.4778727E+02  0.7816164E-02  0.1312668E+00
        -11   -1    0    0    0    0  0.00000000000E+00  0.00000000000E+00  0.45593999997E+02  0.45594000000E+02  0.51100000000E-03 0.  1.
         11   -1    0    0    0    0 -0.00000000000E+00 -0.00000000000E+00 -0.45593999997E+02  0.45594000000E+02  0.51100000000E-03 0. -1.
    9900012    2    1    2    0    0 -0.34975511174E+02 -0.50642048037E+01 -0.25193064890E+02  0.47787273385E+02  0.20000010670E+02 0.  0.
        -12    1    1    2    0    0  0.34975511174E+02  0.50642048037E+01  0.25193064890E+02  0.43400726615E+02  0.00000000000E+00 0.  1.
         11    1    3    3    0    0 -0.52143657508E+01 -0.24177618157E+00 -0.46692437924E+01  0.70035636471E+01  0.51100000000E-03 0. -1.
        -11    1    3    3    0    0 -0.17129477408E+02 -0.73883821935E+01 -0.20735813650E+02  0.27892313559E+02  0.51100000000E-03 0.  1.
        -12    1    3    3    0    0 -0.12631668015E+02  0.25659535713E+01  0.21199255234E+00  0.12891396178E+02  0.00000000000E+00 0.  1.
</event>
<event>
 7    1  0.2732193E-010  0.4778727E+02  0.7816164E-02  0.1312668E+00
        -11   -1    0    0    0    0  0.00000000000E+00  0.00000000000E+00  0.45593999997E+02  0.45594000000E+02  0.51100000000E-03 0.  1.
         11   -1    0    0    0    0 -0.00000000000E+00 -0.00000000000E+00 -0.45593999997E+02  0.45594000000E+02  0.51100000000E-03 0. -1.
    9900012    2    1    2    0    0  0.11077608756E+02  0.11054894652E+02 -0.40480848134E+02  0.47787272159E+02  0.20000005081E+02 0.  0.
        -12    1    1    2    0    0 -0.11077608756E+02 -0.11054894652E+02  0.40480848134E+02  0.43400727841E+02  0.00000000000E+00 0.  1.
         11    1    3    3    0    0 -0.40423995040E+00 -0.21120132991E+01  0.46885336012E+00  0.22008711565E+01  0.51100000000E-03 0. -1.
        -11    1    3    3    0    0  0.96373687842E+01  0.63973450676E+01 -0.16506546432E+02  0.20156164724E+02  0.51100000000E-03 0.  1.
         12    1    3    3    0    0  0.18444799226E+01  0.67695628835E+01 -0.24443155062E+02  0.25430236279E+02  0.00000000000E+00 0. -1.
</event>
<event>
 7    1  0.2801795E-010  0.4778726E+02  0.7816164E-02  0.1312668E+00
        -11   -1    0    0    0    0  0.00000000000E+00  0.00000000000E+00  0.45593999997E+02  0.45594000000E+02  0.51100000000E-03 0.  1.
         11   -1    0    0    0    0 -0.00000000000E+00 -0.00000000000E+00 -0.45593999997E+02  0.45594000000E+02  0.51100000000E-03 0. -1.
    9900012    2    1    2    0    0 -0.32866821925E+02 -0.11169875093E+02 -0.26050526143E+02  0.47787262617E+02  0.19999961578E+02 0.  0.
        -12    1    1    2    0    0  0.32866821925E+02  0.11169875093E+02  0.26050526143E+02  0.43400737383E+02  0.00000000000E+00 0.  1.
         11    1    3    3    0    0 -0.13216730125E+02 -0.90624665906E+01 -0.12170083316E+02  0.20122653505E+02  0.51100000000E-03 0. -1.
        -11    1    3    3    0    0 -0.66794981243E+01  0.71862257819E+00  0.19591053249E+01  0.69978716434E+01  0.51100000000E-03 0.  1.
        -12    1    3    3    0    0 -0.12970593675E+02 -0.28260310807E+01 -0.15839548151E+02  0.20666737469E+02  0.00000000000E+00 0.  1.
</event>
<event>
 7    1  0.2732193E-010  0.4778727E+02  0.7816164E-02  0.1312668E+00
        -11   -1    0    0    0    0  0.00000000000E+00  0.00000000000E+00  0.45593999997E+02  0.45594000000E+02  0.51100000000E-03 0. -1.
         11   -1    0    0    0    0 -0.00000000000E+00 -0.00000000000E+00 -0.45593999997E+02  0.45594000000E+02  0.51100000000E-03 0.  1.
    9900012    2    1    2    0    0  0.28181141158E+02 -0.19497715439E+02  0.26632419330E+02  0.47787269780E+02  0.19999994233E+02 0.  0.
        -12    1    1    2    0    0 -0.28181141158E+02  0.19497715439E+02 -0.26632419330E+02  0.43400730220E+02  0.00000000000E+00 0.  1.
         11    1    3    3    0    0  0.18341215312E+02 -0.11689984018E+02  0.24694363189E+02  0.32906951834E+02  0.51100000000E-03 0. -1.
        -11    1    3    3    0    0  0.11019482945E+02 -0.72893075693E+01  0.25465463565E+01  0.13455404410E+02  0.51100000000E-03 0.  1.
         12    1    3    3    0    0 -0.11795570998E+01 -0.51842385221E+00 -0.60849021524E+00  0.14249135358E+01  0.00000000000E+00 0. -1.
</event>
<event>
 7    1  0.2732193E-010  0.4778728E+02  0.7816164E-02  0.1312668E+00
        -11   -1    0    0    0    0  0.00000000000E+00  0.00000000000E+00  0.45593999997E+02  0.45594000000E+02  0.51100000000E-03 0. -1.
         11   -1    0    0    0    0 -0.00000000000E+00 -0.00000000000E+00 -0.45593999997E+02  0.45594000000E+02  0.51100000000E-03 0.  1.
    9900012    2    1    2    0    0 -0.19409128258E+02  0.19121466504E+02  0.33782808738E+02  0.47787275268E+02  0.20000019258E+02 0.  0.
        -12    1    1    2    0    0  0.19409128258E+02 -0.19121466504E+02 -0.33782808738E+02  0.43400724732E+02  0.00000000000E+00 0.  1.
         11    1    3    3    0    0 -0.17145312577E+02  0.11118366093E+02  0.24433645828E+02  0.31852517273E+02  0.51100000000E-03 0. -1.
        -11    1    3    3    0    0  0.30951560976E+00  0.72259944260E+01  0.10708745569E+02  0.12922384737E+02  0.51100000000E-03 0.  1.
         12    1    3    3    0    0 -0.25733312907E+01  0.77710598496E+00 -0.13595826583E+01  0.30123732584E+01  0.00000000000E+00 0. -1.
</event>
<event>
 7    1  0.2732193E-010  0.4778727E+02  0.7816164E-02  0.1312668E+00
        -11   -1    0    0    0    0  0.00000000000E+00  0.00000000000E+00  0.45593999997E+02  0.45594000000E+02  0.51100000000E-03 0.  1.
         11   -1    0    0    0    0 -0.00000000000E+00 -0.00000000000E+00 -0.45593999997E+02  0.45594000000E+02  0.51100000000E-03 0. -1.
    9900012    2    1    2    0    0  0.35761549056E+01 -0.23495901941E+02 -0.36314967066E+02  0.47787272760E+02  0.20000007823E+02 0.  0.
        -12    1    1    2    0    0 -0.35761549056E+01  0.23495901941E+02  0.36314967066E+02  0.43400727240E+02  0.00000000000E+00 0.  1.
         11    1    3    3    0    0 -0.46259846424E+00  0.14068374800E+01  0.11516381877E+00  0.14854130741E+01  0.51100000000E-03 0. -1.
        -11    1    3    3    0    0  0.71199553408E+01 -0.15252522925E+02 -0.29704820831E+02  0.34142489664E+02  0.51100000000E-03 0.  1.
        -12    1    3    3    0    0 -0.30812019710E+01 -0.96502164959E+01 -0.67253100541E+01  0.12159370022E+02  0.00000000000E+00 0.  1.
</event>
<event>
 7    1  0.2732193E-010  0.4778727E+02  0.7816164E-02  0.1312668E+00
        -11   -1    0    0    0    0  0.00000000000E+00  0.00000000000E+00  0.45593999997E+02  0.45594000000E+02  0.51100000000E-03 0.  1.
         11   -1    0    0    0    0 -0.00000000000E+00 -0.00000000000E+00 -0.45593999997E+02  0.45594000000E+02  0.51100000000E-03 0. -1.
    9900012    2    1    2    0    0  0.69291784617E+01  0.15455269086E+02 -0.39959288619E+02  0.47787267246E+02  0.19999982681E+02 0.  0.
        -12    1    1    2    0    0 -0.69291784617E+01 -0.15455269086E+02  0.39959288619E+02  0.43400732754E+02  0.00000000000E+00 0.  1.
         11    1    3    3    0    0  0.12193551811E+02  0.10309280963E+02 -0.22224516655E+02  0.27365911652E+02  0.51100000000E-03 0. -1.
        -11    1    3    3    0    0 -0.38770200845E+01  0.68839757928E+01 -0.13782061202E+02  0.15886019599E+02  0.51100000000E-03 0.  1.
         12    1    3    3    0    0 -0.13873532648E+01 -0.17379876698E+01 -0.39527107619E+01  0.45353359951E+01  0.00000000000E+00 0. -1.
</event>
<event>
 7    1  0.2732193E-010  0.4778727E+02  0.7816164E-02  0.1312668E+00
        -11   -1    0    0    0    0  0.00000000000E+00  0.00000000000E+00  0.45593999997E+02  0.45594000000E+02  0.51100000000E-03 0. -1.
         11   -1    0    0    0    0 -0.00000000000E+00 -0.00000000000E+00 -0.45593999997E+02  0.45594000000E+02  0.51100000000E-03 0.  1.
    9900012    2    1    2    0    0  0.34266029311E+02 -0.23805577608E+02  0.11948094876E+02  0.47787271191E+02  0.20000000666E+02 0.  0.
        -12    1    1    2    0    0 -0.34266029311E+02  0.23805577608E+02 -0.11948094876E+02  0.43400728809E+02  0.00000000000E+00 0.  1.
         11    1    3    3    0    0  0.13837449150E+02 -0.73914716093E+01  0.89105384543E+01  0.18041800003E+02  0.51100000000E-03 0. -1.
        -11    1    3    3    0    0  0.72545320167E+01 -0.14532620349E+02  0.90434663780E+00  0.16267855793E+02  0.51100000000E-03 0.  1.
        -12    1    3    3    0    0  0.13174048144E+02 -0.18814856502E+01  0.21332097836E+01  0.13477615395E+02  0.00000000000E+00 0.  1.
</event>
<event>
 7    1  0.2732193E-010  0.4778727E+02  0.7816164E-02  0.1312668E+00
        -11   -1    0    0    0    0  0.00000000000E+00  0.00000000000E+00  0.45593999997E+02  0.45594000000E+02  0.51100000000E-03 0.  1.
         11   -1    0    0    0    0 -0.00000000000E+00 -0.00000000000E+00 -0.45593999997E+02  0.45594000000E+02  0.51100000000E-03 0. -1.
    9900012    2    1    2    0    0  0.39256384831E+02 -0.30526506152E+01 -0.18254883769E+02  0.47787271812E+02  0.20000003501E+02 0.  0.
        -12    1    1    2    0    0 -0.39256384831E+02  0.30526506152E+01  0.18254883769E+02  0.43400728188E+02  0.00000000000E+00 0.  1.
         11    1    3    3    0    0  0.28221744384E+02 -0.72259566687E+01 -0.12854624755E+02  0.31842152624E+02  0.51100000000E-03 0. -1.
        -11    1    3    3    0    0  0.49690174680E+01  0.53055703076E+01  0.65666206411E+00  0.72987270269E+01  0.51100000000E-03 0.  1.
        -12    1    3    3    0    0  0.60656229794E+01 -0.11322642540E+01 -0.60569210780E+01  0.86463921617E+01  0.00000000000E+00 0.  1.
</event>
<event>
 7    1  0.2732193E-010  0.4778723E+02  0.7816164E-02  0.1312668E+00
        -11   -1    0    0    0    0  0.00000000000E+00  0.00000000000E+00  0.45593999997E+02  0.45594000000E+02  0.51100000000E-03 0.  1.
         11   -1    0    0    0    0 -0.00000000000E+00 -0.00000000000E+00 -0.45593999997E+02  0.45594000000E+02  0.51100000000E-03 0. -1.
    9900012    2    1    2    0    0  0.14645985259E+02  0.18567393289E+02 -0.36391943324E+02  0.47787233686E+02  0.19999829666E+02 0.  0.
        -12    1    1    2    0    0 -0.14645985259E+02 -0.18567393289E+02  0.36391943324E+02  0.43400766314E+02  0.00000000000E+00 0.  1.
         11    1    3    3    0    0  0.35896282301E+01  0.65156032394E+01 -0.12200341887E+02  0.14289396727E+02  0.51100000000E-03 0. -1.
        -11    1    3    3    0    0  0.10301433870E+02  0.16061212894E+02 -0.20292492276E+02  0.27854395388E+02  0.51100000000E-03 0.  1.
        -12    1    3    3    0    0  0.75492315877E+00 -0.40094228436E+01 -0.38991091617E+01  0.56434415713E+01  0.00000000000E+00 0.  1.
</event>
<event>
 7    1  0.2732193E-010  0.4778727E+02  0.7816164E-02  0.1312668E+00
        -11   -1    0    0    0    0  0.00000000000E+00  0.00000000000E+00  0.45593999997E+02  0.45594000000E+02  0.51100000000E-03 0.  1.
         11   -1    0    0    0    0 -0.00000000000E+00 -0.00000000000E+00 -0.45593999997E+02  0.45594000000E+02  0.51100000000E-03 0. -1.
    9900012    2    1    2    0    0  0.58755834576E+01 -0.93914878592E+01 -0.41963086801E+02  0.47787272137E+02  0.20000004981E+02 0.  0.
        -12    1    1    2    0    0 -0.58755834576E+01  0.93914878592E+01  0.41963086801E+02  0.43400727863E+02  0.00000000000E+00 0.  1.
         11    1    3    3    0    0  0.94841676565E+00 -0.49555139648E+01 -0.16894733283E+02  0.17632034085E+02  0.51100000000E-03 0. -1.
        -11    1    3    3    0    0 -0.44164342240E+01 -0.27668973946E+01 -0.16724365469E+02  0.17517562989E+02  0.51100000000E-03 0.  1.
        -12    1    3    3    0    0  0.93436009160E+01 -0.16690764998E+01 -0.83439880486E+01  0.12637675063E+02  0.00000000000E+00 0.  1.
</event>
<event>
 7    1  0.2732193E-010  0.4778727E+02  0.7816164E-02  0.1312668E+00
        -11   -1    0    0    0    0  0.00000000000E+00  0.00000000000E+00  0.45593999997E+02  0.45594000000E+02  0.51100000000E-03 0. -1.
         11   -1    0    0    0    0 -0.00000000000E+00 -0.00000000000E+00 -0.45593999997E+02  0.45594000000E+02  0.51100000000E-03 0.  1.
    9900012    2    1    2    0    0 -0.21617820188E+01  0.12654177424E+02  0.41458673965E+02  0.47787272417E+02  0.20000006257E+02 0.  0.
        -12    1    1    2    0    0  0.21617820188E+01 -0.12654177424E+02 -0.41458673965E+02  0.43400727583E+02  0.00000000000E+00 0.  1.
         11    1    3    3    0    0 -0.31288593152E+01  0.11809139421E+02  0.38942888681E+02  0.40814141097E+02  0.51100000000E-03 0. -1.
        -11    1    3    3    0    0  0.26189920057E+01 -0.18323192777E+01  0.49595014132E+00  0.32345756855E+01  0.51100000000E-03 0.  1.
        -12    1    3    3    0    0 -0.16519147094E+01  0.26773572814E+01  0.20198351435E+01  0.37385556338E+01  0.00000000000E+00 0.  1.
</event>
<event>
 7    1  0.2732193E-010  0.4778727E+02  0.7816164E-02  0.1312668E+00
        -11   -1    0    0    0    0  0.00000000000E+00  0.00000000000E+00  0.45593999997E+02  0.45594000000E+02  0.51100000000E-03 0. -1.
         11   -1    0    0    0    0 -0.00000000000E+00 -0.00000000000E+00 -0.45593999997E+02  0.45594000000E+02  0.51100000000E-03 0.  1.
    9900012    2    1    2    0    0 -0.32296507400E+02 -0.74183574672E-02  0.28992389348E+02  0.47787273216E+02  0.20000009901E+02 0.  0.
        -12    1    1    2    0    0  0.32296507400E+02  0.74183574672E-02 -0.28992389348E+02  0.43400726784E+02  0.00000000000E+00 0.  1.
         11    1    3    3    0    0 -0.15111797564E+02 -0.50485254910E+01  0.39546069503E+01  0.16416240484E+02  0.51100000000E-03 0. -1.
        -11    1    3    3    0    0 -0.62307447531E+01  0.15357102848E+01  0.14134534662E+02  0.15523068531E+02  0.51100000000E-03 0.  1.
         12    1    3    3    0    0 -0.10953965084E+02  0.35053968487E+01  0.10903247736E+02  0.15847964201E+02  0.00000000000E+00 0. -1.
</event>
<event>
 7    1  0.2732193E-010  0.4778727E+02  0.7816164E-02  0.1312668E+00
        -11   -1    0    0    0    0  0.00000000000E+00  0.00000000000E+00  0.45593999997E+02  0.45594000000E+02  0.51100000000E-03 0. -1.
         11   -1    0    0    0    0 -0.00000000000E+00 -0.00000000000E+00 -0.45593999997E+02  0.45594000000E+02  0.51100000000E-03 0.  1.
    9900012    2    1    2    0    0  0.42464812602E+02  0.88711483133E+01 -0.12905543782E+01  0.47787272905E+02  0.20000008485E+02 0.  0.
        -12    1    1    2    0    0 -0.42464812602E+02 -0.88711483133E+01  0.12905543782E+01  0.43400727095E+02  0.00000000000E+00 0.  1.
         11    1    3    3    0    0  0.15870530566E+02  0.48342228779E+01  0.59975714460E+01  0.17641267380E+02  0.51100000000E-03 0. -1.
        -11    1    3    3    0    0  0.38181092424E+01  0.42733492480E+01 -0.43190497803E+01  0.71759085312E+01  0.51100000000E-03 0.  1.
        -12    1    3    3    0    0  0.22776172794E+02 -0.23642381262E+00 -0.29690760439E+01  0.22970096994E+02  0.00000000000E+00 0.  1.
</event>
<event>
 7    1  0.2732193E-010  0.4778727E+02  0.7816164E-02  0.1312668E+00
        -11   -1    0    0    0    0  0.00000000000E+00  0.00000000000E+00  0.45593999997E+02  0.45594000000E+02  0.51100000000E-03 0. -1.
         11   -1    0    0    0    0 -0.00000000000E+00 -0.00000000000E+00 -0.45593999997E+02  0.45594000000E+02  0.51100000000E-03 0.  1.
    9900012    2    1    2    0    0  0.39065873493E+02 -0.15680370579E+02  0.10564411717E+02  0.47787270879E+02  0.19999999248E+02 0.  0.
        -12    1    1    2    0    0 -0.39065873493E+02  0.15680370579E+02 -0.10564411717E+02  0.43400729121E+02  0.00000000000E+00 0.  1.
         11    1    3    3    0    0  0.28980065352E+02 -0.11419704151E+02  0.18514914232E+01  0.31203875584E+02  0.51100000000E-03 0. -1.
        -11    1    3    3    0    0  0.27271731310E+01 -0.35341761516E+01 -0.79941982692E+00  0.45350795669E+01  0.51100000000E-03 0.  1.
         12    1    3    3    0    0  0.73586350098E+01 -0.72649027695E+00  0.95123401204E+01  0.12048315729E+02  0.00000000000E+00 0. -1.
</event>
<event>
 7    1  0.2732193E-010  0.4778727E+02  0.7816164E-02  0.1312668E+00
        -11   -1    0    0    0    0  0.00000000000E+00  0.00000000000E+00  0.45593999997E+02  0.45594000000E+02  0.51100000000E-03 0. -1.
         11   -1    0    0    0    0 -0.00000000000E+00 -0.00000000000E+00 -0.45593999997E+02  0.45594000000E+02  0.51100000000E-03 0.  1.
    9900012    2    1    2    0    0 -0.31703998262E+02 -0.16948359573E+02  0.24315283681E+02  0.47787269378E+02  0.19999992404E+02 0.  0.
        -12    1    1    2    0    0  0.31703998262E+02  0.16948359573E+02 -0.24315283681E+02  0.43400730622E+02  0.00000000000E+00 0.  1.
         11    1    3    3    0    0 -0.15581978834E+02 -0.10471819111E+02  0.14422919286E+02  0.23674409409E+02  0.51100000000E-03 0. -1.
        -11    1    3    3    0    0 -0.25990515279E+00  0.16798891556E+01  0.54818056781E+01  0.57393180794E+01  0.51100000000E-03 0.  1.
        -12    1    3    3    0    0 -0.15862114275E+02 -0.81564296179E+01  0.44105587170E+01  0.18373541890E+02  0.00000000000E+00 0.  1.
</event>
<event>
 7    1  0.2732193E-010  0.4778730E+02  0.7816164E-02  0.1312668E+00
        -11   -1    0    0    0    0  0.00000000000E+00  0.00000000000E+00  0.45593999997E+02  0.45594000000E+02  0.51100000000E-03 0.  1.
         11   -1    0    0    0    0 -0.00000000000E+00 -0.00000000000E+00 -0.45593999997E+02  0.45594000000E+02  0.51100000000E-03 0. -1.
    9900012    2    1    2    0    0 -0.19226891134E+02 -0.18280772746E+02 -0.34347647581E+02  0.47787298517E+02  0.20000125257E+02 0.  0.
        -12    1    1    2    0    0  0.19226891134E+02  0.18280772746E+02  0.34347647581E+02  0.43400701483E+02  0.00000000000E+00 0.  1.
         11    1    3    3    0    0 -0.13220149611E+02 -0.61647818186E+01 -0.19254887106E+02  0.24156315289E+02  0.51100000000E-03 0. -1.
        -11    1    3    3    0    0 -0.64417116280E+00 -0.12732268610E+02 -0.99030181722E+01  0.16142967188E+02  0.51100000000E-03 0.  1.
        -12    1    3    3    0    0 -0.53625703597E+01  0.61627768219E+00 -0.51897423032E+01  0.74880160402E+01  0.00000000000E+00 0.  1.
</event>
<event>
 7    1  0.2732193E-010  0.4778727E+02  0.7816164E-02  0.1312668E+00
        -11   -1    0    0    0    0  0.00000000000E+00  0.00000000000E+00  0.45593999997E+02  0.45594000000E+02  0.51100000000E-03 0.  1.
         11   -1    0    0    0    0 -0.00000000000E+00 -0.00000000000E+00 -0.45593999997E+02  0.45594000000E+02  0.51100000000E-03 0. -1.
    9900012    2    1    2    0    0  0.42868592526E+02  0.25415144849E+01  0.62807250506E+01  0.47787273874E+02  0.20000012903E+02 0.  0.
        -12    1    1    2    0    0 -0.42868592526E+02 -0.25415144849E+01 -0.62807250506E+01  0.43400726126E+02  0.00000000000E+00 0.  1.
         11    1    3    3    0    0  0.22198711040E+02 -0.49324865070E+01  0.55907904088E+00  0.22746972647E+02  0.51100000000E-03 0. -1.
        -11    1    3    3    0    0  0.13288989384E+02  0.43158713656E+01  0.87205183639E+01  0.16470319526E+02  0.51100000000E-03 0.  1.
         12    1    3    3    0    0  0.73808921026E+01  0.31581296262E+01 -0.29988723541E+01  0.85699817014E+01  0.00000000000E+00 0. -1.
</event>
<event>
 7    1  0.2732193E-010  0.4778727E+02  0.7816164E-02  0.1312668E+00
        -11   -1    0    0    0    0  0.00000000000E+00  0.00000000000E+00  0.45593999997E+02  0.45594000000E+02  0.51100000000E-03 0. -1.
         11   -1    0    0    0    0 -0.00000000000E+00 -0.00000000000E+00 -0.45593999997E+02  0.45594000000E+02  0.51100000000E-03 0.  1.
    9900012    2    1    2    0    0  0.34478814621E+02 -0.59134228422E+00  0.26353082459E+02  0.47787270761E+02  0.19999998708E+02 0.  0.
        -12    1    1    2    0    0 -0.34478814621E+02  0.59134228422E+00 -0.26353082459E+02  0.43400729239E+02  0.00000000000E+00 0.  1.
         11    1    3    3    0    0  0.94626376927E+01  0.49621938951E+01  0.13221272107E+02  0.16999026935E+02  0.51100000000E-03 0. -1.
        -11    1    3    3    0    0  0.33790902033E+01 -0.49357103092E+01  0.13057390380E+01  0.61224538834E+01  0.51100000000E-03 0.  1.
         12    1    3    3    0    0  0.21637086725E+02 -0.61782587014E+00  0.11826071314E+02  0.24665789942E+02  0.00000000000E+00 0. -1.
</event>
<event>
 7    1  0.2732193E-010  0.4778726E+02  0.7816164E-02  0.1312668E+00
        -11   -1    0    0    0    0  0.00000000000E+00  0.00000000000E+00  0.45593999997E+02  0.45594000000E+02  0.51100000000E-03 0.  1.
         11   -1    0    0    0    0 -0.00000000000E+00 -0.00000000000E+00 -0.45593999997E+02  0.45594000000E+02  0.51100000000E-03 0. -1.
    9900012    2    1    2    0    0  0.32474625829E+01 -0.42500863498E+02 -0.81703373883E+01  0.47787264702E+02  0.19999971084E+02 0.  0.
        -12    1    1    2    0    0 -0.32474625829E+01  0.42500863498E+02  0.81703373883E+01  0.43400735298E+02  0.00000000000E+00 0.  1.
         11    1    3    3    0    0 -0.47783457490E+01 -0.47579849341E+01 -0.44006603984E+01  0.80521314528E+01  0.51100000000E-03 0. -1.
        -11    1    3    3    0    0  0.77552002862E+01 -0.16931892469E+02 -0.23850159106E+00  0.18624956304E+02  0.51100000000E-03 0.  1.
        -12    1    3    3    0    0  0.27060804576E+00 -0.20810986095E+02 -0.35311753989E+01  0.21110176946E+02  0.00000000000E+00 0.  1.
</event>
<event>
 7    1  0.2732193E-010  0.4778727E+02  0.7816164E-02  0.1312668E+00
        -11   -1    0    0    0    0  0.00000000000E+00  0.00000000000E+00  0.45593999997E+02  0.45594000000E+02  0.51100000000E-03 0. -1.
         11   -1    0    0    0    0 -0.00000000000E+00 -0.00000000000E+00 -0.45593999997E+02  0.45594000000E+02  0.51100000000E-03 0.  1.
    9900012    2    1    2    0    0 -0.30365689303E+02  0.23156145440E+02 -0.20623792651E+02  0.47787274409E+02  0.20000015342E+02 0.  0.
        -12    1    1    2    0    0  0.30365689303E+02 -0.23156145440E+02  0.20623792651E+02  0.43400725591E+02  0.00000000000E+00 0.  1.
         11    1    3    3    0    0 -0.13768044961E+02  0.63618863086E+01  0.90962641555E+00  0.15194080424E+02  0.51100000000E-03 0. -1.
        -11    1    3    3    0    0 -0.25068168381E+01  0.44938994777E+01 -0.79774259431E+01  0.94930810654E+01  0.51100000000E-03 0.  1.
         12    1    3    3    0    0 -0.14090827504E+02  0.12300359653E+02 -0.13555993124E+02  0.23100112920E+02  0.00000000000E+00 0. -1.
</event>
<event>
 7    1  0.2732193E-010  0.4778728E+02  0.7816164E-02  0.1312668E+00
        -11   -1    0    0    0    0  0.00000000000E+00  0.00000000000E+00  0.45593999997E+02  0.45594000000E+02  0.51100000000E-03 0.  1.
         11   -1    0    0    0    0 -0.00000000000E+00 -0.00000000000E+00 -0.45593999997E+02  0.45594000000E+02  0.51100000000E-03 0. -1.
    9900012    2    1    2    0    0 -0.11165595055E+01  0.39730184534E+02 -0.17432400574E+02  0.47787275835E+02  0.20000021841E+02 0.  0.
        -12    1    1    2    0    0  0.11165595055E+01 -0.39730184534E+02  0.17432400574E+02  0.43400724165E+02  0.00000000000E+00 0.  1.
         11    1    3    3    0    0 -0.65018117617E+01  0.27627223106E+02 -0.17322144099E+02  0.33250469007E+02  0.51100000000E-03 0. -1.
        -11    1    3    3    0    0  0.54955729822E+01  0.12747006696E+02 -0.15232904517E+00  0.13882028185E+02  0.51100000000E-03 0.  1.
        -12    1    3    3    0    0 -0.11032072602E+00 -0.64404526811E+00  0.42072570243E-01  0.65477864285E+00  0.00000000000E+00 0.  1.
</event>
<event>
 7    1  0.2732193E-010  0.4778727E+02  0.7816164E-02  0.1312668E+00
        -11   -1    0    0    0    0  0.00000000000E+00  0.00000000000E+00  0.45593999997E+02  0.45594000000E+02  0.51100000000E-03 0.  1.
         11   -1    0    0    0    0 -0.00000000000E+00 -0.00000000000E+00 -0.45593999997E+02  0.45594000000E+02  0.51100000000E-03 0. -1.
    9900012    2    1    2    0    0 -0.11141597128E+02 -0.33003346394E+02 -0.25889521536E+02  0.47787269763E+02  0.19999994157E+02 0.  0.
        -12    1    1    2    0    0  0.11141597128E+02  0.33003346394E+02  0.25889521536E+02  0.43400730237E+02  0.00000000000E+00 0.  1.
         11    1    3    3    0    0  0.70667789024E+00 -0.27642934399E+01  0.23352860288E+01  0.36870412202E+01  0.51100000000E-03 0.  1.
        -11    1    3    3    0    0 -0.91862497270E+01 -0.21987172114E+02 -0.25748576699E+02  0.35082932088E+02  0.51100000000E-03 0. -1.
         12    1    3    3    0    0 -0.26620252915E+01 -0.82518808398E+01 -0.24762308655E+01  0.90172964544E+01  0.00000000000E+00 0. -1.
</event>
<event>
 7    1  0.2732193E-010  0.4778728E+02  0.7816164E-02  0.1312668E+00
        -11   -1    0    0    0    0  0.00000000000E+00  0.00000000000E+00  0.45593999997E+02  0.45594000000E+02  0.51100000000E-03 0.  1.
         11   -1    0    0    0    0 -0.00000000000E+00 -0.00000000000E+00 -0.45593999997E+02  0.45594000000E+02  0.51100000000E-03 0. -1.
    9900012    2    1    2    0    0 -0.10217973859E+02  0.44526441036E+01 -0.41945080052E+02  0.47787276850E+02  0.20000026471E+02 0.  0.
        -12    1    1    2    0    0  0.10217973859E+02 -0.44526441036E+01  0.41945080052E+02  0.43400723150E+02  0.00000000000E+00 0.  1.
         11    1    3    3    0    0 -0.17507508892E+00  0.61499965893E+01 -0.28989564941E+02  0.29635249030E+02  0.51100000000E-03 0. -1.
        -11    1    3    3    0    0 -0.10271453427E+02 -0.13034660517E+00 -0.82124321743E+01  0.13151569800E+02  0.51100000000E-03 0.  1.
        -12    1    3    3    0    0  0.22855465635E+00 -0.15670058805E+01 -0.47430829376E+01  0.50004580203E+01  0.00000000000E+00 0.  1.
</event>
<event>
 7    1  0.2732193E-010  0.4778727E+02  0.7816164E-02  0.1312668E+00
        -11   -1    0    0    0    0  0.00000000000E+00  0.00000000000E+00  0.45593999997E+02  0.45594000000E+02  0.51100000000E-03 0.  1.
         11   -1    0    0    0    0 -0.00000000000E+00 -0.00000000000E+00 -0.45593999997E+02  0.45594000000E+02  0.51100000000E-03 0. -1.
    9900012    2    1    2    0    0  0.71645840424E+00  0.19815516074E+02 -0.38606413443E+02  0.47787272485E+02  0.20000006566E+02 0.  0.
        -12    1    1    2    0    0 -0.71645840424E+00 -0.19815516074E+02  0.38606413443E+02  0.43400727515E+02  0.00000000000E+00 0.  1.
         11    1    3    3    0    0 -0.93446923764E+00  0.16640244213E+01 -0.20490348732E+02  0.20579033054E+02  0.51100000000E-03 0. -1.
        -11    1    3    3    0    0  0.44423301379E+01  0.15824784274E+02 -0.13122101102E+02  0.21032062000E+02  0.51100000000E-03 0.  1.
        -12    1    3    3    0    0 -0.27914024960E+01  0.23267073785E+01 -0.49939636094E+01  0.61761774304E+01  0.00000000000E+00 0.  1.
</event>
<event>
 7    1  0.2732193E-010  0.4778728E+02  0.7816164E-02  0.1312668E+00
        -11   -1    0    0    0    0  0.00000000000E+00  0.00000000000E+00  0.45593999997E+02  0.45594000000E+02  0.51100000000E-03 0.  1.
         11   -1    0    0    0    0 -0.00000000000E+00 -0.00000000000E+00 -0.45593999997E+02  0.45594000000E+02  0.51100000000E-03 0. -1.
    9900012    2    1    2    0    0  0.16648673165E+02  0.39101590598E+02  0.88039743282E+01  0.47787278009E+02  0.20000031752E+02 0.  0.
        -12    1    1    2    0    0 -0.16648673165E+02 -0.39101590598E+02 -0.88039743282E+01  0.43400721991E+02  0.00000000000E+00 0.  1.
         11    1    3    3    0    0  0.13938528165E+02  0.28373473878E+02  0.98252826443E+00  0.31627550480E+02  0.51100000000E-03 0. -1.
        -11    1    3    3    0    0 -0.81981912692E+00  0.94711879114E+01  0.79761742334E+01  0.12409466528E+02  0.51100000000E-03 0.  1.
         12    1    3    3    0    0  0.35299641263E+01  0.12569288080E+01 -0.15472816966E+00  0.37502609999E+01  0.00000000000E+00 0. -1.
</event>
<event>
 7    1  0.2732193E-010  0.4778727E+02  0.7816164E-02  0.1312668E+00
        -11   -1    0    0    0    0  0.00000000000E+00  0.00000000000E+00  0.45593999997E+02  0.45594000000E+02  0.51100000000E-03 0. -1.
         11   -1    0    0    0    0 -0.00000000000E+00 -0.00000000000E+00 -0.45593999997E+02  0.45594000000E+02  0.51100000000E-03 0.  1.
    9900012    2    1    2    0    0  0.35902318423E+02  0.22205709475E+02 -0.10077373790E+02  0.47787268855E+02  0.19999990018E+02 0.  0.
        -12    1    1    2    0    0 -0.35902318423E+02 -0.22205709475E+02  0.10077373790E+02  0.43400731145E+02  0.00000000000E+00 0.  1.
         11    1    3    3    0    0  0.10405286498E+02 -0.30556913729E+00  0.19020260162E+01  0.10582110510E+02  0.51100000000E-03 0. -1.
        -11    1    3    3    0    0  0.20295325663E+02  0.16908242936E+02 -0.13087292787E+02  0.29479928015E+02  0.51100000000E-03 0.  1.
         12    1    3    3    0    0  0.52017062610E+01  0.56030356756E+01  0.11078929810E+01  0.77252303308E+01  0.00000000000E+00 0. -1.
</event>
<event>
 7    1  0.2732193E-010  0.4778727E+02  0.7816164E-02  0.1312668E+00
        -11   -1    0    0    0    0  0.00000000000E+00  0.00000000000E+00  0.45593999997E+02  0.45594000000E+02  0.51100000000E-03 0. -1.
         11   -1    0    0    0    0 -0.00000000000E+00 -0.00000000000E+00 -0.45593999997E+02  0.45594000000E+02  0.51100000000E-03 0.  1.
    9900012    2    1    2    0    0  0.33383119728E+02 -0.17503099021E+02  0.21513543341E+02  0.47787266075E+02  0.19999977344E+02 0.  0.
        -12    1    1    2    0    0 -0.33383119728E+02  0.17503099021E+02 -0.21513543341E+02  0.43400733925E+02  0.00000000000E+00 0.  1.
         11    1    3    3    0    0  0.25682197246E+02 -0.98182948668E+01  0.11848997510E+02  0.29939487499E+02  0.51100000000E-03 0. -1.
        -11    1    3    3    0    0 -0.45216972690E+00 -0.53063836564E+01  0.49376023861E+00  0.53484543941E+01  0.51100000000E-03 0.  1.
         12    1    3    3    0    0  0.81530922093E+01 -0.23784204977E+01  0.91707855921E+01  0.12499324182E+02  0.00000000000E+00 0. -1.
</event>
<event>
 7    1  0.2732193E-010  0.4778727E+02  0.7816164E-02  0.1312668E+00
        -11   -1    0    0    0    0  0.00000000000E+00  0.00000000000E+00  0.45593999997E+02  0.45594000000E+02  0.51100000000E-03 0. -1.
         11   -1    0    0    0    0 -0.00000000000E+00 -0.00000000000E+00 -0.45593999997E+02  0.45594000000E+02  0.51100000000E-03 0.  1.
    9900012    2    1    2    0    0 -0.84795860011E+01  0.23280346307E+02  0.35633491980E+02  0.47787266669E+02  0.19999980051E+02 0.  0.
        -12    1    1    2    0    0  0.84795860011E+01 -0.23280346307E+02 -0.35633491980E+02  0.43400733331E+02  0.00000000000E+00 0.  1.
         11    1    3    3    0    0 -0.96202330752E+01  0.86034638309E+01  0.27451637527E+02  0.30334153647E+02  0.51100000000E-03 0. -1.
        -11    1    3    3    0    0 -0.11224139666E+01  0.11056795681E+02  0.64194003339E+01  0.12834377459E+02  0.51100000000E-03 0.  1.
         12    1    3    3    0    0  0.22630610407E+01  0.36200867952E+01  0.17624541198E+01  0.46187355632E+01  0.00000000000E+00 0. -1.
</event>
<event>
 7    1  0.2732193E-010  0.4778727E+02  0.7816164E-02  0.1312668E+00
        -11   -1    0    0    0    0  0.00000000000E+00  0.00000000000E+00  0.45593999997E+02  0.45594000000E+02  0.51100000000E-03 0. -1.
         11   -1    0    0    0    0 -0.00000000000E+00 -0.00000000000E+00 -0.45593999997E+02  0.45594000000E+02  0.51100000000E-03 0.  1.
    9900012    2    1    2    0    0 -0.10659792624E+02 -0.34043708514E+02  0.24718773773E+02  0.47787273681E+02  0.20000012021E+02 0.  0.
        -12    1    1    2    0    0  0.10659792624E+02  0.34043708514E+02 -0.24718773773E+02  0.43400726319E+02  0.00000000000E+00 0.  1.
         11    1    3    3    0    0 -0.78316246122E+01 -0.32670855381E+02  0.19698610048E+02  0.38945530854E+02  0.51100000000E-03 0. -1.
        -11    1    3    3    0    0 -0.22867739886E-01  0.18409044574E+01 -0.45932754785E+00  0.18974810176E+01  0.51100000000E-03 0.  1.
         12    1    3    3    0    0 -0.28053002723E+01 -0.32137575903E+01  0.54794912731E+01  0.69442618095E+01  0.00000000000E+00 0. -1.
</event>
<event>
 7    1  0.2732193E-010  0.4778727E+02  0.7816164E-02  0.1312668E+00
        -11   -1    0    0    0    0  0.00000000000E+00  0.00000000000E+00  0.45593999997E+02  0.45594000000E+02  0.51100000000E-03 0.  1.
         11   -1    0    0    0    0 -0.00000000000E+00 -0.00000000000E+00 -0.45593999997E+02  0.45594000000E+02  0.51100000000E-03 0. -1.
    9900012    2    1    2    0    0 -0.40267630031E+01  0.41374084707E+02 -0.12473719555E+02  0.47787269763E+02  0.19999994156E+02 0.  0.
        -12    1    1    2    0    0  0.40267630031E+01 -0.41374084707E+02  0.12473719555E+02  0.43400730237E+02  0.00000000000E+00 0.  1.
         11    1    3    3    0    0 -0.26882063343E+01  0.75182846960E+01 -0.35481990003E+01  0.87373207834E+01  0.51100000000E-03 0. -1.
        -11    1    3    3    0    0 -0.27589004340E+00  0.66621677981E+01 -0.97629486195E+01  0.11822679946E+02  0.51100000000E-03 0.  1.
        -12    1    3    3    0    0 -0.10626666254E+01  0.27193632213E+02  0.83742806534E+00  0.27227269034E+02  0.00000000000E+00 0.  1.
</event>
<event>
 7    1  0.2732193E-010  0.4778727E+02  0.7816164E-02  0.1312668E+00
        -11   -1    0    0    0    0  0.00000000000E+00  0.00000000000E+00  0.45593999997E+02  0.45594000000E+02  0.51100000000E-03 0.  1.
         11   -1    0    0    0    0 -0.00000000000E+00 -0.00000000000E+00 -0.45593999997E+02  0.45594000000E+02  0.51100000000E-03 0. -1.
    9900012    2    1    2    0    0 -0.42002937256E+02  0.10646153504E+02 -0.24568363734E+01  0.47787269966E+02  0.19999995082E+02 0.  0.
        -12    1    1    2    0    0  0.42002937256E+02 -0.10646153504E+02  0.24568363734E+01  0.43400730034E+02  0.00000000000E+00 0.  1.
         11    1    3    3    0    0 -0.52220769810E+01 -0.19303077766E+00  0.20564691026E+01  0.56157291875E+01  0.51100000000E-03 0. -1.
        -11    1    3    3    0    0  0.12234215459E-01 -0.26627339503E+01 -0.91007236374E+00  0.28139889364E+01  0.51100000000E-03 0.  1.
        -12    1    3    3    0    0 -0.36793094490E+02  0.13501918232E+02 -0.36032331123E+01  0.39357551842E+02  0.00000000000E+00 0.  1.
</event>
<event>
 7    1 -0.2732193E-010  0.4778727E+02  0.7816164E-02  0.1312668E+00
        -11   -1    0    0    0    0  0.00000000000E+00  0.00000000000E+00  0.45593999997E+02  0.45594000000E+02  0.51100000000E-03 0.  1.
         11   -1    0    0    0    0 -0.00000000000E+00 -0.00000000000E+00 -0.45593999997E+02  0.45594000000E+02  0.51100000000E-03 0. -1.
    9900012    2    1    2    0    0  0.23297740348E+02  0.26091968057E+01 -0.36524389231E+02  0.47787267034E+02  0.19999981714E+02 0.  0.
        -12    1    1    2    0    0 -0.23297740348E+02 -0.26091968057E+01  0.36524389231E+02  0.43400732966E+02  0.00000000000E+00 0.  1.
         11    1    3    3    0    0  0.84707165305E+01 -0.16743822183E+01 -0.86645917249E+01  0.12232405502E+02  0.51100000000E-03 0. -1.
        -11    1    3    3    0    0  0.24219754754E+01  0.37779526683E+01  0.57832812532E+00  0.45247491918E+01  0.51100000000E-03 0.  1.
        -12    1    3    3    0    0  0.12405048342E+02  0.50562635575E+00 -0.28438125632E+02  0.31030112340E+02  0.00000000000E+00 0.  1.
</event>
<event>
 7    1  0.2732193E-010  0.4778727E+02  0.7816164E-02  0.1312668E+00
        -11   -1    0    0    0    0  0.00000000000E+00  0.00000000000E+00  0.45593999997E+02  0.45594000000E+02  0.51100000000E-03 0. -1.
         11   -1    0    0    0    0 -0.00000000000E+00 -0.00000000000E+00 -0.45593999997E+02  0.45594000000E+02  0.51100000000E-03 0.  1.
    9900012    2    1    2    0    0  0.12206038137E+02  0.41640560957E+02  0.83637548469E+00  0.47787271806E+02  0.20000003474E+02 0.  0.
        -12    1    1    2    0    0 -0.12206038137E+02 -0.41640560957E+02 -0.83637548469E+00  0.43400728194E+02  0.00000000000E+00 0.  1.
         11    1    3    3    0    0  0.59340165594E+01  0.90203808280E+01  0.31278101026E+01  0.11241130686E+02  0.51100000000E-03 0. -1.
        -11    1    3    3    0    0  0.75510251486E+00  0.48859541851E+00 -0.38044208257E+01  0.39092868110E+01  0.51100000000E-03 0.  1.
        -12    1    3    3    0    0  0.55169190629E+01  0.32131584710E+02  0.15129862078E+01  0.32636854309E+02  0.00000000000E+00 0.  1.
</event>
<event>
 7    1  0.2732193E-010  0.4778727E+02  0.7816164E-02  0.1312668E+00
        -11   -1    0    0    0    0  0.00000000000E+00  0.00000000000E+00  0.45593999997E+02  0.45594000000E+02  0.51100000000E-03 0. -1.
         11   -1    0    0    0    0 -0.00000000000E+00 -0.00000000000E+00 -0.45593999997E+02  0.45594000000E+02  0.51100000000E-03 0.  1.
    9900012    2    1    2    0    0  0.40432221751E+02  0.58909947203E+01 -0.14634030644E+02  0.47787271580E+02  0.20000002440E+02 0.  0.
        -12    1    1    2    0    0 -0.40432221751E+02 -0.58909947203E+01  0.14634030644E+02  0.43400728420E+02  0.00000000000E+00 0.  1.
         11    1    3    3    0    0  0.68051845564E+01  0.54520901365E+01 -0.65403196009E+01  0.10900073598E+02  0.51100000000E-03 0. -1.
        -11    1    3    3    0    0  0.72579882108E+01  0.54346596313E+01 -0.96457810170E+00  0.91183512408E+01  0.51100000000E-03 0.  1.
         12    1    3    3    0    0  0.26369048984E+02 -0.49957550474E+01 -0.71291329412E+01  0.27768846741E+02  0.00000000000E+00 0. -1.
</event>
<event>
 7    1  0.2732193E-010  0.4778727E+02  0.7816164E-02  0.1312668E+00
        -11   -1    0    0    0    0  0.00000000000E+00  0.00000000000E+00  0.45593999997E+02  0.45594000000E+02  0.51100000000E-03 0. -1.
         11   -1    0    0    0    0 -0.00000000000E+00 -0.00000000000E+00 -0.45593999997E+02  0.45594000000E+02  0.51100000000E-03 0.  1.
    9900012    2    1    2    0    0  0.20743510197E+02 -0.10125079964E+02  0.36753406899E+02  0.47787269842E+02  0.19999994517E+02 0.  0.
        -12    1    1    2    0    0 -0.20743510197E+02  0.10125079964E+02 -0.36753406899E+02  0.43400730158E+02  0.00000000000E+00 0.  1.
         11    1    3    3    0    0  0.12540545861E+02 -0.12650010583E+02  0.23280643492E+02  0.29313417064E+02  0.51100000000E-03 0. -1.
        -11    1    3    3    0    0  0.28668116785E+01  0.47475234720E+01  0.25249874363E+01  0.60936975747E+01  0.51100000000E-03 0.  1.
        -12    1    3    3    0    0  0.53361526576E+01 -0.22225928521E+01  0.10947775970E+02  0.12380155204E+02  0.00000000000E+00 0.  1.
</event>
<event>
 7    1  0.2732193E-010  0.4778727E+02  0.7816164E-02  0.1312668E+00
        -11   -1    0    0    0    0  0.00000000000E+00  0.00000000000E+00  0.45593999997E+02  0.45594000000E+02  0.51100000000E-03 0.  1.
         11   -1    0    0    0    0 -0.00000000000E+00 -0.00000000000E+00 -0.45593999997E+02  0.45594000000E+02  0.51100000000E-03 0. -1.
    9900012    2    1    2    0    0  0.92897573462E+01  0.42314964236E+02 -0.26014592203E+01  0.47787269822E+02  0.19999994428E+02 0.  0.
        -12    1    1    2    0    0 -0.92897573462E+01 -0.42314964236E+02  0.26014592203E+01  0.43400730178E+02  0.00000000000E+00 0.  1.
         11    1    3    3    0    0  0.82720357754E+01  0.10073479671E+02  0.48870004318E+01  0.13920644455E+02  0.51100000000E-03 0.  1.
        -11    1    3    3    0    0  0.24504922859E+00  0.15639276148E+02 -0.72622171646E+01  0.17244906668E+02  0.51100000000E-03 0. -1.
         12    1    3    3    0    0  0.77267234215E+00  0.16602208417E+02 -0.22624248750E+00  0.16621718700E+02  0.00000000000E+00 0. -1.
</event>
<event>
 7    1  0.2732193E-010  0.4778727E+02  0.7816164E-02  0.1312668E+00
        -11   -1    0    0    0    0  0.00000000000E+00  0.00000000000E+00  0.45593999997E+02  0.45594000000E+02  0.51100000000E-03 0.  1.
         11   -1    0    0    0    0 -0.00000000000E+00 -0.00000000000E+00 -0.45593999997E+02  0.45594000000E+02  0.51100000000E-03 0. -1.
    9900012    2    1    2    0    0  0.33181769647E+02  0.82589244094E+01 -0.26727959127E+02  0.47787268804E+02  0.19999989783E+02 0.  0.
        -12    1    1    2    0    0 -0.33181769647E+02 -0.82589244094E+01  0.26727959127E+02  0.43400731196E+02  0.00000000000E+00 0.  1.
         11    1    3    3    0    0  0.27620667796E+02  0.69741852225E+01 -0.14302318544E+02  0.31876274327E+02  0.51100000000E-03 0. -1.
        -11    1    3    3    0    0  0.47864839081E+01 -0.20050458612E+01 -0.11150032135E+02  0.12298530562E+02  0.51100000000E-03 0.  1.
         12    1    3    3    0    0  0.77461794268E+00  0.32897850481E+01 -0.12756084486E+01  0.36124639145E+01  0.00000000000E+00 0. -1.
</event>
<event>
 7    1  0.2732193E-010  0.4778727E+02  0.7816164E-02  0.1312668E+00
        -11   -1    0    0    0    0  0.00000000000E+00  0.00000000000E+00  0.45593999997E+02  0.45594000000E+02  0.51100000000E-03 0.  1.
         11   -1    0    0    0    0 -0.00000000000E+00 -0.00000000000E+00 -0.45593999997E+02  0.45594000000E+02  0.51100000000E-03 0. -1.
    9900012    2    1    2    0    0  0.40859757872E+02 -0.13815046439E+02 -0.48216183057E+01  0.47787270461E+02  0.19999997339E+02 0.  0.
        -12    1    1    2    0    0 -0.40859757872E+02  0.13815046439E+02  0.48216183057E+01  0.43400729539E+02  0.00000000000E+00 0.  1.
         11    1    3    3    0    0  0.80628137101E+01 -0.10207610916E+02  0.15132081880E+01  0.13095575009E+02  0.51100000000E-03 0. -1.
        -11    1    3    3    0    0  0.16623716120E+02 -0.18625490779E+01 -0.76045164327E+01  0.18375138017E+02  0.51100000000E-03 0.  1.
         12    1    3    3    0    0  0.16173228041E+02 -0.17448864455E+01  0.12696899390E+01  0.16316557435E+02  0.00000000000E+00 0. -1.
</event>
<event>
 7    1  0.2732193E-010  0.4778728E+02  0.7816164E-02  0.1312668E+00
        -11   -1    0    0    0    0  0.00000000000E+00  0.00000000000E+00  0.45593999997E+02  0.45594000000E+02  0.51100000000E-03 0. -1.
         11   -1    0    0    0    0 -0.00000000000E+00 -0.00000000000E+00 -0.45593999997E+02  0.45594000000E+02  0.51100000000E-03 0.  1.
    9900012    2    1    2    0    0 -0.32610671551E+02  0.11928405122E+02 -0.26036130738E+02  0.47787275910E+02  0.20000022183E+02 0.  0.
        -12    1    1    2    0    0  0.32610671551E+02 -0.11928405122E+02  0.26036130738E+02  0.43400724090E+02  0.00000000000E+00 0.  1.
         11    1    3    3    0    0  0.42192253685E+00  0.38935888188E+01 -0.36070798750E+00  0.39329585595E+01  0.51100000000E-03 0. -1.
        -11    1    3    3    0    0 -0.30566346268E+01  0.55052852582E+00 -0.72350145239E+01  0.78734701575E+01  0.51100000000E-03 0.  1.
         12    1    3    3    0    0 -0.29975959461E+02  0.74842877772E+01 -0.18440408227E+02  0.35980847193E+02  0.00000000000E+00 0. -1.
</event>
<event>
 7    1  0.2732193E-010  0.4778727E+02  0.7816164E-02  0.1312668E+00
        -11   -1    0    0    0    0  0.00000000000E+00  0.00000000000E+00  0.45593999997E+02  0.45594000000E+02  0.51100000000E-03 0.  1.
         11   -1    0    0    0    0 -0.00000000000E+00 -0.00000000000E+00 -0.45593999997E+02  0.45594000000E+02  0.51100000000E-03 0. -1.
    9900012    2    1    2    0    0  0.22506159817E+02 -0.25521776082E+02 -0.26939466869E+02  0.47787272365E+02  0.20000006021E+02 0.  0.
        -12    1    1    2    0    0 -0.22506159817E+02  0.25521776082E+02  0.26939466869E+02  0.43400727635E+02  0.00000000000E+00 0.  1.
         11    1    3    3    0    0  0.53639886212E+01  0.19636946256E+01 -0.61866958958E+01  0.84204321076E+01  0.51100000000E-03 0. -1.
        -11    1    3    3    0    0  0.67057525425E+01 -0.84290306921E+01 -0.26643514171E+01  0.11095694855E+02  0.51100000000E-03 0.  1.
         12    1    3    3    0    0  0.10436418654E+02 -0.19056440015E+02 -0.18088419556E+02  0.28271145403E+02  0.00000000000E+00 0. -1.
</event>
<event>
 7    1  0.2732193E-010  0.4778727E+02  0.7816164E-02  0.1312668E+00
        -11   -1    0    0    0    0  0.00000000000E+00  0.00000000000E+00  0.45593999997E+02  0.45594000000E+02  0.51100000000E-03 0.  1.
         11   -1    0    0    0    0 -0.00000000000E+00 -0.00000000000E+00 -0.45593999997E+02  0.45594000000E+02  0.51100000000E-03 0. -1.
    9900012    2    1    2    0    0 -0.98665629975E+01 -0.33609874973E+02 -0.25625194518E+02  0.47787270107E+02  0.19999995728E+02 0.  0.
        -12    1    1    2    0    0  0.98665629975E+01  0.33609874973E+02  0.25625194518E+02  0.43400729893E+02  0.00000000000E+00 0.  1.
         11    1    3    3    0    0 -0.96655256775E+01 -0.25591356198E+02 -0.22480854680E+02  0.35408031943E+02  0.51100000000E-03 0. -1.
        -11    1    3    3    0    0 -0.23095902594E+01 -0.21487954439E+01 -0.49646110212E+01  0.58820822741E+01  0.51100000000E-03 0.  1.
         12    1    3    3    0    0  0.21085529394E+01 -0.58697233316E+01  0.18202711828E+01  0.64971558906E+01  0.00000000000E+00 0. -1.
</event>
<event>
 7    1  0.2732193E-010  0.4778727E+02  0.7816164E-02  0.1312668E+00
        -11   -1    0    0    0    0  0.00000000000E+00  0.00000000000E+00  0.45593999997E+02  0.45594000000E+02  0.51100000000E-03 0. -1.
         11   -1    0    0    0    0 -0.00000000000E+00 -0.00000000000E+00 -0.45593999997E+02  0.45594000000E+02  0.51100000000E-03 0.  1.
    9900012    2    1    2    0    0 -0.27940911395E+02 -0.25040370126E+02  0.21815328713E+02  0.47787271521E+02  0.20000002175E+02 0.  0.
        -12    1    1    2    0    0  0.27940911395E+02  0.25040370126E+02 -0.21815328713E+02  0.43400728479E+02  0.00000000000E+00 0.  1.
         11    1    3    3    0    0 -0.17604521939E+02 -0.17778706657E+02  0.22104773312E+02  0.33385964215E+02  0.51100000000E-03 0. -1.
        -11    1    3    3    0    0 -0.10801584142E+02 -0.72274708903E+01  0.99519382566E+00  0.13034606494E+02  0.51100000000E-03 0.  1.
        -12    1    3    3    0    0  0.46519468564E+00 -0.34192578153E-01 -0.12846384252E+01  0.13667008127E+01  0.00000000000E+00 0.  1.
</event>
<event>
 7    1  0.2732193E-010  0.4778727E+02  0.7816164E-02  0.1312668E+00
        -11   -1    0    0    0    0  0.00000000000E+00  0.00000000000E+00  0.45593999997E+02  0.45594000000E+02  0.51100000000E-03 0. -1.
         11   -1    0    0    0    0 -0.00000000000E+00 -0.00000000000E+00 -0.45593999997E+02  0.45594000000E+02  0.51100000000E-03 0.  1.
    9900012    2    1    2    0    0 -0.24142180794E+02  0.35950631488E+02  0.28862144830E+01  0.47787273832E+02  0.20000012708E+02 0.  0.
        -12    1    1    2    0    0  0.24142180794E+02 -0.35950631488E+02 -0.28862144830E+01  0.43400726168E+02  0.00000000000E+00 0.  1.
         11    1    3    3    0    0 -0.23059487161E+02  0.24133674754E+02 -0.27285210807E+01  0.33490581255E+02  0.51100000000E-03 0. -1.
        -11    1    3    3    0    0  0.22807872620E+01  0.36812161986E+01  0.15442494449E+01  0.45976134945E+01  0.51100000000E-03 0.  1.
         12    1    3    3    0    0 -0.33634808943E+01  0.81357405362E+01  0.40704861188E+01  0.96990790822E+01  0.00000000000E+00 0. -1.
</event>
<event>
 7    1  0.2732193E-010  0.4778727E+02  0.7816164E-02  0.1312668E+00
        -11   -1    0    0    0    0  0.00000000000E+00  0.00000000000E+00  0.45593999997E+02  0.45594000000E+02  0.51100000000E-03 0. -1.
         11   -1    0    0    0    0 -0.00000000000E+00 -0.00000000000E+00 -0.45593999997E+02  0.45594000000E+02  0.51100000000E-03 0.  1.
    9900012    2    1    2    0    0 -0.18112076340E+02 -0.10238805129E+02  0.38088619965E+02  0.47787269468E+02  0.19999992815E+02 0.  0.
        -12    1    1    2    0    0  0.18112076340E+02  0.10238805129E+02 -0.38088619965E+02  0.43400730532E+02  0.00000000000E+00 0.  1.
         11    1    3    3    0    0 -0.10994179044E+02 -0.21743353070E-01  0.21466522855E+02  0.24118126987E+02  0.51100000000E-03 0. -1.
        -11    1    3    3    0    0 -0.44937809963E+01 -0.88780379866E+01  0.40277432538E+01  0.10734819147E+02  0.51100000000E-03 0.  1.
         12    1    3    3    0    0 -0.26241162996E+01 -0.13390237898E+01  0.12594353857E+02  0.12934323335E+02  0.00000000000E+00 0. -1.
</event>
<event>
 7    1  0.2732193E-010  0.4778727E+02  0.7816164E-02  0.1312668E+00
        -11   -1    0    0    0    0  0.00000000000E+00  0.00000000000E+00  0.45593999997E+02  0.45594000000E+02  0.51100000000E-03 0.  1.
         11   -1    0    0    0    0 -0.00000000000E+00 -0.00000000000E+00 -0.45593999997E+02  0.45594000000E+02  0.51100000000E-03 0. -1.
    9900012    2    1    2    0    0  0.28617898715E+02  0.23233965553E+02 -0.22908995376E+02  0.47787270152E+02  0.19999995932E+02 0.  0.
        -12    1    1    2    0    0 -0.28617898715E+02 -0.23233965553E+02  0.22908995376E+02  0.43400729848E+02  0.00000000000E+00 0.  1.
         11    1    3    3    0    0  0.49905300903E+01  0.98338290113E+01 -0.15870551505E+02  0.19325733853E+02  0.51100000000E-03 0. -1.
        -11    1    3    3    0    0  0.17251257782E+02  0.72394717051E+01 -0.45906027473E+01  0.19263682916E+02  0.51100000000E-03 0.  1.
         12    1    3    3    0    0  0.63761108426E+01  0.61606648364E+01 -0.24478411234E+01  0.91978533838E+01  0.00000000000E+00 0. -1.
</event>
<event>
 7    1  0.2732193E-010  0.4778728E+02  0.7816164E-02  0.1312668E+00
        -11   -1    0    0    0    0  0.00000000000E+00  0.00000000000E+00  0.45593999997E+02  0.45594000000E+02  0.51100000000E-03 0.  1.
         11   -1    0    0    0    0 -0.00000000000E+00 -0.00000000000E+00 -0.45593999997E+02  0.45594000000E+02  0.51100000000E-03 0. -1.
    9900012    2    1    2    0    0 -0.23491130933E+02 -0.46645452071E+01 -0.36194358035E+02  0.47787276872E+02  0.20000026570E+02 0.  0.
        -12    1    1    2    0    0  0.23491130933E+02  0.46645452071E+01  0.36194358035E+02  0.43400723128E+02  0.00000000000E+00 0.  1.
         11    1    3    3    0    0 -0.47512820961E+01 -0.60112981640E-01 -0.22552160920E+02  0.23047304778E+02  0.51100000000E-03 0. -1.
        -11    1    3    3    0    0 -0.16791722527E+02 -0.59521139391E+01 -0.13525898419E+02  0.22368270699E+02  0.51100000000E-03 0.  1.
         12    1    3    3    0    0 -0.19481263097E+01  0.13476817137E+01 -0.11629869647E+00  0.23717013949E+01  0.00000000000E+00 0. -1.
</event>
<event>
 7    1  0.2732193E-010  0.4778727E+02  0.7816164E-02  0.1312668E+00
        -11   -1    0    0    0    0  0.00000000000E+00  0.00000000000E+00  0.45593999997E+02  0.45594000000E+02  0.51100000000E-03 0.  1.
         11   -1    0    0    0    0 -0.00000000000E+00 -0.00000000000E+00 -0.45593999997E+02  0.45594000000E+02  0.51100000000E-03 0. -1.
    9900012    2    1    2    0    0  0.29191404772E+02 -0.25527214412E+02 -0.19489664159E+02  0.47787265015E+02  0.19999972510E+02 0.  0.
        -12    1    1    2    0    0 -0.29191404772E+02  0.25527214412E+02  0.19489664159E+02  0.43400734985E+02  0.00000000000E+00 0.  1.
         11    1    3    3    0    0  0.19162356982E+02 -0.14091805450E+02 -0.12181826408E+02  0.26723992981E+02  0.51100000000E-03 0. -1.
        -11    1    3    3    0    0  0.12335161173E+02 -0.10914307744E+02 -0.39175435066E+01  0.16930016600E+02  0.51100000000E-03 0.  1.
         12    1    3    3    0    0 -0.23061133836E+01 -0.52110121787E+00 -0.33902942444E+01  0.41332554337E+01  0.00000000000E+00 0. -1.
</event>
<event>
 7    1  0.2732193E-010  0.4778727E+02  0.7816164E-02  0.1312668E+00
        -11   -1    0    0    0    0  0.00000000000E+00  0.00000000000E+00  0.45593999997E+02  0.45594000000E+02  0.51100000000E-03 0. -1.
         11   -1    0    0    0    0 -0.00000000000E+00 -0.00000000000E+00 -0.45593999997E+02  0.45594000000E+02  0.51100000000E-03 0.  1.
    9900012    2    1    2    0    0 -0.54803439596E+00  0.43201588338E+02  0.41164983604E+01  0.47787272640E+02  0.20000007276E+02 0.  0.
        -12    1    1    2    0    0  0.54803439596E+00 -0.43201588338E+02 -0.41164983604E+01  0.43400727360E+02  0.00000000000E+00 0.  1.
         11    1    3    3    0    0 -0.35786142675E+01  0.31775794596E+02  0.25770497446E+01  0.32080348937E+02  0.51100000000E-03 0. -1.
        -11    1    3    3    0    0  0.53555658145E+01  0.66666841197E+01 -0.26511763198E+01  0.89529603197E+01  0.51100000000E-03 0.  1.
        -12    1    3    3    0    0 -0.23249859430E+01  0.47591096219E+01  0.41906249357E+01  0.67539633831E+01  0.00000000000E+00 0.  1.
</event>
<event>
 7    1  0.2732193E-010  0.4778727E+02  0.7816164E-02  0.1312668E+00
        -11   -1    0    0    0    0  0.00000000000E+00  0.00000000000E+00  0.45593999997E+02  0.45594000000E+02  0.51100000000E-03 0.  1.
         11   -1    0    0    0    0 -0.00000000000E+00 -0.00000000000E+00 -0.45593999997E+02  0.45594000000E+02  0.51100000000E-03 0. -1.
    9900012    2    1    2    0    0 -0.12907346427E+02  0.11644731270E+02 -0.39767121745E+02  0.47787270397E+02  0.19999997049E+02 0.  0.
        -12    1    1    2    0    0  0.12907346427E+02 -0.11644731270E+02  0.39767121745E+02  0.43400729603E+02  0.00000000000E+00 0.  1.
         11    1    3    3    0    0 -0.75386262676E+01  0.13231627148E+02 -0.23940281159E+02  0.28373295635E+02  0.51100000000E-03 0. -1.
        -11    1    3    3    0    0  0.11667717972E+01 -0.40080959734E+01 -0.72106321006E+01  0.83318308499E+01  0.51100000000E-03 0.  1.
        -12    1    3    3    0    0 -0.65354919564E+01  0.24212000962E+01 -0.86162084859E+01  0.11082143912E+02  0.00000000000E+00 0.  1.
</event>
<event>
 7    1  0.2732193E-010  0.4778728E+02  0.7816164E-02  0.1312668E+00
        -11   -1    0    0    0    0  0.00000000000E+00  0.00000000000E+00  0.45593999997E+02  0.45594000000E+02  0.51100000000E-03 0.  1.
         11   -1    0    0    0    0 -0.00000000000E+00 -0.00000000000E+00 -0.45593999997E+02  0.45594000000E+02  0.51100000000E-03 0. -1.
    9900012    2    1    2    0    0  0.11468568540E+02  0.41848835063E+02 -0.87723319062E+00  0.47787278824E+02  0.20000035470E+02 0.  0.
        -12    1    1    2    0    0 -0.11468568540E+02 -0.41848835063E+02  0.87723319062E+00  0.43400721176E+02  0.00000000000E+00 0.  1.
         11    1    3    3    0    0 -0.23601036271E+01  0.69682507512E+01 -0.44729218000E+01  0.86100892766E+01  0.51100000000E-03 0. -1.
        -11    1    3    3    0    0  0.51105851228E+01  0.60880407139E+01 -0.27886838070E+01  0.84237211295E+01  0.51100000000E-03 0.  1.
         12    1    3    3    0    0  0.87180870443E+01  0.28792543598E+02  0.63843724163E+01  0.30753468418E+02  0.00000000000E+00 0. -1.
</event>
<event>
 7    1  0.2732193E-010  0.4778727E+02  0.7816164E-02  0.1312668E+00
        -11   -1    0    0    0    0  0.00000000000E+00  0.00000000000E+00  0.45593999997E+02  0.45594000000E+02  0.51100000000E-03 0.  1.
         11   -1    0    0    0    0 -0.00000000000E+00 -0.00000000000E+00 -0.45593999997E+02  0.45594000000E+02  0.51100000000E-03 0. -1.
    9900012    2    1    2    0    0 -0.35924014943E+01  0.41978198487E+02 -0.10418686331E+02  0.47787268191E+02  0.19999986989E+02 0.  0.
        -12    1    1    2    0    0  0.35924014943E+01 -0.41978198487E+02  0.10418686331E+02  0.43400731809E+02  0.00000000000E+00 0.  1.
         11    1    3    3    0    0 -0.44336940628E+01  0.75389953186E+01 -0.81960543236E+01  0.11986217093E+02  0.51100000000E-03 0. -1.
        -11    1    3    3    0    0  0.11859736861E+01  0.23145041095E+02  0.29712224076E+01  0.23365094130E+02  0.51100000000E-03 0.  1.
        -12    1    3    3    0    0 -0.34468111758E+00  0.11294162074E+02 -0.51938544150E+01  0.12435956968E+02  0.00000000000E+00 0.  1.
</event>
<event>
 7    1  0.2732193E-010  0.4778727E+02  0.7816164E-02  0.1312668E+00
        -11   -1    0    0    0    0  0.00000000000E+00  0.00000000000E+00  0.45593999997E+02  0.45594000000E+02  0.51100000000E-03 0.  1.
         11   -1    0    0    0    0 -0.00000000000E+00 -0.00000000000E+00 -0.45593999997E+02  0.45594000000E+02  0.51100000000E-03 0. -1.
    9900012    2    1    2    0    0  0.20118590694E+01 -0.27409689167E+02 -0.33589948845E+02  0.47787270737E+02  0.19999998600E+02 0.  0.
        -12    1    1    2    0    0 -0.20118590694E+01  0.27409689167E+02  0.33589948845E+02  0.43400729263E+02  0.00000000000E+00 0.  1.
         11    1    3    3    0    0  0.86355918554E+01 -0.18602843387E+02 -0.23881442659E+02  0.31479557375E+02  0.51100000000E-03 0. -1.
        -11    1    3    3    0    0 -0.56122580550E+01 -0.22969269585E+01 -0.25481540925E+01  0.65777202334E+01  0.51100000000E-03 0.  1.
        -12    1    3    3    0    0 -0.10114747310E+01 -0.65099188215E+01 -0.71603520932E+01  0.97299931291E+01  0.00000000000E+00 0.  1.
</event>
<event>
 7    1  0.2732193E-010  0.4778727E+02  0.7816164E-02  0.1312668E+00
        -11   -1    0    0    0    0  0.00000000000E+00  0.00000000000E+00  0.45593999997E+02  0.45594000000E+02  0.51100000000E-03 0. -1.
         11   -1    0    0    0    0 -0.00000000000E+00 -0.00000000000E+00 -0.45593999997E+02  0.45594000000E+02  0.51100000000E-03 0.  1.
    9900012    2    1    2    0    0  0.40615927401E+02  0.61603767265E+01  0.14000710673E+02  0.47787266142E+02  0.19999977649E+02 0.  0.
        -12    1    1    2    0    0 -0.40615927401E+02 -0.61603767265E+01 -0.14000710673E+02  0.43400733858E+02  0.00000000000E+00 0.  1.
         11    1    3    3    0    0  0.15647192228E+02  0.68725647405E+01  0.12057448201E+02  0.20915277385E+02  0.51100000000E-03 0. -1.
        -11    1    3    3    0    0  0.17125272700E+02 -0.30511513131E+00 -0.32806436089E+01  0.17439342965E+02  0.51100000000E-03 0.  1.
        -12    1    3    3    0    0  0.78434624729E+01 -0.40707288263E+00  0.52239060806E+01  0.94326457918E+01  0.00000000000E+00 0.  1.
</event>
<event>
 7    1  0.2732193E-010  0.4778727E+02  0.7816164E-02  0.1312668E+00
        -11   -1    0    0    0    0  0.00000000000E+00  0.00000000000E+00  0.45593999997E+02  0.45594000000E+02  0.51100000000E-03 0.  1.
         11   -1    0    0    0    0 -0.00000000000E+00 -0.00000000000E+00 -0.45593999997E+02  0.45594000000E+02  0.51100000000E-03 0. -1.
    9900012    2    1    2    0    0  0.22972891781E+01 -0.38481259610E+02  0.19938375765E+02  0.47787266056E+02  0.19999977255E+02 0.  0.
        -12    1    1    2    0    0 -0.22972891781E+01  0.38481259610E+02 -0.19938375765E+02  0.43400733944E+02  0.00000000000E+00 0.  1.
         11    1    3    3    0    0 -0.54504307451E+01 -0.77688529818E+01  0.29385008568E+01  0.99346393747E+01  0.51100000000E-03 0. -1.
        -11    1    3    3    0    0  0.10896778550E+02 -0.24862619645E+02  0.13001039489E+02  0.30098449568E+02  0.51100000000E-03 0.  1.
        -12    1    3    3    0    0 -0.31490586264E+01 -0.58497869838E+01  0.39988354187E+01  0.77541771126E+01  0.00000000000E+00 0.  1.
</event>
<event>
 7    1  0.2732193E-010  0.4778727E+02  0.7816164E-02  0.1312668E+00
        -11   -1    0    0    0    0  0.00000000000E+00  0.00000000000E+00  0.45593999997E+02  0.45594000000E+02  0.51100000000E-03 0.  1.
         11   -1    0    0    0    0 -0.00000000000E+00 -0.00000000000E+00 -0.45593999997E+02  0.45594000000E+02  0.51100000000E-03 0. -1.
    9900012    2    1    2    0    0  0.17861540133E+02 -0.25552105327E+02 -0.30194020054E+02  0.47787267868E+02  0.19999985519E+02 0.  0.
        -12    1    1    2    0    0 -0.17861540133E+02  0.25552105327E+02  0.30194020054E+02  0.43400732132E+02  0.00000000000E+00 0.  1.
         11    1    3    3    0    0  0.51692866694E+01 -0.96909790057E+01 -0.84113863685E+01  0.13834305897E+02  0.51100000000E-03 0. -1.
        -11    1    3    3    0    0  0.67286519196E+01 -0.14935240622E+02 -0.22547323567E+02  0.27869660375E+02  0.51100000000E-03 0.  1.
        -12    1    3    3    0    0  0.59636015435E+01 -0.92588569927E+00  0.76468988179E+00  0.60833015965E+01  0.00000000000E+00 0.  1.
</event>
<event>
 7    1  0.2732193E-010  0.4778727E+02  0.7816164E-02  0.1312668E+00
        -11   -1    0    0    0    0  0.00000000000E+00  0.00000000000E+00  0.45593999997E+02  0.45594000000E+02  0.51100000000E-03 0.  1.
         11   -1    0    0    0    0 -0.00000000000E+00 -0.00000000000E+00 -0.45593999997E+02  0.45594000000E+02  0.51100000000E-03 0. -1.
    9900012    2    1    2    0    0 -0.12480118841E+02  0.26621205990E+02 -0.31924616131E+02  0.47787273166E+02  0.20000009673E+02 0.  0.
        -12    1    1    2    0    0  0.12480118841E+02 -0.26621205990E+02  0.31924616131E+02  0.43400726834E+02  0.00000000000E+00 0.  1.
         11    1    3    3    0    0 -0.18459811655E+01 -0.88699850958E+00 -0.29556952299E+01  0.35959070306E+01  0.51100000000E-03 0.  1.
        -11    1    3    3    0    0 -0.83359803129E+01  0.15796393532E+02 -0.26573483243E+02  0.32018192147E+02  0.51100000000E-03 0. -1.
        -12    1    3    3    0    0 -0.22981573626E+01  0.11711810967E+02 -0.23954376576E+01  0.12173173989E+02  0.00000000000E+00 0.  1.
</event>
<event>
 7    1  0.2732193E-010  0.4778727E+02  0.7816164E-02  0.1312668E+00
        -11   -1    0    0    0    0  0.00000000000E+00  0.00000000000E+00  0.45593999997E+02  0.45594000000E+02  0.51100000000E-03 0.  1.
         11   -1    0    0    0    0 -0.00000000000E+00 -0.00000000000E+00 -0.45593999997E+02  0.45594000000E+02  0.51100000000E-03 0. -1.
    9900012    2    1    2    0    0  0.37474863151E+02  0.19912891815E+02 -0.90958728596E+01  0.47787268073E+02  0.19999986454E+02 0.  0.
        -12    1    1    2    0    0 -0.37474863151E+02 -0.19912891815E+02  0.90958728596E+01  0.43400731927E+02  0.00000000000E+00 0.  1.
         11    1    3    3    0    0  0.27909387653E+02  0.11239209015E+02  0.24296115162E+01  0.30185373128E+02  0.51100000000E-03 0. -1.
        -11    1    3    3    0    0  0.68962218843E+01  0.79295751194E+01 -0.86798279140E+01  0.13629946835E+02  0.51100000000E-03 0.  1.
         12    1    3    3    0    0  0.26692536138E+01  0.74410768120E+00 -0.28456564619E+01  0.39719481108E+01  0.00000000000E+00 0. -1.
</event>
<event>
 7    1  0.2732193E-010  0.4778728E+02  0.7816164E-02  0.1312668E+00
        -11   -1    0    0    0    0  0.00000000000E+00  0.00000000000E+00  0.45593999997E+02  0.45594000000E+02  0.51100000000E-03 0. -1.
         11   -1    0    0    0    0 -0.00000000000E+00 -0.00000000000E+00 -0.45593999997E+02  0.45594000000E+02  0.51100000000E-03 0.  1.
    9900012    2    1    2    0    0 -0.12352876960E+02 -0.39939723295E+02  0.11655371520E+02  0.47787277064E+02  0.20000027447E+02 0.  0.
        -12    1    1    2    0    0  0.12352876960E+02  0.39939723295E+02 -0.11655371520E+02  0.43400722936E+02  0.00000000000E+00 0.  1.
         11    1    3    3    0    0 -0.39450266140E+00  0.70456715789E+00  0.20385491929E+01  0.21926537125E+01  0.51100000000E-03 0. -1.
        -11    1    3    3    0    0 -0.13222113018E+02 -0.29392683388E+02  0.27364860089E+01  0.32345671509E+02  0.51100000000E-03 0.  1.
        -12    1    3    3    0    0  0.12637387196E+01 -0.11251607065E+02  0.68803363180E+01  0.13248951843E+02  0.00000000000E+00 0.  1.
</event>
<event>
 7    1  0.2732193E-010  0.4778727E+02  0.7816164E-02  0.1312668E+00
        -11   -1    0    0    0    0  0.00000000000E+00  0.00000000000E+00  0.45593999997E+02  0.45594000000E+02  0.51100000000E-03 0.  1.
         11   -1    0    0    0    0 -0.00000000000E+00 -0.00000000000E+00 -0.45593999997E+02  0.45594000000E+02  0.51100000000E-03 0. -1.
    9900012    2    1    2    0    0  0.66765038570E+01  0.35704814901E+02 -0.23753178207E+02  0.47787274363E+02  0.20000015129E+02 0.  0.
        -12    1    1    2    0    0 -0.66765038570E+01 -0.35704814901E+02  0.23753178207E+02  0.43400725637E+02  0.00000000000E+00 0.  1.
         11    1    3    3    0    0  0.12114585480E+01  0.24784298967E+02 -0.19496950541E+02  0.31557252539E+02  0.51100000000E-03 0. -1.
        -11    1    3    3    0    0  0.69283194293E+01  0.29675202657E+01 -0.14859895203E+01  0.76821840487E+01  0.51100000000E-03 0.  1.
        -12    1    3    3    0    0 -0.14632741203E+01  0.79529956682E+01 -0.27702381458E+01  0.85478377754E+01  0.00000000000E+00 0.  1.
</event>
<event>
 7    1  0.2732193E-010  0.4778727E+02  0.7816164E-02  0.1312668E+00
        -11   -1    0    0    0    0  0.00000000000E+00  0.00000000000E+00  0.45593999997E+02  0.45594000000E+02  0.51100000000E-03 0. -1.
         11   -1    0    0    0    0 -0.00000000000E+00 -0.00000000000E+00 -0.45593999997E+02  0.45594000000E+02  0.51100000000E-03 0.  1.
    9900012    2    1    2    0    0 -0.31130611201E+02 -0.18709734789E+02  0.23758241376E+02  0.47787272323E+02  0.20000005828E+02 0.  0.
        -12    1    1    2    0    0  0.31130611201E+02  0.18709734789E+02 -0.23758241376E+02  0.43400727677E+02  0.00000000000E+00 0.  1.
         11    1    3    3    0    0 -0.46007440560E+01 -0.14162724169E+01  0.12023590188E+02  0.12951424427E+02  0.51100000000E-03 0. -1.
        -11    1    3    3    0    0 -0.17823797881E+02 -0.15845648099E+02  0.98967204185E+01  0.25820871594E+02  0.51100000000E-03 0.  1.
        -12    1    3    3    0    0 -0.87060692639E+01 -0.14478142732E+01  0.18379307703E+01  0.90149763014E+01  0.00000000000E+00 0.  1.
</event>
<event>
 7    1  0.2732193E-010  0.4778727E+02  0.7816164E-02  0.1312668E+00
        -11   -1    0    0    0    0  0.00000000000E+00  0.00000000000E+00  0.45593999997E+02  0.45594000000E+02  0.51100000000E-03 0.  1.
         11   -1    0    0    0    0 -0.00000000000E+00 -0.00000000000E+00 -0.45593999997E+02  0.45594000000E+02  0.51100000000E-03 0. -1.
    9900012    2    1    2    0    0  0.93318623135E+01  0.96424339059E+01 -0.41274242888E+02  0.47787270607E+02  0.19999998004E+02 0.  0.
        -12    1    1    2    0    0 -0.93318623135E+01 -0.96424339059E+01  0.41274242888E+02  0.43400729393E+02  0.00000000000E+00 0.  1.
         11    1    3    3    0    0 -0.23587956354E+01  0.50729790989E+01 -0.20836349229E+02  0.21574347805E+02  0.51100000000E-03 0. -1.
        -11    1    3    3    0    0  0.70028177268E+01  0.48964885125E+01 -0.46244016474E+01  0.97159737920E+01  0.51100000000E-03 0.  1.
        -12    1    3    3    0    0  0.46878402220E+01 -0.32703370554E+00 -0.15813492012E+02  0.16496949009E+02  0.00000000000E+00 0.  1.
</event>
<event>
 7    1  0.2732193E-010  0.4778727E+02  0.7816164E-02  0.1312668E+00
        -11   -1    0    0    0    0  0.00000000000E+00  0.00000000000E+00  0.45593999997E+02  0.45594000000E+02  0.51100000000E-03 0.  1.
         11   -1    0    0    0    0 -0.00000000000E+00 -0.00000000000E+00 -0.45593999997E+02  0.45594000000E+02  0.51100000000E-03 0. -1.
    9900012    2    1    2    0    0  0.34292230685E+02 -0.89508224255E+01 -0.25050926665E+02  0.47787271501E+02  0.20000002083E+02 0.  0.
        -12    1    1    2    0    0 -0.34292230685E+02  0.89508224255E+01  0.25050926665E+02  0.43400728499E+02  0.00000000000E+00 0.  1.
         11    1    3    3    0    0  0.25736425937E+02 -0.49156397726E+01 -0.11320802688E+02  0.28542734770E+02  0.51100000000E-03 0. -1.
        -11    1    3    3    0    0  0.44557473607E+01 -0.55346984625E+01 -0.13004433305E+02  0.14818969514E+02  0.51100000000E-03 0.  1.
        -12    1    3    3    0    0  0.41000573878E+01  0.14995158095E+01 -0.72569067168E+00  0.44255672176E+01  0.00000000000E+00 0.  1.
</event>
<event>
 7    1  0.2732193E-010  0.4778726E+02  0.7816164E-02  0.1312668E+00
        -11   -1    0    0    0    0  0.00000000000E+00  0.00000000000E+00  0.45593999997E+02  0.45594000000E+02  0.51100000000E-03 0.  1.
         11   -1    0    0    0    0 -0.00000000000E+00 -0.00000000000E+00 -0.45593999997E+02  0.45594000000E+02  0.51100000000E-03 0. -1.
    9900012    2    1    2    0    0 -0.39874320921E+01 -0.33815842828E+02 -0.26911205977E+02  0.47787264430E+02  0.19999969844E+02 0.  0.
        -12    1    1    2    0    0  0.39874320921E+01  0.33815842828E+02  0.26911205977E+02  0.43400735570E+02  0.00000000000E+00 0.  1.
         11    1    3    3    0    0 -0.67826034684E+01 -0.30482749144E+02 -0.20332500543E+02  0.37264088393E+02  0.51100000000E-03 0. -1.
        -11    1    3    3    0    0 -0.10701101911E+01 -0.23538629178E+00 -0.52935708112E+01  0.54057779017E+01  0.51100000000E-03 0.  1.
         12    1    3    3    0    0  0.38652815674E+01 -0.30977073919E+01 -0.12851346232E+01  0.51173981358E+01  0.00000000000E+00 0. -1.
</event>
<event>
 7    1  0.3438082E-010  0.4778727E+02  0.7816164E-02  0.1312668E+00
        -11   -1    0    0    0    0  0.00000000000E+00  0.00000000000E+00  0.45593999997E+02  0.45594000000E+02  0.51100000000E-03 0. -1.
         11   -1    0    0    0    0 -0.00000000000E+00 -0.00000000000E+00 -0.45593999997E+02  0.45594000000E+02  0.51100000000E-03 0.  1.
    9900012    2    1    2    0    0 -0.39777651621E+01 -0.12255782443E+02  0.41443895518E+02  0.47787270804E+02  0.19999998905E+02 0.  0.
        -12    1    1    2    0    0  0.39777651621E+01  0.12255782443E+02 -0.41443895518E+02  0.43400729196E+02  0.00000000000E+00 0.  1.
         11    1    3    3    0    0 -0.19698793326E+01 -0.11830132101E+02  0.28752008546E+02  0.31153016641E+02  0.51100000000E-03 0. -1.
        -11    1    3    3    0    0  0.26444307634E+01  0.36753251535E+01  0.58951803707E+01  0.74333156069E+01  0.51100000000E-03 0.  1.
        -12    1    3    3    0    0 -0.46523165930E+01 -0.41009754958E+01  0.67967066012E+01  0.92009385565E+01  0.00000000000E+00 0.  1.
</event>
<event>
 7    1  0.2732193E-010  0.4778727E+02  0.7816164E-02  0.1312668E+00
        -11   -1    0    0    0    0  0.00000000000E+00  0.00000000000E+00  0.45593999997E+02  0.45594000000E+02  0.51100000000E-03 0.  1.
         11   -1    0    0    0    0 -0.00000000000E+00 -0.00000000000E+00 -0.45593999997E+02  0.45594000000E+02  0.51100000000E-03 0. -1.
    9900012    2    1    2    0    0  0.49612582680E+01  0.15732824010E+02 -0.40143337286E+02  0.47787270013E+02  0.19999995296E+02 0.  0.
        -12    1    1    2    0    0 -0.49612582680E+01 -0.15732824010E+02  0.40143337286E+02  0.43400729987E+02  0.00000000000E+00 0.  1.
         11    1    3    3    0    0  0.27842964153E+01  0.97805134714E+01 -0.19265104371E+02  0.21784283256E+02  0.51100000000E-03 0. -1.
        -11    1    3    3    0    0 -0.13401115935E+00 -0.26324250775E+01 -0.15260510987E+02  0.15486472052E+02  0.51100000000E-03 0.  1.
        -12    1    3    3    0    0  0.23109730121E+01  0.85847356164E+01 -0.56177219290E+01  0.10516514705E+02  0.00000000000E+00 0.  1.
</event>
<event>
 7    1  0.2732193E-010  0.4778726E+02  0.7816164E-02  0.1312668E+00
        -11   -1    0    0    0    0  0.00000000000E+00  0.00000000000E+00  0.45593999997E+02  0.45594000000E+02  0.51100000000E-03 0.  1.
         11   -1    0    0    0    0 -0.00000000000E+00 -0.00000000000E+00 -0.45593999997E+02  0.45594000000E+02  0.51100000000E-03 0. -1.
    9900012    2    1    2    0    0 -0.23151097111E+01  0.11175771374E+02 -0.41873217502E+02  0.47787263338E+02  0.19999964864E+02 0.  0.
        -12    1    1    2    0    0  0.23151097111E+01 -0.11175771374E+02  0.41873217502E+02  0.43400736662E+02  0.00000000000E+00 0.  1.
         11    1    3    3    0    0  0.20744609200E+00  0.15328552010E+02 -0.36015795264E+02  0.39142624457E+02  0.51100000000E-03 0. -1.
        -11    1    3    3    0    0 -0.34231709099E+01 -0.18768729307E+01 -0.34140820532E+01  0.51862035829E+01  0.51100000000E-03 0.  1.
         12    1    3    3    0    0  0.90061510685E+00 -0.22759077052E+01 -0.24433401854E+01  0.34584352986E+01  0.00000000000E+00 0. -1.
</event>
<event>
 7    1  0.2732193E-010  0.4778727E+02  0.7816164E-02  0.1312668E+00
        -11   -1    0    0    0    0  0.00000000000E+00  0.00000000000E+00  0.45593999997E+02  0.45594000000E+02  0.51100000000E-03 0.  1.
         11   -1    0    0    0    0 -0.00000000000E+00 -0.00000000000E+00 -0.45593999997E+02  0.45594000000E+02  0.51100000000E-03 0. -1.
    9900012    2    1    2    0    0 -0.82317822267E+01 -0.81137705616E+00 -0.42605195502E+02  0.47787271260E+02  0.20000000985E+02 0.  0.
        -12    1    1    2    0    0  0.82317822267E+01  0.81137705616E+00  0.42605195502E+02  0.43400728740E+02  0.00000000000E+00 0.  1.
         11    1    3    3    0    0 -0.43619455585E+01 -0.56487158495E+01 -0.12512472394E+02  0.14404739688E+02  0.51100000000E-03 0. -1.
        -11    1    3    3    0    0  0.68995596380E+00  0.84504632688E+01 -0.15396158659E+02  0.17576349747E+02  0.51100000000E-03 0.  1.
        -12    1    3    3    0    0 -0.45597926320E+01 -0.36131244755E+01 -0.14696564449E+02  0.15806181826E+02  0.00000000000E+00 0.  1.
</event>
<event>
 7    1  0.2732193E-010  0.4778727E+02  0.7816164E-02  0.1312668E+00
        -11   -1    0    0    0    0  0.00000000000E+00  0.00000000000E+00  0.45593999997E+02  0.45594000000E+02  0.51100000000E-03 0.  1.
         11   -1    0    0    0    0 -0.00000000000E+00 -0.00000000000E+00 -0.45593999997E+02  0.45594000000E+02  0.51100000000E-03 0. -1.
    9900012    2    1    2    0    0 -0.10778683496E+02 -0.38788825634E+02 -0.16213284859E+02  0.47787267081E+02  0.19999981930E+02 0.  0.
        -12    1    1    2    0    0  0.10778683496E+02  0.38788825634E+02  0.16213284859E+02  0.43400732919E+02  0.00000000000E+00 0.  1.
         11    1    3    3    0    0 -0.13836481664E+02 -0.24514808530E+02 -0.11688786066E+02  0.30480350754E+02  0.51100000000E-03 0. -1.
        -11    1    3    3    0    0  0.35533251567E+01 -0.14648320731E+02 -0.55878108591E+01  0.16075541993E+02  0.51100000000E-03 0.  1.
        -12    1    3    3    0    0 -0.49552698844E+00  0.37430362712E+00  0.10633120662E+01  0.12313743345E+01  0.00000000000E+00 0.  1.
</event>
<event>
 7    1  0.2732193E-010  0.4778727E+02  0.7816164E-02  0.1312668E+00
        -11   -1    0    0    0    0  0.00000000000E+00  0.00000000000E+00  0.45593999997E+02  0.45594000000E+02  0.51100000000E-03 0. -1.
         11   -1    0    0    0    0 -0.00000000000E+00 -0.00000000000E+00 -0.45593999997E+02  0.45594000000E+02  0.51100000000E-03 0.  1.
    9900012    2    1    2    0    0 -0.33236631776E+02  0.19992173288E+02  0.19474665276E+02  0.47787271064E+02  0.20000000088E+02 0.  0.
        -12    1    1    2    0    0  0.33236631776E+02 -0.19992173288E+02 -0.19474665276E+02  0.43400728936E+02  0.00000000000E+00 0.  1.
         11    1    3    3    0    0 -0.27379216267E+01  0.50832917809E+01  0.18328203082E+01  0.60576646248E+01  0.51100000000E-03 0. -1.
        -11    1    3    3    0    0 -0.20060765286E+01  0.32615320194E+01 -0.28307264680E+01  0.47618217890E+01  0.51100000000E-03 0.  1.
        -12    1    3    3    0    0 -0.28492633621E+02  0.11647349488E+02  0.20472571436E+02  0.36967784650E+02  0.00000000000E+00 0.  1.
</event>
<event>
 7    1  0.2732193E-010  0.4778725E+02  0.7816164E-02  0.1312668E+00
        -11   -1    0    0    0    0  0.00000000000E+00  0.00000000000E+00  0.45593999997E+02  0.45594000000E+02  0.51100000000E-03 0.  1.
         11   -1    0    0    0    0 -0.00000000000E+00 -0.00000000000E+00 -0.45593999997E+02  0.45594000000E+02  0.51100000000E-03 0. -1.
    9900012    2    1    2    0    0 -0.14416196763E+02 -0.12548928040E+02 -0.38965657970E+02  0.47787253174E+02  0.19999918520E+02 0.  0.
        -12    1    1    2    0    0  0.14416196763E+02  0.12548928040E+02  0.38965657970E+02  0.43400746826E+02  0.00000000000E+00 0.  1.
         11    1    3    3    0    0 -0.14240701811E+02 -0.15829808632E+02 -0.27961033907E+02  0.35145410039E+02  0.51100000000E-03 0. -1.
        -11    1    3    3    0    0  0.19140729999E+01  0.14023014915E+01 -0.16912780493E+01  0.29138542556E+01  0.51100000000E-03 0.  1.
         12    1    3    3    0    0 -0.20895679511E+01  0.18785791007E+01 -0.93133460133E+01  0.97279888787E+01  0.00000000000E+00 0. -1.
</event>
<event>
 7    1  0.2732193E-010  0.4778727E+02  0.7816164E-02  0.1312668E+00
        -11   -1    0    0    0    0  0.00000000000E+00  0.00000000000E+00  0.45593999997E+02  0.45594000000E+02  0.51100000000E-03 0. -1.
         11   -1    0    0    0    0 -0.00000000000E+00 -0.00000000000E+00 -0.45593999997E+02  0.45594000000E+02  0.51100000000E-03 0.  1.
    9900012    2    1    2    0    0  0.33541835658E+02 -0.26138028873E+02  0.86817140709E+01  0.47787268994E+02  0.19999990652E+02 0.  0.
        -12    1    1    2    0    0 -0.33541835658E+02  0.26138028873E+02 -0.86817140709E+01  0.43400731006E+02  0.00000000000E+00 0.  1.
         11    1    3    3    0    0  0.38067571260E+01 -0.77844268948E+01  0.22387666957E+01  0.89499038250E+01  0.51100000000E-03 0. -1.
        -11    1    3    3    0    0  0.21569585138E+02 -0.17506053036E+02  0.10477905267E+02  0.29689988127E+02  0.51100000000E-03 0.  1.
        -12    1    3    3    0    0  0.81654933939E+01 -0.84754894170E+00 -0.40349578916E+01  0.91473770427E+01  0.00000000000E+00 0.  1.
</event>
<event>
 7    1  0.2732193E-010  0.4778725E+02  0.7816164E-02  0.1312668E+00
        -11   -1    0    0    0    0  0.00000000000E+00  0.00000000000E+00  0.45593999997E+02  0.45594000000E+02  0.51100000000E-03 0.  1.
         11   -1    0    0    0    0 -0.00000000000E+00 -0.00000000000E+00 -0.45593999997E+02  0.45594000000E+02  0.51100000000E-03 0. -1.
    9900012    2    1    2    0    0  0.16626956042E+02 -0.25629931525E+02 -0.30826547036E+02  0.47787250475E+02  0.19999906215E+02 0.  0.
        -12    1    1    2    0    0 -0.16626956042E+02  0.25629931525E+02  0.30826547036E+02  0.43400749525E+02  0.00000000000E+00 0.  1.
         11    1    3    3    0    0  0.94309897287E+01 -0.61138322505E+01 -0.43903010772E+01  0.12066368793E+02  0.51100000000E-03 0. -1.
        -11    1    3    3    0    0  0.19782661551E+01 -0.17279938716E+02 -0.23758155250E+02  0.29444180412E+02  0.51100000000E-03 0.  1.
        -12    1    3    3    0    0  0.52177001579E+01 -0.22361605585E+01 -0.26780907089E+01  0.62767012695E+01  0.00000000000E+00 0.  1.
</event>
<event>
 7    1  0.2732193E-010  0.4778727E+02  0.7816164E-02  0.1312668E+00
        -11   -1    0    0    0    0  0.00000000000E+00  0.00000000000E+00  0.45593999997E+02  0.45594000000E+02  0.51100000000E-03 0.  1.
         11   -1    0    0    0    0 -0.00000000000E+00 -0.00000000000E+00 -0.45593999997E+02  0.45594000000E+02  0.51100000000E-03 0. -1.
    9900012    2    1    2    0    0 -0.39226914435E+02  0.48552311300E+01 -0.17924820503E+02  0.47787271026E+02  0.19999999915E+02 0.  0.
        -12    1    1    2    0    0  0.39226914435E+02 -0.48552311300E+01  0.17924820503E+02  0.43400728974E+02  0.00000000000E+00 0.  1.
         11    1    3    3    0    0 -0.44426559062E+01 -0.47029927215E+01 -0.71494720661E+01  0.96421098897E+01  0.51100000000E-03 0.  1.
        -11    1    3    3    0    0 -0.17188206754E+02  0.69185955922E+01 -0.31818271192E+01  0.18799612774E+02  0.51100000000E-03 0. -1.
        -12    1    3    3    0    0 -0.17596051775E+02  0.26396282594E+01 -0.75935213177E+01  0.19345548362E+02  0.00000000000E+00 0.  1.
</event>
<event>
 7    1  0.2732193E-010  0.4778727E+02  0.7816164E-02  0.1312668E+00
        -11   -1    0    0    0    0  0.00000000000E+00  0.00000000000E+00  0.45593999997E+02  0.45594000000E+02  0.51100000000E-03 0. -1.
         11   -1    0    0    0    0 -0.00000000000E+00 -0.00000000000E+00 -0.45593999997E+02  0.45594000000E+02  0.51100000000E-03 0.  1.
    9900012    2    1    2    0    0  0.38733646455E+02 -0.22467455448E+01  0.19449429712E+02  0.47787267871E+02  0.19999985530E+02 0.  0.
        -12    1    1    2    0    0 -0.38733646455E+02  0.22467455448E+01 -0.19449429712E+02  0.43400732129E+02  0.00000000000E+00 0.  1.
         11    1    3    3    0    0  0.13726305571E+02  0.38077135507E+01  0.74793579566E+01  0.16088845291E+02  0.51100000000E-03 0. -1.
        -11    1    3    3    0    0  0.10568055158E+02 -0.89720139343E+01  0.93883272380E+01  0.16742804797E+02  0.51100000000E-03 0.  1.
        -12    1    3    3    0    0  0.14439285726E+02  0.29175548388E+01  0.25817445170E+01  0.14955617783E+02  0.00000000000E+00 0.  1.
</event>
<event>
 7    1  0.2732193E-010  0.4778726E+02  0.7816164E-02  0.1312668E+00
        -11   -1    0    0    0    0  0.00000000000E+00  0.00000000000E+00  0.45593999997E+02  0.45594000000E+02  0.51100000000E-03 0. -1.
         11   -1    0    0    0    0 -0.00000000000E+00 -0.00000000000E+00 -0.45593999997E+02  0.45594000000E+02  0.51100000000E-03 0.  1.
    9900012    2    1    2    0    0  0.42388355625E+02  0.69514395013E+01  0.62071835384E+01  0.47787258864E+02  0.19999944463E+02 0.  0.
        -12    1    1    2    0    0 -0.42388355625E+02 -0.69514395013E+01 -0.62071835384E+01  0.43400741136E+02  0.00000000000E+00 0.  1.
         11    1    3    3    0    0  0.26689862629E+01  0.42710731134E+01  0.33343538522E+01  0.60401547235E+01  0.51100000000E-03 0. -1.
        -11    1    3    3    0    0  0.63420634397E+01 -0.69647470266E+00  0.50382114317E+01  0.81296014894E+01  0.51100000000E-03 0.  1.
         12    1    3    3    0    0  0.33377305922E+02  0.33768410906E+01 -0.21653817454E+01  0.33617502651E+02  0.00000000000E+00 0. -1.
</event>
<event>
 7    1 -0.2390193E-009  0.4778727E+02  0.7816164E-02  0.1312668E+00
        -11   -1    0    0    0    0  0.00000000000E+00  0.00000000000E+00  0.45593999997E+02  0.45594000000E+02  0.51100000000E-03 0.  1.
         11   -1    0    0    0    0 -0.00000000000E+00 -0.00000000000E+00 -0.45593999997E+02  0.45594000000E+02  0.51100000000E-03 0. -1.
    9900012    2    1    2    0    0 -0.24336395339E+02 -0.85095136599E+01 -0.34913484293E+02  0.47787270210E+02  0.19999996194E+02 0.  0.
        -12    1    1    2    0    0  0.24336395339E+02  0.85095136599E+01  0.34913484293E+02  0.43400729790E+02  0.00000000000E+00 0.  1.
         11    1    3    3    0    0 -0.61467873437E+01 -0.31482784148E+01 -0.14691224342E+02  0.16233506231E+02  0.51100000000E-03 0. -1.
        -11    1    3    3    0    0 -0.46316559816E+01 -0.87408526797E+01 -0.57729644536E+01  0.11453465045E+02  0.51100000000E-03 0.  1.
        -12    1    3    3    0    0 -0.13557952014E+02  0.33796174347E+01 -0.14449295498E+02  0.20100298933E+02  0.00000000000E+00 0.  1.
</event>
<event>
 7    1  0.2732193E-010  0.4778727E+02  0.7816164E-02  0.1312668E+00
        -11   -1    0    0    0    0  0.00000000000E+00  0.00000000000E+00  0.45593999997E+02  0.45594000000E+02  0.51100000000E-03 0.  1.
         11   -1    0    0    0    0 -0.00000000000E+00 -0.00000000000E+00 -0.45593999997E+02  0.45594000000E+02  0.51100000000E-03 0. -1.
    9900012    2    1    2    0    0  0.26679054626E+01 -0.40885962757E+00 -0.43316722951E+02  0.47787269903E+02  0.19999994796E+02 0.  0.
        -12    1    1    2    0    0 -0.26679054626E+01  0.40885962757E+00  0.43316722951E+02  0.43400730097E+02  0.00000000000E+00 0.  1.
         11    1    3    3    0    0  0.40429543969E+01 -0.10015081986E+01 -0.28864383546E+02  0.29163352631E+02  0.51100000000E-03 0. -1.
        -11    1    3    3    0    0  0.56969905030E+00  0.44080008456E+01 -0.10679985177E+01  0.45711759491E+01  0.51100000000E-03 0.  1.
        -12    1    3    3    0    0 -0.19447479847E+01 -0.38153522746E+01 -0.13384340887E+02  0.14052741323E+02  0.00000000000E+00 0.  1.
</event>
<event>
 7    1  0.2732193E-010  0.4778727E+02  0.7816164E-02  0.1312668E+00
        -11   -1    0    0    0    0  0.00000000000E+00  0.00000000000E+00  0.45593999997E+02  0.45594000000E+02  0.51100000000E-03 0.  1.
         11   -1    0    0    0    0 -0.00000000000E+00 -0.00000000000E+00 -0.45593999997E+02  0.45594000000E+02  0.51100000000E-03 0. -1.
    9900012    2    1    2    0    0  0.12486315342E+02  0.16630588973E+02 -0.38093813640E+02  0.47787271918E+02  0.20000003982E+02 0.  0.
        -12    1    1    2    0    0 -0.12486315342E+02 -0.16630588973E+02  0.38093813640E+02  0.43400728082E+02  0.00000000000E+00 0.  1.
         11    1    3    3    0    0  0.68513734225E+01  0.47857768200E+01 -0.42897719667E+01  0.93939938967E+01  0.51100000000E-03 0. -1.
        -11    1    3    3    0    0  0.23167465086E+01  0.13024484576E+02 -0.31552160520E+02  0.34213204273E+02  0.51100000000E-03 0.  1.
        -12    1    3    3    0    0  0.33181954113E+01 -0.11796724229E+01 -0.22518811533E+01  0.41800737484E+01  0.00000000000E+00 0.  1.
</event>
<event>
 7    1  0.2732193E-010  0.4778727E+02  0.7816164E-02  0.1312668E+00
        -11   -1    0    0    0    0  0.00000000000E+00  0.00000000000E+00  0.45593999997E+02  0.45594000000E+02  0.51100000000E-03 0.  1.
         11   -1    0    0    0    0 -0.00000000000E+00 -0.00000000000E+00 -0.45593999997E+02  0.45594000000E+02  0.51100000000E-03 0. -1.
    9900012    2    1    2    0    0 -0.40610647464E+02  0.85114023097E+01 -0.12726143332E+02  0.47787269813E+02  0.19999994384E+02 0.  0.
        -12    1    1    2    0    0  0.40610647464E+02 -0.85114023097E+01  0.12726143332E+02  0.43400730187E+02  0.00000000000E+00 0.  1.
         11    1    3    3    0    0 -0.30846572941E+02  0.11922009614E+02 -0.12214701401E+02  0.35253997022E+02  0.51100000000E-03 0. -1.
        -11    1    3    3    0    0 -0.98301546283E+01 -0.49331824526E+01 -0.42232708931E+00  0.11006661145E+02  0.51100000000E-03 0.  1.
         12    1    3    3    0    0  0.66080105628E-01  0.15225751484E+01 -0.89114842220E-01  0.15266116461E+01  0.00000000000E+00 0. -1.
</event>
<event>
 7    1  0.2732193E-010  0.4778727E+02  0.7816164E-02  0.1312668E+00
        -11   -1    0    0    0    0  0.00000000000E+00  0.00000000000E+00  0.45593999997E+02  0.45594000000E+02  0.51100000000E-03 0. -1.
         11   -1    0    0    0    0 -0.00000000000E+00 -0.00000000000E+00 -0.45593999997E+02  0.45594000000E+02  0.51100000000E-03 0.  1.
    9900012    2    1    2    0    0  0.14882075333E+01  0.12476651465E+01  0.43357254400E+02  0.47787274902E+02  0.20000017586E+02 0.  0.
        -12    1    1    2    0    0 -0.14882075333E+01 -0.12476651465E+01 -0.43357254400E+02  0.43400725098E+02  0.00000000000E+00 0.  1.
         11    1    3    3    0    0 -0.37874045540E+01  0.30269076673E+01  0.50678792037E+01  0.70135585238E+01  0.51100000000E-03 0. -1.
        -11    1    3    3    0    0  0.46845060499E+01 -0.70681654344E+01  0.19938460297E+02  0.21666696999E+02  0.51100000000E-03 0.  1.
        -12    1    3    3    0    0  0.59110603732E+00  0.52889229136E+01  0.18350914899E+02  0.19107019379E+02  0.00000000000E+00 0.  1.
</event>
<event>
 7    1  0.2732193E-010  0.4778726E+02  0.7816164E-02  0.1312668E+00
        -11   -1    0    0    0    0  0.00000000000E+00  0.00000000000E+00  0.45593999997E+02  0.45594000000E+02  0.51100000000E-03 0. -1.
         11   -1    0    0    0    0 -0.00000000000E+00 -0.00000000000E+00 -0.45593999997E+02  0.45594000000E+02  0.51100000000E-03 0.  1.
    9900012    2    1    2    0    0 -0.34070792017E+02  0.16594164300E+02  0.21152751247E+02  0.47787262186E+02  0.19999959610E+02 0.  0.
        -12    1    1    2    0    0  0.34070792017E+02 -0.16594164300E+02 -0.21152751247E+02  0.43400737814E+02  0.00000000000E+00 0.  1.
         11    1    3    3    0    0 -0.14757711275E+02  0.58499531613E+01 -0.19880112699E+00  0.15876130392E+02  0.51100000000E-03 0. -1.
        -11    1    3    3    0    0  0.67080833674E+00  0.45289319247E+00 -0.12904607295E+00  0.81960308594E+00  0.51100000000E-03 0.  1.
         12    1    3    3    0    0 -0.19983889079E+02  0.10291317946E+02  0.21480598447E+02  0.31091528708E+02  0.00000000000E+00 0. -1.
</event>
<event>
 7    1  0.2732193E-010  0.4778727E+02  0.7816164E-02  0.1312668E+00
        -11   -1    0    0    0    0  0.00000000000E+00  0.00000000000E+00  0.45593999997E+02  0.45594000000E+02  0.51100000000E-03 0.  1.
         11   -1    0    0    0    0 -0.00000000000E+00 -0.00000000000E+00 -0.45593999997E+02  0.45594000000E+02  0.51100000000E-03 0. -1.
    9900012    2    1    2    0    0  0.24890775398E+01 -0.10609021782E+02 -0.42010430608E+02  0.47787272701E+02  0.20000007554E+02 0.  0.
        -12    1    1    2    0    0 -0.24890775398E+01  0.10609021782E+02  0.42010430608E+02  0.43400727299E+02  0.00000000000E+00 0.  1.
         11    1    3    3    0    0 -0.33361532915E+01  0.27007514103E+01 -0.18416485535E+02  0.18910074476E+02  0.51100000000E-03 0. -1.
        -11    1    3    3    0    0  0.46406499482E+01 -0.53438229519E+01 -0.51541184430E+01  0.87553990696E+01  0.51100000000E-03 0.  1.
        -12    1    3    3    0    0  0.11845808831E+01 -0.79659502408E+01 -0.18439826630E+02  0.20121799155E+02  0.00000000000E+00 0.  1.
</event>
<event>
 7    1  0.2732193E-010  0.4778727E+02  0.7816164E-02  0.1312668E+00
        -11   -1    0    0    0    0  0.00000000000E+00  0.00000000000E+00  0.45593999997E+02  0.45594000000E+02  0.51100000000E-03 0. -1.
         11   -1    0    0    0    0 -0.00000000000E+00 -0.00000000000E+00 -0.45593999997E+02  0.45594000000E+02  0.51100000000E-03 0.  1.
    9900012    2    1    2    0    0 -0.43222034041E+02 -0.26085897412E+01  0.29451967140E+01  0.47787272463E+02  0.20000006467E+02 0.  0.
        -12    1    1    2    0    0  0.43222034041E+02  0.26085897412E+01 -0.29451967140E+01  0.43400727537E+02  0.00000000000E+00 0.  1.
         11    1    3    3    0    0 -0.51588295467E+00 -0.14017342653E+01  0.37573177482E+00  0.15401846646E+01  0.51100000000E-03 0. -1.
        -11    1    3    3    0    0 -0.15488612785E+02 -0.56017665706E+01 -0.57561259154E+01  0.17447346518E+02  0.51100000000E-03 0.  1.
        -12    1    3    3    0    0 -0.27217538301E+02  0.43949110947E+01  0.83255908545E+01  0.28799741280E+02  0.00000000000E+00 0.  1.
</event>
<event>
 7    1  0.2732193E-010  0.4778727E+02  0.7816164E-02  0.1312668E+00
        -11   -1    0    0    0    0  0.00000000000E+00  0.00000000000E+00  0.45593999997E+02  0.45594000000E+02  0.51100000000E-03 0.  1.
         11   -1    0    0    0    0 -0.00000000000E+00 -0.00000000000E+00 -0.45593999997E+02  0.45594000000E+02  0.51100000000E-03 0. -1.
    9900012    2    1    2    0    0 -0.32837845971E+02  0.22356060841E+02 -0.17478720098E+02  0.47787271428E+02  0.20000001747E+02 0.  0.
        -12    1    1    2    0    0  0.32837845971E+02 -0.22356060841E+02  0.17478720098E+02  0.43400728572E+02  0.00000000000E+00 0.  1.
         11    1    3    3    0    0 -0.40497201407E+01  0.39496807847E+01 -0.70835473634E+01  0.90651450639E+01  0.51100000000E-03 0. -1.
        -11    1    3    3    0    0 -0.19824908510E+02  0.13488127405E+02  0.22658719610E+00  0.23979322767E+02  0.51100000000E-03 0.  1.
        -12    1    3    3    0    0 -0.89632173202E+01  0.49182526514E+01 -0.10621759930E+02  0.14742803597E+02  0.00000000000E+00 0.  1.
</event>
<event>
 7    1  0.2732193E-010  0.4778727E+02  0.7816164E-02  0.1312668E+00
        -11   -1    0    0    0    0  0.00000000000E+00  0.00000000000E+00  0.45593999997E+02  0.45594000000E+02  0.51100000000E-03 0.  1.
         11   -1    0    0    0    0 -0.00000000000E+00 -0.00000000000E+00 -0.45593999997E+02  0.45594000000E+02  0.51100000000E-03 0. -1.
    9900012    2    1    2    0    0  0.18089175142E+01 -0.37381467577E+01 -0.43201588309E+02  0.47787272400E+02  0.20000006181E+02 0.  0.
        -12    1    1    2    0    0 -0.18089175142E+01  0.37381467577E+01  0.43201588309E+02  0.43400727600E+02  0.00000000000E+00 0.  1.
         11    1    3    3    0    0 -0.22150878939E+01  0.47212050591E+01 -0.16855586830E+02  0.17643899774E+02  0.51100000000E-03 0. -1.
        -11    1    3    3    0    0  0.72772547952E+01 -0.51349919220E+01 -0.11260496964E+02  0.14357066954E+02  0.51100000000E-03 0.  1.
         12    1    3    3    0    0 -0.32532493871E+01 -0.33243598947E+01 -0.15085504515E+02  0.15786305672E+02  0.00000000000E+00 0. -1.
</event>
<event>
 7    1  0.2732193E-010  0.4778727E+02  0.7816164E-02  0.1312668E+00
        -11   -1    0    0    0    0  0.00000000000E+00  0.00000000000E+00  0.45593999997E+02  0.45594000000E+02  0.51100000000E-03 0.  1.
         11   -1    0    0    0    0 -0.00000000000E+00 -0.00000000000E+00 -0.45593999997E+02  0.45594000000E+02  0.51100000000E-03 0. -1.
    9900012    2    1    2    0    0 -0.35434282857E+02  0.37141143060E+01 -0.24783877797E+02  0.47787266765E+02  0.19999980488E+02 0.  0.
        -12    1    1    2    0    0  0.35434282857E+02 -0.37141143060E+01  0.24783877797E+02  0.43400733235E+02  0.00000000000E+00 0.  1.
         11    1    3    3    0    0 -0.10296455282E+02  0.60004584625E+01 -0.14751058619E+01  0.12008265100E+02  0.51100000000E-03 0.  1.
        -11    1    3    3    0    0 -0.18483698401E+02  0.23787438889E+01 -0.18860859902E+02  0.26514855563E+02  0.51100000000E-03 0. -1.
         12    1    3    3    0    0 -0.66541291740E+01 -0.46650880455E+01 -0.44479120338E+01  0.92641461019E+01  0.00000000000E+00 0. -1.
</event>
<event>
 7    1  0.2732193E-010  0.4778727E+02  0.7816164E-02  0.1312668E+00
        -11   -1    0    0    0    0  0.00000000000E+00  0.00000000000E+00  0.45593999997E+02  0.45594000000E+02  0.51100000000E-03 0.  1.
         11   -1    0    0    0    0 -0.00000000000E+00 -0.00000000000E+00 -0.45593999997E+02  0.45594000000E+02  0.51100000000E-03 0. -1.
    9900012    2    1    2    0    0  0.23425665909E+02 -0.27724571099E+02 -0.23795163085E+02  0.47787268991E+02  0.19999990635E+02 0.  0.
        -12    1    1    2    0    0 -0.23425665909E+02  0.27724571099E+02  0.23795163085E+02  0.43400731009E+02  0.00000000000E+00 0.  1.
         11    1    3    3    0    0  0.19740434590E+02 -0.27947419993E+02 -0.22448485979E+02  0.40922824500E+02  0.51100000000E-03 0. -1.
        -11    1    3    3    0    0  0.39120227171E+01 -0.73007204018E+00  0.11830533346E+01  0.41516915078E+01  0.51100000000E-03 0.  1.
        -12    1    3    3    0    0 -0.22679139773E+00  0.95292093398E+00 -0.25297304398E+01  0.27127529823E+01  0.00000000000E+00 0.  1.
</event>
<event>
 7    1  0.2732193E-010  0.4778727E+02  0.7816164E-02  0.1312668E+00
        -11   -1    0    0    0    0  0.00000000000E+00  0.00000000000E+00  0.45593999997E+02  0.45594000000E+02  0.51100000000E-03 0.  1.
         11   -1    0    0    0    0 -0.00000000000E+00 -0.00000000000E+00 -0.45593999997E+02  0.45594000000E+02  0.51100000000E-03 0. -1.
    9900012    2    1    2    0    0  0.29055541025E+02 -0.31901559687E+02 -0.46571899464E+01  0.47787269673E+02  0.19999993747E+02 0.  0.
        -12    1    1    2    0    0 -0.29055541025E+02  0.31901559687E+02  0.46571899464E+01  0.43400730327E+02  0.00000000000E+00 0.  1.
         11    1    3    3    0    0  0.11537780043E+02 -0.22869520711E+02  0.12940515346E+01  0.25647805276E+02  0.51100000000E-03 0. -1.
        -11    1    3    3    0    0  0.14769549837E+02 -0.54288365672E+01 -0.15325815260E+01  0.15810144694E+02  0.51100000000E-03 0.  1.
        -12    1    3    3    0    0  0.27482111451E+01 -0.36032024092E+01 -0.44186599550E+01  0.63293197026E+01  0.00000000000E+00 0.  1.
</event>
<event>
 7    1  0.2732193E-010  0.4778726E+02  0.7816164E-02  0.1312668E+00
        -11   -1    0    0    0    0  0.00000000000E+00  0.00000000000E+00  0.45593999997E+02  0.45594000000E+02  0.51100000000E-03 0. -1.
         11   -1    0    0    0    0 -0.00000000000E+00 -0.00000000000E+00 -0.45593999997E+02  0.45594000000E+02  0.51100000000E-03 0.  1.
    9900012    2    1    2    0    0 -0.42457986833E+02  0.18925117107E+00  0.89948667543E+01  0.47787261644E+02  0.19999957141E+02 0.  0.
        -12    1    1    2    0    0  0.42457986833E+02 -0.18925117107E+00 -0.89948667543E+01  0.43400738356E+02  0.00000000000E+00 0.  1.
         11    1    3    3    0    0 -0.18064585398E+02 -0.91800609489E+01  0.32027387139E+01  0.20514879970E+02  0.51100000000E-03 0. -1.
        -11    1    3    3    0    0 -0.20474809224E+02  0.58342819610E+01  0.54898654521E+01  0.21986252107E+02  0.51100000000E-03 0.  1.
         12    1    3    3    0    0 -0.39185922098E+01  0.35350301590E+01  0.30226258837E+00  0.52861295675E+01  0.00000000000E+00 0. -1.
</event>
<event>
 7    1  0.2732193E-010  0.4778728E+02  0.7816164E-02  0.1312668E+00
        -11   -1    0    0    0    0  0.00000000000E+00  0.00000000000E+00  0.45593999997E+02  0.45594000000E+02  0.51100000000E-03 0.  1.
         11   -1    0    0    0    0 -0.00000000000E+00 -0.00000000000E+00 -0.45593999997E+02  0.45594000000E+02  0.51100000000E-03 0. -1.
    9900012    2    1    2    0    0  0.30679346410E+02 -0.54414795278E+01 -0.30212429431E+02  0.47787275493E+02  0.20000020284E+02 0.  0.
        -12    1    1    2    0    0 -0.30679346410E+02  0.54414795278E+01  0.30212429431E+02  0.43400724507E+02  0.00000000000E+00 0.  1.
         11    1    3    3    0    0  0.41533890402E+00  0.20746690233E+01  0.10396361428E+01  0.23574565812E+01  0.51100000000E-03 0.  1.
        -11    1    3    3    0    0  0.18992526270E+02 -0.16141692381E+00 -0.22170156419E+02  0.29193457237E+02  0.51100000000E-03 0. -1.
        -12    1    3    3    0    0  0.11271481235E+02 -0.73547316274E+01 -0.90819091554E+01  0.16236361675E+02  0.00000000000E+00 0.  1.
</event>
<event>
 7    1  0.2732193E-010  0.4778727E+02  0.7816164E-02  0.1312668E+00
        -11   -1    0    0    0    0  0.00000000000E+00  0.00000000000E+00  0.45593999997E+02  0.45594000000E+02  0.51100000000E-03 0. -1.
         11   -1    0    0    0    0 -0.00000000000E+00 -0.00000000000E+00 -0.45593999997E+02  0.45594000000E+02  0.51100000000E-03 0.  1.
    9900012    2    1    2    0    0 -0.31118179897E+02 -0.25361552929E+02  0.16494654597E+02  0.47787272848E+02  0.20000008222E+02 0.  0.
        -12    1    1    2    0    0  0.31118179897E+02  0.25361552929E+02 -0.16494654597E+02  0.43400727152E+02  0.00000000000E+00 0.  1.
         11    1    3    3    0    0 -0.26198309472E+02 -0.22422008831E+02  0.99981757285E+01  0.35903501464E+02  0.51100000000E-03 0. -1.
        -11    1    3    3    0    0 -0.38621796563E+01 -0.14914850554E+01  0.83405411897E+01  0.93115834832E+01  0.51100000000E-03 0.  1.
         12    1    3    3    0    0 -0.10576907688E+01 -0.14480590423E+01 -0.18440623210E+01  0.25721879006E+01  0.00000000000E+00 0. -1.
</event>
<event>
 7    1  0.2732193E-010  0.4778727E+02  0.7816164E-02  0.1312668E+00
        -11   -1    0    0    0    0  0.00000000000E+00  0.00000000000E+00  0.45593999997E+02  0.45594000000E+02  0.51100000000E-03 0.  1.
         11   -1    0    0    0    0 -0.00000000000E+00 -0.00000000000E+00 -0.45593999997E+02  0.45594000000E+02  0.51100000000E-03 0. -1.
    9900012    2    1    2    0    0  0.31694010339E+02  0.21270687249E+02 -0.20656015146E+02  0.47787269717E+02  0.19999993946E+02 0.  0.
        -12    1    1    2    0    0 -0.31694010339E+02 -0.21270687249E+02  0.20656015146E+02  0.43400730283E+02  0.00000000000E+00 0.  1.
         11    1    3    3    0    0  0.21706710130E+02  0.78189775223E+01 -0.77048168229E+01  0.24324511849E+02  0.51100000000E-03 0.  1.
        -11    1    3    3    0    0  0.22654396992E+01 -0.13574880911E+01 -0.64932046220E+00  0.27196706183E+01  0.51100000000E-03 0. -1.
         12    1    3    3    0    0  0.77218605102E+01  0.14809197818E+02 -0.12301877861E+02  0.20743087250E+02  0.00000000000E+00 0. -1.
</event>
<event>
 7    1  0.2732193E-010  0.4778727E+02  0.7816164E-02  0.1312668E+00
        -11   -1    0    0    0    0  0.00000000000E+00  0.00000000000E+00  0.45593999997E+02  0.45594000000E+02  0.51100000000E-03 0.  1.
         11   -1    0    0    0    0 -0.00000000000E+00 -0.00000000000E+00 -0.45593999997E+02  0.45594000000E+02  0.51100000000E-03 0. -1.
    9900012    2    1    2    0    0  0.77539338707E+00  0.40873208984E+02 -0.14574054760E+02  0.47787268212E+02  0.19999987087E+02 0.  0.
        -12    1    1    2    0    0 -0.77539338707E+00 -0.40873208984E+02  0.14574054760E+02  0.43400731788E+02  0.00000000000E+00 0.  1.
         11    1    3    3    0    0 -0.36724778697E+01  0.87639207569E+00 -0.31922020697E+01  0.49442199677E+01  0.51100000000E-03 0. -1.
        -11    1    3    3    0    0 -0.11152566567E+01  0.15877828526E+01  0.89629447450E+00  0.21373338166E+01  0.51100000000E-03 0.  1.
         12    1    3    3    0    0  0.55631279134E+01  0.38409034056E+02 -0.12278147165E+02  0.40705714428E+02  0.00000000000E+00 0. -1.
</event>
<event>
 7    1  0.2732193E-010  0.4778727E+02  0.7816164E-02  0.1312668E+00
        -11   -1    0    0    0    0  0.00000000000E+00  0.00000000000E+00  0.45593999997E+02  0.45594000000E+02  0.51100000000E-03 0. -1.
         11   -1    0    0    0    0 -0.00000000000E+00 -0.00000000000E+00 -0.45593999997E+02  0.45594000000E+02  0.51100000000E-03 0.  1.
    9900012    2    1    2    0    0  0.14026833378E+02 -0.43230350088E+01  0.40843393779E+02  0.47787268420E+02  0.19999988036E+02 0.  0.
        -12    1    1    2    0    0 -0.14026833378E+02  0.43230350088E+01 -0.40843393779E+02  0.43400731580E+02  0.00000000000E+00 0.  1.
         11    1    3    3    0    0  0.46223080582E+01 -0.25171914473E+01  0.12649086177E+02  0.13700414810E+02  0.51100000000E-03 0. -1.
        -11    1    3    3    0    0  0.12193033981E+02 -0.84470035911E+00  0.10395306339E+02  0.16045123574E+02  0.51100000000E-03 0.  1.
        -12    1    3    3    0    0 -0.27885086610E+01 -0.96114320239E+00  0.17799001262E+02  0.18041730037E+02  0.00000000000E+00 0.  1.
</event>
<event>
 7    1  0.2732193E-010  0.4778727E+02  0.7816164E-02  0.1312668E+00
        -11   -1    0    0    0    0  0.00000000000E+00  0.00000000000E+00  0.45593999997E+02  0.45594000000E+02  0.51100000000E-03 0.  1.
         11   -1    0    0    0    0 -0.00000000000E+00 -0.00000000000E+00 -0.45593999997E+02  0.45594000000E+02  0.51100000000E-03 0. -1.
    9900012    2    1    2    0    0  0.11608978069E+02 -0.41649946194E+02 -0.37599150734E+01  0.47787270154E+02  0.19999995940E+02 0.  0.
        -12    1    1    2    0    0 -0.11608978069E+02  0.41649946194E+02  0.37599150734E+01  0.43400729846E+02  0.00000000000E+00 0.  1.
         11    1    3    3    0    0 -0.67850778866E+00 -0.17960378399E+02 -0.24481527808E+01  0.18139157019E+02  0.51100000000E-03 0. -1.
        -11    1    3    3    0    0  0.12690362483E+02 -0.19942622406E+02 -0.52322138950E+01  0.24210112575E+02  0.51100000000E-03 0.  1.
        -12    1    3    3    0    0 -0.40287662543E+00 -0.37469453893E+01  0.39204516025E+01  0.54380005602E+01  0.00000000000E+00 0.  1.
</event>
<event>
 7    1  0.2732193E-010  0.4778727E+02  0.7816164E-02  0.1312668E+00
        -11   -1    0    0    0    0  0.00000000000E+00  0.00000000000E+00  0.45593999997E+02  0.45594000000E+02  0.51100000000E-03 0. -1.
         11   -1    0    0    0    0 -0.00000000000E+00 -0.00000000000E+00 -0.45593999997E+02  0.45594000000E+02  0.51100000000E-03 0.  1.
    9900012    2    1    2    0    0 -0.29566688501E+02  0.29213235277E+02  0.12490841960E+02  0.47787270546E+02  0.19999997729E+02 0.  0.
        -12    1    1    2    0    0  0.29566688501E+02 -0.29213235277E+02 -0.12490841960E+02  0.43400729454E+02  0.00000000000E+00 0.  1.
         11    1    3    3    0    0 -0.22067175955E+01 -0.22022814240E+01  0.22595670895E+01  0.38503622829E+01  0.51100000000E-03 0. -1.
        -11    1    3    3    0    0 -0.32895614100E+00 -0.26978387007E+00 -0.75209161214E+00  0.86408190204E+00  0.51100000000E-03 0.  1.
         12    1    3    3    0    0 -0.27031014765E+02  0.31685300571E+02  0.10983366483E+02  0.43072826361E+02  0.00000000000E+00 0. -1.
</event>
<event>
 7    1  0.2732193E-010  0.4778728E+02  0.7816164E-02  0.1312668E+00
        -11   -1    0    0    0    0  0.00000000000E+00  0.00000000000E+00  0.45593999997E+02  0.45594000000E+02  0.51100000000E-03 0.  1.
         11   -1    0    0    0    0 -0.00000000000E+00 -0.00000000000E+00 -0.45593999997E+02  0.45594000000E+02  0.51100000000E-03 0. -1.
    9900012    2    1    2    0    0 -0.36785292077E+02 -0.15008489867E+02 -0.17470267205E+02  0.47787277454E+02  0.20000029222E+02 0.  0.
        -12    1    1    2    0    0  0.36785292077E+02  0.15008489867E+02  0.17470267205E+02  0.43400722546E+02  0.00000000000E+00 0.  1.
         11    1    3    3    0    0 -0.33050951928E+02 -0.13431828444E+02 -0.12031951441E+02  0.37650329274E+02  0.51100000000E-03 0. -1.
        -11    1    3    3    0    0 -0.84267006097E+00 -0.13025957062E+00 -0.66348440666E+01  0.66894107690E+01  0.51100000000E-03 0.  1.
         12    1    3    3    0    0 -0.28916700884E+01 -0.14464018526E+01  0.11965283021E+01  0.34475374105E+01  0.00000000000E+00 0. -1.
</event>
<event>
 7    1  0.2732193E-010  0.4778726E+02  0.7816164E-02  0.1312668E+00
        -11   -1    0    0    0    0  0.00000000000E+00  0.00000000000E+00  0.45593999997E+02  0.45594000000E+02  0.51100000000E-03 0.  1.
         11   -1    0    0    0    0 -0.00000000000E+00 -0.00000000000E+00 -0.45593999997E+02  0.45594000000E+02  0.51100000000E-03 0. -1.
    9900012    2    1    2    0    0  0.12366091420E+02 -0.14987185809E+01 -0.41574726211E+02  0.47787259984E+02  0.19999949572E+02 0.  0.
        -12    1    1    2    0    0 -0.12366091420E+02  0.14987185809E+01  0.41574726211E+02  0.43400740016E+02  0.00000000000E+00 0.  1.
         11    1    3    3    0    0  0.42714448629E+01 -0.42086984394E+01 -0.31161668604E+02  0.31733388950E+02  0.51100000000E-03 0. -1.
        -11    1    3    3    0    0  0.13732095622E+01 -0.87787488753E+00 -0.78467032743E+01  0.80141825133E+01  0.51100000000E-03 0.  1.
         12    1    3    3    0    0  0.67214369952E+01  0.35878547460E+01 -0.25663543324E+01  0.80396885212E+01  0.00000000000E+00 0. -1.
</event>
<event>
 7    1  0.2732193E-010  0.4778727E+02  0.7816164E-02  0.1312668E+00
        -11   -1    0    0    0    0  0.00000000000E+00  0.00000000000E+00  0.45593999997E+02  0.45594000000E+02  0.51100000000E-03 0.  1.
         11   -1    0    0    0    0 -0.00000000000E+00 -0.00000000000E+00 -0.45593999997E+02  0.45594000000E+02  0.51100000000E-03 0. -1.
    9900012    2    1    2    0    0 -0.35114941866E+02  0.88857895136E+01 -0.23908300199E+02  0.47787271712E+02  0.20000003043E+02 0.  0.
        -12    1    1    2    0    0  0.35114941866E+02 -0.88857895136E+01  0.23908300199E+02  0.43400728288E+02  0.00000000000E+00 0.  1.
         11    1    3    3    0    0 -0.16053783955E+02  0.80731939972E+00 -0.20585630377E+02  0.26117885102E+02  0.51100000000E-03 0. -1.
        -11    1    3    3    0    0 -0.14362929736E+02  0.56875103722E+01 -0.18862788580E-01  0.15448038092E+02  0.51100000000E-03 0.  1.
        -12    1    3    3    0    0 -0.46982281757E+01  0.23909597417E+01 -0.33038070326E+01  0.62213485183E+01  0.00000000000E+00 0.  1.
</event>
<event>
 7    1  0.2732193E-010  0.4778727E+02  0.7816164E-02  0.1312668E+00
        -11   -1    0    0    0    0  0.00000000000E+00  0.00000000000E+00  0.45593999997E+02  0.45594000000E+02  0.51100000000E-03 0.  1.
         11   -1    0    0    0    0 -0.00000000000E+00 -0.00000000000E+00 -0.45593999997E+02  0.45594000000E+02  0.51100000000E-03 0. -1.
    9900012    2    1    2    0    0 -0.14615879335E+01 -0.32968161269E+02 -0.28188426850E+02  0.47787270686E+02  0.19999998364E+02 0.  0.
        -12    1    1    2    0    0  0.14615879335E+01  0.32968161269E+02  0.28188426850E+02  0.43400729314E+02  0.00000000000E+00 0.  1.
         11    1    3    3    0    0  0.48021289359E+01 -0.23501555034E+02 -0.17853169074E+02  0.29901825657E+02  0.51100000000E-03 0. -1.
        -11    1    3    3    0    0 -0.71802865565E+01 -0.81831806488E+01 -0.11566892711E+02  0.15884393845E+02  0.51100000000E-03 0.  1.
         12    1    3    3    0    0  0.91656968701E+00 -0.12834255860E+01  0.12316349357E+01  0.20010511840E+01  0.00000000000E+00 0. -1.
</event>
<event>
 7    1  0.2732193E-010  0.4778727E+02  0.7816164E-02  0.1312668E+00
        -11   -1    0    0    0    0  0.00000000000E+00  0.00000000000E+00  0.45593999997E+02  0.45594000000E+02  0.51100000000E-03 0. -1.
         11   -1    0    0    0    0 -0.00000000000E+00 -0.00000000000E+00 -0.45593999997E+02  0.45594000000E+02  0.51100000000E-03 0.  1.
    9900012    2    1    2    0    0  0.37212988836E+02 -0.19936160691E+02  0.10068073271E+02  0.47787272580E+02  0.20000007000E+02 0.  0.
        -12    1    1    2    0    0 -0.37212988836E+02  0.19936160691E+02 -0.10068073271E+02  0.43400727420E+02  0.00000000000E+00 0.  1.
         11    1    3    3    0    0  0.25937988312E+02 -0.69639837243E+01  0.25601061619E+01  0.26978332988E+02  0.51100000000E-03 0. -1.
        -11    1    3    3    0    0  0.45407952855E+01 -0.10512594914E+02  0.16888037914E+01  0.11575211970E+02  0.51100000000E-03 0.  1.
        -12    1    3    3    0    0  0.67342052382E+01 -0.24595820528E+01  0.58191633180E+01  0.92337276214E+01  0.00000000000E+00 0.  1.
</event>
<event>
 7    1  0.2732193E-010  0.4778727E+02  0.7816164E-02  0.1312668E+00
        -11   -1    0    0    0    0  0.00000000000E+00  0.00000000000E+00  0.45593999997E+02  0.45594000000E+02  0.51100000000E-03 0.  1.
         11   -1    0    0    0    0 -0.00000000000E+00 -0.00000000000E+00 -0.45593999997E+02  0.45594000000E+02  0.51100000000E-03 0. -1.
    9900012    2    1    2    0    0  0.13882192183E+02 -0.29026468067E+02 -0.29126827257E+02  0.47787272191E+02  0.20000005230E+02 0.  0.
        -12    1    1    2    0    0 -0.13882192183E+02  0.29026468067E+02  0.29126827257E+02  0.43400727809E+02  0.00000000000E+00 0.  1.
         11    1    3    3    0    0 -0.20971894165E+01 -0.69577499588E+01 -0.14353439151E+02  0.16088185220E+02  0.51100000000E-03 0. -1.
        -11    1    3    3    0    0  0.66244432481E+01 -0.12793317502E+02 -0.48328234969E+01  0.15195670577E+02  0.51100000000E-03 0.  1.
        -12    1    3    3    0    0  0.93549383516E+01 -0.92754006065E+01 -0.99405646082E+01  0.16503416395E+02  0.00000000000E+00 0.  1.
</event>
<event>
 7    1  0.2732193E-010  0.4778727E+02  0.7816164E-02  0.1312668E+00
        -11   -1    0    0    0    0  0.00000000000E+00  0.00000000000E+00  0.45593999997E+02  0.45594000000E+02  0.51100000000E-03 0.  1.
         11   -1    0    0    0    0 -0.00000000000E+00 -0.00000000000E+00 -0.45593999997E+02  0.45594000000E+02  0.51100000000E-03 0. -1.
    9900012    2    1    2    0    0 -0.18767857005E+02  0.31517569133E+01 -0.39005863751E+02  0.47787269186E+02  0.19999991529E+02 0.  0.
        -12    1    1    2    0    0  0.18767857005E+02 -0.31517569133E+01  0.39005863751E+02  0.43400730814E+02  0.00000000000E+00 0.  1.
         11    1    3    3    0    0 -0.13848108451E+02  0.15569832232E+00 -0.22424404719E+02  0.26356180999E+02  0.51100000000E-03 0. -1.
        -11    1    3    3    0    0 -0.84852413058E+01 -0.88151711295E-01 -0.81194792566E+01  0.11744489533E+02  0.51100000000E-03 0.  1.
         12    1    3    3    0    0  0.35654927517E+01  0.30842103023E+01 -0.84619797758E+01  0.96865986537E+01  0.00000000000E+00 0. -1.
</event>
<event>
 7    1  0.2732193E-010  0.4778727E+02  0.7816164E-02  0.1312668E+00
        -11   -1    0    0    0    0  0.00000000000E+00  0.00000000000E+00  0.45593999997E+02  0.45594000000E+02  0.51100000000E-03 0.  1.
         11   -1    0    0    0    0 -0.00000000000E+00 -0.00000000000E+00 -0.45593999997E+02  0.45594000000E+02  0.51100000000E-03 0. -1.
    9900012    2    1    2    0    0  0.31297825694E+02  0.18908926279E+01 -0.30008228090E+02  0.47787272803E+02  0.20000008019E+02 0.  0.
        -12    1    1    2    0    0 -0.31297825694E+02 -0.18908926279E+01  0.30008228090E+02  0.43400727197E+02  0.00000000000E+00 0.  1.
         11    1    3    3    0    0 -0.14690192765E+00 -0.39741757909E+00 -0.89366559070E+00  0.98901939194E+00  0.51100000000E-03 0. -1.
        -11    1    3    3    0    0  0.10317998589E+01 -0.30873133456E+01  0.12502331001E+01  0.34870041164E+01  0.51100000000E-03 0.  1.
        -12    1    3    3    0    0  0.30412927763E+02  0.53756235526E+01 -0.30364795599E+02  0.43311249295E+02  0.00000000000E+00 0.  1.
</event>
<event>
 7    1  0.2732193E-010  0.4778727E+02  0.7816164E-02  0.1312668E+00
        -11   -1    0    0    0    0  0.00000000000E+00  0.00000000000E+00  0.45593999997E+02  0.45594000000E+02  0.51100000000E-03 0.  1.
         11   -1    0    0    0    0 -0.00000000000E+00 -0.00000000000E+00 -0.45593999997E+02  0.45594000000E+02  0.51100000000E-03 0. -1.
    9900012    2    1    2    0    0 -0.11749673919E+02  0.91948917726E+01 -0.40755643247E+02  0.47787270416E+02  0.19999997136E+02 0.  0.
        -12    1    1    2    0    0  0.11749673919E+02 -0.91948917726E+01  0.40755643247E+02  0.43400729584E+02  0.00000000000E+00 0.  1.
         11    1    3    3    0    0 -0.16895337702E+02  0.39485940103E+01 -0.30967957657E+02  0.35497298946E+02  0.51100000000E-03 0. -1.
        -11    1    3    3    0    0  0.28541415627E+01  0.21147792526E+01 -0.46962527322E+01  0.58883958200E+01  0.51100000000E-03 0.  1.
         12    1    3    3    0    0  0.22915222206E+01  0.31315185097E+01 -0.50914328574E+01  0.64015756503E+01  0.00000000000E+00 0. -1.
</event>
<event>
 7    1  0.2732193E-010  0.4778727E+02  0.7816164E-02  0.1312668E+00
        -11   -1    0    0    0    0  0.00000000000E+00  0.00000000000E+00  0.45593999997E+02  0.45594000000E+02  0.51100000000E-03 0.  1.
         11   -1    0    0    0    0 -0.00000000000E+00 -0.00000000000E+00 -0.45593999997E+02  0.45594000000E+02  0.51100000000E-03 0. -1.
    9900012    2    1    2    0    0 -0.82093181979E+01 -0.17325535877E+02 -0.38936565921E+02  0.47787271153E+02  0.20000000495E+02 0.  0.
        -12    1    1    2    0    0  0.82093181979E+01  0.17325535877E+02  0.38936565921E+02  0.43400728847E+02  0.00000000000E+00 0.  1.
         11    1    3    3    0    0  0.25039529198E+01 -0.42577061010E+01 -0.14374935378E+02  0.15199888449E+02  0.51100000000E-03 0. -1.
        -11    1    3    3    0    0 -0.86165086342E+01 -0.13944613620E+02 -0.13329179322E+02  0.21127316245E+02  0.51100000000E-03 0.  1.
        -12    1    3    3    0    0 -0.20967624835E+01  0.87678384376E+00 -0.11232451221E+02  0.11460066459E+02  0.00000000000E+00 0.  1.
</event>
<event>
 7    1  0.2732193E-010  0.4778727E+02  0.7816164E-02  0.1312668E+00
        -11   -1    0    0    0    0  0.00000000000E+00  0.00000000000E+00  0.45593999997E+02  0.45594000000E+02  0.51100000000E-03 0.  1.
         11   -1    0    0    0    0 -0.00000000000E+00 -0.00000000000E+00 -0.45593999997E+02  0.45594000000E+02  0.51100000000E-03 0. -1.
    9900012    2    1    2    0    0  0.11714959923E+02  0.95794547854E+01 -0.40676981015E+02  0.47787273918E+02  0.20000013101E+02 0.  0.
        -12    1    1    2    0    0 -0.11714959923E+02 -0.95794547854E+01  0.40676981015E+02  0.43400726082E+02  0.00000000000E+00 0.  1.
         11    1    3    3    0    0  0.62882559453E+01  0.10506303980E+02 -0.23109401430E+02  0.26152801396E+02  0.51100000000E-03 0. -1.
        -11    1    3    3    0    0 -0.18629466828E+01 -0.99351931027E-02  0.66431833077E+00  0.19778746565E+01  0.51100000000E-03 0.  1.
        -12    1    3    3    0    0  0.72896506603E+01 -0.91691400166E+00 -0.18231897916E+02  0.19656597865E+02  0.00000000000E+00 0.  1.
</event>
<event>
 7    1  0.2732193E-010  0.4778726E+02  0.7816164E-02  0.1312668E+00
        -11   -1    0    0    0    0  0.00000000000E+00  0.00000000000E+00  0.45593999997E+02  0.45594000000E+02  0.51100000000E-03 0.  1.
         11   -1    0    0    0    0 -0.00000000000E+00 -0.00000000000E+00 -0.45593999997E+02  0.45594000000E+02  0.51100000000E-03 0. -1.
    9900012    2    1    2    0    0 -0.12056350716E+02 -0.38128689806E+02 -0.16866278844E+02  0.47787263359E+02  0.19999964959E+02 0.  0.
        -12    1    1    2    0    0  0.12056350716E+02  0.38128689806E+02  0.16866278844E+02  0.43400736641E+02  0.00000000000E+00 0.  1.
         11    1    3    3    0    0 -0.84634545108E+01 -0.27753751238E+02 -0.16293638336E+02  0.33277370998E+02  0.51100000000E-03 0. -1.
        -11    1    3    3    0    0  0.21296831733E+01 -0.40312606649E+01  0.27712274355E+01  0.53353832784E+01  0.51100000000E-03 0.  1.
         12    1    3    3    0    0 -0.57225793782E+01 -0.63436779032E+01 -0.33438679432E+01  0.91745090823E+01  0.00000000000E+00 0. -1.
</event>
<event>
 7    1  0.2732193E-010  0.4778727E+02  0.7816164E-02  0.1312668E+00
        -11   -1    0    0    0    0  0.00000000000E+00  0.00000000000E+00  0.45593999997E+02  0.45594000000E+02  0.51100000000E-03 0.  1.
         11   -1    0    0    0    0 -0.00000000000E+00 -0.00000000000E+00 -0.45593999997E+02  0.45594000000E+02  0.51100000000E-03 0. -1.
    9900012    2    1    2    0    0  0.81962659572E+01  0.15864880920E+02 -0.39556924332E+02  0.47787268614E+02  0.19999988917E+02 0.  0.
        -12    1    1    2    0    0 -0.81962659572E+01 -0.15864880920E+02  0.39556924332E+02  0.43400731386E+02  0.00000000000E+00 0.  1.
         11    1    3    3    0    0  0.99712961815E+01  0.13471780922E+02 -0.37481772253E+02  0.41058481222E+02  0.51100000000E-03 0. -1.
        -11    1    3    3    0    0 -0.77393379946E+00  0.81654133722E+00 -0.39352679840E+01  0.40929265384E+01  0.51100000000E-03 0.  1.
         12    1    3    3    0    0 -0.10010964249E+01  0.15765586603E+01  0.18601159044E+01  0.26358608535E+01  0.00000000000E+00 0. -1.
</event>
<event>
 7    1  0.2732193E-010  0.4778727E+02  0.7816164E-02  0.1312668E+00
        -11   -1    0    0    0    0  0.00000000000E+00  0.00000000000E+00  0.45593999997E+02  0.45594000000E+02  0.51100000000E-03 0.  1.
         11   -1    0    0    0    0 -0.00000000000E+00 -0.00000000000E+00 -0.45593999997E+02  0.45594000000E+02  0.51100000000E-03 0. -1.
    9900012    2    1    2    0    0 -0.20808873962E+02  0.31191227379E+02 -0.21856834703E+02  0.47787272768E+02  0.20000007859E+02 0.  0.
        -12    1    1    2    0    0  0.20808873962E+02 -0.31191227379E+02  0.21856834703E+02  0.43400727232E+02  0.00000000000E+00 0.  1.
         11    1    3    3    0    0 -0.19953893827E+02  0.23029975466E+02 -0.14712881219E+02  0.33837945015E+02  0.51100000000E-03 0. -1.
        -11    1    3    3    0    0  0.35934848142E+01  0.59129664656E+01 -0.49268833394E+01  0.84941441732E+01  0.51100000000E-03 0.  1.
        -12    1    3    3    0    0 -0.44484649501E+01  0.22482854476E+01 -0.22170701447E+01  0.54551835801E+01  0.00000000000E+00 0.  1.
</event>
<event>
 7    1  0.2732193E-010  0.4778727E+02  0.7816164E-02  0.1312668E+00
        -11   -1    0    0    0    0  0.00000000000E+00  0.00000000000E+00  0.45593999997E+02  0.45594000000E+02  0.51100000000E-03 0.  1.
         11   -1    0    0    0    0 -0.00000000000E+00 -0.00000000000E+00 -0.45593999997E+02  0.45594000000E+02  0.51100000000E-03 0. -1.
    9900012    2    1    2    0    0  0.11035052638E+01  0.43377065335E+02  0.91406538735E+00  0.47787273780E+02  0.20000012472E+02 0.  0.
        -12    1    1    2    0    0 -0.11035052638E+01 -0.43377065335E+02 -0.91406538735E+00  0.43400726220E+02  0.00000000000E+00 0.  1.
         11    1    3    3    0    0  0.61596208967E+01  0.10463798443E+02  0.53565230157E+01  0.13271184820E+02  0.51100000000E-03 0. -1.
        -11    1    3    3    0    0  0.97151590700E-01  0.78387503825E+01 -0.42489279149E+01  0.89167726604E+01  0.51100000000E-03 0.  1.
         12    1    3    3    0    0 -0.51532672236E+01  0.25074516509E+02 -0.19352971341E+00  0.25599316300E+02  0.00000000000E+00 0. -1.
</event>
<event>
 7    1  0.2732193E-010  0.4778727E+02  0.7816164E-02  0.1312668E+00
        -11   -1    0    0    0    0  0.00000000000E+00  0.00000000000E+00  0.45593999997E+02  0.45594000000E+02  0.51100000000E-03 0. -1.
         11   -1    0    0    0    0 -0.00000000000E+00 -0.00000000000E+00 -0.45593999997E+02  0.45594000000E+02  0.51100000000E-03 0.  1.
    9900012    2    1    2    0    0 -0.38597757121E+02 -0.15273854686E+02  0.12670672944E+02  0.47787269078E+02  0.19999991032E+02 0.  0.
        -12    1    1    2    0    0  0.38597757121E+02  0.15273854686E+02 -0.12670672944E+02  0.43400730922E+02  0.00000000000E+00 0.  1.
         11    1    3    3    0    0 -0.14856449829E+02  0.42184002174E+00  0.66671537389E+01  0.16289352036E+02  0.51100000000E-03 0. -1.
        -11    1    3    3    0    0 -0.74317223210E+01 -0.11698399365E+02  0.47822632783E+01  0.14661278480E+02  0.51100000000E-03 0.  1.
        -12    1    3    3    0    0 -0.16309584972E+02 -0.39972953428E+01  0.12212559268E+01  0.16836638561E+02  0.00000000000E+00 0.  1.
</event>
<event>
 7    1  0.2732193E-010  0.4778727E+02  0.7816164E-02  0.1312668E+00
        -11   -1    0    0    0    0  0.00000000000E+00  0.00000000000E+00  0.45593999997E+02  0.45594000000E+02  0.51100000000E-03 0.  1.
         11   -1    0    0    0    0 -0.00000000000E+00 -0.00000000000E+00 -0.45593999997E+02  0.45594000000E+02  0.51100000000E-03 0. -1.
    9900012    2    1    2    0    0 -0.30041374644E+02 -0.42359207328E+01 -0.31035399962E+02  0.47787271138E+02  0.20000000427E+02 0.  0.
        -12    1    1    2    0    0  0.30041374644E+02  0.42359207328E+01  0.31035399962E+02  0.43400728862E+02  0.00000000000E+00 0.  1.
         11    1    3    3    0    0 -0.26933700859E+01 -0.47502598794E+01 -0.12696386666E+02  0.13820906120E+02  0.51100000000E-03 0. -1.
        -11    1    3    3    0    0 -0.15641732664E+01  0.21639898356E+01 -0.25210591321E+01  0.36722240434E+01  0.51100000000E-03 0.  1.
        -12    1    3    3    0    0 -0.25783831292E+02 -0.16496506890E+01 -0.15817954164E+02  0.30294140975E+02  0.00000000000E+00 0.  1.
</event>
<event>
 7    1  0.2732193E-010  0.4778728E+02  0.7816164E-02  0.1312668E+00
        -11   -1    0    0    0    0  0.00000000000E+00  0.00000000000E+00  0.45593999997E+02  0.45594000000E+02  0.51100000000E-03 0.  1.
         11   -1    0    0    0    0 -0.00000000000E+00 -0.00000000000E+00 -0.45593999997E+02  0.45594000000E+02  0.51100000000E-03 0. -1.
    9900012    2    1    2    0    0 -0.74025859400E+01  0.28235139504E+02 -0.32118546942E+02  0.47787280662E+02  0.20000043850E+02 0.  0.
        -12    1    1    2    0    0  0.74025859400E+01 -0.28235139504E+02  0.32118546942E+02  0.43400719338E+02  0.00000000000E+00 0.  1.
         11    1    3    3    0    0 -0.64181509084E+01  0.23579033072E+01 -0.68031751085E+01  0.96454943320E+01  0.51100000000E-03 0. -1.
        -11    1    3    3    0    0  0.35452903056E+01  0.15112709264E+02 -0.19981513662E+02  0.25302647157E+02  0.51100000000E-03 0.  1.
        -12    1    3    3    0    0 -0.45297253373E+01  0.10764526933E+02 -0.53338581710E+01  0.12839139173E+02  0.00000000000E+00 0.  1.
</event>
<event>
 7    1  0.2732193E-010  0.4778727E+02  0.7816164E-02  0.1312668E+00
        -11   -1    0    0    0    0  0.00000000000E+00  0.00000000000E+00  0.45593999997E+02  0.45594000000E+02  0.51100000000E-03 0.  1.
         11   -1    0    0    0    0 -0.00000000000E+00 -0.00000000000E+00 -0.45593999997E+02  0.45594000000E+02  0.51100000000E-03 0. -1.
    9900012    2    1    2    0    0  0.30295132500E+02 -0.22396679189E+02 -0.21545695279E+02  0.47787271009E+02  0.19999999838E+02 0.  0.
        -12    1    1    2    0    0 -0.30295132500E+02  0.22396679189E+02  0.21545695279E+02  0.43400728991E+02  0.00000000000E+00 0.  1.
         11    1    3    3    0    0  0.19377917171E+02 -0.20043826200E+02 -0.15858705737E+02  0.32074244972E+02  0.51100000000E-03 0. -1.
        -11    1    3    3    0    0 -0.14195350882E+01  0.77855048544E+00 -0.17636737619E+01  0.23941107169E+01  0.51100000000E-03 0.  1.
        -12    1    3    3    0    0  0.12336750418E+02 -0.31314034740E+01 -0.39233157799E+01  0.13318915320E+02  0.00000000000E+00 0.  1.
</event>
<event>
 7    1  0.2732193E-010  0.4778727E+02  0.7816164E-02  0.1312668E+00
        -11   -1    0    0    0    0  0.00000000000E+00  0.00000000000E+00  0.45593999997E+02  0.45594000000E+02  0.51100000000E-03 0.  1.
         11   -1    0    0    0    0 -0.00000000000E+00 -0.00000000000E+00 -0.45593999997E+02  0.45594000000E+02  0.51100000000E-03 0. -1.
    9900012    2    1    2    0    0 -0.20126432742E+00  0.34946826734E+02 -0.25735232167E+02  0.47787269813E+02  0.19999994385E+02 0.  0.
        -12    1    1    2    0    0  0.20126432742E+00 -0.34946826734E+02  0.25735232167E+02  0.43400730187E+02  0.00000000000E+00 0.  1.
         11    1    3    3    0    0  0.81908215608E+01  0.17748424297E+02 -0.16217314141E+02  0.25398767708E+02  0.51100000000E-03 0. -1.
        -11    1    3    3    0    0 -0.70396776998E+01  0.73872495152E+01 -0.62166564321E+01  0.11948863334E+02  0.51100000000E-03 0.  1.
        -12    1    3    3    0    0 -0.13524081885E+01  0.98111529219E+01 -0.33012615939E+01  0.10439638771E+02  0.00000000000E+00 0.  1.
</event>
<event>
 7    1  0.2732193E-010  0.4778726E+02  0.7816164E-02  0.1312668E+00
        -11   -1    0    0    0    0  0.00000000000E+00  0.00000000000E+00  0.45593999997E+02  0.45594000000E+02  0.51100000000E-03 0.  1.
         11   -1    0    0    0    0 -0.00000000000E+00 -0.00000000000E+00 -0.45593999997E+02  0.45594000000E+02  0.51100000000E-03 0. -1.
    9900012    2    1    2    0    0 -0.28229760696E+01 -0.39091749831E+02 -0.18641077197E+02  0.47787264317E+02  0.19999969328E+02 0.  0.
        -12    1    1    2    0    0  0.28229760696E+01  0.39091749831E+02  0.18641077197E+02  0.43400735683E+02  0.00000000000E+00 0.  1.
         11    1    3    3    0    0 -0.82991982097E+01 -0.23143760413E+02 -0.18311321932E+02  0.30656399791E+02  0.51100000000E-03 0. -1.
        -11    1    3    3    0    0  0.20109884887E+01 -0.46075035370E+01  0.12166249766E+01  0.51723631098E+01  0.51100000000E-03 0.  1.
         12    1    3    3    0    0  0.34652336514E+01 -0.11340485881E+02 -0.15463802420E+01  0.11958501417E+02  0.00000000000E+00 0. -1.
</event>
<event>
 7    1  0.2732193E-010  0.4778727E+02  0.7816164E-02  0.1312668E+00
        -11   -1    0    0    0    0  0.00000000000E+00  0.00000000000E+00  0.45593999997E+02  0.45594000000E+02  0.51100000000E-03 0. -1.
         11   -1    0    0    0    0 -0.00000000000E+00 -0.00000000000E+00 -0.45593999997E+02  0.45594000000E+02  0.51100000000E-03 0.  1.
    9900012    2    1    2    0    0 -0.14778424623E+02  0.36618127572E+02 -0.18009279217E+02  0.47787271445E+02  0.20000001824E+02 0.  0.
        -12    1    1    2    0    0  0.14778424623E+02 -0.36618127572E+02  0.18009279217E+02  0.43400728555E+02  0.00000000000E+00 0.  1.
         11    1    3    3    0    0 -0.14591984375E+02  0.30058487341E+02 -0.13996604019E+02  0.36226283188E+02  0.51100000000E-03 0. -1.
        -11    1    3    3    0    0 -0.35325592137E-01 -0.40303475232E-01  0.23745756369E+01  0.23751804108E+01  0.51100000000E-03 0.  1.
         12    1    3    3    0    0 -0.15111465553E+00  0.65999437064E+01 -0.63872508344E+01  0.91858078462E+01  0.00000000000E+00 0. -1.
</event>
<event>
 7    1  0.2732193E-010  0.4778727E+02  0.7816164E-02  0.1312668E+00
        -11   -1    0    0    0    0  0.00000000000E+00  0.00000000000E+00  0.45593999997E+02  0.45594000000E+02  0.51100000000E-03 0. -1.
         11   -1    0    0    0    0 -0.00000000000E+00 -0.00000000000E+00 -0.45593999997E+02  0.45594000000E+02  0.51100000000E-03 0.  1.
    9900012    2    1    2    0    0  0.43149632094E+02  0.60959114417E+00 -0.46218046765E+01  0.47787269250E+02  0.19999991818E+02 0.  0.
        -12    1    1    2    0    0 -0.43149632094E+02 -0.60959114417E+00  0.46218046765E+01  0.43400730750E+02  0.00000000000E+00 0.  1.
         11    1    3    3    0    0  0.23452812126E+02  0.81634103359E+01 -0.35694345458E+01  0.25088175066E+02  0.51100000000E-03 0.  1.
        -11    1    3    3    0    0  0.19615158549E+02 -0.65567048798E+01 -0.26118804138E+01  0.20846264493E+02  0.51100000000E-03 0. -1.
         12    1    3    3    0    0  0.81661419181E-01 -0.99711431193E+00  0.15595102832E+01  0.18528296904E+01  0.00000000000E+00 0. -1.
</event>
<event>
 7    1  0.2732193E-010  0.4778727E+02  0.7816164E-02  0.1312668E+00
        -11   -1    0    0    0    0  0.00000000000E+00  0.00000000000E+00  0.45593999997E+02  0.45594000000E+02  0.51100000000E-03 0.  1.
         11   -1    0    0    0    0 -0.00000000000E+00 -0.00000000000E+00 -0.45593999997E+02  0.45594000000E+02  0.51100000000E-03 0. -1.
    9900012    2    1    2    0    0  0.41609040192E+02  0.12331333440E+02  0.49928948429E+00  0.47787270742E+02  0.19999998621E+02 0.  0.
        -12    1    1    2    0    0 -0.41609040192E+02 -0.12331333440E+02 -0.49928948429E+00  0.43400729258E+02  0.00000000000E+00 0.  1.
         11    1    3    3    0    0  0.35255586849E+02  0.10241017307E+02 -0.64158393863E+00  0.36718475863E+02  0.51100000000E-03 0. -1.
        -11    1    3    3    0    0  0.18784144516E+01 -0.28533917866E+01 -0.17056947832E+01  0.38183347803E+01  0.51100000000E-03 0.  1.
        -12    1    3    3    0    0  0.44750388919E+01  0.49437079203E+01  0.28465682061E+01  0.72504600983E+01  0.00000000000E+00 0.  1.
</event>
<event>
 7    1  0.2732193E-010  0.4778727E+02  0.7816164E-02  0.1312668E+00
        -11   -1    0    0    0    0  0.00000000000E+00  0.00000000000E+00  0.45593999997E+02  0.45594000000E+02  0.51100000000E-03 0.  1.
         11   -1    0    0    0    0 -0.00000000000E+00 -0.00000000000E+00 -0.45593999997E+02  0.45594000000E+02  0.51100000000E-03 0. -1.
    9900012    2    1    2    0    0  0.39889464057E+02  0.90465276208E+00  0.17077348229E+02  0.47787267726E+02  0.19999984871E+02 0.  0.
        -12    1    1    2    0    0 -0.39889464057E+02 -0.90465276208E+00 -0.17077348229E+02  0.43400732274E+02  0.00000000000E+00 0.  1.
         11    1    3    3    0    0  0.18227659402E+02 -0.15142839171E+01  0.55689630191E+01  0.19119465799E+02  0.51100000000E-03 0. -1.
        -11    1    3    3    0    0 -0.23501647594E-01  0.34572961045E+01  0.48564810296E+01  0.59614475536E+01  0.51100000000E-03 0.  1.
        -12    1    3    3    0    0  0.21685306303E+02 -0.10383594254E+01  0.66519041801E+01  0.22706354374E+02  0.00000000000E+00 0.  1.
</event>
<event>
 7    1  0.2732193E-010  0.4778728E+02  0.7816164E-02  0.1312668E+00
        -11   -1    0    0    0    0  0.00000000000E+00  0.00000000000E+00  0.45593999997E+02  0.45594000000E+02  0.51100000000E-03 0.  1.
         11   -1    0    0    0    0 -0.00000000000E+00 -0.00000000000E+00 -0.45593999997E+02  0.45594000000E+02  0.51100000000E-03 0. -1.
    9900012    2    1    2    0    0 -0.16112385648E+02 -0.19037768331E+02 -0.35518682960E+02  0.47787280726E+02  0.20000044142E+02 0.  0.
        -12    1    1    2    0    0  0.16112385648E+02  0.19037768331E+02  0.35518682960E+02  0.43400719274E+02  0.00000000000E+00 0.  1.
         11    1    3    3    0    0 -0.30079850951E+01 -0.15525685867E+01 -0.21183920038E+02  0.21452666780E+02  0.51100000000E-03 0. -1.
        -11    1    3    3    0    0 -0.10108938695E+02 -0.11923821103E+02 -0.88174870022E+01  0.17947596734E+02  0.51100000000E-03 0.  1.
         12    1    3    3    0    0 -0.29954618574E+01 -0.55613786414E+01 -0.55172759203E+01  0.83870172119E+01  0.00000000000E+00 0. -1.
</event>
<event>
 7    1  0.2732193E-010  0.4778727E+02  0.7816164E-02  0.1312668E+00
        -11   -1    0    0    0    0  0.00000000000E+00  0.00000000000E+00  0.45593999997E+02  0.45594000000E+02  0.51100000000E-03 0. -1.
         11   -1    0    0    0    0 -0.00000000000E+00 -0.00000000000E+00 -0.45593999997E+02  0.45594000000E+02  0.51100000000E-03 0.  1.
    9900012    2    1    2    0    0  0.12330546539E+02  0.29523883863E+02  0.29324408211E+02  0.47787274047E+02  0.20000013691E+02 0.  0.
        -12    1    1    2    0    0 -0.12330546539E+02 -0.29523883863E+02 -0.29324408211E+02  0.43400725953E+02  0.00000000000E+00 0.  1.
         11    1    3    3    0    0  0.71465437589E+01  0.98320171039E+01  0.80955381533E+01  0.14604087999E+02  0.51100000000E-03 0. -1.
        -11    1    3    3    0    0  0.63160950269E+01  0.12310619850E+01  0.26246781483E+01  0.69496406845E+01  0.51100000000E-03 0.  1.
        -12    1    3    3    0    0 -0.11320922469E+01  0.18460804774E+02  0.18604191909E+02  0.26233545364E+02  0.00000000000E+00 0.  1.
</event>
<event>
 7    1  0.2732193E-010  0.4778727E+02  0.7816164E-02  0.1312668E+00
        -11   -1    0    0    0    0  0.00000000000E+00  0.00000000000E+00  0.45593999997E+02  0.45594000000E+02  0.51100000000E-03 0.  1.
         11   -1    0    0    0    0 -0.00000000000E+00 -0.00000000000E+00 -0.45593999997E+02  0.45594000000E+02  0.51100000000E-03 0. -1.
    9900012    2    1    2    0    0  0.21885247730E+02  0.36160689675E+02 -0.98520922101E+01  0.47787271125E+02  0.20000000367E+02 0.  0.
        -12    1    1    2    0    0 -0.21885247730E+02 -0.36160689675E+02  0.98520922101E+01  0.43400728875E+02  0.00000000000E+00 0.  1.
         11    1    3    3    0    0  0.11445837039E+02  0.26697260149E+02 -0.10173182101E+02  0.30777337755E+02  0.51100000000E-03 0. -1.
        -11    1    3    3    0    0  0.41376697459E+01 -0.14291859903E+01 -0.45947751614E+00  0.44015910044E+01  0.51100000000E-03 0.  1.
        -12    1    3    3    0    0  0.63017409454E+01  0.10892615516E+02  0.78056740659E+00  0.12608342365E+02  0.00000000000E+00 0.  1.
</event>
<event>
 7    1  0.2732193E-010  0.4778727E+02  0.7816164E-02  0.1312668E+00
        -11   -1    0    0    0    0  0.00000000000E+00  0.00000000000E+00  0.45593999997E+02  0.45594000000E+02  0.51100000000E-03 0.  1.
         11   -1    0    0    0    0 -0.00000000000E+00 -0.00000000000E+00 -0.45593999997E+02  0.45594000000E+02  0.51100000000E-03 0. -1.
    9900012    2    1    2    0    0 -0.25993551971E+02 -0.25438516687E+02 -0.23682067272E+02  0.47787272061E+02  0.20000004637E+02 0.  0.
        -12    1    1    2    0    0  0.25993551971E+02  0.25438516687E+02  0.23682067272E+02  0.43400727939E+02  0.00000000000E+00 0.  1.
         11    1    3    3    0    0 -0.96162476899E+01 -0.16465663513E+02 -0.19074328979E+02  0.26970730817E+02  0.51100000000E-03 0. -1.
        -11    1    3    3    0    0 -0.60644726172E+01  0.63927783614E+00 -0.43211321135E+00  0.61133645699E+01  0.51100000000E-03 0.  1.
         12    1    3    3    0    0 -0.10312831664E+02 -0.96121310103E+01 -0.41756250818E+01  0.14703176674E+02  0.00000000000E+00 0. -1.
</event>
<event>
 7    1  0.2732193E-010  0.4778727E+02  0.7816164E-02  0.1312668E+00
        -11   -1    0    0    0    0  0.00000000000E+00  0.00000000000E+00  0.45593999997E+02  0.45594000000E+02  0.51100000000E-03 0.  1.
         11   -1    0    0    0    0 -0.00000000000E+00 -0.00000000000E+00 -0.45593999997E+02  0.45594000000E+02  0.51100000000E-03 0. -1.
    9900012    2    1    2    0    0 -0.22684238263E+02 -0.35954205068E+02 -0.87375201709E+01  0.47787265140E+02  0.19999973081E+02 0.  0.
        -12    1    1    2    0    0  0.22684238263E+02  0.35954205068E+02  0.87375201709E+01  0.43400734860E+02  0.00000000000E+00 0.  1.
         11    1    3    3    0    0 -0.60416218210E+01 -0.21755077976E+02  0.40441044769E+00  0.22582031796E+02  0.51100000000E-03 0. -1.
        -11    1    3    3    0    0 -0.12935228144E+02 -0.55472316711E+01 -0.53321760450E+01  0.15050714534E+02  0.51100000000E-03 0.  1.
        -12    1    3    3    0    0 -0.37073882980E+01 -0.86518954205E+01 -0.38097545736E+01  0.10154518810E+02  0.00000000000E+00 0.  1.
</event>
<event>
 7    1  0.2732193E-010  0.4778727E+02  0.7816164E-02  0.1312668E+00
        -11   -1    0    0    0    0  0.00000000000E+00  0.00000000000E+00  0.45593999997E+02  0.45594000000E+02  0.51100000000E-03 0.  1.
         11   -1    0    0    0    0 -0.00000000000E+00 -0.00000000000E+00 -0.45593999997E+02  0.45594000000E+02  0.51100000000E-03 0. -1.
    9900012    2    1    2    0    0 -0.19409333563E+02  0.22099321882E+02 -0.31914274268E+02  0.47787272368E+02  0.20000006033E+02 0.  0.
        -12    1    1    2    0    0  0.19409333563E+02 -0.22099321882E+02  0.31914274268E+02  0.43400727632E+02  0.00000000000E+00 0.  1.
         11    1    3    3    0    0 -0.87991118305E+01  0.84510385771E+01 -0.78091260552E+01  0.14485402033E+02  0.51100000000E-03 0. -1.
        -11    1    3    3    0    0  0.27529525626E+01  0.49474441114E+01 -0.12043002403E+02  0.13307511344E+02  0.51100000000E-03 0.  1.
        -12    1    3    3    0    0 -0.13363174295E+02  0.87008391932E+01 -0.12062145810E+02  0.19994358991E+02  0.00000000000E+00 0.  1.
</event>
<event>
 7    1  0.2732193E-010  0.4778729E+02  0.7816164E-02  0.1312668E+00
        -11   -1    0    0    0    0  0.00000000000E+00  0.00000000000E+00  0.45593999997E+02  0.45594000000E+02  0.51100000000E-03 0.  1.
         11   -1    0    0    0    0 -0.00000000000E+00 -0.00000000000E+00 -0.45593999997E+02  0.45594000000E+02  0.51100000000E-03 0. -1.
    9900012    2    1    2    0    0 -0.22055920601E+02 -0.21780940688E+02 -0.30376781490E+02  0.47787287281E+02  0.20000074028E+02 0.  0.
        -12    1    1    2    0    0  0.22055920601E+02  0.21780940688E+02  0.30376781490E+02  0.43400712719E+02  0.00000000000E+00 0.  1.
         11    1    3    3    0    0 -0.15310997160E+02 -0.88257451729E+01 -0.17371895882E+02  0.24781105276E+02  0.51100000000E-03 0. -1.
        -11    1    3    3    0    0  0.31670520439E+01 -0.62620884973E+01 -0.48679224496E+01  0.85405292713E+01  0.51100000000E-03 0.  1.
        -12    1    3    3    0    0 -0.99119754850E+01 -0.66931070178E+01 -0.81369631587E+01  0.14465652734E+02  0.00000000000E+00 0.  1.
</event>
<event>
 7    1  0.2732193E-010  0.4778730E+02  0.7816164E-02  0.1312668E+00
        -11   -1    0    0    0    0  0.00000000000E+00  0.00000000000E+00  0.45593999997E+02  0.45594000000E+02  0.51100000000E-03 0. -1.
         11   -1    0    0    0    0 -0.00000000000E+00 -0.00000000000E+00 -0.45593999997E+02  0.45594000000E+02  0.51100000000E-03 0.  1.
    9900012    2    1    2    0    0 -0.32065747156E+02 -0.24684642240E+02  0.15686854640E+02  0.47787295954E+02  0.20000113574E+02 0.  0.
        -12    1    1    2    0    0  0.32065747156E+02  0.24684642240E+02 -0.15686854640E+02  0.43400704046E+02  0.00000000000E+00 0.  1.
         11    1    3    3    0    0 -0.41847812156E+01 -0.80819866619E+01  0.11712673678E+02  0.14832991174E+02  0.51100000000E-03 0. -1.
        -11    1    3    3    0    0 -0.20368519381E+02 -0.11540590596E+02  0.10461692919E+01  0.23434083800E+02  0.51100000000E-03 0.  1.
         12    1    3    3    0    0 -0.75124465591E+01 -0.50620649820E+01  0.29280116701E+01  0.95202209810E+01  0.00000000000E+00 0. -1.
</event>
<event>
 7    1  0.2732193E-010  0.4778728E+02  0.7816164E-02  0.1312668E+00
        -11   -1    0    0    0    0  0.00000000000E+00  0.00000000000E+00  0.45593999997E+02  0.45594000000E+02  0.51100000000E-03 0.  1.
         11   -1    0    0    0    0 -0.00000000000E+00 -0.00000000000E+00 -0.45593999997E+02  0.45594000000E+02  0.51100000000E-03 0. -1.
    9900012    2    1    2    0    0  0.45020239788E+01 -0.36466030320E+02 -0.23099417162E+02  0.47787278112E+02  0.20000032224E+02 0.  0.
        -12    1    1    2    0    0 -0.45020239788E+01  0.36466030320E+02  0.23099417162E+02  0.43400721888E+02  0.00000000000E+00 0.  1.
         11    1    3    3    0    0  0.28341970340E+01 -0.80425820431E+01  0.25201345224E+01  0.88919557478E+01  0.51100000000E-03 0.  1.
        -11    1    3    3    0    0 -0.16434364385E+01 -0.20053883060E+02 -0.15871771137E+02  0.25627567742E+02  0.51100000000E-03 0. -1.
        -12    1    3    3    0    0  0.33112633833E+01 -0.83695652170E+01 -0.97477805471E+01  0.13267754622E+02  0.00000000000E+00 0.  1.
</event>
<event>
 7    1  0.2732193E-010  0.4778727E+02  0.7816164E-02  0.1312668E+00
        -11   -1    0    0    0    0  0.00000000000E+00  0.00000000000E+00  0.45593999997E+02  0.45594000000E+02  0.51100000000E-03 0.  1.
         11   -1    0    0    0    0 -0.00000000000E+00 -0.00000000000E+00 -0.45593999997E+02  0.45594000000E+02  0.51100000000E-03 0. -1.
    9900012    2    1    2    0    0 -0.26263996934E+02  0.18627075275E+01 -0.34501534004E+02  0.47787273474E+02  0.20000011079E+02 0.  0.
        -12    1    1    2    0    0  0.26263996934E+02 -0.18627075275E+01  0.34501534004E+02  0.43400726526E+02  0.00000000000E+00 0.  1.
         11    1    3    3    0    0 -0.10444531062E+02 -0.53716735638E+01 -0.60829143005E+01  0.13226675797E+02  0.51100000000E-03 0. -1.
        -11    1    3    3    0    0 -0.50756658982E+01  0.85395215513E+00 -0.16530945312E+02  0.17313687411E+02  0.51100000000E-03 0.  1.
         12    1    3    3    0    0 -0.10743799974E+02  0.63804289362E+01 -0.11887674391E+02  0.17246910266E+02  0.00000000000E+00 0. -1.
</event>
<event>
 7    1  0.2732193E-010  0.4778727E+02  0.7816164E-02  0.1312668E+00
        -11   -1    0    0    0    0  0.00000000000E+00  0.00000000000E+00  0.45593999997E+02  0.45594000000E+02  0.51100000000E-03 0. -1.
         11   -1    0    0    0    0 -0.00000000000E+00 -0.00000000000E+00 -0.45593999997E+02  0.45594000000E+02  0.51100000000E-03 0.  1.
    9900012    2    1    2    0    0 -0.36334739965E+02 -0.81456360419E+01 -0.22294809622E+02  0.47787271308E+02  0.20000001204E+02 0.  0.
        -12    1    1    2    0    0  0.36334739965E+02  0.81456360419E+01  0.22294809622E+02  0.43400728692E+02  0.00000000000E+00 0.  1.
         11    1    3    3    0    0 -0.24912186827E+02 -0.10133922915E+02 -0.16190560109E+02  0.31391841027E+02  0.51100000000E-03 0. -1.
        -11    1    3    3    0    0 -0.60089686115E+01 -0.27746506275E+01 -0.63616602373E+01  0.91802565931E+01  0.51100000000E-03 0.  1.
         12    1    3    3    0    0 -0.54135845272E+01  0.47629375011E+01  0.25741072474E+00  0.72151736884E+01  0.00000000000E+00 0. -1.
</event>
<event>
 7    1  0.2732193E-010  0.4778727E+02  0.7816164E-02  0.1312668E+00
        -11   -1    0    0    0    0  0.00000000000E+00  0.00000000000E+00  0.45593999997E+02  0.45594000000E+02  0.51100000000E-03 0.  1.
         11   -1    0    0    0    0 -0.00000000000E+00 -0.00000000000E+00 -0.45593999997E+02  0.45594000000E+02  0.51100000000E-03 0. -1.
    9900012    2    1    2    0    0 -0.17819396355E+02  0.95802606274E+01 -0.38396757159E+02  0.47787271429E+02  0.20000001756E+02 0.  0.
        -12    1    1    2    0    0  0.17819396355E+02 -0.95802606274E+01  0.38396757159E+02  0.43400728571E+02  0.00000000000E+00 0.  1.
         11    1    3    3    0    0 -0.95888661518E+01  0.25052248611E+00 -0.22133900728E+02  0.24122990638E+02  0.51100000000E-03 0. -1.
        -11    1    3    3    0    0 -0.78785719541E+01  0.57482584979E+01 -0.34329610782E+01  0.10339225978E+02  0.51100000000E-03 0.  1.
        -12    1    3    3    0    0 -0.35195824884E+00  0.35814796433E+01 -0.12829895352E+02  0.13325054814E+02  0.00000000000E+00 0.  1.
</event>
<event>
 7    1  0.2732193E-010  0.4778727E+02  0.7816164E-02  0.1312668E+00
        -11   -1    0    0    0    0  0.00000000000E+00  0.00000000000E+00  0.45593999997E+02  0.45594000000E+02  0.51100000000E-03 0.  1.
         11   -1    0    0    0    0 -0.00000000000E+00 -0.00000000000E+00 -0.45593999997E+02  0.45594000000E+02  0.51100000000E-03 0. -1.
    9900012    2    1    2    0    0 -0.37978686764E+02  0.20914688426E+02  0.19541071942E+01  0.47787269877E+02  0.19999994678E+02 0.  0.
        -12    1    1    2    0    0  0.37978686764E+02 -0.20914688426E+02 -0.19541071942E+01  0.43400730123E+02  0.00000000000E+00 0.  1.
         11    1    3    3    0    0 -0.66142860694E+01 -0.15739257124E+01  0.43037795717E+01  0.80466478249E+01  0.51100000000E-03 0. -1.
        -11    1    3    3    0    0 -0.95899439717E+01  0.30663091828E+01 -0.31567518047E+01  0.10551509826E+02  0.51100000000E-03 0.  1.
         12    1    3    3    0    0 -0.21774456723E+02  0.19422304956E+02  0.80707942731E+00  0.29189112226E+02  0.00000000000E+00 0. -1.
</event>
<event>
 7    1  0.2732193E-010  0.4778727E+02  0.7816164E-02  0.1312668E+00
        -11   -1    0    0    0    0  0.00000000000E+00  0.00000000000E+00  0.45593999997E+02  0.45594000000E+02  0.51100000000E-03 0.  1.
         11   -1    0    0    0    0 -0.00000000000E+00 -0.00000000000E+00 -0.45593999997E+02  0.45594000000E+02  0.51100000000E-03 0. -1.
    9900012    2    1    2    0    0  0.13367733765E+02  0.34994563347E+02 -0.21915913142E+02  0.47787273984E+02  0.20000013405E+02 0.  0.
        -12    1    1    2    0    0 -0.13367733765E+02 -0.34994563347E+02  0.21915913142E+02  0.43400726016E+02  0.00000000000E+00 0.  1.
         11    1    3    3    0    0  0.48721522422E+01  0.84761093964E+01 -0.26559404632E+01  0.10130958394E+02  0.51100000000E-03 0. -1.
        -11    1    3    3    0    0  0.58334248478E+01  0.59316437821E+01  0.13223323070E+01  0.84238830954E+01  0.51100000000E-03 0.  1.
        -12    1    3    3    0    0  0.26621566746E+01  0.20586810168E+02 -0.20582304986E+02  0.29232432495E+02  0.00000000000E+00 0.  1.
</event>
<event>
 7    1  0.2732193E-010  0.4778727E+02  0.7816164E-02  0.1312668E+00
        -11   -1    0    0    0    0  0.00000000000E+00  0.00000000000E+00  0.45593999997E+02  0.45594000000E+02  0.51100000000E-03 0.  1.
         11   -1    0    0    0    0 -0.00000000000E+00 -0.00000000000E+00 -0.45593999997E+02  0.45594000000E+02  0.51100000000E-03 0. -1.
    9900012    2    1    2    0    0  0.26107679386E+02  0.29795857387E+02 -0.17726230592E+02  0.47787270843E+02  0.19999999083E+02 0.  0.
        -12    1    1    2    0    0 -0.26107679386E+02 -0.29795857387E+02  0.17726230592E+02  0.43400729157E+02  0.00000000000E+00 0.  1.
         11    1    3    3    0    0  0.95236854155E+01  0.81784719533E+01 -0.90566073779E+01  0.15479345104E+02  0.51100000000E-03 0. -1.
        -11    1    3    3    0    0  0.60739128968E+01  0.19111514892E+02 -0.76197957653E+01  0.21452359010E+02  0.51100000000E-03 0.  1.
        -12    1    3    3    0    0  0.10510081074E+02  0.25058705419E+01 -0.10498274483E+01  0.10855566730E+02  0.00000000000E+00 0.  1.
</event>
<event>
 7    1  0.2732193E-010  0.4778727E+02  0.7816164E-02  0.1312668E+00
        -11   -1    0    0    0    0  0.00000000000E+00  0.00000000000E+00  0.45593999997E+02  0.45594000000E+02  0.51100000000E-03 0.  1.
         11   -1    0    0    0    0 -0.00000000000E+00 -0.00000000000E+00 -0.45593999997E+02  0.45594000000E+02  0.51100000000E-03 0. -1.
    9900012    2    1    2    0    0  0.39103118991E+02 -0.15220600353E+02  0.11086143715E+02  0.47787272213E+02  0.20000005330E+02 0.  0.
        -12    1    1    2    0    0 -0.39103118991E+02  0.15220600353E+02 -0.11086143715E+02  0.43400727787E+02  0.00000000000E+00 0.  1.
         11    1    3    3    0    0  0.26695968656E+02 -0.21684952014E+01  0.83876013818E+01  0.28066509778E+02  0.51100000000E-03 0. -1.
        -11    1    3    3    0    0  0.29920238733E+01 -0.18251523466E+00  0.22855888953E+01  0.37695404930E+01  0.51100000000E-03 0.  1.
         12    1    3    3    0    0  0.94151264622E+01 -0.12869589917E+02  0.41295343744E+00  0.15951221943E+02  0.00000000000E+00 0. -1.
</event>
<event>
 7    1  0.2732193E-010  0.4778729E+02  0.7816164E-02  0.1312668E+00
        -11   -1    0    0    0    0  0.00000000000E+00  0.00000000000E+00  0.45593999997E+02  0.45594000000E+02  0.51100000000E-03 0.  1.
         11   -1    0    0    0    0 -0.00000000000E+00 -0.00000000000E+00 -0.45593999997E+02  0.45594000000E+02  0.51100000000E-03 0. -1.
    9900012    2    1    2    0    0  0.38791831721E+02  0.83216694389E+01  0.17594475177E+02  0.47787286328E+02  0.20000069683E+02 0.  0.
        -12    1    1    2    0    0 -0.38791831721E+02 -0.83216694389E+01 -0.17594475177E+02  0.43400713672E+02  0.00000000000E+00 0.  1.
         11    1    3    3    0    0  0.17952982364E+02 -0.29511974471E+01  0.47676398055E+01  0.18808230425E+02  0.51100000000E-03 0.  1.
        -11    1    3    3    0    0  0.99522385305E+01  0.10574574465E+02  0.10236735580E+02  0.17766807042E+02  0.51100000000E-03 0. -1.
         12    1    3    3    0    0  0.10886610826E+02  0.69829242092E+00  0.25900997917E+01  0.11212248861E+02  0.00000000000E+00 0. -1.
</event>
<event>
 7    1  0.2732193E-010  0.4778727E+02  0.7816164E-02  0.1312668E+00
        -11   -1    0    0    0    0  0.00000000000E+00  0.00000000000E+00  0.45593999997E+02  0.45594000000E+02  0.51100000000E-03 0.  1.
         11   -1    0    0    0    0 -0.00000000000E+00 -0.00000000000E+00 -0.45593999997E+02  0.45594000000E+02  0.51100000000E-03 0. -1.
    9900012    2    1    2    0    0 -0.12508700737E+02 -0.37163042740E+02 -0.18602792506E+02  0.47787271563E+02  0.20000002366E+02 0.  0.
        -12    1    1    2    0    0  0.12508700737E+02  0.37163042740E+02  0.18602792506E+02  0.43400728437E+02  0.00000000000E+00 0.  1.
         11    1    3    3    0    0 -0.76727751134E+01 -0.18622059167E+02 -0.15929889274E+02  0.25679056410E+02  0.51100000000E-03 0. -1.
        -11    1    3    3    0    0 -0.48207904220E+01 -0.41666495883E+01  0.24809660845E+01  0.68378492275E+01  0.51100000000E-03 0.  1.
        -12    1    3    3    0    0 -0.15135201292E-01 -0.14374333984E+02 -0.51538693165E+01  0.15270365926E+02  0.00000000000E+00 0.  1.
</event>
<event>
 7    1  0.2732193E-010  0.4778727E+02  0.7816164E-02  0.1312668E+00
        -11   -1    0    0    0    0  0.00000000000E+00  0.00000000000E+00  0.45593999997E+02  0.45594000000E+02  0.51100000000E-03 0.  1.
         11   -1    0    0    0    0 -0.00000000000E+00 -0.00000000000E+00 -0.45593999997E+02  0.45594000000E+02  0.51100000000E-03 0. -1.
    9900012    2    1    2    0    0  0.25468871176E+00 -0.37338202737E+02 -0.22122769982E+02  0.47787271877E+02  0.20000003794E+02 0.  0.
        -12    1    1    2    0    0 -0.25468871176E+00  0.37338202737E+02  0.22122769982E+02  0.43400728123E+02  0.00000000000E+00 0.  1.
         11    1    3    3    0    0  0.18701949905E+01 -0.27996456615E+00 -0.13306536203E+01  0.23122821582E+01  0.51100000000E-03 0. -1.
        -11    1    3    3    0    0 -0.62677012669E+01 -0.11478425421E+02 -0.12738678298E+02  0.18256841302E+02  0.51100000000E-03 0.  1.
        -12    1    3    3    0    0  0.46521949881E+01 -0.25579812750E+02 -0.80534380640E+01  0.27218148416E+02  0.00000000000E+00 0.  1.
</event>
<event>
 7    1  0.2732193E-010  0.4778729E+02  0.7816164E-02  0.1312668E+00
        -11   -1    0    0    0    0  0.00000000000E+00  0.00000000000E+00  0.45593999997E+02  0.45594000000E+02  0.51100000000E-03 0. -1.
         11   -1    0    0    0    0 -0.00000000000E+00 -0.00000000000E+00 -0.45593999997E+02  0.45594000000E+02  0.51100000000E-03 0.  1.
    9900012    2    1    2    0    0 -0.30115667049E+02 -0.77878331266E+00  0.31241983565E+02  0.47787292145E+02  0.20000096207E+02 0.  0.
        -12    1    1    2    0    0  0.30115667049E+02  0.77878331266E+00 -0.31241983565E+02  0.43400707855E+02  0.00000000000E+00 0.  1.
         11    1    3    3    0    0 -0.24536632236E+02 -0.59748201992E+01  0.30712888747E+02  0.39762121842E+02  0.51100000000E-03 0. -1.
        -11    1    3    3    0    0  0.44920499929E-01 -0.63303866926E-02 -0.31444659389E+00  0.31770244985E+00  0.51100000000E-03 0.  1.
         12    1    3    3    0    0 -0.56239553128E+01  0.52023672732E+01  0.84354141144E+00  0.77074678539E+01  0.00000000000E+00 0. -1.
</event>
<event>
 7    1  0.2732193E-010  0.4778727E+02  0.7816164E-02  0.1312668E+00
        -11   -1    0    0    0    0  0.00000000000E+00  0.00000000000E+00  0.45593999997E+02  0.45594000000E+02  0.51100000000E-03 0.  1.
         11   -1    0    0    0    0 -0.00000000000E+00 -0.00000000000E+00 -0.45593999997E+02  0.45594000000E+02  0.51100000000E-03 0. -1.
    9900012    2    1    2    0    0  0.21715487201E+02 -0.59220165753E+01 -0.37107826093E+02  0.47787269337E+02  0.19999992217E+02 0.  0.
        -12    1    1    2    0    0 -0.21715487201E+02  0.59220165753E+01  0.37107826093E+02  0.43400730663E+02  0.00000000000E+00 0.  1.
         11    1    3    3    0    0  0.67831992466E+01  0.10940403786E+01 -0.98459772277E+01  0.12006331005E+02  0.51100000000E-03 0. -1.
        -11    1    3    3    0    0  0.11592149376E+02 -0.11542506040E+02 -0.14602863833E+02  0.21928315148E+02  0.51100000000E-03 0.  1.
        -12    1    3    3    0    0  0.33401385785E+01  0.45264490857E+01 -0.12658985032E+02  0.13852623185E+02  0.00000000000E+00 0.  1.
</event>
<event>
 7    1  0.2732193E-010  0.4778727E+02  0.7816164E-02  0.1312668E+00
        -11   -1    0    0    0    0  0.00000000000E+00  0.00000000000E+00  0.45593999997E+02  0.45594000000E+02  0.51100000000E-03 0.  1.
         11   -1    0    0    0    0 -0.00000000000E+00 -0.00000000000E+00 -0.45593999997E+02  0.45594000000E+02  0.51100000000E-03 0. -1.
    9900012    2    1    2    0    0  0.41134503827E+02  0.85451895644E+01 -0.10888311730E+02  0.47787274175E+02  0.20000014275E+02 0.  0.
        -12    1    1    2    0    0 -0.41134503827E+02 -0.85451895644E+01  0.10888311730E+02  0.43400725825E+02  0.00000000000E+00 0.  1.
         11    1    3    3    0    0  0.10753897707E+02  0.31891686984E+01 -0.38749502936E+01  0.11867280772E+02  0.51100000000E-03 0. -1.
        -11    1    3    3    0    0  0.31117757252E+02  0.69608890773E+01 -0.36162184904E+01  0.32091211096E+02  0.51100000000E-03 0.  1.
        -12    1    3    3    0    0 -0.73715113234E+00 -0.16048682112E+01 -0.33971429457E+01  0.38287823078E+01  0.00000000000E+00 0.  1.
</event>
<event>
 7    1  0.2732193E-010  0.4778727E+02  0.7816164E-02  0.1312668E+00
        -11   -1    0    0    0    0  0.00000000000E+00  0.00000000000E+00  0.45593999997E+02  0.45594000000E+02  0.51100000000E-03 0.  1.
         11   -1    0    0    0    0 -0.00000000000E+00 -0.00000000000E+00 -0.45593999997E+02  0.45594000000E+02  0.51100000000E-03 0. -1.
    9900012    2    1    2    0    0  0.79735400236E+01 -0.34215325371E+02 -0.25482490660E+02  0.47787272345E+02  0.20000005929E+02 0.  0.
        -12    1    1    2    0    0 -0.79735400236E+01  0.34215325371E+02  0.25482490660E+02  0.43400727655E+02  0.00000000000E+00 0.  1.
         11    1    3    3    0    0  0.84367847375E+01 -0.63203503423E+01 -0.12427029117E+02  0.16295926426E+02  0.51100000000E-03 0. -1.
        -11    1    3    3    0    0  0.18943275227E+01 -0.24156788426E+02 -0.10785045730E+02  0.26522747133E+02  0.51100000000E-03 0.  1.
        -12    1    3    3    0    0 -0.23575722366E+01 -0.37381866025E+01 -0.22704158129E+01  0.49685987853E+01  0.00000000000E+00 0.  1.
</event>
<event>
 7    1  0.2732193E-010  0.4778726E+02  0.7816164E-02  0.1312668E+00
        -11   -1    0    0    0    0  0.00000000000E+00  0.00000000000E+00  0.45593999997E+02  0.45594000000E+02  0.51100000000E-03 0.  1.
         11   -1    0    0    0    0 -0.00000000000E+00 -0.00000000000E+00 -0.45593999997E+02  0.45594000000E+02  0.51100000000E-03 0. -1.
    9900012    2    1    2    0    0  0.19737842288E+01 -0.58600407399E+01 -0.42957978424E+02  0.47787264845E+02  0.19999971736E+02 0.  0.
        -12    1    1    2    0    0 -0.19737842288E+01  0.58600407399E+01  0.42957978424E+02  0.43400735155E+02  0.00000000000E+00 0.  1.
         11    1    3    3    0    0 -0.30291887383E+01 -0.60073430762E+01 -0.95454674323E+01  0.11678189244E+02  0.51100000000E-03 0. -1.
        -11    1    3    3    0    0  0.60381005269E+01  0.50142395804E+01 -0.13805933228E+02  0.15880964993E+02  0.51100000000E-03 0.  1.
         12    1    3    3    0    0 -0.10351275598E+01 -0.48669372442E+01 -0.19606577763E+02  0.20228110609E+02  0.00000000000E+00 0. -1.
</event>
<event>
 7    1  0.2732193E-010  0.4778727E+02  0.7816164E-02  0.1312668E+00
        -11   -1    0    0    0    0  0.00000000000E+00  0.00000000000E+00  0.45593999997E+02  0.45594000000E+02  0.51100000000E-03 0.  1.
         11   -1    0    0    0    0 -0.00000000000E+00 -0.00000000000E+00 -0.45593999997E+02  0.45594000000E+02  0.51100000000E-03 0. -1.
    9900012    2    1    2    0    0 -0.40998892315E+01 -0.39456842010E+02 -0.17606023223E+02  0.47787268130E+02  0.19999986713E+02 0.  0.
        -12    1    1    2    0    0  0.40998892315E+01  0.39456842010E+02  0.17606023223E+02  0.43400731870E+02  0.00000000000E+00 0.  1.
         11    1    3    3    0    0 -0.29821419598E+01 -0.98407298966E+01  0.27704231113E+01  0.10649337071E+02  0.51100000000E-03 0.  1.
        -11    1    3    3    0    0 -0.27495268401E+01 -0.27920456580E+02 -0.20552436490E+02  0.34778074118E+02  0.51100000000E-03 0. -1.
         12    1    3    3    0    0  0.16317795685E+01 -0.16956555335E+01  0.17599015569E+00  0.23598569413E+01  0.00000000000E+00 0. -1.
</event>
<event>
 7    1  0.2732193E-010  0.4778727E+02  0.7816164E-02  0.1312668E+00
        -11   -1    0    0    0    0  0.00000000000E+00  0.00000000000E+00  0.45593999997E+02  0.45594000000E+02  0.51100000000E-03 0. -1.
         11   -1    0    0    0    0 -0.00000000000E+00 -0.00000000000E+00 -0.45593999997E+02  0.45594000000E+02  0.51100000000E-03 0.  1.
    9900012    2    1    2    0    0  0.13557484823E+02 -0.39459527103E+02 -0.11948370564E+02  0.47787271515E+02  0.20000002145E+02 0.  0.
        -12    1    1    2    0    0 -0.13557484823E+02  0.39459527103E+02  0.11948370564E+02  0.43400728485E+02  0.00000000000E+00 0.  1.
         11    1    3    3    0    0  0.61285070801E+00 -0.21941477987E+02 -0.96382424268E+01  0.23972896353E+02  0.51100000000E-03 0.  1.
        -11    1    3    3    0    0 -0.79433679618E+00 -0.48171471771E+01 -0.14134307646E+01  0.50826828210E+01  0.51100000000E-03 0. -1.
         12    1    3    3    0    0  0.13738970911E+02 -0.12700901939E+02 -0.89669737276E+00  0.18731692340E+02  0.00000000000E+00 0. -1.
</event>
<event>
 7    1  0.2732193E-010  0.4778727E+02  0.7816164E-02  0.1312668E+00
        -11   -1    0    0    0    0  0.00000000000E+00  0.00000000000E+00  0.45593999997E+02  0.45594000000E+02  0.51100000000E-03 0.  1.
         11   -1    0    0    0    0 -0.00000000000E+00 -0.00000000000E+00 -0.45593999997E+02  0.45594000000E+02  0.51100000000E-03 0. -1.
    9900012    2    1    2    0    0 -0.39058873467E+02 -0.54235701668E+01 -0.18127671301E+02  0.47787272164E+02  0.20000005105E+02 0.  0.
        -12    1    1    2    0    0  0.39058873467E+02  0.54235701668E+01  0.18127671301E+02  0.43400727836E+02  0.00000000000E+00 0.  1.
         11    1    3    3    0    0  0.13748641236E+01 -0.52572973981E+00 -0.26735450774E+01  0.30519643936E+01  0.51100000000E-03 0. -1.
        -11    1    3    3    0    0 -0.14682358309E+01 -0.16399674159E+01  0.86502006064E+00  0.23650517007E+01  0.51100000000E-03 0.  1.
         12    1    3    3    0    0 -0.38965501760E+02 -0.32578730111E+01 -0.16319146284E+02  0.42370256070E+02  0.00000000000E+00 0. -1.
</event>
<event>
 7    1  0.2732193E-010  0.4778727E+02  0.7816164E-02  0.1312668E+00
        -11   -1    0    0    0    0  0.00000000000E+00  0.00000000000E+00  0.45593999997E+02  0.45594000000E+02  0.51100000000E-03 0.  1.
         11   -1    0    0    0    0 -0.00000000000E+00 -0.00000000000E+00 -0.45593999997E+02  0.45594000000E+02  0.51100000000E-03 0. -1.
    9900012    2    1    2    0    0  0.42203838127E+01  0.70013477036E+01 -0.42623853101E+02  0.47787270024E+02  0.19999995349E+02 0.  0.
        -12    1    1    2    0    0 -0.42203838127E+01 -0.70013477036E+01  0.42623853101E+02  0.43400729976E+02  0.00000000000E+00 0.  1.
         11    1    3    3    0    0 -0.82105028328E+00  0.11164446665E+02 -0.32432334984E+02  0.34309989008E+02  0.51100000000E-03 0. -1.
        -11    1    3    3    0    0  0.54024558492E+01 -0.46844772023E+01 -0.10552926957E+02  0.12747357510E+02  0.51100000000E-03 0.  1.
        -12    1    3    3    0    0 -0.36102175313E+00  0.52137824076E+00  0.36140884011E+00  0.72992350687E+00  0.00000000000E+00 0.  1.
</event>
<event>
 7    1  0.2732193E-010  0.4778727E+02  0.7816164E-02  0.1312668E+00
        -11   -1    0    0    0    0  0.00000000000E+00  0.00000000000E+00  0.45593999997E+02  0.45594000000E+02  0.51100000000E-03 0.  1.
         11   -1    0    0    0    0 -0.00000000000E+00 -0.00000000000E+00 -0.45593999997E+02  0.45594000000E+02  0.51100000000E-03 0. -1.
    9900012    2    1    2    0    0 -0.67056442691E+01  0.41928711393E+02 -0.89800304414E+01  0.47787269005E+02  0.19999990702E+02 0.  0.
        -12    1    1    2    0    0  0.67056442691E+01 -0.41928711393E+02  0.89800304414E+01  0.43400730995E+02  0.00000000000E+00 0.  1.
         11    1    3    3    0    0 -0.41227967962E+01  0.33516226010E+02  0.35405976062E+00  0.33770700585E+02  0.51100000000E-03 0. -1.
        -11    1    3    3    0    0 -0.41756079467E+01  0.46570657935E+01 -0.45810266253E+01  0.77530489959E+01  0.51100000000E-03 0.  1.
        -12    1    3    3    0    0  0.15927604738E+01  0.37554195895E+01 -0.47530635766E+01  0.62635194247E+01  0.00000000000E+00 0.  1.
</event>
<event>
 7    1  0.2732193E-010  0.4778727E+02  0.7816164E-02  0.1312668E+00
        -11   -1    0    0    0    0  0.00000000000E+00  0.00000000000E+00  0.45593999997E+02  0.45594000000E+02  0.51100000000E-03 0.  1.
         11   -1    0    0    0    0 -0.00000000000E+00 -0.00000000000E+00 -0.45593999997E+02  0.45594000000E+02  0.51100000000E-03 0. -1.
    9900012    2    1    2    0    0  0.14578466652E+02  0.94774966328E+01 -0.39765168007E+02  0.47787271677E+02  0.20000002885E+02 0.  0.
        -12    1    1    2    0    0 -0.14578466652E+02 -0.94774966328E+01  0.39765168007E+02  0.43400728323E+02  0.00000000000E+00 0.  1.
         11    1    3    3    0    0  0.12319364677E+02 -0.51413839211E+00 -0.26680640454E+02  0.29391965903E+02  0.51100000000E-03 0. -1.
        -11    1    3    3    0    0  0.31064627379E+01  0.93870001754E+01 -0.67409428647E+01  0.11966879042E+02  0.51100000000E-03 0.  1.
         12    1    3    3    0    0 -0.84736076316E+00  0.60463484942E+00 -0.63435846882E+01  0.64284267329E+01  0.00000000000E+00 0. -1.
</event>
<event>
 7    1  0.2732193E-010  0.4778727E+02  0.7816164E-02  0.1312668E+00
        -11   -1    0    0    0    0  0.00000000000E+00  0.00000000000E+00  0.45593999997E+02  0.45594000000E+02  0.51100000000E-03 0. -1.
         11   -1    0    0    0    0 -0.00000000000E+00 -0.00000000000E+00 -0.45593999997E+02  0.45594000000E+02  0.51100000000E-03 0.  1.
    9900012    2    1    2    0    0  0.16832570391E+02  0.32249780668E+02  0.23669378500E+02  0.47787271232E+02  0.20000000853E+02 0.  0.
        -12    1    1    2    0    0 -0.16832570391E+02 -0.32249780668E+02 -0.23669378500E+02  0.43400728768E+02  0.00000000000E+00 0.  1.
         11    1    3    3    0    0  0.17490427417E+02  0.21729842338E+02  0.20673234116E+02  0.34720076445E+02  0.51100000000E-03 0. -1.
        -11    1    3    3    0    0  0.18074139967E+01  0.51481966880E+01 -0.14796203064E+01  0.56533132768E+01  0.51100000000E-03 0.  1.
         12    1    3    3    0    0 -0.24652710228E+01  0.53717416413E+01  0.44757646898E+01  0.74138815094E+01  0.00000000000E+00 0. -1.
</event>
<event>
 7    1  0.2732193E-010  0.4778727E+02  0.7816164E-02  0.1312668E+00
        -11   -1    0    0    0    0  0.00000000000E+00  0.00000000000E+00  0.45593999997E+02  0.45594000000E+02  0.51100000000E-03 0.  1.
         11   -1    0    0    0    0 -0.00000000000E+00 -0.00000000000E+00 -0.45593999997E+02  0.45594000000E+02  0.51100000000E-03 0. -1.
    9900012    2    1    2    0    0  0.33575091979E+02 -0.76570390273E+01 -0.26414132950E+02  0.47787268813E+02  0.19999989825E+02 0.  0.
        -12    1    1    2    0    0 -0.33575091979E+02  0.76570390273E+01  0.26414132950E+02  0.43400731187E+02  0.00000000000E+00 0.  1.
         11    1    3    3    0    0  0.18965958794E+02 -0.82329474072E+01 -0.71257160976E+01  0.21869267161E+02  0.51100000000E-03 0. -1.
        -11    1    3    3    0    0  0.72951989059E+01  0.42536289918E+01 -0.61849061429E+01  0.10467394658E+02  0.51100000000E-03 0.  1.
         12    1    3    3    0    0  0.73139342787E+01 -0.36777206118E+01 -0.13103510710E+02  0.15450606993E+02  0.00000000000E+00 0. -1.
</event>
<event>
 7    1  0.2732193E-010  0.4778727E+02  0.7816164E-02  0.1312668E+00
        -11   -1    0    0    0    0  0.00000000000E+00  0.00000000000E+00  0.45593999997E+02  0.45594000000E+02  0.51100000000E-03 0. -1.
         11   -1    0    0    0    0 -0.00000000000E+00 -0.00000000000E+00 -0.45593999997E+02  0.45594000000E+02  0.51100000000E-03 0.  1.
    9900012    2    1    2    0    0  0.40981194812E+02 -0.11914656160E+02  0.78870515193E+01  0.47787274876E+02  0.20000017468E+02 0.  0.
        -12    1    1    2    0    0 -0.40981194812E+02  0.11914656160E+02 -0.78870515193E+01  0.43400725124E+02  0.00000000000E+00 0.  1.
         11    1    3    3    0    0  0.10932949134E+02  0.36646711444E+01  0.77476254514E+01  0.13891900222E+02  0.51100000000E-03 0. -1.
        -11    1    3    3    0    0  0.24154274745E+02 -0.12026720780E+02 -0.46721026786E+00  0.26986835436E+02  0.51100000000E-03 0.  1.
        -12    1    3    3    0    0  0.58939709332E+01 -0.35526065244E+01  0.60663633585E+00  0.69085392177E+01  0.00000000000E+00 0.  1.
</event>
<event>
 7    1  0.2732193E-010  0.4778727E+02  0.7816164E-02  0.1312668E+00
        -11   -1    0    0    0    0  0.00000000000E+00  0.00000000000E+00  0.45593999997E+02  0.45594000000E+02  0.51100000000E-03 0.  1.
         11   -1    0    0    0    0 -0.00000000000E+00 -0.00000000000E+00 -0.45593999997E+02  0.45594000000E+02  0.51100000000E-03 0. -1.
    9900012    2    1    2    0    0 -0.21402262701E+02 -0.35156313889E+01 -0.37592644085E+02  0.47787269568E+02  0.19999993268E+02 0.  0.
        -12    1    1    2    0    0  0.21402262701E+02  0.35156313889E+01  0.37592644085E+02  0.43400730432E+02  0.00000000000E+00 0.  1.
         11    1    3    3    0    0 -0.21283125786E+02 -0.14434373239E+01 -0.23966873917E+02  0.32085292583E+02  0.51100000000E-03 0. -1.
        -11    1    3    3    0    0 -0.24922171469E+00  0.21121380739E+01 -0.98088845590E+01  0.10036805032E+02  0.51100000000E-03 0.  1.
         12    1    3    3    0    0  0.13008479952E+00 -0.41843321390E+01 -0.38168856080E+01  0.56651719522E+01  0.00000000000E+00 0. -1.
</event>
<event>
 7    1  0.2732193E-010  0.4778727E+02  0.7816164E-02  0.1312668E+00
        -11   -1    0    0    0    0  0.00000000000E+00  0.00000000000E+00  0.45593999997E+02  0.45594000000E+02  0.51100000000E-03 0.  1.
         11   -1    0    0    0    0 -0.00000000000E+00 -0.00000000000E+00 -0.45593999997E+02  0.45594000000E+02  0.51100000000E-03 0. -1.
    9900012    2    1    2    0    0  0.20268367845E+02  0.28558795906E+02 -0.25636134451E+02  0.47787274796E+02  0.20000017104E+02 0.  0.
        -12    1    1    2    0    0 -0.20268367845E+02 -0.28558795906E+02  0.25636134451E+02  0.43400725204E+02  0.00000000000E+00 0.  1.
         11    1    3    3    0    0  0.13923506798E+02  0.10597197849E+02 -0.17323903739E+02  0.24622800101E+02  0.51100000000E-03 0. -1.
        -11    1    3    3    0    0  0.12362332834E+01  0.11859586294E+01 -0.50430735044E+01  0.53261018797E+01  0.51100000000E-03 0.  1.
        -12    1    3    3    0    0  0.51086277641E+01  0.16775639428E+02 -0.32691572070E+01  0.17838372815E+02  0.00000000000E+00 0.  1.
</event>
<event>
 7    1  0.2732193E-010  0.4778728E+02  0.7816164E-02  0.1312668E+00
        -11   -1    0    0    0    0  0.00000000000E+00  0.00000000000E+00  0.45593999997E+02  0.45594000000E+02  0.51100000000E-03 0.  1.
         11   -1    0    0    0    0 -0.00000000000E+00 -0.00000000000E+00 -0.45593999997E+02  0.45594000000E+02  0.51100000000E-03 0. -1.
    9900012    2    1    2    0    0  0.35699663560E+02  0.32673383967E+01 -0.24463876552E+02  0.47787277259E+02  0.20000028334E+02 0.  0.
        -12    1    1    2    0    0 -0.35699663560E+02 -0.32673383967E+01  0.24463876552E+02  0.43400722741E+02  0.00000000000E+00 0.  1.
         11    1    3    3    0    0  0.91088390294E+01 -0.49016014227E+01 -0.91785622379E+00  0.10384560909E+02  0.51100000000E-03 0.  1.
        -11    1    3    3    0    0  0.11423319011E+02  0.21068395364E+00 -0.12914280053E+02  0.17242831394E+02  0.51100000000E-03 0. -1.
         12    1    3    3    0    0  0.15167505520E+02  0.79582558658E+01 -0.10631740275E+02  0.20159884955E+02  0.00000000000E+00 0. -1.
</event>
<event>
 7    1  0.2732193E-010  0.4778727E+02  0.7816164E-02  0.1312668E+00
        -11   -1    0    0    0    0  0.00000000000E+00  0.00000000000E+00  0.45593999997E+02  0.45594000000E+02  0.51100000000E-03 0. -1.
         11   -1    0    0    0    0 -0.00000000000E+00 -0.00000000000E+00 -0.45593999997E+02  0.45594000000E+02  0.51100000000E-03 0.  1.
    9900012    2    1    2    0    0 -0.14070990872E+02  0.40597131324E+02 -0.61240167296E+01  0.47787269168E+02  0.19999991444E+02 0.  0.
        -12    1    1    2    0    0  0.14070990872E+02 -0.40597131324E+02  0.61240167296E+01  0.43400730832E+02  0.00000000000E+00 0.  1.
         11    1    3    3    0    0 -0.87389752659E+01  0.19844113858E+02 -0.28893551096E+01  0.21874800952E+02  0.51100000000E-03 0. -1.
        -11    1    3    3    0    0  0.46015771870E+01  0.70060802009E+01  0.97175360295E+00  0.84382449429E+01  0.51100000000E-03 0.  1.
        -12    1    3    3    0    0 -0.99335927927E+01  0.13746937266E+02 -0.42064152230E+01  0.17474223273E+02  0.00000000000E+00 0.  1.
</event>
<event>
 7    1  0.2732193E-010  0.4778727E+02  0.7816164E-02  0.1312668E+00
        -11   -1    0    0    0    0  0.00000000000E+00  0.00000000000E+00  0.45593999997E+02  0.45594000000E+02  0.51100000000E-03 0. -1.
         11   -1    0    0    0    0 -0.00000000000E+00 -0.00000000000E+00 -0.45593999997E+02  0.45594000000E+02  0.51100000000E-03 0.  1.
    9900012    2    1    2    0    0  0.21278291866E+02  0.24424691559E+02  0.28884108607E+02  0.47787274286E+02  0.20000014779E+02 0.  0.
        -12    1    1    2    0    0 -0.21278291866E+02 -0.24424691559E+02 -0.28884108607E+02  0.43400725714E+02  0.00000000000E+00 0.  1.
         11    1    3    3    0    0  0.48824512170E+01 -0.23217966030E+01  0.53578594648E+01  0.76115522502E+01  0.51100000000E-03 0. -1.
        -11    1    3    3    0    0  0.44012841776E+01  0.41786391519E+01  0.10871425397E+01  0.61655662138E+01  0.51100000000E-03 0.  1.
         12    1    3    3    0    0  0.11994556471E+02  0.22567849010E+02  0.22439106603E+02  0.34010155822E+02  0.00000000000E+00 0. -1.
</event>
<event>
 7    1  0.2732193E-010  0.4778727E+02  0.7816164E-02  0.1312668E+00
        -11   -1    0    0    0    0  0.00000000000E+00  0.00000000000E+00  0.45593999997E+02  0.45594000000E+02  0.51100000000E-03 0. -1.
         11   -1    0    0    0    0 -0.00000000000E+00 -0.00000000000E+00 -0.45593999997E+02  0.45594000000E+02  0.51100000000E-03 0.  1.
    9900012    2    1    2    0    0  0.19615132806E+02 -0.34590712208E+02 -0.17388283061E+02  0.47787271966E+02  0.20000004203E+02 0.  0.
        -12    1    1    2    0    0 -0.19615132806E+02  0.34590712208E+02  0.17388283061E+02  0.43400728034E+02  0.00000000000E+00 0.  1.
         11    1    3    3    0    0  0.51060203315E+01 -0.13456310142E+02  0.29534261866E+01  0.14692394385E+02  0.51100000000E-03 0. -1.
        -11    1    3    3    0    0  0.90940417317E+01 -0.10960758672E+02 -0.13855851946E+02  0.19870190213E+02  0.51100000000E-03 0.  1.
         12    1    3    3    0    0  0.54150707430E+01 -0.10173643394E+02 -0.64858573010E+01  0.13224687368E+02  0.00000000000E+00 0. -1.
</event>
<event>
 7    1  0.2732193E-010  0.4778727E+02  0.7816164E-02  0.1312668E+00
        -11   -1    0    0    0    0  0.00000000000E+00  0.00000000000E+00  0.45593999997E+02  0.45594000000E+02  0.51100000000E-03 0. -1.
         11   -1    0    0    0    0 -0.00000000000E+00 -0.00000000000E+00 -0.45593999997E+02  0.45594000000E+02  0.51100000000E-03 0.  1.
    9900012    2    1    2    0    0  0.40444736162E+02 -0.95879879728E+01  0.12486675377E+02  0.47787271221E+02  0.20000000804E+02 0.  0.
        -12    1    1    2    0    0 -0.40444736162E+02  0.95879879728E+01 -0.12486675377E+02  0.43400728779E+02  0.00000000000E+00 0.  1.
         11    1    3    3    0    0  0.22714235759E+02 -0.91641326200E-01  0.66039224368E+01  0.23654950772E+02  0.51100000000E-03 0. -1.
        -11    1    3    3    0    0  0.12318169384E+02 -0.90012673717E+01 -0.10856610199E+01  0.15295057090E+02  0.51100000000E-03 0.  1.
        -12    1    3    3    0    0  0.54123310197E+01 -0.49507927482E+00  0.69684139600E+01  0.88372633588E+01  0.00000000000E+00 0.  1.
</event>
<event>
 7    1  0.2732193E-010  0.4778728E+02  0.7816164E-02  0.1312668E+00
        -11   -1    0    0    0    0  0.00000000000E+00  0.00000000000E+00  0.45593999997E+02  0.45594000000E+02  0.51100000000E-03 0.  1.
         11   -1    0    0    0    0 -0.00000000000E+00 -0.00000000000E+00 -0.45593999997E+02  0.45594000000E+02  0.51100000000E-03 0. -1.
    9900012    2    1    2    0    0 -0.92191108109E+01  0.35607988030E+02 -0.23036967232E+02  0.47787277945E+02  0.20000031461E+02 0.  0.
        -12    1    1    2    0    0  0.92191108109E+01 -0.35607988030E+02  0.23036967232E+02  0.43400722055E+02  0.00000000000E+00 0.  1.
         11    1    3    3    0    0 -0.92228746026E+01  0.42407871036E+01 -0.66633483036E+01  0.12142730421E+02  0.51100000000E-03 0. -1.
        -11    1    3    3    0    0  0.13201640184E+01  0.14147876370E+02 -0.93014214821E+01  0.16982982089E+02  0.51100000000E-03 0.  1.
        -12    1    3    3    0    0 -0.13164002266E+01  0.17219324557E+02 -0.70721974463E+01  0.18661565435E+02  0.00000000000E+00 0.  1.
</event>
<event>
 7    1  0.2732193E-010  0.4778728E+02  0.7816164E-02  0.1312668E+00
        -11   -1    0    0    0    0  0.00000000000E+00  0.00000000000E+00  0.45593999997E+02  0.45594000000E+02  0.51100000000E-03 0.  1.
         11   -1    0    0    0    0 -0.00000000000E+00 -0.00000000000E+00 -0.45593999997E+02  0.45594000000E+02  0.51100000000E-03 0. -1.
    9900012    2    1    2    0    0 -0.26498845379E+01 -0.25801327662E+01 -0.43242848601E+02  0.47787275026E+02  0.20000018152E+02 0.  0.
        -12    1    1    2    0    0  0.26498845379E+01  0.25801327662E+01  0.43242848601E+02  0.43400724974E+02  0.00000000000E+00 0.  1.
         11    1    3    3    0    0 -0.65735378290E+01  0.37408520666E+01 -0.22316435160E+02  0.23563290354E+02  0.51100000000E-03 0. -1.
        -11    1    3    3    0    0  0.57197985346E+01 -0.66492713121E+01 -0.10697995563E+02  0.13833871967E+02  0.51100000000E-03 0.  1.
        -12    1    3    3    0    0 -0.17961452435E+01  0.32828647934E+00 -0.10228417878E+02  0.10390112705E+02  0.00000000000E+00 0.  1.
</event>
<event>
 7    1  0.2732193E-010  0.4778727E+02  0.7816164E-02  0.1312668E+00
        -11   -1    0    0    0    0  0.00000000000E+00  0.00000000000E+00  0.45593999997E+02  0.45594000000E+02  0.51100000000E-03 0. -1.
         11   -1    0    0    0    0 -0.00000000000E+00 -0.00000000000E+00 -0.45593999997E+02  0.45594000000E+02  0.51100000000E-03 0.  1.
    9900012    2    1    2    0    0  0.15229237881E+02  0.65815869957E+01  0.40104568943E+02  0.47787269316E+02  0.19999992121E+02 0.  0.
        -12    1    1    2    0    0 -0.15229237881E+02 -0.65815869957E+01 -0.40104568943E+02  0.43400730684E+02  0.00000000000E+00 0.  1.
         11    1    3    3    0    0  0.71792481477E+01 -0.84547033653E+00  0.15928293870E+02  0.17491911557E+02  0.51100000000E-03 0. -1.
        -11    1    3    3    0    0  0.28704436476E+01  0.28981109168E+01 -0.99670435335E+00  0.41990372050E+01  0.51100000000E-03 0.  1.
        -12    1    3    3    0    0  0.51795460855E+01  0.45289464155E+01  0.25172979426E+02  0.26096320554E+02  0.00000000000E+00 0.  1.
</event>
<event>
 7    1  0.2732193E-010  0.4778731E+02  0.7816164E-02  0.1312668E+00
        -11   -1    0    0    0    0  0.00000000000E+00  0.00000000000E+00  0.45593999997E+02  0.45594000000E+02  0.51100000000E-03 0.  1.
         11   -1    0    0    0    0 -0.00000000000E+00 -0.00000000000E+00 -0.45593999997E+02  0.45594000000E+02  0.51100000000E-03 0. -1.
    9900012    2    1    2    0    0 -0.19770547603E+02  0.27147496577E+02 -0.27491064213E+02  0.47787311820E+02  0.20000185911E+02 0.  0.
        -12    1    1    2    0    0  0.19770547603E+02 -0.27147496577E+02  0.27491064213E+02  0.43400688180E+02  0.00000000000E+00 0.  1.
         11    1    3    3    0    0 -0.13406023105E+01  0.94609010064E+01  0.51139021132E+00  0.95690847325E+01  0.51100000000E-03 0. -1.
        -11    1    3    3    0    0 -0.12518443472E+02  0.92602603483E+01 -0.18800508295E+02  0.24411533362E+02  0.51100000000E-03 0.  1.
         12    1    3    3    0    0 -0.59115018207E+01  0.84263352218E+01 -0.92019461299E+01  0.13806693725E+02  0.00000000000E+00 0. -1.
</event>
<event>
 7    1  0.2732193E-010  0.4778727E+02  0.7816164E-02  0.1312668E+00
        -11   -1    0    0    0    0  0.00000000000E+00  0.00000000000E+00  0.45593999997E+02  0.45594000000E+02  0.51100000000E-03 0. -1.
         11   -1    0    0    0    0 -0.00000000000E+00 -0.00000000000E+00 -0.45593999997E+02  0.45594000000E+02  0.51100000000E-03 0.  1.
    9900012    2    1    2    0    0  0.12152558481E+01  0.42165422515E+02 -0.10209018867E+02  0.47787265341E+02  0.19999973998E+02 0.  0.
        -12    1    1    2    0    0 -0.12152558481E+01 -0.42165422515E+02  0.10209018867E+02  0.43400734659E+02  0.00000000000E+00 0.  1.
         11    1    3    3    0    0  0.24343963434E+01  0.28124320220E+02 -0.26997033927E+01  0.28358280485E+02  0.51100000000E-03 0. -1.
        -11    1    3    3    0    0  0.13010844962E+01 -0.63499071225E+00 -0.38238950250E+01  0.40887904684E+01  0.51100000000E-03 0.  1.
         12    1    3    3    0    0 -0.25202249915E+01  0.14676093008E+02 -0.36854204489E+01  0.15340194388E+02  0.00000000000E+00 0. -1.
</event>
<event>
 7    1  0.2732193E-010  0.4778727E+02  0.7816164E-02  0.1312668E+00
        -11   -1    0    0    0    0  0.00000000000E+00  0.00000000000E+00  0.45593999997E+02  0.45594000000E+02  0.51100000000E-03 0. -1.
         11   -1    0    0    0    0 -0.00000000000E+00 -0.00000000000E+00 -0.45593999997E+02  0.45594000000E+02  0.51100000000E-03 0.  1.
    9900012    2    1    2    0    0 -0.31902812027E+02  0.92907527640E+01  0.27919803728E+02  0.47787274864E+02  0.20000017415E+02 0.  0.
        -12    1    1    2    0    0  0.31902812027E+02 -0.92907527640E+01 -0.27919803728E+02  0.43400725136E+02  0.00000000000E+00 0.  1.
         11    1    3    3    0    0 -0.46393347597E+01  0.45443144639E+01  0.66679192936E+01  0.93078122524E+01  0.51100000000E-03 0. -1.
        -11    1    3    3    0    0 -0.21496143554E+02  0.75154820446E+01  0.22442060884E+02  0.31972062102E+02  0.51100000000E-03 0.  1.
        -12    1    3    3    0    0 -0.57673337128E+01 -0.27690437445E+01 -0.11901764498E+01  0.65074005098E+01  0.00000000000E+00 0.  1.
</event>
<event>
 7    1  0.2732193E-010  0.4778727E+02  0.7816164E-02  0.1312668E+00
        -11   -1    0    0    0    0  0.00000000000E+00  0.00000000000E+00  0.45593999997E+02  0.45594000000E+02  0.51100000000E-03 0. -1.
         11   -1    0    0    0    0 -0.00000000000E+00 -0.00000000000E+00 -0.45593999997E+02  0.45594000000E+02  0.51100000000E-03 0.  1.
    9900012    2    1    2    0    0  0.16853728093E+01 -0.37816572504E+02  0.21229456945E+02  0.47787268674E+02  0.19999989194E+02 0.  0.
        -12    1    1    2    0    0 -0.16853728093E+01  0.37816572504E+02 -0.21229456945E+02  0.43400731326E+02  0.00000000000E+00 0.  1.
         11    1    3    3    0    0  0.33119577400E+01 -0.12518814610E+02  0.14602364506E+02  0.19517142023E+02  0.51100000000E-03 0. -1.
        -11    1    3    3    0    0  0.75910552041E+00  0.89277504958E+00  0.45122529235E+00  0.12557440049E+01  0.51100000000E-03 0.  1.
         12    1    3    3    0    0 -0.23856904511E+01 -0.26190532943E+02  0.61758671467E+01  0.27014382647E+02  0.00000000000E+00 0. -1.
</event>
<event>
 7    1  0.2732193E-010  0.4778726E+02  0.7816164E-02  0.1312668E+00
        -11   -1    0    0    0    0  0.00000000000E+00  0.00000000000E+00  0.45593999997E+02  0.45594000000E+02  0.51100000000E-03 0. -1.
         11   -1    0    0    0    0 -0.00000000000E+00 -0.00000000000E+00 -0.45593999997E+02  0.45594000000E+02  0.51100000000E-03 0.  1.
    9900012    2    1    2    0    0  0.39976893051E+02 -0.95756186357E+01  0.13920467835E+02  0.47787264119E+02  0.19999968425E+02 0.  0.
        -12    1    1    2    0    0 -0.39976893051E+02  0.95756186357E+01 -0.13920467835E+02  0.43400735881E+02  0.00000000000E+00 0.  1.
         11    1    3    3    0    0  0.19257633602E+02 -0.70240829526E+01  0.57171147244E+01  0.21280967889E+02  0.51100000000E-03 0. -1.
        -11    1    3    3    0    0  0.11371961821E+01  0.38929090796E+01  0.35099210014E+01  0.53635344649E+01  0.51100000000E-03 0.  1.
        -12    1    3    3    0    0  0.19582063267E+02 -0.64444447626E+01  0.46934321089E+01  0.21142761765E+02  0.00000000000E+00 0.  1.
</event>
<event>
 7    1  0.2732193E-010  0.4778727E+02  0.7816164E-02  0.1312668E+00
        -11   -1    0    0    0    0  0.00000000000E+00  0.00000000000E+00  0.45593999997E+02  0.45594000000E+02  0.51100000000E-03 0.  1.
         11   -1    0    0    0    0 -0.00000000000E+00 -0.00000000000E+00 -0.45593999997E+02  0.45594000000E+02  0.51100000000E-03 0. -1.
    9900012    2    1    2    0    0 -0.17115700591E+02  0.30923458729E+02 -0.25187609641E+02  0.47787272058E+02  0.20000004619E+02 0.  0.
        -12    1    1    2    0    0  0.17115700591E+02 -0.30923458729E+02  0.25187609641E+02  0.43400727942E+02  0.00000000000E+00 0.  1.
         11    1    3    3    0    0 -0.80486566473E+01  0.19673900746E+02 -0.61473095966E+01  0.22127644699E+02  0.51100000000E-03 0. -1.
        -11    1    3    3    0    0 -0.49508803170E+01  0.13625800882E+01 -0.19535616400E+01  0.54940189072E+01  0.51100000000E-03 0.  1.
         12    1    3    3    0    0 -0.41161636269E+01  0.98869778945E+01 -0.17086738405E+02  0.20165608451E+02  0.00000000000E+00 0. -1.
</event>
<event>
 7    1  0.2732193E-010  0.4778727E+02  0.7816164E-02  0.1312668E+00
        -11   -1    0    0    0    0  0.00000000000E+00  0.00000000000E+00  0.45593999997E+02  0.45594000000E+02  0.51100000000E-03 0.  1.
         11   -1    0    0    0    0 -0.00000000000E+00 -0.00000000000E+00 -0.45593999997E+02  0.45594000000E+02  0.51100000000E-03 0. -1.
    9900012    2    1    2    0    0 -0.29777238974E+02 -0.18337097297E+02 -0.25703894167E+02  0.47787271048E+02  0.20000000018E+02 0.  0.
        -12    1    1    2    0    0  0.29777238974E+02  0.18337097297E+02  0.25703894167E+02  0.43400728952E+02  0.00000000000E+00 0.  1.
         11    1    3    3    0    0 -0.39527806062E+01 -0.10355891951E+02 -0.92213089276E+01  0.14418790213E+02  0.51100000000E-03 0. -1.
        -11    1    3    3    0    0 -0.20589829156E+02 -0.70440724138E+01 -0.76658940748E+01  0.23072190036E+02  0.51100000000E-03 0.  1.
         12    1    3    3    0    0 -0.52346292120E+01 -0.93713293216E+00 -0.88166911650E+01  0.10296290799E+02  0.00000000000E+00 0. -1.
</event>
<event>
 7    1  0.2732193E-010  0.4778727E+02  0.7816164E-02  0.1312668E+00
        -11   -1    0    0    0    0  0.00000000000E+00  0.00000000000E+00  0.45593999997E+02  0.45594000000E+02  0.51100000000E-03 0.  1.
         11   -1    0    0    0    0 -0.00000000000E+00 -0.00000000000E+00 -0.45593999997E+02  0.45594000000E+02  0.51100000000E-03 0. -1.
    9900012    2    1    2    0    0 -0.34163343843E+02 -0.23649613408E+02 -0.12537332145E+02  0.47787274497E+02  0.20000015741E+02 0.  0.
        -12    1    1    2    0    0  0.34163343843E+02  0.23649613408E+02  0.12537332145E+02  0.43400725503E+02  0.00000000000E+00 0.  1.
         11    1    3    3    0    0 -0.12017811607E+02 -0.16319612303E+01  0.15674505172E+01  0.12228981751E+02  0.51100000000E-03 0. -1.
        -11    1    3    3    0    0 -0.19051286411E+02 -0.19303194411E+02 -0.81500295130E+01  0.28319389289E+02  0.51100000000E-03 0.  1.
         12    1    3    3    0    0 -0.30942458251E+01 -0.27144577669E+01 -0.59547531487E+01  0.72389034568E+01  0.00000000000E+00 0. -1.
</event>
<event>
 7    1  0.2732193E-010  0.4778729E+02  0.7816164E-02  0.1312668E+00
        -11   -1    0    0    0    0  0.00000000000E+00  0.00000000000E+00  0.45593999997E+02  0.45594000000E+02  0.51100000000E-03 0.  1.
         11   -1    0    0    0    0 -0.00000000000E+00 -0.00000000000E+00 -0.45593999997E+02  0.45594000000E+02  0.51100000000E-03 0. -1.
    9900012    2    1    2    0    0  0.29000786753E+02 -0.32241086463E+02 -0.17574404882E+01  0.47787287037E+02  0.20000072918E+02 0.  0.
        -12    1    1    2    0    0 -0.29000786753E+02  0.32241086463E+02  0.17574404882E+01  0.43400712963E+02  0.00000000000E+00 0.  1.
         11    1    3    3    0    0  0.16613208644E+02 -0.10919593566E+02 -0.71012939139E+01  0.21110769778E+02  0.51100000000E-03 0. -1.
        -11    1    3    3    0    0  0.82640404763E+01 -0.20161211151E+02  0.51441802353E+01  0.22388197574E+02  0.51100000000E-03 0.  1.
        -12    1    3    3    0    0  0.41235376324E+01 -0.11602817453E+01  0.19967319043E+00  0.42883196846E+01  0.00000000000E+00 0.  1.
</event>
<event>
 7    1  0.2732193E-010  0.4778727E+02  0.7816164E-02  0.1312668E+00
        -11   -1    0    0    0    0  0.00000000000E+00  0.00000000000E+00  0.45593999997E+02  0.45594000000E+02  0.51100000000E-03 0.  1.
         11   -1    0    0    0    0 -0.00000000000E+00 -0.00000000000E+00 -0.45593999997E+02  0.45594000000E+02  0.51100000000E-03 0. -1.
    9900012    2    1    2    0    0  0.99947919600E+01  0.30761176820E+02 -0.28939203265E+02  0.47787270153E+02  0.19999995934E+02 0.  0.
        -12    1    1    2    0    0 -0.99947919600E+01 -0.30761176820E+02  0.28939203265E+02  0.43400729847E+02  0.00000000000E+00 0.  1.
         11    1    3    3    0    0  0.48596593565E+01  0.14730788169E+02 -0.11138137304E+02  0.19096348132E+02  0.51100000000E-03 0. -1.
        -11    1    3    3    0    0  0.50314488340E+01 -0.74403794395E+00 -0.15056825842E+01  0.53043519997E+01  0.51100000000E-03 0.  1.
        -12    1    3    3    0    0  0.10368376950E+00  0.16774426595E+02 -0.16295383377E+02  0.23386570020E+02  0.00000000000E+00 0.  1.
</event>
<event>
 7    1  0.2732193E-010  0.4778727E+02  0.7816164E-02  0.1312668E+00
        -11   -1    0    0    0    0  0.00000000000E+00  0.00000000000E+00  0.45593999997E+02  0.45594000000E+02  0.51100000000E-03 0.  1.
         11   -1    0    0    0    0 -0.00000000000E+00 -0.00000000000E+00 -0.45593999997E+02  0.45594000000E+02  0.51100000000E-03 0. -1.
    9900012    2    1    2    0    0  0.93865755954E+01 -0.50789525411E+00 -0.42370481546E+02  0.47787268838E+02  0.19999989938E+02 0.  0.
        -12    1    1    2    0    0 -0.93865755954E+01  0.50789525411E+00  0.42370481546E+02  0.43400731162E+02  0.00000000000E+00 0.  1.
         11    1    3    3    0    0 -0.31908868376E+01 -0.57316207717E+01 -0.20223648877E+02  0.21260978568E+02  0.51100000000E-03 0. -1.
        -11    1    3    3    0    0  0.66061635637E+01  0.54685291133E+01 -0.11982937658E+02  0.14735569309E+02  0.51100000000E-03 0.  1.
         12    1    3    3    0    0  0.59712988693E+01 -0.24480359566E+00 -0.10163895011E+02  0.11790720961E+02  0.00000000000E+00 0. -1.
</event>
<event>
 7    1  0.2732193E-010  0.4778727E+02  0.7816164E-02  0.1312668E+00
        -11   -1    0    0    0    0  0.00000000000E+00  0.00000000000E+00  0.45593999997E+02  0.45594000000E+02  0.51100000000E-03 0. -1.
         11   -1    0    0    0    0 -0.00000000000E+00 -0.00000000000E+00 -0.45593999997E+02  0.45594000000E+02  0.51100000000E-03 0.  1.
    9900012    2    1    2    0    0 -0.36203177771E+02  0.22673787730E+02 -0.76715405284E+01  0.47787271149E+02  0.20000000476E+02 0.  0.
        -12    1    1    2    0    0  0.36203177771E+02 -0.22673787730E+02  0.76715405284E+01  0.43400728851E+02  0.00000000000E+00 0.  1.
         11    1    3    3    0    0 -0.30121130433E+02  0.16835655211E+02 -0.85654893581E+01  0.35554034837E+02  0.51100000000E-03 0. -1.
        -11    1    3    3    0    0 -0.53609349943E+01  0.26697415720E+01  0.44161697226E+01  0.74410818672E+01  0.51100000000E-03 0.  1.
        -12    1    3    3    0    0 -0.72111234290E+00  0.31683909474E+01 -0.35222208929E+01  0.47921544450E+01  0.00000000000E+00 0.  1.
</event>
<event>
 7    1  0.2732193E-010  0.4778727E+02  0.7816164E-02  0.1312668E+00
        -11   -1    0    0    0    0  0.00000000000E+00  0.00000000000E+00  0.45593999997E+02  0.45594000000E+02  0.51100000000E-03 0.  1.
         11   -1    0    0    0    0 -0.00000000000E+00 -0.00000000000E+00 -0.45593999997E+02  0.45594000000E+02  0.51100000000E-03 0. -1.
    9900012    2    1    2    0    0 -0.31799339902E+02  0.28637938542E+02 -0.72314314977E+01  0.47787272544E+02  0.20000006838E+02 0.  0.
        -12    1    1    2    0    0  0.31799339902E+02 -0.28637938542E+02  0.72314314977E+01  0.43400727456E+02  0.00000000000E+00 0.  1.
         11    1    3    3    0    0 -0.14086953294E+02  0.11084741592E+02 -0.20247731217E+01  0.18039219932E+02  0.51100000000E-03 0. -1.
        -11    1    3    3    0    0 -0.46388198503E+01  0.15339265706E+02 -0.30880898494E+01  0.16320172217E+02  0.51100000000E-03 0.  1.
        -12    1    3    3    0    0 -0.13073566758E+02  0.22139312440E+01 -0.21185685266E+01  0.13427880396E+02  0.00000000000E+00 0.  1.
</event>
<event>
 7    1  0.2732193E-010  0.4778727E+02  0.7816164E-02  0.1312668E+00
        -11   -1    0    0    0    0  0.00000000000E+00  0.00000000000E+00  0.45593999997E+02  0.45594000000E+02  0.51100000000E-03 0.  1.
         11   -1    0    0    0    0 -0.00000000000E+00 -0.00000000000E+00 -0.45593999997E+02  0.45594000000E+02  0.51100000000E-03 0. -1.
    9900012    2    1    2    0    0 -0.96335760483E+01 -0.65946584665E+01 -0.41801050027E+02  0.47787273150E+02  0.20000009600E+02 0.  0.
        -12    1    1    2    0    0  0.96335760483E+01  0.65946584665E+01  0.41801050027E+02  0.43400726850E+02  0.00000000000E+00 0.  1.
         11    1    3    3    0    0  0.10359061496E+01 -0.98923410858E+01 -0.28219038544E+02  0.29920655914E+02  0.51100000000E-03 0. -1.
        -11    1    3    3    0    0 -0.97212418715E+01  0.24396912701E+01 -0.10430189001E+02  0.14465250771E+02  0.51100000000E-03 0.  1.
         12    1    3    3    0    0 -0.94824032635E+00  0.85799134922E+00 -0.31518224818E+01  0.34013664649E+01  0.00000000000E+00 0. -1.
</event>
<event>
 7    1  0.2732193E-010  0.4778727E+02  0.7816164E-02  0.1312668E+00
        -11   -1    0    0    0    0  0.00000000000E+00  0.00000000000E+00  0.45593999997E+02  0.45594000000E+02  0.51100000000E-03 0.  1.
         11   -1    0    0    0    0 -0.00000000000E+00 -0.00000000000E+00 -0.45593999997E+02  0.45594000000E+02  0.51100000000E-03 0. -1.
    9900012    2    1    2    0    0 -0.21502698904E+02 -0.37429550036E+02 -0.45039916144E+01  0.47787271705E+02  0.20000003013E+02 0.  0.
        -12    1    1    2    0    0  0.21502698904E+02  0.37429550036E+02  0.45039916144E+01  0.43400728295E+02  0.00000000000E+00 0.  1.
         11    1    3    3    0    0 -0.21910686626E+02 -0.26155348112E+02 -0.61876411339E+01  0.34676610653E+02  0.51100000000E-03 0. -1.
        -11    1    3    3    0    0  0.26250586027E+01 -0.29674293292E+01  0.21364014883E+01  0.45011977375E+01  0.51100000000E-03 0.  1.
         12    1    3    3    0    0 -0.22170708807E+01 -0.83067725947E+01 -0.45275196880E+00  0.86094633151E+01  0.00000000000E+00 0. -1.
</event>
<event>
 7    1  0.2732193E-010  0.4778727E+02  0.7816164E-02  0.1312668E+00
        -11   -1    0    0    0    0  0.00000000000E+00  0.00000000000E+00  0.45593999997E+02  0.45594000000E+02  0.51100000000E-03 0.  1.
         11   -1    0    0    0    0 -0.00000000000E+00 -0.00000000000E+00 -0.45593999997E+02  0.45594000000E+02  0.51100000000E-03 0. -1.
    9900012    2    1    2    0    0 -0.18425420542E+02  0.18137948860E+02 -0.34858885268E+02  0.47787271974E+02  0.20000004240E+02 0.  0.
        -12    1    1    2    0    0  0.18425420542E+02 -0.18137948860E+02  0.34858885268E+02  0.43400728026E+02  0.00000000000E+00 0.  1.
         11    1    3    3    0    0 -0.98380696982E+01  0.90001494992E+01 -0.22701914896E+02  0.26328069557E+02  0.51100000000E-03 0.  1.
        -11    1    3    3    0    0 -0.97343655759E+01  0.14289806136E+01 -0.75890491007E+01  0.12425519115E+02  0.51100000000E-03 0. -1.
        -12    1    3    3    0    0  0.11470147316E+01  0.77088187468E+01 -0.45679212718E+01  0.90336833025E+01  0.00000000000E+00 0.  1.
</event>
<event>
 7    1  0.2732193E-010  0.4778728E+02  0.7816164E-02  0.1312668E+00
        -11   -1    0    0    0    0  0.00000000000E+00  0.00000000000E+00  0.45593999997E+02  0.45594000000E+02  0.51100000000E-03 0.  1.
         11   -1    0    0    0    0 -0.00000000000E+00 -0.00000000000E+00 -0.45593999997E+02  0.45594000000E+02  0.51100000000E-03 0. -1.
    9900012    2    1    2    0    0 -0.13585054997E+02  0.39920204023E+02 -0.10268714117E+02  0.47787275373E+02  0.20000019735E+02 0.  0.
        -12    1    1    2    0    0  0.13585054997E+02 -0.39920204023E+02  0.10268714117E+02  0.43400724627E+02  0.00000000000E+00 0.  1.
         11    1    3    3    0    0  0.22499765890E+01  0.64767980490E+00  0.18985305194E+01  0.30143493784E+01  0.51100000000E-03 0.  1.
        -11    1    3    3    0    0 -0.11899301014E+02  0.18898465556E+02 -0.66354115998E+01  0.23297511720E+02  0.51100000000E-03 0. -1.
         12    1    3    3    0    0 -0.39357305726E+01  0.20374058663E+02 -0.55318330366E+01  0.21475414275E+02  0.00000000000E+00 0. -1.
</event>
<event>
 7    1  0.2732193E-010  0.4778727E+02  0.7816164E-02  0.1312668E+00
        -11   -1    0    0    0    0  0.00000000000E+00  0.00000000000E+00  0.45593999997E+02  0.45594000000E+02  0.51100000000E-03 0.  1.
         11   -1    0    0    0    0 -0.00000000000E+00 -0.00000000000E+00 -0.45593999997E+02  0.45594000000E+02  0.51100000000E-03 0. -1.
    9900012    2    1    2    0    0 -0.27534379928E+02 -0.13722801881E+02 -0.30613161623E+02  0.47787273807E+02  0.20000012596E+02 0.  0.
        -12    1    1    2    0    0  0.27534379928E+02  0.13722801881E+02  0.30613161623E+02  0.43400726193E+02  0.00000000000E+00 0.  1.
         11    1    3    3    0    0 -0.15210125849E+02 -0.10708882043E+01 -0.18878297700E+02  0.24266949833E+02  0.51100000000E-03 0. -1.
        -11    1    3    3    0    0 -0.11715041542E+02 -0.11462919199E+02 -0.57212704742E+01  0.17360116676E+02  0.51100000000E-03 0.  1.
        -12    1    3    3    0    0 -0.60921253709E+00 -0.11889944778E+01 -0.60135934490E+01  0.61602072979E+01  0.00000000000E+00 0.  1.
</event>
<event>
 7    1  0.2732193E-010  0.4778727E+02  0.7816164E-02  0.1312668E+00
        -11   -1    0    0    0    0  0.00000000000E+00  0.00000000000E+00  0.45593999997E+02  0.45594000000E+02  0.51100000000E-03 0. -1.
         11   -1    0    0    0    0 -0.00000000000E+00 -0.00000000000E+00 -0.45593999997E+02  0.45594000000E+02  0.51100000000E-03 0.  1.
    9900012    2    1    2    0    0 -0.20299948124E+02 -0.27877683077E+02  0.26350906691E+02  0.47787269695E+02  0.19999993848E+02 0.  0.
        -12    1    1    2    0    0  0.20299948124E+02  0.27877683077E+02 -0.26350906691E+02  0.43400730305E+02  0.00000000000E+00 0.  1.
         11    1    3    3    0    0 -0.13390517614E+02 -0.70336861525E+01  0.50584403379E+01  0.15948872116E+02  0.51100000000E-03 0. -1.
        -11    1    3    3    0    0  0.10668840194E+01 -0.29838723281E+01  0.36000895125E+00  0.31892541899E+01  0.51100000000E-03 0.  1.
         12    1    3    3    0    0 -0.79763145298E+01 -0.17860124596E+02  0.20932457401E+02  0.28649143389E+02  0.00000000000E+00 0. -1.
</event>
<event>
 7    1  0.2732193E-010  0.4778726E+02  0.7816164E-02  0.1312668E+00
        -11   -1    0    0    0    0  0.00000000000E+00  0.00000000000E+00  0.45593999997E+02  0.45594000000E+02  0.51100000000E-03 0. -1.
         11   -1    0    0    0    0 -0.00000000000E+00 -0.00000000000E+00 -0.45593999997E+02  0.45594000000E+02  0.51100000000E-03 0.  1.
    9900012    2    1    2    0    0 -0.32104420010E+02 -0.22284376561E+00  0.29204128354E+02  0.47787256269E+02  0.19999932632E+02 0.  0.
        -12    1    1    2    0    0  0.32104420010E+02  0.22284376561E+00 -0.29204128354E+02  0.43400743731E+02  0.00000000000E+00 0.  1.
         11    1    3    3    0    0 -0.15086548173E+02 -0.11653733477E+01  0.16150465568E+02  0.22131415887E+02  0.51100000000E-03 0. -1.
        -11    1    3    3    0    0  0.50836842122E+00  0.30016524797E+01  0.58511824562E+01  0.65958087038E+01  0.51100000000E-03 0.  1.
        -12    1    3    3    0    0 -0.17526240258E+02 -0.20591228976E+01  0.72024803295E+01  0.19060031678E+02  0.00000000000E+00 0.  1.
</event>
<event>
 7    1  0.2732193E-010  0.4778727E+02  0.7816164E-02  0.1312668E+00
        -11   -1    0    0    0    0  0.00000000000E+00  0.00000000000E+00  0.45593999997E+02  0.45594000000E+02  0.51100000000E-03 0.  1.
         11   -1    0    0    0    0 -0.00000000000E+00 -0.00000000000E+00 -0.45593999997E+02  0.45594000000E+02  0.51100000000E-03 0. -1.
    9900012    2    1    2    0    0 -0.28417569481E+02  0.31930545546E+02 -0.75169849224E+01  0.47787273550E+02  0.20000011425E+02 0.  0.
        -12    1    1    2    0    0  0.28417569481E+02 -0.31930545546E+02  0.75169849224E+01  0.43400726450E+02  0.00000000000E+00 0.  1.
         11    1    3    3    0    0 -0.12098811935E+02  0.26365526398E+02 -0.24143233195E+01  0.29109297309E+02  0.51100000000E-03 0. -1.
        -11    1    3    3    0    0 -0.16200625360E+02  0.45867477905E+01 -0.53409256447E+01  0.17664201209E+02  0.51100000000E-03 0.  1.
        -12    1    3    3    0    0 -0.11813218582E+00  0.97827135752E+00  0.23826404167E+00  0.10137750322E+01  0.00000000000E+00 0.  1.
</event>
<event>
 7    1  0.2732193E-010  0.4778727E+02  0.7816164E-02  0.1312668E+00
        -11   -1    0    0    0    0  0.00000000000E+00  0.00000000000E+00  0.45593999997E+02  0.45594000000E+02  0.51100000000E-03 0.  1.
         11   -1    0    0    0    0 -0.00000000000E+00 -0.00000000000E+00 -0.45593999997E+02  0.45594000000E+02  0.51100000000E-03 0. -1.
    9900012    2    1    2    0    0 -0.12045211033E+02 -0.35624737174E+02 -0.21665972222E+02  0.47787270054E+02  0.19999995485E+02 0.  0.
        -12    1    1    2    0    0  0.12045211033E+02  0.35624737174E+02  0.21665972222E+02  0.43400729946E+02  0.00000000000E+00 0.  1.
         11    1    3    3    0    0 -0.88401544758E+01 -0.15945539967E+02 -0.16269534889E+02  0.24435759489E+02  0.51100000000E-03 0. -1.
        -11    1    3    3    0    0 -0.46834851351E+01 -0.10958781186E+02  0.16652817157E+01  0.12033415207E+02  0.51100000000E-03 0.  1.
        -12    1    3    3    0    0  0.14784285782E+01 -0.87204160209E+01 -0.70617190478E+01  0.11318095359E+02  0.00000000000E+00 0.  1.
</event>
<event>
 7    1  0.2732193E-010  0.4778727E+02  0.7816164E-02  0.1312668E+00
        -11   -1    0    0    0    0  0.00000000000E+00  0.00000000000E+00  0.45593999997E+02  0.45594000000E+02  0.51100000000E-03 0. -1.
         11   -1    0    0    0    0 -0.00000000000E+00 -0.00000000000E+00 -0.45593999997E+02  0.45594000000E+02  0.51100000000E-03 0.  1.
    9900012    2    1    2    0    0  0.36733414181E+02  0.17415670839E+02 -0.15197833218E+02  0.47787269099E+02  0.19999991131E+02 0.  0.
        -12    1    1    2    0    0 -0.36733414181E+02 -0.17415670839E+02  0.15197833218E+02  0.43400730901E+02  0.00000000000E+00 0.  1.
         11    1    3    3    0    0  0.11155930281E+02  0.87407531401E+01 -0.34683988772E+01  0.14590590698E+02  0.51100000000E-03 0. -1.
        -11    1    3    3    0    0  0.15433226003E+02 -0.27477538711E+01 -0.72879282188E+01  0.17287235585E+02  0.51100000000E-03 0.  1.
        -12    1    3    3    0    0  0.10144257898E+02  0.11422671570E+02 -0.44415061223E+01  0.15909442816E+02  0.00000000000E+00 0.  1.
</event>
<event>
 7    1  0.2732193E-010  0.4778727E+02  0.7816164E-02  0.1312668E+00
        -11   -1    0    0    0    0  0.00000000000E+00  0.00000000000E+00  0.45593999997E+02  0.45594000000E+02  0.51100000000E-03 0.  1.
         11   -1    0    0    0    0 -0.00000000000E+00 -0.00000000000E+00 -0.45593999997E+02  0.45594000000E+02  0.51100000000E-03 0. -1.
    9900012    2    1    2    0    0  0.19413980212E+02  0.48126370211E+01 -0.38516998385E+02  0.47787271119E+02  0.20000000341E+02 0.  0.
        -12    1    1    2    0    0 -0.19413980212E+02 -0.48126370211E+01  0.38516998385E+02  0.43400728881E+02  0.00000000000E+00 0.  1.
         11    1    3    3    0    0  0.11552108054E+02 -0.44713834300E+01 -0.19348272533E+02  0.22973900856E+02  0.51100000000E-03 0. -1.
        -11    1    3    3    0    0  0.66745507624E+00  0.84676092853E+01 -0.96937174660E+01  0.12888524425E+02  0.51100000000E-03 0.  1.
        -12    1    3    3    0    0  0.71944170819E+01  0.81641116582E+00 -0.94750083858E+01  0.11924845838E+02  0.00000000000E+00 0.  1.
</event>
<event>
 7    1  0.2732193E-010  0.4778727E+02  0.7816164E-02  0.1312668E+00
        -11   -1    0    0    0    0  0.00000000000E+00  0.00000000000E+00  0.45593999997E+02  0.45594000000E+02  0.51100000000E-03 0.  1.
         11   -1    0    0    0    0 -0.00000000000E+00 -0.00000000000E+00 -0.45593999997E+02  0.45594000000E+02  0.51100000000E-03 0. -1.
    9900012    2    1    2    0    0  0.10585437465E+02  0.23104283113E+02 -0.35181875232E+02  0.47787265797E+02  0.19999976076E+02 0.  0.
        -12    1    1    2    0    0 -0.10585437465E+02 -0.23104283113E+02  0.35181875232E+02  0.43400734203E+02  0.00000000000E+00 0.  1.
         11    1    3    3    0    0 -0.28975940395E+00  0.33343964177E+01 -0.16689007247E+02  0.17021313790E+02  0.51100000000E-03 0. -1.
        -11    1    3    3    0    0  0.24991315013E+01  0.14360062204E+02 -0.10106607171E+02  0.17736982650E+02  0.51100000000E-03 0.  1.
         12    1    3    3    0    0  0.83760653677E+01  0.54098244914E+01 -0.83862608141E+01  0.13028969357E+02  0.00000000000E+00 0. -1.
</event>
<event>
 7    1  0.2732193E-010  0.4778727E+02  0.7816164E-02  0.1312668E+00
        -11   -1    0    0    0    0  0.00000000000E+00  0.00000000000E+00  0.45593999997E+02  0.45594000000E+02  0.51100000000E-03 0. -1.
         11   -1    0    0    0    0 -0.00000000000E+00 -0.00000000000E+00 -0.45593999997E+02  0.45594000000E+02  0.51100000000E-03 0.  1.
    9900012    2    1    2    0    0  0.25917712141E+02  0.29733075073E+02  0.18106339523E+02  0.47787273199E+02  0.20000009825E+02 0.  0.
        -12    1    1    2    0    0 -0.25917712141E+02 -0.29733075073E+02 -0.18106339523E+02  0.43400726801E+02  0.00000000000E+00 0.  1.
         11    1    3    3    0    0  0.25570815075E+02  0.22000935964E+02  0.12767169824E+02  0.36068107692E+02  0.51100000000E-03 0. -1.
        -11    1    3    3    0    0 -0.11878152389E+01  0.29633753527E+01 -0.12614549036E+01  0.34327492273E+01  0.51100000000E-03 0.  1.
         12    1    3    3    0    0  0.15347123051E+01  0.47687637556E+01  0.66006246034E+01  0.82864162803E+01  0.00000000000E+00 0. -1.
</event>
<event>
 7    1  0.2732193E-010  0.4778728E+02  0.7816164E-02  0.1312668E+00
        -11   -1    0    0    0    0  0.00000000000E+00  0.00000000000E+00  0.45593999997E+02  0.45594000000E+02  0.51100000000E-03 0.  1.
         11   -1    0    0    0    0 -0.00000000000E+00 -0.00000000000E+00 -0.45593999997E+02  0.45594000000E+02  0.51100000000E-03 0. -1.
    9900012    2    1    2    0    0 -0.25903432900E+02  0.16306742347E+02 -0.30768900472E+02  0.47787275142E+02  0.20000018683E+02 0.  0.
        -12    1    1    2    0    0  0.25903432900E+02 -0.16306742347E+02  0.30768900472E+02  0.43400724858E+02  0.00000000000E+00 0.  1.
         11    1    3    3    0    0 -0.81831763362E+01 -0.39701727040E+01 -0.86653083761E+01  0.12562412816E+02  0.51100000000E-03 0. -1.
        -11    1    3    3    0    0 -0.33368093099E+01  0.29989966940E+01 -0.15007348070E+01  0.47308014927E+01  0.51100000000E-03 0.  1.
         12    1    3    3    0    0 -0.14383447253E+02  0.17277918357E+02 -0.20602857289E+02  0.30494060833E+02  0.00000000000E+00 0. -1.
</event>
<event>
 7    1  0.2732193E-010  0.4778727E+02  0.7816164E-02  0.1312668E+00
        -11   -1    0    0    0    0  0.00000000000E+00  0.00000000000E+00  0.45593999997E+02  0.45594000000E+02  0.51100000000E-03 0.  1.
         11   -1    0    0    0    0 -0.00000000000E+00 -0.00000000000E+00 -0.45593999997E+02  0.45594000000E+02  0.51100000000E-03 0. -1.
    9900012    2    1    2    0    0  0.20252275943E+02 -0.22422096400E+02 -0.31156347768E+02  0.47787273116E+02  0.20000009444E+02 0.  0.
        -12    1    1    2    0    0 -0.20252275943E+02  0.22422096400E+02  0.31156347768E+02  0.43400726884E+02  0.00000000000E+00 0.  1.
         11    1    3    3    0    0 -0.41741393250E+00 -0.37461758661E+01 -0.26580589852E+01  0.46123037454E+01  0.51100000000E-03 0.  1.
        -11    1    3    3    0    0 -0.11554642459E+01 -0.46398914729E+01 -0.20770380719E+00  0.47861081931E+01  0.51100000000E-03 0. -1.
        -12    1    3    3    0    0  0.21825154121E+02 -0.14036029061E+02 -0.28290584976E+02  0.38388861177E+02  0.00000000000E+00 0.  1.
</event>
<event>
 7    1  0.2732193E-010  0.4778727E+02  0.7816164E-02  0.1312668E+00
        -11   -1    0    0    0    0  0.00000000000E+00  0.00000000000E+00  0.45593999997E+02  0.45594000000E+02  0.51100000000E-03 0. -1.
         11   -1    0    0    0    0 -0.00000000000E+00 -0.00000000000E+00 -0.45593999997E+02  0.45594000000E+02  0.51100000000E-03 0.  1.
    9900012    2    1    2    0    0  0.22945338701E+02 -0.28888329801E+02 -0.22860423720E+02  0.47787272593E+02  0.20000007061E+02 0.  0.
        -12    1    1    2    0    0 -0.22945338701E+02  0.28888329801E+02  0.22860423720E+02  0.43400727407E+02  0.00000000000E+00 0.  1.
         11    1    3    3    0    0  0.23162582601E+02 -0.21741591209E+02 -0.17996586707E+02  0.36511356513E+02  0.51100000000E-03 0. -1.
        -11    1    3    3    0    0 -0.12565199114E+01  0.11132881526E+01 -0.16443685473E+01  0.23499363777E+01  0.51100000000E-03 0.  1.
         12    1    3    3    0    0  0.10392760114E+01 -0.82600267443E+01 -0.32194684654E+01  0.89259797022E+01  0.00000000000E+00 0. -1.
</event>
<event>
 7    1  0.2732193E-010  0.4778727E+02  0.7816164E-02  0.1312668E+00
        -11   -1    0    0    0    0  0.00000000000E+00  0.00000000000E+00  0.45593999997E+02  0.45594000000E+02  0.51100000000E-03 0.  1.
         11   -1    0    0    0    0 -0.00000000000E+00 -0.00000000000E+00 -0.45593999997E+02  0.45594000000E+02  0.51100000000E-03 0. -1.
    9900012    2    1    2    0    0  0.24338948700E+02  0.20407162360E+02 -0.29576790619E+02  0.47787271403E+02  0.20000001635E+02 0.  0.
        -12    1    1    2    0    0 -0.24338948700E+02 -0.20407162360E+02  0.29576790619E+02  0.43400728597E+02  0.00000000000E+00 0.  1.
         11    1    3    3    0    0  0.22481162807E+02  0.12878968668E+02 -0.24303015568E+02  0.35523331503E+02  0.51100000000E-03 0. -1.
        -11    1    3    3    0    0 -0.12763553056E+01  0.43006001506E+01 -0.62176970098E+01  0.76670725110E+01  0.51100000000E-03 0.  1.
         12    1    3    3    0    0  0.31341411991E+01  0.32275935414E+01  0.94392195933E+00  0.45968673888E+01  0.00000000000E+00 0. -1.
</event>
<event>
 7    1  0.2732193E-010  0.4778727E+02  0.7816164E-02  0.1312668E+00
        -11   -1    0    0    0    0  0.00000000000E+00  0.00000000000E+00  0.45593999997E+02  0.45594000000E+02  0.51100000000E-03 0. -1.
         11   -1    0    0    0    0 -0.00000000000E+00 -0.00000000000E+00 -0.45593999997E+02  0.45594000000E+02  0.51100000000E-03 0.  1.
    9900012    2    1    2    0    0 -0.17053911027E+02 -0.39763797653E+02 -0.34099251526E+01  0.47787273340E+02  0.20000010464E+02 0.  0.
        -12    1    1    2    0    0  0.17053911027E+02  0.39763797653E+02  0.34099251526E+01  0.43400726660E+02  0.00000000000E+00 0.  1.
         11    1    3    3    0    0 -0.24875192002E+01 -0.89272958925E+01  0.36817785168E+01  0.99719535213E+01  0.51100000000E-03 0. -1.
        -11    1    3    3    0    0  0.90038823851E+00  0.91903423645E+00 -0.16253775932E+01  0.20729629735E+01  0.51100000000E-03 0.  1.
        -12    1    3    3    0    0 -0.15466780066E+02 -0.31755535997E+02 -0.54663260761E+01  0.35742356845E+02  0.00000000000E+00 0.  1.
</event>
<event>
 7    1  0.2732193E-010  0.4778725E+02  0.7816164E-02  0.1312668E+00
        -11   -1    0    0    0    0  0.00000000000E+00  0.00000000000E+00  0.45593999997E+02  0.45594000000E+02  0.51100000000E-03 0.  1.
         11   -1    0    0    0    0 -0.00000000000E+00 -0.00000000000E+00 -0.45593999997E+02  0.45594000000E+02  0.51100000000E-03 0. -1.
    9900012    2    1    2    0    0  0.12669194115E+02 -0.16849742486E+02 -0.37936821629E+02  0.47787254192E+02  0.19999923163E+02 0.  0.
        -12    1    1    2    0    0 -0.12669194115E+02  0.16849742486E+02  0.37936821629E+02  0.43400745808E+02  0.00000000000E+00 0.  1.
         11    1    3    3    0    0 -0.11402022991E+01 -0.12672988925E+01 -0.16198999434E+02  0.16288452679E+02  0.51100000000E-03 0. -1.
        -11    1    3    3    0    0  0.71078528529E+01 -0.11556866031E+02 -0.81636793832E+01  0.15834405134E+02  0.51100000000E-03 0.  1.
        -12    1    3    3    0    0  0.67015435611E+01 -0.40255775627E+01 -0.13574142812E+02  0.15664396379E+02  0.00000000000E+00 0.  1.
</event>
<event>
 7    1  0.2732193E-010  0.4778728E+02  0.7816164E-02  0.1312668E+00
        -11   -1    0    0    0    0  0.00000000000E+00  0.00000000000E+00  0.45593999997E+02  0.45594000000E+02  0.51100000000E-03 0.  1.
         11   -1    0    0    0    0 -0.00000000000E+00 -0.00000000000E+00 -0.45593999997E+02  0.45594000000E+02  0.51100000000E-03 0. -1.
    9900012    2    1    2    0    0  0.18530955008E+02 -0.32912348306E+02 -0.21377638548E+02  0.47787281177E+02  0.20000046196E+02 0.  0.
        -12    1    1    2    0    0 -0.18530955008E+02  0.32912348306E+02  0.21377638548E+02  0.43400718823E+02  0.00000000000E+00 0.  1.
         11    1    3    3    0    0  0.10288508226E+01 -0.12542572954E+02 -0.77094528204E+00  0.12608292002E+02  0.51100000000E-03 0. -1.
        -11    1    3    3    0    0  0.12307350799E+01 -0.69994746589E+00  0.10012152531E+01  0.17340898293E+01  0.51100000000E-03 0.  1.
         12    1    3    3    0    0  0.16271369106E+02 -0.19669827885E+02 -0.21607908519E+02  0.33444899345E+02  0.00000000000E+00 0. -1.
</event>
<event>
 7    1  0.2732193E-010  0.4778727E+02  0.7816164E-02  0.1312668E+00
        -11   -1    0    0    0    0  0.00000000000E+00  0.00000000000E+00  0.45593999997E+02  0.45594000000E+02  0.51100000000E-03 0. -1.
         11   -1    0    0    0    0 -0.00000000000E+00 -0.00000000000E+00 -0.45593999997E+02  0.45594000000E+02  0.51100000000E-03 0.  1.
    9900012    2    1    2    0    0  0.41471588998E+02  0.11305542525E+02  0.59929394286E+01  0.47787270642E+02  0.19999998164E+02 0.  0.
        -12    1    1    2    0    0 -0.41471588998E+02 -0.11305542525E+02 -0.59929394286E+01  0.43400729358E+02  0.00000000000E+00 0.  1.
         11    1    3    3    0    0  0.40308726323E+02  0.94092726003E+01  0.45523084633E+01  0.41641942093E+02  0.51100000000E-03 0. -1.
        -11    1    3    3    0    0  0.51649438180E+00  0.35202338870E+01  0.22599098111E+01  0.42149739835E+01  0.51100000000E-03 0.  1.
         12    1    3    3    0    0  0.64636829378E+00 -0.16239639623E+01 -0.81927884589E+00  0.19303545657E+01  0.00000000000E+00 0. -1.
</event>
<event>
 7    1  0.2732193E-010  0.4778727E+02  0.7816164E-02  0.1312668E+00
        -11   -1    0    0    0    0  0.00000000000E+00  0.00000000000E+00  0.45593999997E+02  0.45594000000E+02  0.51100000000E-03 0. -1.
         11   -1    0    0    0    0 -0.00000000000E+00 -0.00000000000E+00 -0.45593999997E+02  0.45594000000E+02  0.51100000000E-03 0.  1.
    9900012    2    1    2    0    0 -0.16715675427E+02  0.15672044546E+02  0.36859149071E+02  0.47787266648E+02  0.19999979954E+02 0.  0.
        -12    1    1    2    0    0  0.16715675427E+02 -0.15672044546E+02 -0.36859149071E+02  0.43400733352E+02  0.00000000000E+00 0.  1.
         11    1    3    3    0    0 -0.85877849593E+01  0.38232628231E+01  0.25011186537E+02  0.26719409450E+02  0.51100000000E-03 0. -1.
        -11    1    3    3    0    0 -0.84942154229E+01  0.11216056985E+02  0.13351337938E+02  0.19396129896E+02  0.51100000000E-03 0.  1.
        -12    1    3    3    0    0  0.36632495484E+00  0.63272473767E+00 -0.15033754036E+01  0.16717273014E+01  0.00000000000E+00 0.  1.
</event>
<event>
 7    1  0.2732193E-010  0.4778727E+02  0.7816164E-02  0.1312668E+00
        -11   -1    0    0    0    0  0.00000000000E+00  0.00000000000E+00  0.45593999997E+02  0.45594000000E+02  0.51100000000E-03 0.  1.
         11   -1    0    0    0    0 -0.00000000000E+00 -0.00000000000E+00 -0.45593999997E+02  0.45594000000E+02  0.51100000000E-03 0. -1.
    9900012    2    1    2    0    0  0.29125011130E+02  0.31494401128E+02  0.65923941617E+01  0.47787271474E+02  0.20000001960E+02 0.  0.
        -12    1    1    2    0    0 -0.29125011130E+02 -0.31494401128E+02 -0.65923941617E+01  0.43400728526E+02  0.00000000000E+00 0.  1.
         11    1    3    3    0    0  0.22882779668E+02  0.22825748083E+02  0.47393996046E+01  0.32666470421E+02  0.51100000000E-03 0. -1.
        -11    1    3    3    0    0  0.46606911428E+01 -0.13423723113E+01  0.22206833770E+00  0.48552363443E+01  0.51100000000E-03 0.  1.
         12    1    3    3    0    0  0.15815403198E+01  0.10011025356E+02  0.16309262194E+01  0.10265564709E+02  0.00000000000E+00 0. -1.
</event>
<event>
 7    1  0.2732193E-010  0.4778727E+02  0.7816164E-02  0.1312668E+00
        -11   -1    0    0    0    0  0.00000000000E+00  0.00000000000E+00  0.45593999997E+02  0.45594000000E+02  0.51100000000E-03 0.  1.
         11   -1    0    0    0    0 -0.00000000000E+00 -0.00000000000E+00 -0.45593999997E+02  0.45594000000E+02  0.51100000000E-03 0. -1.
    9900012    2    1    2    0    0 -0.30781686900E+02  0.11940207511E+00 -0.30595695935E+02  0.47787272875E+02  0.20000008345E+02 0.  0.
        -12    1    1    2    0    0  0.30781686900E+02 -0.11940207511E+00  0.30595695935E+02  0.43400727125E+02  0.00000000000E+00 0.  1.
         11    1    3    3    0    0  0.36949153169E+00 -0.10651382992E+01 -0.62420439622E+01  0.63430400185E+01  0.51100000000E-03 0. -1.
        -11    1    3    3    0    0 -0.22533254922E+02 -0.36436843357E+01 -0.20987847858E+02  0.31008285520E+02  0.51100000000E-03 0.  1.
        -12    1    3    3    0    0 -0.86179235097E+01  0.48282247100E+01 -0.33658041149E+01  0.10435947336E+02  0.00000000000E+00 0.  1.
</event>
<event>
 7    1  0.2732193E-010  0.4778726E+02  0.7816164E-02  0.1312668E+00
        -11   -1    0    0    0    0  0.00000000000E+00  0.00000000000E+00  0.45593999997E+02  0.45594000000E+02  0.51100000000E-03 0.  1.
         11   -1    0    0    0    0 -0.00000000000E+00 -0.00000000000E+00 -0.45593999997E+02  0.45594000000E+02  0.51100000000E-03 0. -1.
    9900012    2    1    2    0    0 -0.31358990425E+02  0.26627863387E+02 -0.13827314455E+02  0.47787262517E+02  0.19999961121E+02 0.  0.
        -12    1    1    2    0    0  0.31358990425E+02 -0.26627863387E+02  0.13827314455E+02  0.43400737483E+02  0.00000000000E+00 0.  1.
         11    1    3    3    0    0 -0.23810665519E+02  0.18005005265E+02 -0.15314634174E+02  0.33550946740E+02  0.51100000000E-03 0. -1.
        -11    1    3    3    0    0 -0.27157651381E+01  0.86747542390E+01 -0.26989193343E+00  0.90939311252E+01  0.51100000000E-03 0.  1.
         12    1    3    3    0    0 -0.48325597677E+01 -0.51896116835E-01  0.17572116520E+01  0.51423846516E+01  0.00000000000E+00 0. -1.
</event>
<event>
 7    1  0.2732193E-010  0.4778727E+02  0.7816164E-02  0.1312668E+00
        -11   -1    0    0    0    0  0.00000000000E+00  0.00000000000E+00  0.45593999997E+02  0.45594000000E+02  0.51100000000E-03 0.  1.
         11   -1    0    0    0    0 -0.00000000000E+00 -0.00000000000E+00 -0.45593999997E+02  0.45594000000E+02  0.51100000000E-03 0. -1.
    9900012    2    1    2    0    0  0.14992060240E+02  0.40639867652E+02  0.26948977068E+01  0.47787272049E+02  0.20000004580E+02 0.  0.
        -12    1    1    2    0    0 -0.14992060240E+02 -0.40639867652E+02 -0.26948977068E+01  0.43400727951E+02  0.00000000000E+00 0.  1.
         11    1    3    3    0    0  0.68412473808E+01  0.18499067424E+02 -0.79076499097E+01  0.21249684436E+02  0.51100000000E-03 0. -1.
        -11    1    3    3    0    0  0.58166842666E+01  0.11970516397E+02  0.87820816203E+01  0.15945282579E+02  0.51100000000E-03 0.  1.
         12    1    3    3    0    0  0.23341285926E+01  0.10170283830E+02  0.18204659962E+01  0.10592305034E+02  0.00000000000E+00 0. -1.
</event>
<event>
 7    1  0.2732193E-010  0.4778727E+02  0.7816164E-02  0.1312668E+00
        -11   -1    0    0    0    0  0.00000000000E+00  0.00000000000E+00  0.45593999997E+02  0.45594000000E+02  0.51100000000E-03 0.  1.
         11   -1    0    0    0    0 -0.00000000000E+00 -0.00000000000E+00 -0.45593999997E+02  0.45594000000E+02  0.51100000000E-03 0. -1.
    9900012    2    1    2    0    0 -0.89997880284E+01  0.19868733743E+02 -0.37521466453E+02  0.47787271782E+02  0.20000003361E+02 0.  0.
        -12    1    1    2    0    0  0.89997880284E+01 -0.19868733743E+02  0.37521466453E+02  0.43400728218E+02  0.00000000000E+00 0.  1.
         11    1    3    3    0    0  0.45369076001E+01  0.13826728984E+01 -0.80020076340E+01  0.93020127580E+01  0.51100000000E-03 0. -1.
        -11    1    3    3    0    0 -0.99323484598E+00  0.83356213332E+01 -0.80738475773E+01  0.11647150443E+02  0.51100000000E-03 0.  1.
         12    1    3    3    0    0 -0.12543460782E+02  0.10150439511E+02 -0.21445611242E+02  0.26838108581E+02  0.00000000000E+00 0. -1.
</event>
<event>
 7    1  0.2732193E-010  0.4778727E+02  0.7816164E-02  0.1312668E+00
        -11   -1    0    0    0    0  0.00000000000E+00  0.00000000000E+00  0.45593999997E+02  0.45594000000E+02  0.51100000000E-03 0. -1.
         11   -1    0    0    0    0 -0.00000000000E+00 -0.00000000000E+00 -0.45593999997E+02  0.45594000000E+02  0.51100000000E-03 0.  1.
    9900012    2    1    2    0    0 -0.31727885165E+02  0.13042201020E+02  0.26586944234E+02  0.47787270649E+02  0.19999998197E+02 0.  0.
        -12    1    1    2    0    0  0.31727885165E+02 -0.13042201020E+02 -0.26586944234E+02  0.43400729351E+02  0.00000000000E+00 0.  1.
         11    1    3    3    0    0 -0.15350188243E+02  0.58872804812E+01  0.23908405959E+02  0.29015516992E+02  0.51100000000E-03 0. -1.
        -11    1    3    3    0    0 -0.15072288344E+02  0.48549059169E+01  0.15996025615E+01  0.15915486672E+02  0.51100000000E-03 0.  1.
        -12    1    3    3    0    0 -0.13054085779E+01  0.23000146219E+01  0.10789357139E+01  0.28562669853E+01  0.00000000000E+00 0.  1.
</event>
<event>
 7    1  0.2732193E-010  0.4778723E+02  0.7816164E-02  0.1312668E+00
        -11   -1    0    0    0    0  0.00000000000E+00  0.00000000000E+00  0.45593999997E+02  0.45594000000E+02  0.51100000000E-03 0. -1.
         11   -1    0    0    0    0 -0.00000000000E+00 -0.00000000000E+00 -0.45593999997E+02  0.45594000000E+02  0.51100000000E-03 0.  1.
    9900012    2    1    2    0    0 -0.26658010099E+02  0.34098109008E+02  0.32087873816E+01  0.47787229767E+02  0.19999811798E+02 0.  0.
        -12    1    1    2    0    0  0.26658010099E+02 -0.34098109008E+02 -0.32087873816E+01  0.43400770233E+02  0.00000000000E+00 0.  1.
         11    1    3    3    0    0 -0.23665202822E+02  0.21939378431E+02 -0.31997839633E+01  0.32428641171E+02  0.51100000000E-03 0. -1.
        -11    1    3    3    0    0 -0.39071331694E+01  0.12165427680E+02  0.50898859757E+01  0.13753917978E+02  0.51100000000E-03 0.  1.
         12    1    3    3    0    0  0.91432589189E+00 -0.66971029068E-02  0.13186853692E+01  0.16046706175E+01  0.00000000000E+00 0. -1.
</event>
<event>
 7    1  0.2732193E-010  0.4778727E+02  0.7816164E-02  0.1312668E+00
        -11   -1    0    0    0    0  0.00000000000E+00  0.00000000000E+00  0.45593999997E+02  0.45594000000E+02  0.51100000000E-03 0. -1.
         11   -1    0    0    0    0 -0.00000000000E+00 -0.00000000000E+00 -0.45593999997E+02  0.45594000000E+02  0.51100000000E-03 0.  1.
    9900012    2    1    2    0    0  0.15516232509E+01 -0.39335250586E+02  0.18274410844E+02  0.47787267690E+02  0.19999984704E+02 0.  0.
        -12    1    1    2    0    0 -0.15516232509E+01  0.39335250586E+02 -0.18274410844E+02  0.43400732310E+02  0.00000000000E+00 0.  1.
         11    1    3    3    0    0  0.10598751929E+01 -0.37044012832E+02  0.13967755194E+02  0.39604045343E+02  0.51100000000E-03 0. -1.
        -11    1    3    3    0    0 -0.22886592024E+01 -0.19513248087E+00  0.40944808372E+01  0.46947642344E+01  0.51100000000E-03 0.  1.
         12    1    3    3    0    0  0.27804072604E+01 -0.20961052737E+01  0.21217481269E+00  0.34884581126E+01  0.00000000000E+00 0. -1.
</event>
<event>
 7    1  0.2732193E-010  0.4778727E+02  0.7816164E-02  0.1312668E+00
        -11   -1    0    0    0    0  0.00000000000E+00  0.00000000000E+00  0.45593999997E+02  0.45594000000E+02  0.51100000000E-03 0.  1.
         11   -1    0    0    0    0 -0.00000000000E+00 -0.00000000000E+00 -0.45593999997E+02  0.45594000000E+02  0.51100000000E-03 0. -1.
    9900012    2    1    2    0    0 -0.31603732144E+02  0.26894693064E+02  0.12708391218E+02  0.47787267198E+02  0.19999982461E+02 0.  0.
        -12    1    1    2    0    0  0.31603732144E+02 -0.26894693064E+02 -0.12708391218E+02  0.43400732802E+02  0.00000000000E+00 0.  1.
         11    1    3    3    0    0 -0.26468989956E+02  0.27329640062E+02  0.10948177839E+02  0.39590140862E+02  0.51100000000E-03 0. -1.
        -11    1    3    3    0    0 -0.64596296322E+01 -0.10240759779E+01  0.16362361149E+01  0.67418703250E+01  0.51100000000E-03 0.  1.
         12    1    3    3    0    0  0.13248874442E+01  0.58912897918E+00  0.12397726452E+00  0.14552560105E+01  0.00000000000E+00 0. -1.
</event>
<event>
 7    1  0.2732193E-010  0.4778727E+02  0.7816164E-02  0.1312668E+00
        -11   -1    0    0    0    0  0.00000000000E+00  0.00000000000E+00  0.45593999997E+02  0.45594000000E+02  0.51100000000E-03 0.  1.
         11   -1    0    0    0    0 -0.00000000000E+00 -0.00000000000E+00 -0.45593999997E+02  0.45594000000E+02  0.51100000000E-03 0. -1.
    9900012    2    1    2    0    0  0.26885548232E+01  0.22466980755E+01 -0.43259068824E+02  0.47787274029E+02  0.20000013608E+02 0.  0.
        -12    1    1    2    0    0 -0.26885548232E+01 -0.22466980755E+01  0.43259068824E+02  0.43400725971E+02  0.00000000000E+00 0.  1.
         11    1    3    3    0    0  0.62145087383E+01  0.90556177318E+00 -0.16268931732E+02  0.17438987957E+02  0.51100000000E-03 0.  1.
        -11    1    3    3    0    0 -0.59040386412E+01 -0.44591728557E+01 -0.11964802172E+02  0.14067636124E+02  0.51100000000E-03 0. -1.
         12    1    3    3    0    0  0.23780847261E+01  0.58003091580E+01 -0.15025334920E+02  0.16280649949E+02  0.00000000000E+00 0. -1.
</event>
<event>
 7    1  0.2732193E-010  0.4778727E+02  0.7816164E-02  0.1312668E+00
        -11   -1    0    0    0    0  0.00000000000E+00  0.00000000000E+00  0.45593999997E+02  0.45594000000E+02  0.51100000000E-03 0.  1.
         11   -1    0    0    0    0 -0.00000000000E+00 -0.00000000000E+00 -0.45593999997E+02  0.45594000000E+02  0.51100000000E-03 0. -1.
    9900012    2    1    2    0    0  0.22439437907E+02  0.33265276429E+02 -0.16538333721E+02  0.47787268765E+02  0.19999989608E+02 0.  0.
        -12    1    1    2    0    0 -0.22439437907E+02 -0.33265276429E+02  0.16538333721E+02  0.43400731235E+02  0.00000000000E+00 0.  1.
         11    1    3    3    0    0  0.20079558291E+02  0.24516159197E+02 -0.12335276201E+02  0.34005731314E+02  0.51100000000E-03 0. -1.
        -11    1    3    3    0    0 -0.14754651876E+01  0.34930252131E+01 -0.59399399803E+01  0.70470639198E+01  0.51100000000E-03 0.  1.
        -12    1    3    3    0    0  0.38353448031E+01  0.52560920183E+01  0.17368824608E+01  0.67344735315E+01  0.00000000000E+00 0.  1.
</event>
<event>
 7    1  0.2732193E-010  0.4778724E+02  0.7816164E-02  0.1312668E+00
        -11   -1    0    0    0    0  0.00000000000E+00  0.00000000000E+00  0.45593999997E+02  0.45594000000E+02  0.51100000000E-03 0. -1.
         11   -1    0    0    0    0 -0.00000000000E+00 -0.00000000000E+00 -0.45593999997E+02  0.45594000000E+02  0.51100000000E-03 0.  1.
    9900012    2    1    2    0    0  0.22532355929E+02  0.74930679069E+01  0.36328672396E+02  0.47787244610E+02  0.19999879475E+02 0.  0.
        -12    1    1    2    0    0 -0.22532355929E+02 -0.74930679069E+01 -0.36328672396E+02  0.43400755390E+02  0.00000000000E+00 0.  1.
         11    1    3    3    0    0  0.11699394249E+02 -0.15168455312E+01  0.24933345400E+02  0.27583479825E+02  0.51100000000E-03 0. -1.
        -11    1    3    3    0    0 -0.25675014288E+00 -0.73298006373E+00 -0.75621501899E+00  0.10839934620E+01  0.51100000000E-03 0.  1.
         12    1    3    3    0    0  0.11089711823E+02  0.97428935018E+01  0.12151542015E+02  0.19119771323E+02  0.00000000000E+00 0. -1.
</event>
<event>
 7    1  0.2732193E-010  0.4778728E+02  0.7816164E-02  0.1312668E+00
        -11   -1    0    0    0    0  0.00000000000E+00  0.00000000000E+00  0.45593999997E+02  0.45594000000E+02  0.51100000000E-03 0. -1.
         11   -1    0    0    0    0 -0.00000000000E+00 -0.00000000000E+00 -0.45593999997E+02  0.45594000000E+02  0.51100000000E-03 0.  1.
    9900012    2    1    2    0    0  0.13344488262E+02 -0.51644479943E+01  0.40974086583E+02  0.47787278101E+02  0.20000032172E+02 0.  0.
        -12    1    1    2    0    0 -0.13344488262E+02  0.51644479943E+01 -0.40974086583E+02  0.43400721899E+02  0.00000000000E+00 0.  1.
         11    1    3    3    0    0 -0.11305169143E+01 -0.18811162248E+00  0.15990209497E+01  0.19673135832E+01  0.51100000000E-03 0. -1.
        -11    1    3    3    0    0 -0.19302297735E+01 -0.29353634671E+01  0.20196268869E+02  0.20499546877E+02  0.51100000000E-03 0.  1.
        -12    1    3    3    0    0  0.16405234950E+02 -0.20409729047E+01  0.19178796764E+02  0.25320417640E+02  0.00000000000E+00 0.  1.
</event>
<event>
 7    1  0.2732193E-010  0.4778727E+02  0.7816164E-02  0.1312668E+00
        -11   -1    0    0    0    0  0.00000000000E+00  0.00000000000E+00  0.45593999997E+02  0.45594000000E+02  0.51100000000E-03 0.  1.
         11   -1    0    0    0    0 -0.00000000000E+00 -0.00000000000E+00 -0.45593999997E+02  0.45594000000E+02  0.51100000000E-03 0. -1.
    9900012    2    1    2    0    0  0.10258539033E+02  0.63986449904E+01 -0.41682645624E+02  0.47787271584E+02  0.20000002461E+02 0.  0.
        -12    1    1    2    0    0 -0.10258539033E+02 -0.63986449904E+01  0.41682645624E+02  0.43400728416E+02  0.00000000000E+00 0.  1.
         11    1    3    3    0    0  0.11304230803E+01 -0.12150325900E+01 -0.75869978276E+01  0.77663824805E+01  0.51100000000E-03 0. -1.
        -11    1    3    3    0    0  0.20012425965E+01 -0.45092230359E+01 -0.17921886002E+02  0.18588492743E+02  0.51100000000E-03 0.  1.
        -12    1    3    3    0    0  0.71268733561E+01  0.12122900616E+02 -0.16173761794E+02  0.21432396361E+02  0.00000000000E+00 0.  1.
</event>
<event>
 7    1  0.2732193E-010  0.4778727E+02  0.7816164E-02  0.1312668E+00
        -11   -1    0    0    0    0  0.00000000000E+00  0.00000000000E+00  0.45593999997E+02  0.45594000000E+02  0.51100000000E-03 0.  1.
         11   -1    0    0    0    0 -0.00000000000E+00 -0.00000000000E+00 -0.45593999997E+02  0.45594000000E+02  0.51100000000E-03 0. -1.
    9900012    2    1    2    0    0  0.17407982125E+02  0.28999364110E+02 -0.27195997953E+02  0.47787271146E+02  0.20000000461E+02 0.  0.
        -12    1    1    2    0    0 -0.17407982125E+02 -0.28999364110E+02  0.27195997953E+02  0.43400728854E+02  0.00000000000E+00 0.  1.
         11    1    3    3    0    0  0.16411495467E+02  0.17392838119E+02 -0.26406747905E+02  0.35625332791E+02  0.51100000000E-03 0. -1.
        -11    1    3    3    0    0 -0.64289085231E+00  0.24859398611E+01  0.94160834334E+00  0.27349281845E+01  0.51100000000E-03 0.  1.
         12    1    3    3    0    0  0.16393775109E+01  0.91205861300E+01 -0.17308583910E+01  0.94270101701E+01  0.00000000000E+00 0. -1.
</event>
<event>
 7    1  0.2732193E-010  0.4778727E+02  0.7816164E-02  0.1312668E+00
        -11   -1    0    0    0    0  0.00000000000E+00  0.00000000000E+00  0.45593999997E+02  0.45594000000E+02  0.51100000000E-03 0.  1.
         11   -1    0    0    0    0 -0.00000000000E+00 -0.00000000000E+00 -0.45593999997E+02  0.45594000000E+02  0.51100000000E-03 0. -1.
    9900012    2    1    2    0    0  0.97456329935E+00 -0.31772995166E+02 -0.29549115514E+02  0.47787271629E+02  0.20000002667E+02 0.  0.
        -12    1    1    2    0    0 -0.97456329935E+00  0.31772995166E+02  0.29549115514E+02  0.43400728371E+02  0.00000000000E+00 0.  1.
         11    1    3    3    0    0  0.30132940645E+01 -0.38622962493E+01 -0.36419344768E+01  0.61041756553E+01  0.51100000000E-03 0. -1.
        -11    1    3    3    0    0  0.18784994977E+01 -0.28053596210E+02 -0.25080342910E+02  0.37677003881E+02  0.51100000000E-03 0.  1.
        -12    1    3    3    0    0 -0.39172302629E+01  0.14289729355E+00 -0.82683812671E+00  0.40060920929E+01  0.00000000000E+00 0.  1.
</event>
<event>
 7    1  0.2732193E-010  0.4778727E+02  0.7816164E-02  0.1312668E+00
        -11   -1    0    0    0    0  0.00000000000E+00  0.00000000000E+00  0.45593999997E+02  0.45594000000E+02  0.51100000000E-03 0. -1.
         11   -1    0    0    0    0 -0.00000000000E+00 -0.00000000000E+00 -0.45593999997E+02  0.45594000000E+02  0.51100000000E-03 0.  1.
    9900012    2    1    2    0    0 -0.42208972752E+02 -0.98057603469E+01 -0.24233772948E+01  0.47787273344E+02  0.20000010483E+02 0.  0.
        -12    1    1    2    0    0  0.42208972752E+02  0.98057603469E+01  0.24233772948E+01  0.43400726656E+02  0.00000000000E+00 0.  1.
         11    1    3    3    0    0 -0.37804021878E+01  0.14459808418E+01  0.48508415554E+01  0.63176708804E+01  0.51100000000E-03 0. -1.
        -11    1    3    3    0    0 -0.29057354171E+02 -0.62207174863E+01 -0.81039335216E+01  0.30800988560E+02  0.51100000000E-03 0.  1.
         12    1    3    3    0    0 -0.93712163933E+01 -0.50310237024E+01  0.82971467145E+00  0.10668613903E+02  0.00000000000E+00 0. -1.
</event>
<event>
 7    1  0.2732193E-010  0.4778727E+02  0.7816164E-02  0.1312668E+00
        -11   -1    0    0    0    0  0.00000000000E+00  0.00000000000E+00  0.45593999997E+02  0.45594000000E+02  0.51100000000E-03 0. -1.
         11   -1    0    0    0    0 -0.00000000000E+00 -0.00000000000E+00 -0.45593999997E+02  0.45594000000E+02  0.51100000000E-03 0.  1.
    9900012    2    1    2    0    0  0.19915763391E+02 -0.31508897842E+02 -0.22230047297E+02  0.47787271002E+02  0.19999999809E+02 0.  0.
        -12    1    1    2    0    0 -0.19915763391E+02  0.31508897842E+02  0.22230047297E+02  0.43400728998E+02  0.00000000000E+00 0.  1.
         11    1    3    3    0    0  0.34920825065E+01 -0.52855378524E-01  0.16180003309E+00  0.34962284586E+01  0.51100000000E-03 0. -1.
        -11    1    3    3    0    0  0.86818132613E+01 -0.92861501251E+01 -0.13925718496E+01  0.12788499610E+02  0.51100000000E-03 0.  1.
        -12    1    3    3    0    0  0.77418676234E+01 -0.22169892338E+02 -0.20999275481E+02  0.31502542934E+02  0.00000000000E+00 0.  1.
</event>
<event>
 7    1  0.2732193E-010  0.4778727E+02  0.7816164E-02  0.1312668E+00
        -11   -1    0    0    0    0  0.00000000000E+00  0.00000000000E+00  0.45593999997E+02  0.45594000000E+02  0.51100000000E-03 0.  1.
         11   -1    0    0    0    0 -0.00000000000E+00 -0.00000000000E+00 -0.45593999997E+02  0.45594000000E+02  0.51100000000E-03 0. -1.
    9900012    2    1    2    0    0  0.30678978728E+02  0.30695250478E+02  0.47468019663E+00  0.47787268912E+02  0.19999990277E+02 0.  0.
        -12    1    1    2    0    0 -0.30678978728E+02 -0.30695250478E+02 -0.47468019663E+00  0.43400731088E+02  0.00000000000E+00 0.  1.
         11    1    3    3    0    0  0.68894304008E+01  0.77275576918E+01 -0.56681735187E+01  0.11802863654E+02  0.51100000000E-03 0. -1.
        -11    1    3    3    0    0  0.10795225336E+02  0.16854587436E+02  0.78976681426E+01  0.21517136660E+02  0.51100000000E-03 0.  1.
         12    1    3    3    0    0  0.12994322991E+02  0.61131053500E+01 -0.17548144273E+01  0.14467268598E+02  0.00000000000E+00 0. -1.
</event>
<event>
 7    1  0.2732193E-010  0.4778722E+02  0.7816164E-02  0.1312668E+00
        -11   -1    0    0    0    0  0.00000000000E+00  0.00000000000E+00  0.45593999997E+02  0.45594000000E+02  0.51100000000E-03 0.  1.
         11   -1    0    0    0    0 -0.00000000000E+00 -0.00000000000E+00 -0.45593999997E+02  0.45594000000E+02  0.51100000000E-03 0. -1.
    9900012    2    1    2    0    0 -0.27517577147E+02 -0.30290396530E+02 -0.14453462641E+02  0.47787219404E+02  0.19999764551E+02 0.  0.
        -12    1    1    2    0    0  0.27517577147E+02  0.30290396530E+02  0.14453462641E+02  0.43400780596E+02  0.00000000000E+00 0.  1.
         11    1    3    3    0    0 -0.16124312716E+02 -0.17127094686E+02 -0.76246420991E+01  0.24727838570E+02  0.51100000000E-03 0. -1.
        -11    1    3    3    0    0  0.51907279270E+00 -0.18931546918E+01 -0.63576751205E+01  0.66538338159E+01  0.51100000000E-03 0.  1.
        -12    1    3    3    0    0 -0.11912337225E+02 -0.11270147152E+02 -0.47114542110E+00  0.16405547019E+02  0.00000000000E+00 0.  1.
</event>
<event>
 7    1  0.2732193E-010  0.4778727E+02  0.7816164E-02  0.1312668E+00
        -11   -1    0    0    0    0  0.00000000000E+00  0.00000000000E+00  0.45593999997E+02  0.45594000000E+02  0.51100000000E-03 0. -1.
         11   -1    0    0    0    0 -0.00000000000E+00 -0.00000000000E+00 -0.45593999997E+02  0.45594000000E+02  0.51100000000E-03 0.  1.
    9900012    2    1    2    0    0 -0.15534645038E+02  0.31762957512E+02  0.25167689306E+02  0.47787271304E+02  0.20000001184E+02 0.  0.
        -12    1    1    2    0    0  0.15534645038E+02 -0.31762957512E+02 -0.25167689306E+02  0.43400728696E+02  0.00000000000E+00 0.  1.
         11    1    3    3    0    0 -0.34305619388E+01  0.64114186093E+01  0.10903775646E+02  0.13106005013E+02  0.51100000000E-03 0. -1.
        -11    1    3    3    0    0 -0.13485774062E+02  0.25926092462E+02  0.11246396962E+02  0.31313093384E+02  0.51100000000E-03 0.  1.
        -12    1    3    3    0    0  0.13816909628E+01 -0.57455355977E+00  0.30175166982E+01  0.33681729073E+01  0.00000000000E+00 0.  1.
</event>
<event>
 7    1  0.2732193E-010  0.4778727E+02  0.7816164E-02  0.1312668E+00
        -11   -1    0    0    0    0  0.00000000000E+00  0.00000000000E+00  0.45593999997E+02  0.45594000000E+02  0.51100000000E-03 0.  1.
         11   -1    0    0    0    0 -0.00000000000E+00 -0.00000000000E+00 -0.45593999997E+02  0.45594000000E+02  0.51100000000E-03 0. -1.
    9900012    2    1    2    0    0  0.38748347787E+02 -0.19454679537E+02  0.19246116925E+01  0.47787272561E+02  0.20000006913E+02 0.  0.
        -12    1    1    2    0    0 -0.38748347787E+02  0.19454679537E+02 -0.19246116925E+01  0.43400727439E+02  0.00000000000E+00 0.  1.
         11    1    3    3    0    0  0.15443890385E+02 -0.15065298386E+02 -0.40681178743E+01  0.21955103028E+02  0.51100000000E-03 0. -1.
        -11    1    3    3    0    0  0.69340627325E+01  0.21526576392E+01  0.15706739889E+00  0.72622194486E+01  0.51100000000E-03 0.  1.
         12    1    3    3    0    0  0.16370394670E+02 -0.65420387903E+01  0.58356621679E+01  0.18569950084E+02  0.00000000000E+00 0. -1.
</event>
<event>
 7    1  0.2732193E-010  0.4778727E+02  0.7816164E-02  0.1312668E+00
        -11   -1    0    0    0    0  0.00000000000E+00  0.00000000000E+00  0.45593999997E+02  0.45594000000E+02  0.51100000000E-03 0. -1.
         11   -1    0    0    0    0 -0.00000000000E+00 -0.00000000000E+00 -0.45593999997E+02  0.45594000000E+02  0.51100000000E-03 0.  1.
    9900012    2    1    2    0    0 -0.20534007047E+02 -0.37000821625E+02 -0.96393408728E+01  0.47787272601E+02  0.20000007095E+02 0.  0.
        -12    1    1    2    0    0  0.20534007047E+02  0.37000821625E+02  0.96393408728E+01  0.43400727399E+02  0.00000000000E+00 0.  1.
         11    1    3    3    0    0 -0.16300693129E+02 -0.30968555094E+02 -0.11775376864E+02  0.36924565017E+02  0.51100000000E-03 0. -1.
        -11    1    3    3    0    0 -0.20610203988E+01 -0.33549157992E+01 -0.28073550308E+01  0.48357530576E+01  0.51100000000E-03 0.  1.
         12    1    3    3    0    0 -0.21722935190E+01 -0.26773507315E+01  0.49433910216E+01  0.60269545265E+01  0.00000000000E+00 0. -1.
</event>
<event>
 7    1  0.2732193E-010  0.4778727E+02  0.7816164E-02  0.1312668E+00
        -11   -1    0    0    0    0  0.00000000000E+00  0.00000000000E+00  0.45593999997E+02  0.45594000000E+02  0.51100000000E-03 0. -1.
         11   -1    0    0    0    0 -0.00000000000E+00 -0.00000000000E+00 -0.45593999997E+02  0.45594000000E+02  0.51100000000E-03 0.  1.
    9900012    2    1    2    0    0 -0.31720500664E+02 -0.73033505168E+01  0.28707039068E+02  0.47787272089E+02  0.20000004761E+02 0.  0.
        -12    1    1    2    0    0  0.31720500664E+02  0.73033505168E+01 -0.28707039068E+02  0.43400727911E+02  0.00000000000E+00 0.  1.
         11    1    3    3    0    0 -0.13903910989E+02 -0.22534891478E+01  0.12267971216E+02  0.18678866993E+02  0.51100000000E-03 0. -1.
        -11    1    3    3    0    0 -0.98832627740E+01 -0.10094985281E+02  0.12678984587E+02  0.18982735875E+02  0.51100000000E-03 0.  1.
        -12    1    3    3    0    0 -0.79333269011E+01  0.50451239116E+01  0.37600832658E+01  0.10125669221E+02  0.00000000000E+00 0.  1.
</event>
<event>
 7    1  0.2732193E-010  0.4778727E+02  0.7816164E-02  0.1312668E+00
        -11   -1    0    0    0    0  0.00000000000E+00  0.00000000000E+00  0.45593999997E+02  0.45594000000E+02  0.51100000000E-03 0.  1.
         11   -1    0    0    0    0 -0.00000000000E+00 -0.00000000000E+00 -0.45593999997E+02  0.45594000000E+02  0.51100000000E-03 0. -1.
    9900012    2    1    2    0    0 -0.14004031301E+01  0.17961023107E+02 -0.39484980015E+02  0.47787272740E+02  0.20000007729E+02 0.  0.
        -12    1    1    2    0    0  0.14004031301E+01 -0.17961023107E+02  0.39484980015E+02  0.43400727260E+02  0.00000000000E+00 0.  1.
         11    1    3    3    0    0  0.23829877939E+01  0.15565610260E+02 -0.29462636995E+02  0.33406793210E+02  0.51100000000E-03 0. -1.
        -11    1    3    3    0    0  0.32323376172E+00 -0.21908332299E+00  0.16700499740E+01  0.17150932173E+01  0.51100000000E-03 0.  1.
         12    1    3    3    0    0 -0.41066246857E+01  0.26144961697E+01 -0.11692392994E+02  0.12665386313E+02  0.00000000000E+00 0. -1.
</event>
<event>
 7    1  0.2732193E-010  0.4778728E+02  0.7816164E-02  0.1312668E+00
        -11   -1    0    0    0    0  0.00000000000E+00  0.00000000000E+00  0.45593999997E+02  0.45594000000E+02  0.51100000000E-03 0.  1.
         11   -1    0    0    0    0 -0.00000000000E+00 -0.00000000000E+00 -0.45593999997E+02  0.45594000000E+02  0.51100000000E-03 0. -1.
    9900012    2    1    2    0    0 -0.34872738381E+02  0.94521897307E+01 -0.24045189192E+02  0.47787275396E+02  0.20000019840E+02 0.  0.
        -12    1    1    2    0    0  0.34872738381E+02 -0.94521897307E+01  0.24045189192E+02  0.43400724604E+02  0.00000000000E+00 0.  1.
         11    1    3    3    0    0 -0.12331746277E+02 -0.13010052892E+01 -0.16896626928E+02  0.20958544387E+02  0.51100000000E-03 0. -1.
        -11    1    3    3    0    0 -0.10770089851E+02  0.53336837705E+01  0.22123127656E-01  0.12018465279E+02  0.51100000000E-03 0.  1.
        -12    1    3    3    0    0 -0.11770902253E+02  0.54195112494E+01 -0.71706853916E+01  0.14810265730E+02  0.00000000000E+00 0.  1.
</event>
<event>
 7    1  0.2732193E-010  0.4778726E+02  0.7816164E-02  0.1312668E+00
        -11   -1    0    0    0    0  0.00000000000E+00  0.00000000000E+00  0.45593999997E+02  0.45594000000E+02  0.51100000000E-03 0.  1.
         11   -1    0    0    0    0 -0.00000000000E+00 -0.00000000000E+00 -0.45593999997E+02  0.45594000000E+02  0.51100000000E-03 0. -1.
    9900012    2    1    2    0    0 -0.31640636290E+02 -0.17896909680E+01 -0.29652847621E+02  0.47787260022E+02  0.19999949746E+02 0.  0.
        -12    1    1    2    0    0  0.31640636290E+02  0.17896909680E+01  0.29652847621E+02  0.43400739978E+02  0.00000000000E+00 0.  1.
         11    1    3    3    0    0 -0.25855255138E+02 -0.21673055554E+01 -0.19821432899E+02  0.32650890249E+02  0.51100000000E-03 0. -1.
        -11    1    3    3    0    0  0.63861954703E+00  0.76943807430E+00  0.16759025410E+01  0.19515428420E+01  0.51100000000E-03 0.  1.
         12    1    3    3    0    0 -0.64240006988E+01 -0.39182348685E+00 -0.11507317263E+02  0.13184826931E+02  0.00000000000E+00 0. -1.
</event>
<event>
 7    1  0.2732193E-010  0.4778722E+02  0.7816164E-02  0.1312668E+00
        -11   -1    0    0    0    0  0.00000000000E+00  0.00000000000E+00  0.45593999997E+02  0.45594000000E+02  0.51100000000E-03 0.  1.
         11   -1    0    0    0    0 -0.00000000000E+00 -0.00000000000E+00 -0.45593999997E+02  0.45594000000E+02  0.51100000000E-03 0. -1.
    9900012    2    1    2    0    0 -0.24173820314E+02  0.25928855924E+02 -0.25038944892E+02  0.47787217525E+02  0.19999755984E+02 0.  0.
        -12    1    1    2    0    0  0.24173820314E+02 -0.25928855924E+02  0.25038944892E+02  0.43400782475E+02  0.00000000000E+00 0.  1.
         11    1    3    3    0    0 -0.78590179517E+01  0.16672786368E+02 -0.16438104484E+02  0.24697312561E+02  0.51100000000E-03 0. -1.
        -11    1    3    3    0    0 -0.67958467008E+01 -0.89882705356E+00 -0.55992406213E+01  0.88511534983E+01  0.51100000000E-03 0.  1.
         12    1    3    3    0    0 -0.95189556618E+01  0.10154896609E+02 -0.30015997867E+01  0.14238751466E+02  0.00000000000E+00 0. -1.
</event>
<event>
 7    1  0.2732193E-010  0.4778727E+02  0.7816164E-02  0.1312668E+00
        -11   -1    0    0    0    0  0.00000000000E+00  0.00000000000E+00  0.45593999997E+02  0.45594000000E+02  0.51100000000E-03 0.  1.
         11   -1    0    0    0    0 -0.00000000000E+00 -0.00000000000E+00 -0.45593999997E+02  0.45594000000E+02  0.51100000000E-03 0. -1.
    9900012    2    1    2    0    0 -0.20517752181E+01 -0.31115619759E+02 -0.30186612668E+02  0.47787272369E+02  0.20000006040E+02 0.  0.
        -12    1    1    2    0    0  0.20517752181E+01  0.31115619759E+02  0.30186612668E+02  0.43400727631E+02  0.00000000000E+00 0.  1.
         11    1    3    3    0    0  0.36450837518E+01 -0.11171018114E+02 -0.10407080070E+02  0.15696674715E+02  0.51100000000E-03 0. -1.
        -11    1    3    3    0    0 -0.54171875590E+01 -0.29003360577E+01 -0.22476530810E+00  0.61488527386E+01  0.51100000000E-03 0.  1.
        -12    1    3    3    0    0 -0.27967141095E+00 -0.17044265587E+02 -0.19554767289E+02  0.25941744915E+02  0.00000000000E+00 0.  1.
</event>
<event>
 7    1  0.2732193E-010  0.4778727E+02  0.7816164E-02  0.1312668E+00
        -11   -1    0    0    0    0  0.00000000000E+00  0.00000000000E+00  0.45593999997E+02  0.45594000000E+02  0.51100000000E-03 0.  1.
         11   -1    0    0    0    0 -0.00000000000E+00 -0.00000000000E+00 -0.45593999997E+02  0.45594000000E+02  0.51100000000E-03 0. -1.
    9900012    2    1    2    0    0 -0.35880527006E+02  0.24190914751E+02 -0.33182538229E+01  0.47787269786E+02  0.19999994261E+02 0.  0.
        -12    1    1    2    0    0  0.35880527006E+02 -0.24190914751E+02  0.33182538229E+01  0.43400730214E+02  0.00000000000E+00 0.  1.
         11    1    3    3    0    0 -0.12647319800E+02  0.43300990843E+01 -0.25607781537E+01  0.13611099927E+02  0.51100000000E-03 0. -1.
        -11    1    3    3    0    0 -0.89585691525E+01  0.11193269270E+02 -0.74836001585E+01  0.16172492381E+02  0.51100000000E-03 0.  1.
        -12    1    3    3    0    0 -0.14274638053E+02  0.86675463964E+01  0.67261244893E+01  0.18003677478E+02  0.00000000000E+00 0.  1.
</event>
<event>
 7    1  0.2732193E-010  0.4778728E+02  0.7816164E-02  0.1312668E+00
        -11   -1    0    0    0    0  0.00000000000E+00  0.00000000000E+00  0.45593999997E+02  0.45594000000E+02  0.51100000000E-03 0. -1.
         11   -1    0    0    0    0 -0.00000000000E+00 -0.00000000000E+00 -0.45593999997E+02  0.45594000000E+02  0.51100000000E-03 0.  1.
    9900012    2    1    2    0    0 -0.19544870448E+02  0.15815874150E+02  0.35376250350E+02  0.47787275066E+02  0.20000018336E+02 0.  0.
        -12    1    1    2    0    0  0.19544870448E+02 -0.15815874150E+02 -0.35376250350E+02  0.43400724934E+02  0.00000000000E+00 0.  1.
         11    1    3    3    0    0 -0.14979618534E+02  0.61045764726E+01  0.30031589393E+02  0.34110866114E+02  0.51100000000E-03 0. -1.
        -11    1    3    3    0    0 -0.20504432876E+01  0.89569875399E+01  0.59951878971E+01  0.10971518657E+02  0.51100000000E-03 0.  1.
         12    1    3    3    0    0 -0.25148086255E+01  0.75431013757E+00 -0.65052693926E+00  0.27048902945E+01  0.00000000000E+00 0. -1.
</event>
<event>
 7    1  0.2732193E-010  0.4778727E+02  0.7816164E-02  0.1312668E+00
        -11   -1    0    0    0    0  0.00000000000E+00  0.00000000000E+00  0.45593999997E+02  0.45594000000E+02  0.51100000000E-03 0.  1.
         11   -1    0    0    0    0 -0.00000000000E+00 -0.00000000000E+00 -0.45593999997E+02  0.45594000000E+02  0.51100000000E-03 0. -1.
    9900012    2    1    2    0    0  0.23659130651E+02 -0.18696230970E+02 -0.31214096535E+02  0.47787270304E+02  0.19999996624E+02 0.  0.
        -12    1    1    2    0    0 -0.23659130651E+02  0.18696230970E+02  0.31214096535E+02  0.43400729696E+02  0.00000000000E+00 0.  1.
         11    1    3    3    0    0  0.10924141882E+02 -0.16700315505E+02 -0.20043493040E+02  0.28283900497E+02  0.51100000000E-03 0. -1.
        -11    1    3    3    0    0  0.10200076063E+02 -0.26206048471E+00 -0.27903758482E+01  0.10578110655E+02  0.51100000000E-03 0.  1.
        -12    1    3    3    0    0  0.25349127062E+01 -0.17338549803E+01 -0.83802276474E+01  0.89252591527E+01  0.00000000000E+00 0.  1.
</event>
<event>
 7    1  0.2732193E-010  0.4778727E+02  0.7816164E-02  0.1312668E+00
        -11   -1    0    0    0    0  0.00000000000E+00  0.00000000000E+00  0.45593999997E+02  0.45594000000E+02  0.51100000000E-03 0.  1.
         11   -1    0    0    0    0 -0.00000000000E+00 -0.00000000000E+00 -0.45593999997E+02  0.45594000000E+02  0.51100000000E-03 0. -1.
    9900012    2    1    2    0    0 -0.18850742879E+02  0.18808631009E+02 -0.34271100549E+02  0.47787269126E+02  0.19999991253E+02 0.  0.
        -12    1    1    2    0    0  0.18850742879E+02 -0.18808631009E+02  0.34271100549E+02  0.43400730874E+02  0.00000000000E+00 0.  1.
         11    1    3    3    0    0 -0.17096534922E+02  0.15047651692E+02 -0.26356468690E+02  0.34833701639E+02  0.51100000000E-03 0. -1.
        -11    1    3    3    0    0  0.77455180693E+00 -0.11384835910E+01  0.15044218843E+01  0.20394511163E+01  0.51100000000E-03 0.  1.
         12    1    3    3    0    0 -0.25287597644E+01  0.48994629087E+01 -0.94190537433E+01  0.10914116371E+02  0.00000000000E+00 0. -1.
</event>
<event>
 7    1  0.2732193E-010  0.4778729E+02  0.7816164E-02  0.1312668E+00
        -11   -1    0    0    0    0  0.00000000000E+00  0.00000000000E+00  0.45593999997E+02  0.45594000000E+02  0.51100000000E-03 0.  1.
         11   -1    0    0    0    0 -0.00000000000E+00 -0.00000000000E+00 -0.45593999997E+02  0.45594000000E+02  0.51100000000E-03 0. -1.
    9900012    2    1    2    0    0 -0.49188438249E+01  0.31275674658E+02 -0.29686009968E+02  0.47787285286E+02  0.20000064931E+02 0.  0.
        -12    1    1    2    0    0  0.49188438249E+01 -0.31275674658E+02  0.29686009968E+02  0.43400714714E+02  0.00000000000E+00 0.  1.
         11    1    3    3    0    0 -0.33260769018E+01  0.29149583581E+02 -0.16076902792E+02  0.33454862340E+02  0.51100000000E-03 0. -1.
        -11    1    3    3    0    0 -0.55758357168E+00  0.20049190499E+01 -0.12911789225E+02  0.13078413554E+02  0.51100000000E-03 0.  1.
         12    1    3    3    0    0 -0.10351833513E+01  0.12117202702E+00 -0.69731795131E+00  0.12540093924E+01  0.00000000000E+00 0. -1.
</event>
<event>
 7    1  0.2732193E-010  0.4778727E+02  0.7816164E-02  0.1312668E+00
        -11   -1    0    0    0    0  0.00000000000E+00  0.00000000000E+00  0.45593999997E+02  0.45594000000E+02  0.51100000000E-03 0. -1.
         11   -1    0    0    0    0 -0.00000000000E+00 -0.00000000000E+00 -0.45593999997E+02  0.45594000000E+02  0.51100000000E-03 0.  1.
    9900012    2    1    2    0    0 -0.99909032190E+01  0.24865362790E+02  0.34139694368E+02  0.47787272525E+02  0.20000006752E+02 0.  0.
        -12    1    1    2    0    0  0.99909032190E+01 -0.24865362790E+02 -0.34139694368E+02  0.43400727475E+02  0.00000000000E+00 0.  1.
         11    1    3    3    0    0 -0.23219400089E+01  0.19638950722E+02  0.11898229978E+02  0.23079160897E+02  0.51100000000E-03 0. -1.
        -11    1    3    3    0    0 -0.67186642886E+01  0.58927032198E+01  0.21614194451E+02  0.23388839285E+02  0.51100000000E-03 0.  1.
         12    1    3    3    0    0 -0.95029892159E+00 -0.66629115182E+00  0.62726993822E+00  0.13192723429E+01  0.00000000000E+00 0. -1.
</event>
<event>
 7    1  0.2732193E-010  0.4778727E+02  0.7816164E-02  0.1312668E+00
        -11   -1    0    0    0    0  0.00000000000E+00  0.00000000000E+00  0.45593999997E+02  0.45594000000E+02  0.51100000000E-03 0.  1.
         11   -1    0    0    0    0 -0.00000000000E+00 -0.00000000000E+00 -0.45593999997E+02  0.45594000000E+02  0.51100000000E-03 0. -1.
    9900012    2    1    2    0    0  0.36033037063E+02  0.14404259854E+02 -0.19436067771E+02  0.47787271984E+02  0.20000004283E+02 0.  0.
        -12    1    1    2    0    0 -0.36033037063E+02 -0.14404259854E+02  0.19436067771E+02  0.43400728016E+02  0.00000000000E+00 0.  1.
         11    1    3    3    0    0 -0.38359019186E+00 -0.13745937268E+01 -0.34454071785E+01  0.37292734193E+01  0.51100000000E-03 0. -1.
        -11    1    3    3    0    0  0.12822832681E+00  0.65947372239E+00  0.10216147819E+01  0.12227203760E+01  0.51100000000E-03 0.  1.
         12    1    3    3    0    0  0.36288398928E+02  0.15119379859E+02 -0.17012275375E+02  0.42835278189E+02  0.00000000000E+00 0. -1.
</event>
<event>
 7    1  0.2732193E-010  0.4778727E+02  0.7816164E-02  0.1312668E+00
        -11   -1    0    0    0    0  0.00000000000E+00  0.00000000000E+00  0.45593999997E+02  0.45594000000E+02  0.51100000000E-03 0. -1.
         11   -1    0    0    0    0 -0.00000000000E+00 -0.00000000000E+00 -0.45593999997E+02  0.45594000000E+02  0.51100000000E-03 0.  1.
    9900012    2    1    2    0    0 -0.20341645224E+02  0.38174568768E+02  0.35416638722E+01  0.47787267126E+02  0.19999982135E+02 0.  0.
        -12    1    1    2    0    0  0.20341645224E+02 -0.38174568768E+02 -0.35416638722E+01  0.43400732874E+02  0.00000000000E+00 0.  1.
         11    1    3    3    0    0 -0.17738960048E+02  0.18916019656E+02  0.10854865336E+00  0.25932571918E+02  0.51100000000E-03 0. -1.
        -11    1    3    3    0    0  0.22932432783E+01  0.76311483339E+00  0.77718573920E+00  0.25387648407E+01  0.51100000000E-03 0.  1.
         12    1    3    3    0    0 -0.48959284541E+01  0.18495434278E+02  0.26559294796E+01  0.19315930367E+02  0.00000000000E+00 0. -1.
</event>
<event>
 7    1  0.2732193E-010  0.4778727E+02  0.7816164E-02  0.1312668E+00
        -11   -1    0    0    0    0  0.00000000000E+00  0.00000000000E+00  0.45593999997E+02  0.45594000000E+02  0.51100000000E-03 0. -1.
         11   -1    0    0    0    0 -0.00000000000E+00 -0.00000000000E+00 -0.45593999997E+02  0.45594000000E+02  0.51100000000E-03 0.  1.
    9900012    2    1    2    0    0 -0.14453167956E+02 -0.20888350016E+01  0.40870112715E+02  0.47787269488E+02  0.19999992905E+02 0.  0.
        -12    1    1    2    0    0  0.14453167956E+02  0.20888350016E+01 -0.40870112715E+02  0.43400730512E+02  0.00000000000E+00 0.  1.
         11    1    3    3    0    0 -0.82561015625E+01 -0.50250125965E+00  0.34191514352E+02  0.35177768185E+02  0.51100000000E-03 0. -1.
        -11    1    3    3    0    0 -0.72095074861E+01  0.27980030464E+00  0.20238236804E+01  0.74934070323E+01  0.51100000000E-03 0.  1.
        -12    1    3    3    0    0  0.10124410923E+01 -0.18661340465E+01  0.46547746821E+01  0.51160942706E+01  0.00000000000E+00 0.  1.
</event>
<event>
 7    1  0.2732193E-010  0.4778728E+02  0.7816164E-02  0.1312668E+00
        -11   -1    0    0    0    0  0.00000000000E+00  0.00000000000E+00  0.45593999997E+02  0.45594000000E+02  0.51100000000E-03 0.  1.
         11   -1    0    0    0    0 -0.00000000000E+00 -0.00000000000E+00 -0.45593999997E+02  0.45594000000E+02  0.51100000000E-03 0. -1.
    9900012    2    1    2    0    0  0.26177653606E+01  0.42253539705E+02 -0.95607827593E+01  0.47787275581E+02  0.20000020686E+02 0.  0.
        -12    1    1    2    0    0 -0.26177653606E+01 -0.42253539705E+02  0.95607827593E+01  0.43400724419E+02  0.00000000000E+00 0.  1.
         11    1    3    3    0    0 -0.45236283076E+01  0.22666646916E+02 -0.49103670597E+01  0.23629468898E+02  0.51100000000E-03 0. -1.
        -11    1    3    3    0    0  0.89362571297E+01  0.82956003139E+01 -0.33888645590E+01  0.12655357732E+02  0.51100000000E-03 0.  1.
        -12    1    3    3    0    0 -0.17948634615E+01  0.11291292475E+02 -0.12615511406E+01  0.11502448951E+02  0.00000000000E+00 0.  1.
</event>
<event>
 7    1  0.2732193E-010  0.4778726E+02  0.7816164E-02  0.1312668E+00
        -11   -1    0    0    0    0  0.00000000000E+00  0.00000000000E+00  0.45593999997E+02  0.45594000000E+02  0.51100000000E-03 0.  1.
         11   -1    0    0    0    0 -0.00000000000E+00 -0.00000000000E+00 -0.45593999997E+02  0.45594000000E+02  0.51100000000E-03 0. -1.
    9900012    2    1    2    0    0 -0.11044783403E+02  0.79917939039E+01 -0.41203979186E+02  0.47787263704E+02  0.19999966533E+02 0.  0.
        -12    1    1    2    0    0  0.11044783403E+02 -0.79917939039E+01  0.41203979186E+02  0.43400736296E+02  0.00000000000E+00 0.  1.
         11    1    3    3    0    0  0.38636358331E+01  0.45034821697E+01 -0.64705503206E+01  0.87793539179E+01  0.51100000000E-03 0. -1.
        -11    1    3    3    0    0 -0.29438672828E+01 -0.14241846438E+01 -0.20532790935E+01  0.38614261323E+01  0.51100000000E-03 0.  1.
         12    1    3    3    0    0 -0.11964551954E+02  0.49124963780E+01 -0.32680149772E+02  0.35146483654E+02  0.00000000000E+00 0. -1.
</event>
<event>
 7    1  0.2732193E-010  0.4778727E+02  0.7816164E-02  0.1312668E+00
        -11   -1    0    0    0    0  0.00000000000E+00  0.00000000000E+00  0.45593999997E+02  0.45594000000E+02  0.51100000000E-03 0.  1.
         11   -1    0    0    0    0 -0.00000000000E+00 -0.00000000000E+00 -0.45593999997E+02  0.45594000000E+02  0.51100000000E-03 0. -1.
    9900012    2    1    2    0    0  0.25696857522E+02 -0.35369971532E+01 -0.34796330335E+02  0.47787269128E+02  0.19999991264E+02 0.  0.
        -12    1    1    2    0    0 -0.25696857522E+02  0.35369971532E+01  0.34796330335E+02  0.43400730872E+02  0.00000000000E+00 0.  1.
         11    1    3    3    0    0  0.13722279157E+02  0.75675364059E+01 -0.13455440379E+02  0.20654719281E+02  0.51100000000E-03 0. -1.
        -11    1    3    3    0    0  0.45751228108E+01 -0.43273214431E+01 -0.11306760535E+02  0.12942190450E+02  0.51100000000E-03 0.  1.
         12    1    3    3    0    0  0.73994555542E+01 -0.67772121160E+01 -0.10034129422E+02  0.14190359397E+02  0.00000000000E+00 0. -1.
</event>
<event>
 7    1  0.2732193E-010  0.4778727E+02  0.7816164E-02  0.1312668E+00
        -11   -1    0    0    0    0  0.00000000000E+00  0.00000000000E+00  0.45593999997E+02  0.45594000000E+02  0.51100000000E-03 0. -1.
         11   -1    0    0    0    0 -0.00000000000E+00 -0.00000000000E+00 -0.45593999997E+02  0.45594000000E+02  0.51100000000E-03 0.  1.
    9900012    2    1    2    0    0 -0.18015642563E+02  0.85365026878E+01  0.38551109123E+02  0.47787271092E+02  0.20000000218E+02 0.  0.
        -12    1    1    2    0    0  0.18015642563E+02 -0.85365026878E+01 -0.38551109123E+02  0.43400728908E+02  0.00000000000E+00 0.  1.
         11    1    3    3    0    0 -0.44243778035E+01  0.40897327033E+01  0.11293746334E+02  0.12800380426E+02  0.51100000000E-03 0. -1.
        -11    1    3    3    0    0  0.26875358032E+01  0.67788838453E+00  0.12144765640E+02  0.12457034722E+02  0.51100000000E-03 0.  1.
        -12    1    3    3    0    0 -0.16278800562E+02  0.37688816000E+01  0.15112597149E+02  0.22529855944E+02  0.00000000000E+00 0.  1.
</event>
<event>
 7    1  0.2732193E-010  0.4778727E+02  0.7816164E-02  0.1312668E+00
        -11   -1    0    0    0    0  0.00000000000E+00  0.00000000000E+00  0.45593999997E+02  0.45594000000E+02  0.51100000000E-03 0.  1.
         11   -1    0    0    0    0 -0.00000000000E+00 -0.00000000000E+00 -0.45593999997E+02  0.45594000000E+02  0.51100000000E-03 0. -1.
    9900012    2    1    2    0    0  0.22304345045E+02 -0.25964880020E+02 -0.26682659834E+02  0.47787272608E+02  0.20000007129E+02 0.  0.
        -12    1    1    2    0    0 -0.22304345045E+02  0.25964880020E+02  0.26682659834E+02  0.43400727392E+02  0.00000000000E+00 0.  1.
         11    1    3    3    0    0  0.77889629249E+01 -0.34085896801E+01 -0.55528099838E+01  0.10154808025E+02  0.51100000000E-03 0. -1.
        -11    1    3    3    0    0  0.72965965490E+01 -0.78012508357E+01 -0.17969999789E+02  0.20905040743E+02  0.51100000000E-03 0.  1.
        -12    1    3    3    0    0  0.72187855712E+01 -0.14755039504E+02 -0.31598500610E+01  0.16727423840E+02  0.00000000000E+00 0.  1.
</event>
<event>
 7    1  0.2732193E-010  0.4778727E+02  0.7816164E-02  0.1312668E+00
        -11   -1    0    0    0    0  0.00000000000E+00  0.00000000000E+00  0.45593999997E+02  0.45594000000E+02  0.51100000000E-03 0. -1.
         11   -1    0    0    0    0 -0.00000000000E+00 -0.00000000000E+00 -0.45593999997E+02  0.45594000000E+02  0.51100000000E-03 0.  1.
    9900012    2    1    2    0    0  0.30103715239E+02 -0.22087984450E+02  0.22124878664E+02  0.47787274382E+02  0.20000015218E+02 0.  0.
        -12    1    1    2    0    0 -0.30103715239E+02  0.22087984450E+02 -0.22124878664E+02  0.43400725618E+02  0.00000000000E+00 0.  1.
         11    1    3    3    0    0  0.41826020508E+01 -0.56793294130E+01  0.25274567984E+01  0.74924615865E+01  0.51100000000E-03 0. -1.
        -11    1    3    3    0    0  0.20873091525E+02 -0.16486355026E+02  0.82074711544E+01  0.27836099491E+02  0.51100000000E-03 0.  1.
        -12    1    3    3    0    0  0.50480216629E+01  0.77699988801E-01  0.11389950712E+02  0.12458713305E+02  0.00000000000E+00 0.  1.
</event>
<event>
 7    1  0.2732193E-010  0.4778727E+02  0.7816164E-02  0.1312668E+00
        -11   -1    0    0    0    0  0.00000000000E+00  0.00000000000E+00  0.45593999997E+02  0.45594000000E+02  0.51100000000E-03 0. -1.
         11   -1    0    0    0    0 -0.00000000000E+00 -0.00000000000E+00 -0.45593999997E+02  0.45594000000E+02  0.51100000000E-03 0.  1.
    9900012    2    1    2    0    0 -0.15152213336E+02  0.22920949232E+02  0.33595587506E+02  0.47787274401E+02  0.20000015303E+02 0.  0.
        -12    1    1    2    0    0  0.15152213336E+02 -0.22920949232E+02 -0.33595587506E+02  0.43400725599E+02  0.00000000000E+00 0.  1.
         11    1    3    3    0    0 -0.43204622134E+01  0.16106822127E+01  0.11958504251E+02  0.12816649918E+02  0.51100000000E-03 0.  1.
        -11    1    3    3    0    0 -0.11587788115E+02  0.22322902812E+02  0.22236831328E+02  0.33571796067E+02  0.51100000000E-03 0. -1.
        -12    1    3    3    0    0  0.75603699304E+00 -0.10126357937E+01 -0.59974807325E+00  0.13988284158E+01  0.00000000000E+00 0.  1.
</event>
<event>
 7    1  0.2732193E-010  0.4778727E+02  0.7816164E-02  0.1312668E+00
        -11   -1    0    0    0    0  0.00000000000E+00  0.00000000000E+00  0.45593999997E+02  0.45594000000E+02  0.51100000000E-03 0.  1.
         11   -1    0    0    0    0 -0.00000000000E+00 -0.00000000000E+00 -0.45593999997E+02  0.45594000000E+02  0.51100000000E-03 0. -1.
    9900012    2    1    2    0    0  0.16235329100E+02 -0.39587763958E+02 -0.72695543738E+01  0.47787269741E+02  0.19999994057E+02 0.  0.
        -12    1    1    2    0    0 -0.16235329100E+02  0.39587763958E+02  0.72695543738E+01  0.43400730259E+02  0.00000000000E+00 0.  1.
         11    1    3    3    0    0  0.72177877241E+01 -0.29576634372E+02 -0.91427099611E+01  0.31787779194E+02  0.51100000000E-03 0. -1.
        -11    1    3    3    0    0  0.70406877509E+01 -0.39345795607E+01  0.43289655105E+01  0.91538048362E+01  0.51100000000E-03 0.  1.
        -12    1    3    3    0    0  0.19768536254E+01 -0.60765500256E+01 -0.24558099232E+01  0.68456857107E+01  0.00000000000E+00 0.  1.
</event>
<event>
 7    1  0.2732193E-010  0.4778727E+02  0.7816164E-02  0.1312668E+00
        -11   -1    0    0    0    0  0.00000000000E+00  0.00000000000E+00  0.45593999997E+02  0.45594000000E+02  0.51100000000E-03 0. -1.
         11   -1    0    0    0    0 -0.00000000000E+00 -0.00000000000E+00 -0.45593999997E+02  0.45594000000E+02  0.51100000000E-03 0.  1.
    9900012    2    1    2    0    0 -0.33244721900E+02  0.16805718013E+02  0.22270607809E+02  0.47787266547E+02  0.19999979493E+02 0.  0.
        -12    1    1    2    0    0  0.33244721900E+02 -0.16805718013E+02 -0.22270607809E+02  0.43400733453E+02  0.00000000000E+00 0.  1.
         11    1    3    3    0    0 -0.19601028778E+02  0.12983944212E+02  0.14395590720E+02  0.27568390756E+02  0.51100000000E-03 0. -1.
        -11    1    3    3    0    0 -0.60621817518E+01  0.59245564508E+00 -0.28242579468E+01  0.67139768018E+01  0.51100000000E-03 0.  1.
         12    1    3    3    0    0 -0.75815113697E+01  0.32293181564E+01  0.10699275035E+02  0.13504898989E+02  0.00000000000E+00 0. -1.
</event>
<event>
 7    1  0.2732193E-010  0.4778727E+02  0.7816164E-02  0.1312668E+00
        -11   -1    0    0    0    0  0.00000000000E+00  0.00000000000E+00  0.45593999997E+02  0.45594000000E+02  0.51100000000E-03 0.  1.
         11   -1    0    0    0    0 -0.00000000000E+00 -0.00000000000E+00 -0.45593999997E+02  0.45594000000E+02  0.51100000000E-03 0. -1.
    9900012    2    1    2    0    0  0.20776601635E+01 -0.19787597900E+02 -0.38571464587E+02  0.47787267485E+02  0.19999983771E+02 0.  0.
        -12    1    1    2    0    0 -0.20776601635E+01  0.19787597900E+02  0.38571464587E+02  0.43400732515E+02  0.00000000000E+00 0.  1.
         11    1    3    3    0    0  0.35834720650E+00 -0.73835508349E+01 -0.83684866891E+01  0.11165876830E+02  0.51100000000E-03 0. -1.
        -11    1    3    3    0    0  0.36787879096E+01 -0.15305139970E+02 -0.28856323532E+02  0.32870476085E+02  0.51100000000E-03 0.  1.
        -12    1    3    3    0    0 -0.19594749526E+01  0.29010929048E+01 -0.13466543664E+01  0.37509145705E+01  0.00000000000E+00 0.  1.
</event>
<event>
 7    1  0.2732193E-010  0.4778727E+02  0.7816164E-02  0.1312668E+00
        -11   -1    0    0    0    0  0.00000000000E+00  0.00000000000E+00  0.45593999997E+02  0.45594000000E+02  0.51100000000E-03 0.  1.
         11   -1    0    0    0    0 -0.00000000000E+00 -0.00000000000E+00 -0.45593999997E+02  0.45594000000E+02  0.51100000000E-03 0. -1.
    9900012    2    1    2    0    0 -0.26124561904E+02  0.28998117992E+02 -0.18979983707E+02  0.47787270014E+02  0.19999995303E+02 0.  0.
        -12    1    1    2    0    0  0.26124561904E+02 -0.28998117992E+02  0.18979983707E+02  0.43400729986E+02  0.00000000000E+00 0.  1.
         11    1    3    3    0    0 -0.18915207052E+02  0.23673871979E+02 -0.13099269202E+02  0.33012544982E+02  0.51100000000E-03 0. -1.
        -11    1    3    3    0    0 -0.41056929632E+01 -0.81785229974E+00 -0.66417872721E+01  0.78510467787E+01  0.51100000000E-03 0.  1.
         12    1    3    3    0    0 -0.31036618889E+01  0.61420983129E+01  0.76107276684E+00  0.69236782539E+01  0.00000000000E+00 0. -1.
</event>
<event>
 7    1  0.2732193E-010  0.4778729E+02  0.7816164E-02  0.1312668E+00
        -11   -1    0    0    0    0  0.00000000000E+00  0.00000000000E+00  0.45593999997E+02  0.45594000000E+02  0.51100000000E-03 0.  1.
         11   -1    0    0    0    0 -0.00000000000E+00 -0.00000000000E+00 -0.45593999997E+02  0.45594000000E+02  0.51100000000E-03 0. -1.
    9900012    2    1    2    0    0  0.30511482634E+02  0.29794110105E+02 -0.80611238962E+01  0.47787293923E+02  0.20000104312E+02 0.  0.
        -12    1    1    2    0    0 -0.30511482634E+02 -0.29794110105E+02  0.80611238962E+01  0.43400706077E+02  0.00000000000E+00 0.  1.
         11    1    3    3    0    0  0.24712668185E+02  0.14013164643E+02 -0.85773981987E+01  0.29675857398E+02  0.51100000000E-03 0. -1.
        -11    1    3    3    0    0 -0.13834415523E+01  0.15446783108E+01  0.62460745270E+00  0.21656584088E+01  0.51100000000E-03 0.  1.
         12    1    3    3    0    0  0.71822560012E+01  0.14236267151E+02 -0.10833315014E+00  0.15945778116E+02  0.00000000000E+00 0. -1.
</event>
<event>
 7    1  0.2732193E-010  0.4778727E+02  0.7816164E-02  0.1312668E+00
        -11   -1    0    0    0    0  0.00000000000E+00  0.00000000000E+00  0.45593999997E+02  0.45594000000E+02  0.51100000000E-03 0.  1.
         11   -1    0    0    0    0 -0.00000000000E+00 -0.00000000000E+00 -0.45593999997E+02  0.45594000000E+02  0.51100000000E-03 0. -1.
    9900012    2    1    2    0    0 -0.31184563175E+02  0.24336920132E+02 -0.17856668085E+02  0.47787271238E+02  0.20000000883E+02 0.  0.
        -12    1    1    2    0    0  0.31184563175E+02 -0.24336920132E+02  0.17856668085E+02  0.43400728762E+02  0.00000000000E+00 0.  1.
         11    1    3    3    0    0  0.12882718427E+01 -0.91628028674E+00 -0.22053690455E+01  0.27134602986E+01  0.51100000000E-03 0. -1.
        -11    1    3    3    0    0 -0.38314411673E+01  0.18177336722E+01 -0.50161001384E+01  0.65685126156E+01  0.51100000000E-03 0.  1.
         12    1    3    3    0    0 -0.28641393851E+02  0.23435466747E+02 -0.10635198901E+02  0.38505298324E+02  0.00000000000E+00 0. -1.
</event>
<event>
 7    1  0.2732193E-010  0.4778727E+02  0.7816164E-02  0.1312668E+00
        -11   -1    0    0    0    0  0.00000000000E+00  0.00000000000E+00  0.45593999997E+02  0.45594000000E+02  0.51100000000E-03 0.  1.
         11   -1    0    0    0    0 -0.00000000000E+00 -0.00000000000E+00 -0.45593999997E+02  0.45594000000E+02  0.51100000000E-03 0. -1.
    9900012    2    1    2    0    0 -0.40505309993E+02 -0.18105408544E+01 -0.15481118029E+02  0.47787271766E+02  0.20000003291E+02 0.  0.
        -12    1    1    2    0    0  0.40505309993E+02  0.18105408544E+01  0.15481118029E+02  0.43400728234E+02  0.00000000000E+00 0.  1.
         11    1    3    3    0    0 -0.19766530339E+02  0.36009980651E+01 -0.13897029086E+02  0.24429701725E+02  0.51100000000E-03 0. -1.
        -11    1    3    3    0    0 -0.13112602886E+02 -0.62144279264E+01  0.24131621976E+01  0.14709956525E+02  0.51100000000E-03 0.  1.
        -12    1    3    3    0    0 -0.76261767675E+01  0.80288900694E+00 -0.39972511412E+01  0.86476135166E+01  0.00000000000E+00 0.  1.
</event>
<event>
 7    1  0.2732193E-010  0.4778727E+02  0.7816164E-02  0.1312668E+00
        -11   -1    0    0    0    0  0.00000000000E+00  0.00000000000E+00  0.45593999997E+02  0.45594000000E+02  0.51100000000E-03 0.  1.
         11   -1    0    0    0    0 -0.00000000000E+00 -0.00000000000E+00 -0.45593999997E+02  0.45594000000E+02  0.51100000000E-03 0. -1.
    9900012    2    1    2    0    0 -0.30693273669E+02 -0.30674447457E+02  0.79020721000E+00  0.47787271864E+02  0.20000003739E+02 0.  0.
        -12    1    1    2    0    0  0.30693273669E+02  0.30674447457E+02 -0.79020721000E+00  0.43400728136E+02  0.00000000000E+00 0.  1.
         11    1    3    3    0    0 -0.26436960349E+02 -0.23921247962E+02  0.59965980775E+01  0.36153812598E+02  0.51100000000E-03 0. -1.
        -11    1    3    3    0    0  0.11293861349E+01  0.28920142617E+00  0.29108136536E+00  0.12016152167E+01  0.51100000000E-03 0.  1.
         12    1    3    3    0    0 -0.53856994542E+01 -0.70424009205E+01 -0.54974722328E+01  0.10431844050E+02  0.00000000000E+00 0. -1.
</event>
<event>
 7    1  0.2732193E-010  0.4778727E+02  0.7816164E-02  0.1312668E+00
        -11   -1    0    0    0    0  0.00000000000E+00  0.00000000000E+00  0.45593999997E+02  0.45594000000E+02  0.51100000000E-03 0.  1.
         11   -1    0    0    0    0 -0.00000000000E+00 -0.00000000000E+00 -0.45593999997E+02  0.45594000000E+02  0.51100000000E-03 0. -1.
    9900012    2    1    2    0    0 -0.24369947282E+02 -0.17351645946E+02 -0.31442793370E+02  0.47787271867E+02  0.20000003749E+02 0.  0.
        -12    1    1    2    0    0  0.24369947282E+02  0.17351645946E+02  0.31442793370E+02  0.43400728133E+02  0.00000000000E+00 0.  1.
         11    1    3    3    0    0 -0.85378252282E+01  0.36830579307E+00 -0.16860785660E+02  0.18902809371E+02  0.51100000000E-03 0. -1.
        -11    1    3    3    0    0 -0.85010992540E+01 -0.12414814124E+02 -0.53824987896E+01  0.15980225021E+02  0.51100000000E-03 0.  1.
         12    1    3    3    0    0 -0.73310228003E+01 -0.53051376150E+01 -0.91995089211E+01  0.12904237475E+02  0.00000000000E+00 0. -1.
</event>
<event>
 7    1  0.2732193E-010  0.4778727E+02  0.7816164E-02  0.1312668E+00
        -11   -1    0    0    0    0  0.00000000000E+00  0.00000000000E+00  0.45593999997E+02  0.45594000000E+02  0.51100000000E-03 0. -1.
         11   -1    0    0    0    0 -0.00000000000E+00 -0.00000000000E+00 -0.45593999997E+02  0.45594000000E+02  0.51100000000E-03 0.  1.
    9900012    2    1    2    0    0 -0.82216421485E-01  0.40205021525E+02  0.16345412796E+02  0.47787273798E+02  0.20000012554E+02 0.  0.
        -12    1    1    2    0    0  0.82216421485E-01 -0.40205021525E+02 -0.16345412796E+02  0.43400726202E+02  0.00000000000E+00 0.  1.
         11    1    3    3    0    0 -0.28181520371E+01  0.38356501564E+02  0.15042222791E+02  0.41296872277E+02  0.51100000000E-03 0. -1.
        -11    1    3    3    0    0  0.16564550575E+01 -0.74404756441E+00 -0.16223859510E+01  0.24350742433E+01  0.51100000000E-03 0.  1.
         12    1    3    3    0    0  0.10794805581E+01  0.25925675259E+01  0.29255759556E+01  0.40553272770E+01  0.00000000000E+00 0. -1.
</event>
<event>
 7    1  0.2732193E-010  0.4778726E+02  0.7816164E-02  0.1312668E+00
        -11   -1    0    0    0    0  0.00000000000E+00  0.00000000000E+00  0.45593999997E+02  0.45594000000E+02  0.51100000000E-03 0.  1.
         11   -1    0    0    0    0 -0.00000000000E+00 -0.00000000000E+00 -0.45593999997E+02  0.45594000000E+02  0.51100000000E-03 0. -1.
    9900012    2    1    2    0    0 -0.55430239976E+01  0.81802547558E+01 -0.42260883893E+02  0.47787262791E+02  0.19999962368E+02 0.  0.
        -12    1    1    2    0    0  0.55430239976E+01 -0.81802547558E+01  0.42260883893E+02  0.43400737209E+02  0.00000000000E+00 0.  1.
         11    1    3    3    0    0 -0.56436931332E+00  0.29211543261E+01 -0.24030111305E+01  0.38244108138E+01  0.51100000000E-03 0.  1.
        -11    1    3    3    0    0  0.61111520974E+01 -0.75884341716E-01 -0.10857990966E+02  0.12459851783E+02  0.51100000000E-03 0. -1.
        -12    1    3    3    0    0 -0.11089806782E+02  0.53349847715E+01 -0.28999881797E+02  0.31503000193E+02  0.00000000000E+00 0.  1.
</event>
<event>
 7    1  0.2732193E-010  0.4778727E+02  0.7816164E-02  0.1312668E+00
        -11   -1    0    0    0    0  0.00000000000E+00  0.00000000000E+00  0.45593999997E+02  0.45594000000E+02  0.51100000000E-03 0. -1.
         11   -1    0    0    0    0 -0.00000000000E+00 -0.00000000000E+00 -0.45593999997E+02  0.45594000000E+02  0.51100000000E-03 0.  1.
    9900012    2    1    2    0    0 -0.90595294918E+01 -0.41480446771E+02  0.89956127523E+01  0.47787267429E+02  0.19999983516E+02 0.  0.
        -12    1    1    2    0    0  0.90595294918E+01  0.41480446771E+02 -0.89956127523E+01  0.43400732571E+02  0.00000000000E+00 0.  1.
         11    1    3    3    0    0 -0.10295363225E+02 -0.26033446067E+02  0.21342625565E+01  0.28076500761E+02  0.51100000000E-03 0. -1.
        -11    1    3    3    0    0 -0.36324556558E+01 -0.25046210479E+01  0.34831129707E+00  0.44259667538E+01  0.51100000000E-03 0.  1.
         12    1    3    3    0    0  0.48682893885E+01 -0.12942379655E+02  0.65130388987E+01  0.15284799914E+02  0.00000000000E+00 0. -1.
</event>
<event>
 7    1  0.2732193E-010  0.4778728E+02  0.7816164E-02  0.1312668E+00
        -11   -1    0    0    0    0  0.00000000000E+00  0.00000000000E+00  0.45593999997E+02  0.45594000000E+02  0.51100000000E-03 0.  1.
         11   -1    0    0    0    0 -0.00000000000E+00 -0.00000000000E+00 -0.45593999997E+02  0.45594000000E+02  0.51100000000E-03 0. -1.
    9900012    2    1    2    0    0  0.23015396096E+02 -0.11990461580E+02 -0.34787112365E+02  0.47787276353E+02  0.20000024205E+02 0.  0.
        -12    1    1    2    0    0 -0.23015396096E+02  0.11990461580E+02  0.34787112365E+02  0.43400723647E+02  0.00000000000E+00 0.  1.
         11    1    3    3    0    0  0.18373337862E+02 -0.43007076204E+01 -0.19123677391E+02  0.26866162127E+02  0.51100000000E-03 0. -1.
        -11    1    3    3    0    0  0.77788348316E+01 -0.50068216497E+01 -0.80600907972E+01  0.12269620951E+02  0.51100000000E-03 0.  1.
         12    1    3    3    0    0 -0.31367765980E+01 -0.26829323098E+01 -0.76033441769E+01  0.86514932744E+01  0.00000000000E+00 0. -1.
</event>
<event>
 7    1  0.2732193E-010  0.4778727E+02  0.7816164E-02  0.1312668E+00
        -11   -1    0    0    0    0  0.00000000000E+00  0.00000000000E+00  0.45593999997E+02  0.45594000000E+02  0.51100000000E-03 0.  1.
         11   -1    0    0    0    0 -0.00000000000E+00 -0.00000000000E+00 -0.45593999997E+02  0.45594000000E+02  0.51100000000E-03 0. -1.
    9900012    2    1    2    0    0  0.30246889158E+02  0.16278121542E+02 -0.26528697444E+02  0.47787270366E+02  0.19999996905E+02 0.  0.
        -12    1    1    2    0    0 -0.30246889158E+02 -0.16278121542E+02  0.26528697444E+02  0.43400729634E+02  0.00000000000E+00 0.  1.
         11    1    3    3    0    0  0.51413268006E+01  0.35106481955E+01 -0.14223551484E+01  0.63859992525E+01  0.51100000000E-03 0. -1.
        -11    1    3    3    0    0  0.15315910479E+02  0.14932113010E+02 -0.10883881192E+02  0.24000082975E+02  0.51100000000E-03 0.  1.
        -12    1    3    3    0    0  0.97896518788E+01 -0.21646396632E+01 -0.14222461104E+02  0.17401188138E+02  0.00000000000E+00 0.  1.
</event>
<event>
 7    1  0.2732193E-010  0.4778730E+02  0.7816164E-02  0.1312668E+00
        -11   -1    0    0    0    0  0.00000000000E+00  0.00000000000E+00  0.45593999997E+02  0.45594000000E+02  0.51100000000E-03 0.  1.
         11   -1    0    0    0    0 -0.00000000000E+00 -0.00000000000E+00 -0.45593999997E+02  0.45594000000E+02  0.51100000000E-03 0. -1.
    9900012    2    1    2    0    0  0.38331821250E+02  0.18669392167E+01  0.20268364255E+02  0.47787302172E+02  0.20000141922E+02 0.  0.
        -12    1    1    2    0    0 -0.38331821250E+02 -0.18669392167E+01 -0.20268364255E+02  0.43400697828E+02  0.00000000000E+00 0.  1.
         11    1    3    3    0    0  0.34831328386E+02  0.49757605494E+01  0.12725777592E+02  0.37415572236E+02  0.51100000000E-03 0. -1.
        -11    1    3    3    0    0 -0.13303386759E+01 -0.12718286486E+01  0.12316795805E+01  0.22145843750E+01  0.51100000000E-03 0.  1.
         12    1    3    3    0    0  0.48308315398E+01 -0.18369926841E+01  0.63109070827E+01  0.81571455604E+01  0.00000000000E+00 0. -1.
</event>
<event>
 7    1  0.2732193E-010  0.4778727E+02  0.7816164E-02  0.1312668E+00
        -11   -1    0    0    0    0  0.00000000000E+00  0.00000000000E+00  0.45593999997E+02  0.45594000000E+02  0.51100000000E-03 0.  1.
         11   -1    0    0    0    0 -0.00000000000E+00 -0.00000000000E+00 -0.45593999997E+02  0.45594000000E+02  0.51100000000E-03 0. -1.
    9900012    2    1    2    0    0  0.40994254695E+02  0.18862668002E+01 -0.14125734607E+02  0.47787270759E+02  0.19999998699E+02 0.  0.
        -12    1    1    2    0    0 -0.40994254695E+02 -0.18862668002E+01  0.14125734607E+02  0.43400729241E+02  0.00000000000E+00 0.  1.
         11    1    3    3    0    0  0.30445709102E+02  0.50756487180E+01 -0.26349135842E+01  0.30978156538E+02  0.51100000000E-03 0. -1.
        -11    1    3    3    0    0  0.33134787334E+01 -0.60898530461E+00 -0.73438542710E+01  0.80797401092E+01  0.51100000000E-03 0.  1.
        -12    1    3    3    0    0  0.72350668599E+01 -0.25803966132E+01 -0.41469667522E+01  0.87293741123E+01  0.00000000000E+00 0.  1.
</event>
<event>
 7    1  0.2732193E-010  0.4778727E+02  0.7816164E-02  0.1312668E+00
        -11   -1    0    0    0    0  0.00000000000E+00  0.00000000000E+00  0.45593999997E+02  0.45594000000E+02  0.51100000000E-03 0.  1.
         11   -1    0    0    0    0 -0.00000000000E+00 -0.00000000000E+00 -0.45593999997E+02  0.45594000000E+02  0.51100000000E-03 0. -1.
    9900012    2    1    2    0    0 -0.68647461711E+01  0.14693966647E+02 -0.40256503080E+02  0.47787269176E+02  0.19999991481E+02 0.  0.
        -12    1    1    2    0    0  0.68647461711E+01 -0.14693966647E+02  0.40256503080E+02  0.43400730824E+02  0.00000000000E+00 0.  1.
         11    1    3    3    0    0 -0.11373391457E+02  0.36310914708E+01 -0.20810133130E+02  0.23991675632E+02  0.51100000000E-03 0. -1.
        -11    1    3    3    0    0  0.60237192983E+01  0.63043070645E+01 -0.12277416588E+02  0.15058699814E+02  0.51100000000E-03 0.  1.
         12    1    3    3    0    0 -0.15150740127E+01  0.47585681120E+01 -0.71689533621E+01  0.87368937300E+01  0.00000000000E+00 0. -1.
</event>
<event>
 7    1  0.2732193E-010  0.4778727E+02  0.7816164E-02  0.1312668E+00
        -11   -1    0    0    0    0  0.00000000000E+00  0.00000000000E+00  0.45593999997E+02  0.45594000000E+02  0.51100000000E-03 0. -1.
         11   -1    0    0    0    0 -0.00000000000E+00 -0.00000000000E+00 -0.45593999997E+02  0.45594000000E+02  0.51100000000E-03 0.  1.
    9900012    2    1    2    0    0 -0.20837801418E+02 -0.24802974401E+02  0.28882896371E+02  0.47787271782E+02  0.20000003365E+02 0.  0.
        -12    1    1    2    0    0  0.20837801418E+02  0.24802974401E+02 -0.28882896371E+02  0.43400728218E+02  0.00000000000E+00 0.  1.
         11    1    3    3    0    0 -0.18873824278E+01 -0.22393146955E+01  0.22766190944E+01  0.37094120149E+01  0.51100000000E-03 0. -1.
        -11    1    3    3    0    0 -0.10879480987E+02 -0.18079733844E+02  0.27655023095E+02  0.34785631877E+02  0.51100000000E-03 0.  1.
        -12    1    3    3    0    0 -0.80709380031E+01 -0.44839258614E+01 -0.10487458188E+01  0.92922278907E+01  0.00000000000E+00 0.  1.
</event>
<event>
 7    1  0.2732193E-010  0.4778727E+02  0.7816164E-02  0.1312668E+00
        -11   -1    0    0    0    0  0.00000000000E+00  0.00000000000E+00  0.45593999997E+02  0.45594000000E+02  0.51100000000E-03 0.  1.
         11   -1    0    0    0    0 -0.00000000000E+00 -0.00000000000E+00 -0.45593999997E+02  0.45594000000E+02  0.51100000000E-03 0. -1.
    9900012    2    1    2    0    0 -0.18677009787E+02 -0.25590875906E+02 -0.29663107045E+02  0.47787267935E+02  0.19999985823E+02 0.  0.
        -12    1    1    2    0    0  0.18677009787E+02  0.25590875906E+02  0.29663107045E+02  0.43400732065E+02  0.00000000000E+00 0.  1.
         11    1    3    3    0    0 -0.69373049153E+00 -0.11858142049E+02 -0.78154794075E+01  0.14218949099E+02  0.51100000000E-03 0. -1.
        -11    1    3    3    0    0 -0.13629068360E+02 -0.63899093947E+01 -0.73671853512E+01  0.16758814597E+02  0.51100000000E-03 0.  1.
        -12    1    3    3    0    0 -0.43542109348E+01 -0.73428244624E+01 -0.14480442287E+02  0.16809504239E+02  0.00000000000E+00 0.  1.
</event>
<event>
 7    1  0.2732193E-010  0.4778725E+02  0.7816164E-02  0.1312668E+00
        -11   -1    0    0    0    0  0.00000000000E+00  0.00000000000E+00  0.45593999997E+02  0.45594000000E+02  0.51100000000E-03 0.  1.
         11   -1    0    0    0    0 -0.00000000000E+00 -0.00000000000E+00 -0.45593999997E+02  0.45594000000E+02  0.51100000000E-03 0. -1.
    9900012    2    1    2    0    0 -0.34050407953E+02 -0.22281689373E+02 -0.15090439457E+02  0.47787247402E+02  0.19999892203E+02 0.  0.
        -12    1    1    2    0    0  0.34050407953E+02  0.22281689373E+02  0.15090439457E+02  0.43400752598E+02  0.00000000000E+00 0.  1.
         11    1    3    3    0    0 -0.18006196180E+02 -0.22000185655E+02 -0.58254212953E+01  0.29020110324E+02  0.51100000000E-03 0. -1.
        -11    1    3    3    0    0 -0.97009432195E+01 -0.16107500222E+01 -0.53372357550E+01  0.11188784597E+02  0.51100000000E-03 0.  1.
         12    1    3    3    0    0 -0.63432685543E+01  0.13292463042E+01 -0.39277824070E+01  0.75783524810E+01  0.00000000000E+00 0. -1.
</event>
<event>
 7    1  0.2732193E-010  0.4778727E+02  0.7816164E-02  0.1312668E+00
        -11   -1    0    0    0    0  0.00000000000E+00  0.00000000000E+00  0.45593999997E+02  0.45594000000E+02  0.51100000000E-03 0. -1.
         11   -1    0    0    0    0 -0.00000000000E+00 -0.00000000000E+00 -0.45593999997E+02  0.45594000000E+02  0.51100000000E-03 0.  1.
    9900012    2    1    2    0    0  0.79867084760E+01  0.39764114025E+02  0.15448343669E+02  0.47787267304E+02  0.19999982944E+02 0.  0.
        -12    1    1    2    0    0 -0.79867084760E+01 -0.39764114025E+02 -0.15448343669E+02  0.43400732696E+02  0.00000000000E+00 0.  1.
         11    1    3    3    0    0 -0.29138989326E+01  0.19518026669E+01 -0.15920011727E+01  0.38515981923E+01  0.51100000000E-03 0. -1.
        -11    1    3    3    0    0  0.37392925473E+01  0.20203498065E+02  0.41323617197E+01  0.20958054692E+02  0.51100000000E-03 0.  1.
         12    1    3    3    0    0  0.71613148613E+01  0.17608813293E+02  0.12907983122E+02  0.22977614420E+02  0.00000000000E+00 0. -1.
</event>
<event>
 7    1  0.2732193E-010  0.4778727E+02  0.7816164E-02  0.1312668E+00
        -11   -1    0    0    0    0  0.00000000000E+00  0.00000000000E+00  0.45593999997E+02  0.45594000000E+02  0.51100000000E-03 0. -1.
         11   -1    0    0    0    0 -0.00000000000E+00 -0.00000000000E+00 -0.45593999997E+02  0.45594000000E+02  0.51100000000E-03 0.  1.
    9900012    2    1    2    0    0 -0.17648701032E+02  0.34529967616E+02  0.19489179638E+02  0.47787269192E+02  0.19999991553E+02 0.  0.
        -12    1    1    2    0    0  0.17648701032E+02 -0.34529967616E+02 -0.19489179638E+02  0.43400730808E+02  0.00000000000E+00 0.  1.
         11    1    3    3    0    0 -0.11721837899E+02  0.30345408265E+02  0.15045218966E+02  0.35841371353E+02  0.51100000000E-03 0. -1.
        -11    1    3    3    0    0 -0.31557739513E-01  0.14860429917E+00  0.47906074889E+01  0.47930157003E+01  0.51100000000E-03 0.  1.
         12    1    3    3    0    0 -0.58953053934E+01  0.40359550524E+01 -0.34664681695E+00  0.71528821381E+01  0.00000000000E+00 0. -1.
</event>
<event>
 7    1  0.2732193E-010  0.4778728E+02  0.7816164E-02  0.1312668E+00
        -11   -1    0    0    0    0  0.00000000000E+00  0.00000000000E+00  0.45593999997E+02  0.45594000000E+02  0.51100000000E-03 0.  1.
         11   -1    0    0    0    0 -0.00000000000E+00 -0.00000000000E+00 -0.45593999997E+02  0.45594000000E+02  0.51100000000E-03 0. -1.
    9900012    2    1    2    0    0 -0.86883333722E+01  0.57244555310E+01 -0.42135094668E+02  0.47787277303E+02  0.20000028535E+02 0.  0.
        -12    1    1    2    0    0  0.86883333722E+01 -0.57244555310E+01  0.42135094668E+02  0.43400722697E+02  0.00000000000E+00 0.  1.
         11    1    3    3    0    0 -0.40425451821E+01  0.11473910527E+02 -0.18157578183E+02  0.21856130492E+02  0.51100000000E-03 0.  1.
        -11    1    3    3    0    0 -0.11959277348E+01 -0.32110651949E+01 -0.19247308838E+02  0.19549938123E+02  0.51100000000E-03 0. -1.
        -12    1    3    3    0    0 -0.34498604553E+01 -0.25383898011E+01 -0.47302076470E+01  0.63812086886E+01  0.00000000000E+00 0.  1.
</event>
<event>
 7    1  0.2732193E-010  0.4778727E+02  0.7816164E-02  0.1312668E+00
        -11   -1    0    0    0    0  0.00000000000E+00  0.00000000000E+00  0.45593999997E+02  0.45594000000E+02  0.51100000000E-03 0.  1.
         11   -1    0    0    0    0 -0.00000000000E+00 -0.00000000000E+00 -0.45593999997E+02  0.45594000000E+02  0.51100000000E-03 0. -1.
    9900012    2    1    2    0    0  0.27293689154E+01  0.10974584981E+02 -0.41901464757E+02  0.47787265916E+02  0.19999976618E+02 0.  0.
        -12    1    1    2    0    0 -0.27293689154E+01 -0.10974584981E+02  0.41901464757E+02  0.43400734084E+02  0.00000000000E+00 0.  1.
         11    1    3    3    0    0 -0.23470417640E+01  0.61037764389E+01 -0.54032416607E+01  0.84829070821E+01  0.51100000000E-03 0. -1.
        -11    1    3    3    0    0  0.18103983228E+01 -0.42600193465E+01 -0.15473762361E+02  0.16151242329E+02  0.51100000000E-03 0.  1.
        -12    1    3    3    0    0  0.32660123566E+01  0.91308278890E+01 -0.21024460736E+02  0.23153116505E+02  0.00000000000E+00 0.  1.
</event>
<event>
 7    1  0.2732193E-010  0.4778727E+02  0.7816164E-02  0.1312668E+00
        -11   -1    0    0    0    0  0.00000000000E+00  0.00000000000E+00  0.45593999997E+02  0.45594000000E+02  0.51100000000E-03 0.  1.
         11   -1    0    0    0    0 -0.00000000000E+00 -0.00000000000E+00 -0.45593999997E+02  0.45594000000E+02  0.51100000000E-03 0. -1.
    9900012    2    1    2    0    0  0.75371883498E+01  0.41729685244E+02 -0.92437872159E+01  0.47787269121E+02  0.19999991229E+02 0.  0.
        -12    1    1    2    0    0 -0.75371883498E+01 -0.41729685244E+02  0.92437872159E+01  0.43400730879E+02  0.00000000000E+00 0.  1.
         11    1    3    3    0    0  0.64296246483E+01  0.32714178891E+02 -0.40133290412E+01  0.33580714464E+02  0.51100000000E-03 0. -1.
        -11    1    3    3    0    0  0.49167311224E+01  0.31209964269E+01 -0.40408578677E+01  0.70882576276E+01  0.51100000000E-03 0.  1.
         12    1    3    3    0    0 -0.38091674209E+01  0.58945099256E+01 -0.11896003070E+01  0.71182970290E+01  0.00000000000E+00 0. -1.
</event>
<event>
 7    1  0.2732193E-010  0.4778727E+02  0.7816164E-02  0.1312668E+00
        -11   -1    0    0    0    0  0.00000000000E+00  0.00000000000E+00  0.45593999997E+02  0.45594000000E+02  0.51100000000E-03 0. -1.
         11   -1    0    0    0    0 -0.00000000000E+00 -0.00000000000E+00 -0.45593999997E+02  0.45594000000E+02  0.51100000000E-03 0.  1.
    9900012    2    1    2    0    0 -0.42356333428E+02  0.90274871156E+01 -0.28406346204E+01  0.47787266018E+02  0.19999977083E+02 0.  0.
        -12    1    1    2    0    0  0.42356333428E+02 -0.90274871156E+01  0.28406346204E+01  0.43400733982E+02  0.00000000000E+00 0.  1.
         11    1    3    3    0    0 -0.17175659901E+02 -0.51069115577E+01  0.19063130955E-01  0.17918822572E+02  0.51100000000E-03 0. -1.
        -11    1    3    3    0    0 -0.25198611365E+02  0.14604791763E+02 -0.31813513192E+01  0.29298309741E+02  0.51100000000E-03 0.  1.
        -12    1    3    3    0    0  0.17937838175E-01 -0.47039308937E+00  0.32165356783E+00  0.57013370560E+00  0.00000000000E+00 0.  1.
</event>
<event>
 7    1  0.2732193E-010  0.4778727E+02  0.7816164E-02  0.1312668E+00
        -11   -1    0    0    0    0  0.00000000000E+00  0.00000000000E+00  0.45593999997E+02  0.45594000000E+02  0.51100000000E-03 0.  1.
         11   -1    0    0    0    0 -0.00000000000E+00 -0.00000000000E+00 -0.45593999997E+02  0.45594000000E+02  0.51100000000E-03 0. -1.
    9900012    2    1    2    0    0  0.33724619894E+00 -0.38810521788E+02 -0.19422998730E+02  0.47787271709E+02  0.20000003031E+02 0.  0.
        -12    1    1    2    0    0 -0.33724619894E+00  0.38810521788E+02  0.19422998730E+02  0.43400728291E+02  0.00000000000E+00 0.  1.
         11    1    3    3    0    0 -0.55379942398E+01 -0.16086193122E+02 -0.12479366578E+02  0.21099042153E+02  0.51100000000E-03 0. -1.
        -11    1    3    3    0    0  0.85899568701E+01 -0.13474059376E+02 -0.57118155041E+01  0.16969457025E+02  0.51100000000E-03 0.  1.
         12    1    3    3    0    0 -0.27147164314E+01 -0.92502692907E+01 -0.12318166484E+01  0.97187725310E+01  0.00000000000E+00 0. -1.
</event>
<event>
 7    1  0.2732193E-010  0.4778727E+02  0.7816164E-02  0.1312668E+00
        -11   -1    0    0    0    0  0.00000000000E+00  0.00000000000E+00  0.45593999997E+02  0.45594000000E+02  0.51100000000E-03 0. -1.
         11   -1    0    0    0    0 -0.00000000000E+00 -0.00000000000E+00 -0.45593999997E+02  0.45594000000E+02  0.51100000000E-03 0.  1.
    9900012    2    1    2    0    0 -0.30760970699E+02  0.30602988539E+02 -0.91820799524E+00  0.47787270377E+02  0.19999996957E+02 0.  0.
        -12    1    1    2    0    0  0.30760970699E+02 -0.30602988539E+02  0.91820799524E+00  0.43400729623E+02  0.00000000000E+00 0.  1.
         11    1    3    3    0    0 -0.10141637670E+02  0.44252866493E+01  0.53235046618E+01  0.12279074831E+02  0.51100000000E-03 0. -1.
        -11    1    3    3    0    0 -0.17618608369E+02  0.20500676011E+02 -0.90410892146E+01  0.28503234417E+02  0.51100000000E-03 0.  1.
         12    1    3    3    0    0 -0.30007246605E+01  0.56770258785E+01  0.27993765575E+01  0.70049611294E+01  0.00000000000E+00 0. -1.
</event>
<event>
 7    1  0.2732193E-010  0.4778727E+02  0.7816164E-02  0.1312668E+00
        -11   -1    0    0    0    0  0.00000000000E+00  0.00000000000E+00  0.45593999997E+02  0.45594000000E+02  0.51100000000E-03 0.  1.
         11   -1    0    0    0    0 -0.00000000000E+00 -0.00000000000E+00 -0.45593999997E+02  0.45594000000E+02  0.51100000000E-03 0. -1.
    9900012    2    1    2    0    0 -0.67452716081E+00  0.74306089437E-01 -0.43395422101E+02  0.47787272269E+02  0.20000005584E+02 0.  0.
        -12    1    1    2    0    0  0.67452716081E+00 -0.74306089437E-01  0.43395422101E+02  0.43400727731E+02  0.00000000000E+00 0.  1.
         11    1    3    3    0    0  0.36391735220E+01 -0.18210698472E+01 -0.16596686461E+02  0.17088296611E+02  0.51100000000E-03 0. -1.
        -11    1    3    3    0    0 -0.91462502527E+00 -0.61569277467E+01 -0.10588065782E+02  0.12282159235E+02  0.51100000000E-03 0.  1.
         12    1    3    3    0    0 -0.33990756575E+01  0.80523036833E+01 -0.16210669857E+02  0.18416816423E+02  0.00000000000E+00 0. -1.
</event>
<event>
 7    1  0.2732193E-010  0.4778726E+02  0.7816164E-02  0.1312668E+00
        -11   -1    0    0    0    0  0.00000000000E+00  0.00000000000E+00  0.45593999997E+02  0.45594000000E+02  0.51100000000E-03 0.  1.
         11   -1    0    0    0    0 -0.00000000000E+00 -0.00000000000E+00 -0.45593999997E+02  0.45594000000E+02  0.51100000000E-03 0. -1.
    9900012    2    1    2    0    0 -0.28384206096E+02 -0.32831747948E+02 -0.19248705171E+00  0.47787264058E+02  0.19999968147E+02 0.  0.
        -12    1    1    2    0    0  0.28384206096E+02  0.32831747948E+02  0.19248705171E+00  0.43400735942E+02  0.00000000000E+00 0.  1.
         11    1    3    3    0    0 -0.23053159849E+01 -0.63360355606E+00 -0.21802396737E+00  0.24007228011E+01  0.51100000000E-03 0.  1.
        -11    1    3    3    0    0 -0.14635092224E+02 -0.43877843052E+01 -0.83354906046E+00  0.15301417575E+02  0.51100000000E-03 0. -1.
        -12    1    3    3    0    0 -0.11443797887E+02 -0.27810360087E+02  0.85908597611E+00  0.30085123682E+02  0.00000000000E+00 0.  1.
</event>
<event>
 7    1  0.2732193E-010  0.4778727E+02  0.7816164E-02  0.1312668E+00
        -11   -1    0    0    0    0  0.00000000000E+00  0.00000000000E+00  0.45593999997E+02  0.45594000000E+02  0.51100000000E-03 0.  1.
         11   -1    0    0    0    0 -0.00000000000E+00 -0.00000000000E+00 -0.45593999997E+02  0.45594000000E+02  0.51100000000E-03 0. -1.
    9900012    2    1    2    0    0 -0.24894678548E+02 -0.30682371361E+02 -0.17957467851E+02  0.47787267472E+02  0.19999983711E+02 0.  0.
        -12    1    1    2    0    0  0.24894678548E+02  0.30682371361E+02  0.17957467851E+02  0.43400732528E+02  0.00000000000E+00 0.  1.
         11    1    3    3    0    0 -0.10372706672E+02 -0.87673041400E+01 -0.13713988266E+02  0.19301091679E+02  0.51100000000E-03 0. -1.
        -11    1    3    3    0    0 -0.15058001821E+02 -0.21498366020E+02 -0.22075432625E+01  0.26340015336E+02  0.51100000000E-03 0.  1.
        -12    1    3    3    0    0  0.53602994549E+00 -0.41670120061E+00 -0.20359363229E+01  0.21461604562E+01  0.00000000000E+00 0.  1.
</event>
<event>
 7    1  0.2732193E-010  0.4778727E+02  0.7816164E-02  0.1312668E+00
        -11   -1    0    0    0    0  0.00000000000E+00  0.00000000000E+00  0.45593999997E+02  0.45594000000E+02  0.51100000000E-03 0.  1.
         11   -1    0    0    0    0 -0.00000000000E+00 -0.00000000000E+00 -0.45593999997E+02  0.45594000000E+02  0.51100000000E-03 0. -1.
    9900012    2    1    2    0    0 -0.60845802541E+01  0.35082724600E+02 -0.24815390800E+02  0.47787270711E+02  0.19999998481E+02 0.  0.
        -12    1    1    2    0    0  0.60845802541E+01 -0.35082724600E+02  0.24815390800E+02  0.43400729289E+02  0.00000000000E+00 0.  1.
         11    1    3    3    0    0 -0.28752491727E+01  0.21002145803E+02 -0.74603820632E+01  0.22472527382E+02  0.51100000000E-03 0. -1.
        -11    1    3    3    0    0 -0.63618370829E+01  0.33127665866E+01 -0.75560070577E+01  0.10418283757E+02  0.51100000000E-03 0.  1.
         12    1    3    3    0    0  0.31525060014E+01  0.10767812211E+02 -0.97990016789E+01  0.14896459573E+02  0.00000000000E+00 0. -1.
</event>
<event>
 7    1  0.2732193E-010  0.4778727E+02  0.7816164E-02  0.1312668E+00
        -11   -1    0    0    0    0  0.00000000000E+00  0.00000000000E+00  0.45593999997E+02  0.45594000000E+02  0.51100000000E-03 0.  1.
         11   -1    0    0    0    0 -0.00000000000E+00 -0.00000000000E+00 -0.45593999997E+02  0.45594000000E+02  0.51100000000E-03 0. -1.
    9900012    2    1    2    0    0  0.19093791024E+02 -0.10729472893E+02 -0.37469039657E+02  0.47787269856E+02  0.19999994580E+02 0.  0.
        -12    1    1    2    0    0 -0.19093791024E+02  0.10729472893E+02  0.37469039657E+02  0.43400730144E+02  0.00000000000E+00 0.  1.
         11    1    3    3    0    0  0.50642845448E-01  0.83628254458E+00  0.74292076189E-01  0.84110211382E+00  0.51100000000E-03 0. -1.
        -11    1    3    3    0    0  0.71739997692E+01 -0.22353774196E+01 -0.28216989211E+02  0.29200370979E+02  0.51100000000E-03 0.  1.
        -12    1    3    3    0    0  0.11869148410E+02 -0.93303780176E+01 -0.93263425225E+01  0.17745796763E+02  0.00000000000E+00 0.  1.
</event>
<event>
 7    1  0.2732193E-010  0.4778727E+02  0.7816164E-02  0.1312668E+00
        -11   -1    0    0    0    0  0.00000000000E+00  0.00000000000E+00  0.45593999997E+02  0.45594000000E+02  0.51100000000E-03 0.  1.
         11   -1    0    0    0    0 -0.00000000000E+00 -0.00000000000E+00 -0.45593999997E+02  0.45594000000E+02  0.51100000000E-03 0. -1.
    9900012    2    1    2    0    0 -0.38765366254E+02  0.14831015936E+01  0.19459450186E+02  0.47787269445E+02  0.19999992706E+02 0.  0.
        -12    1    1    2    0    0  0.38765366254E+02 -0.14831015936E+01 -0.19459450186E+02  0.43400730555E+02  0.00000000000E+00 0.  1.
         11    1    3    3    0    0 -0.62661982539E+01  0.21650049862E+01  0.10233536286E+01  0.67081845575E+01  0.51100000000E-03 0. -1.
        -11    1    3    3    0    0 -0.74834589683E+01 -0.44701340156E+01 -0.15284890405E+01  0.88498889968E+01  0.51100000000E-03 0.  1.
        -12    1    3    3    0    0 -0.25015709032E+02  0.37882306231E+01  0.19964585598E+02  0.32229195890E+02  0.00000000000E+00 0.  1.
</event>
<event>
 7    1  0.2732193E-010  0.4778727E+02  0.7816164E-02  0.1312668E+00
        -11   -1    0    0    0    0  0.00000000000E+00  0.00000000000E+00  0.45593999997E+02  0.45594000000E+02  0.51100000000E-03 0.  1.
         11   -1    0    0    0    0 -0.00000000000E+00 -0.00000000000E+00 -0.45593999997E+02  0.45594000000E+02  0.51100000000E-03 0. -1.
    9900012    2    1    2    0    0  0.48396295996E+01  0.38593369362E+02 -0.19254958142E+02  0.47787267443E+02  0.19999983581E+02 0.  0.
        -12    1    1    2    0    0 -0.48396295996E+01 -0.38593369362E+02  0.19254958142E+02  0.43400732557E+02  0.00000000000E+00 0.  1.
         11    1    3    3    0    0  0.69214465366E+01  0.15027407646E+02  0.12249268146E+00  0.16545223100E+02  0.51100000000E-03 0.  1.
        -11    1    3    3    0    0 -0.26179351535E+01  0.23744035319E+02 -0.19207081378E+02  0.30651994601E+02  0.51100000000E-03 0. -1.
         12    1    3    3    0    0  0.53611821653E+00 -0.17807360280E+00 -0.17036944571E+00  0.59004974209E+00  0.00000000000E+00 0. -1.
</event>
<event>
 7    1  0.2732193E-010  0.4778728E+02  0.7816164E-02  0.1312668E+00
        -11   -1    0    0    0    0  0.00000000000E+00  0.00000000000E+00  0.45593999997E+02  0.45594000000E+02  0.51100000000E-03 0.  1.
         11   -1    0    0    0    0 -0.00000000000E+00 -0.00000000000E+00 -0.45593999997E+02  0.45594000000E+02  0.51100000000E-03 0. -1.
    9900012    2    1    2    0    0 -0.52385606967E+01  0.67641935939E+01 -0.42549101849E+02  0.47787275337E+02  0.20000019570E+02 0.  0.
        -12    1    1    2    0    0  0.52385606967E+01 -0.67641935939E+01  0.42549101849E+02  0.43400724663E+02  0.00000000000E+00 0.  1.
         11    1    3    3    0    0  0.39865031518E+01  0.67378605514E+00 -0.20647164146E+02  0.21039286646E+02  0.51100000000E-03 0. -1.
        -11    1    3    3    0    0  0.20652694750E+01 -0.65709157699E+00 -0.25097209980E+01  0.33159926257E+01  0.51100000000E-03 0.  1.
         12    1    3    3    0    0 -0.11290333323E+02  0.67474991157E+01 -0.19392216705E+02  0.23431996065E+02  0.00000000000E+00 0. -1.
</event>
<event>
 7    1  0.2732193E-010  0.4778727E+02  0.7816164E-02  0.1312668E+00
        -11   -1    0    0    0    0  0.00000000000E+00  0.00000000000E+00  0.45593999997E+02  0.45594000000E+02  0.51100000000E-03 0. -1.
         11   -1    0    0    0    0 -0.00000000000E+00 -0.00000000000E+00 -0.45593999997E+02  0.45594000000E+02  0.51100000000E-03 0.  1.
    9900012    2    1    2    0    0  0.31553312698E+02 -0.24622325918E+02 -0.16785498208E+02  0.47787269293E+02  0.19999992012E+02 0.  0.
        -12    1    1    2    0    0 -0.31553312698E+02  0.24622325918E+02  0.16785498208E+02  0.43400730707E+02  0.00000000000E+00 0.  1.
         11    1    3    3    0    0  0.24528455778E+02 -0.24214865612E+02 -0.18575869345E+02  0.39154409479E+02  0.51100000000E-03 0. -1.
        -11    1    3    3    0    0  0.48226057285E+01  0.14434969136E+01 -0.35152462092E+00  0.50462638826E+01  0.51100000000E-03 0.  1.
         12    1    3    3    0    0  0.22022511909E+01 -0.18509572195E+01  0.21418957570E+01  0.35865959307E+01  0.00000000000E+00 0. -1.
</event>
<event>
 7    1  0.2732193E-010  0.4778728E+02  0.7816164E-02  0.1312668E+00
        -11   -1    0    0    0    0  0.00000000000E+00  0.00000000000E+00  0.45593999997E+02  0.45594000000E+02  0.51100000000E-03 0.  1.
         11   -1    0    0    0    0 -0.00000000000E+00 -0.00000000000E+00 -0.45593999997E+02  0.45594000000E+02  0.51100000000E-03 0. -1.
    9900012    2    1    2    0    0 -0.25749747161E+02 -0.12391357393E+02 -0.32665380524E+02  0.47787282245E+02  0.20000051066E+02 0.  0.
        -12    1    1    2    0    0  0.25749747161E+02  0.12391357393E+02  0.32665380524E+02  0.43400717755E+02  0.00000000000E+00 0.  1.
         11    1    3    3    0    0 -0.12910391997E+02 -0.78355730545E+01 -0.12739933295E+02  0.19758044621E+02  0.51100000000E-03 0. -1.
        -11    1    3    3    0    0 -0.49898246648E+01 -0.46415663991E+01 -0.18926374493E+02  0.20115917591E+02  0.51100000000E-03 0.  1.
        -12    1    3    3    0    0 -0.78495304987E+01  0.85782060906E-01 -0.99907273652E+00  0.79133200330E+01  0.00000000000E+00 0.  1.
</event>
<event>
 7    1  0.2732193E-010  0.4778727E+02  0.7816164E-02  0.1312668E+00
        -11   -1    0    0    0    0  0.00000000000E+00  0.00000000000E+00  0.45593999997E+02  0.45594000000E+02  0.51100000000E-03 0.  1.
         11   -1    0    0    0    0 -0.00000000000E+00 -0.00000000000E+00 -0.45593999997E+02  0.45594000000E+02  0.51100000000E-03 0. -1.
    9900012    2    1    2    0    0  0.15002417065E+02 -0.43762845684E+01 -0.40489490870E+02  0.47787271258E+02  0.20000000974E+02 0.  0.
        -12    1    1    2    0    0 -0.15002417065E+02  0.43762845684E+01  0.40489490870E+02  0.43400728742E+02  0.00000000000E+00 0.  1.
         11    1    3    3    0    0  0.11367914314E+02 -0.84190997861E+01 -0.13778606846E+02  0.19747423222E+02  0.51100000000E-03 0.  1.
        -11    1    3    3    0    0  0.37559026114E+01  0.31582071151E+01 -0.26699661266E+02  0.27146878063E+02  0.51100000000E-03 0. -1.
        -12    1    3    3    0    0 -0.12139986019E+00  0.88460810269E+00 -0.11222758866E-01  0.89296997246E+00  0.00000000000E+00 0.  1.
</event>
<event>
 7    1  0.2732193E-010  0.4778727E+02  0.7816164E-02  0.1312668E+00
        -11   -1    0    0    0    0  0.00000000000E+00  0.00000000000E+00  0.45593999997E+02  0.45594000000E+02  0.51100000000E-03 0.  1.
         11   -1    0    0    0    0 -0.00000000000E+00 -0.00000000000E+00 -0.45593999997E+02  0.45594000000E+02  0.51100000000E-03 0. -1.
    9900012    2    1    2    0    0 -0.29709304309E+02  0.26305291870E+02  0.17578734751E+02  0.47787273527E+02  0.20000011321E+02 0.  0.
        -12    1    1    2    0    0  0.29709304309E+02 -0.26305291870E+02 -0.17578734751E+02  0.43400726473E+02  0.00000000000E+00 0.  1.
         11    1    3    3    0    0 -0.27253813553E+02  0.24465428929E+02  0.11911015174E+02  0.38512333720E+02  0.51100000000E-03 0. -1.
        -11    1    3    3    0    0 -0.25170290459E+01 -0.16656440007E+01  0.54460152996E+00  0.30669848781E+01  0.51100000000E-03 0.  1.
         12    1    3    3    0    0  0.61538289174E-01  0.35055069420E+01  0.51231180466E+01  0.62079549290E+01  0.00000000000E+00 0. -1.
</event>
<event>
 7    1  0.2732193E-010  0.4778727E+02  0.7816164E-02  0.1312668E+00
        -11   -1    0    0    0    0  0.00000000000E+00  0.00000000000E+00  0.45593999997E+02  0.45594000000E+02  0.51100000000E-03 0. -1.
         11   -1    0    0    0    0 -0.00000000000E+00 -0.00000000000E+00 -0.45593999997E+02  0.45594000000E+02  0.51100000000E-03 0.  1.
    9900012    2    1    2    0    0  0.48260670089E+00  0.42384141354E+02  0.93260424058E+01  0.47787269425E+02  0.19999992615E+02 0.  0.
        -12    1    1    2    0    0 -0.48260670089E+00 -0.42384141354E+02 -0.93260424058E+01  0.43400730575E+02  0.00000000000E+00 0.  1.
         11    1    3    3    0    0 -0.18285024048E+01  0.25433722719E+02  0.18816310726E+01  0.25568695863E+02  0.51100000000E-03 0. -1.
        -11    1    3    3    0    0  0.37219980418E+01  0.10145682210E+02  0.10087656353E+02  0.14783401093E+02  0.51100000000E-03 0.  1.
        -12    1    3    3    0    0 -0.14108889361E+01  0.68047364248E+01 -0.26432450198E+01  0.74351724684E+01  0.00000000000E+00 0.  1.
</event>
<event>
 7    1  0.2732193E-010  0.4778730E+02  0.7816164E-02  0.1312668E+00
        -11   -1    0    0    0    0  0.00000000000E+00  0.00000000000E+00  0.45593999997E+02  0.45594000000E+02  0.51100000000E-03 0.  1.
         11   -1    0    0    0    0 -0.00000000000E+00 -0.00000000000E+00 -0.45593999997E+02  0.45594000000E+02  0.51100000000E-03 0. -1.
    9900012    2    1    2    0    0  0.24592869851E+02  0.34999803574E+02 -0.73365582234E+01  0.47787302030E+02  0.20000141275E+02 0.  0.
        -12    1    1    2    0    0 -0.24592869851E+02 -0.34999803574E+02  0.73365582234E+01  0.43400697970E+02  0.00000000000E+00 0.  1.
         11    1    3    3    0    0  0.18400559157E+02  0.19418494022E+02  0.87704650175E+00  0.26766167043E+02  0.51100000000E-03 0. -1.
        -11    1    3    3    0    0 -0.10209351988E+01  0.15020733352E+01  0.15869363731E+01  0.24118250969E+01  0.51100000000E-03 0.  1.
         12    1    3    3    0    0  0.72132458931E+01  0.14079236216E+02 -0.98005410982E+01  0.18609309890E+02  0.00000000000E+00 0. -1.
</event>
<event>
 7    1  0.2732193E-010  0.4778727E+02  0.7816164E-02  0.1312668E+00
        -11   -1    0    0    0    0  0.00000000000E+00  0.00000000000E+00  0.45593999997E+02  0.45594000000E+02  0.51100000000E-03 0.  1.
         11   -1    0    0    0    0 -0.00000000000E+00 -0.00000000000E+00 -0.45593999997E+02  0.45594000000E+02  0.51100000000E-03 0. -1.
    9900012    2    1    2    0    0 -0.17010900009E+02  0.36631238520E+02 -0.15887250765E+02  0.47787273145E+02  0.20000009578E+02 0.  0.
        -12    1    1    2    0    0  0.17010900009E+02 -0.36631238520E+02  0.15887250765E+02  0.43400726855E+02  0.00000000000E+00 0.  1.
         11    1    3    3    0    0 -0.95280919891E-01  0.17368600869E+01  0.16722736402E+01  0.24129361376E+01  0.51100000000E-03 0.  1.
        -11    1    3    3    0    0 -0.12614751137E+02  0.88863566781E+01 -0.75284876040E+01  0.17169082886E+02  0.51100000000E-03 0. -1.
        -12    1    3    3    0    0 -0.43008679519E+01  0.26008021755E+02 -0.10031036802E+02  0.28205254122E+02  0.00000000000E+00 0.  1.
</event>
<event>
 7    1  0.2732193E-010  0.4778727E+02  0.7816164E-02  0.1312668E+00
        -11   -1    0    0    0    0  0.00000000000E+00  0.00000000000E+00  0.45593999997E+02  0.45594000000E+02  0.51100000000E-03 0. -1.
         11   -1    0    0    0    0 -0.00000000000E+00 -0.00000000000E+00 -0.45593999997E+02  0.45594000000E+02  0.51100000000E-03 0.  1.
    9900012    2    1    2    0    0  0.37065573735E+02  0.17086882598E+01  0.22513264078E+02  0.47787269231E+02  0.19999991730E+02 0.  0.
        -12    1    1    2    0    0 -0.37065573735E+02 -0.17086882598E+01 -0.22513264078E+02  0.43400730769E+02  0.00000000000E+00 0.  1.
         11    1    3    3    0    0  0.93647677099E+01 -0.28124353204E+01  0.11194750058E+01  0.98418438944E+01  0.51100000000E-03 0. -1.
        -11    1    3    3    0    0  0.17466988567E+02  0.95668421515E+01  0.14144945588E+02  0.24427436303E+02  0.51100000000E-03 0.  1.
        -12    1    3    3    0    0  0.10233817458E+02 -0.50457185714E+01  0.72488434842E+01  0.13517989034E+02  0.00000000000E+00 0.  1.
</event>
<event>
 7    1  0.2732193E-010  0.4778726E+02  0.7816164E-02  0.1312668E+00
        -11   -1    0    0    0    0  0.00000000000E+00  0.00000000000E+00  0.45593999997E+02  0.45594000000E+02  0.51100000000E-03 0.  1.
         11   -1    0    0    0    0 -0.00000000000E+00 -0.00000000000E+00 -0.45593999997E+02  0.45594000000E+02  0.51100000000E-03 0. -1.
    9900012    2    1    2    0    0  0.15269858847E+02  0.40491865961E+02  0.32960591778E+01  0.47787264933E+02  0.19999972136E+02 0.  0.
        -12    1    1    2    0    0 -0.15269858847E+02 -0.40491865961E+02 -0.32960591778E+01  0.43400735067E+02  0.00000000000E+00 0.  1.
         11    1    3    3    0    0  0.39383276513E+01  0.11338698262E+02 -0.70297144887E+01  0.13910190115E+02  0.51100000000E-03 0. -1.
        -11    1    3    3    0    0  0.77800847370E+01  0.15096642452E+02  0.92497206638E+01  0.19338967513E+02  0.51100000000E-03 0.  1.
         12    1    3    3    0    0  0.35514464585E+01  0.14056525247E+02  0.10760530027E+01  0.14538107305E+02  0.00000000000E+00 0. -1.
</event>
<event>
 7    1  0.2732193E-010  0.4778727E+02  0.7816164E-02  0.1312668E+00
        -11   -1    0    0    0    0  0.00000000000E+00  0.00000000000E+00  0.45593999997E+02  0.45594000000E+02  0.51100000000E-03 0. -1.
         11   -1    0    0    0    0 -0.00000000000E+00 -0.00000000000E+00 -0.45593999997E+02  0.45594000000E+02  0.51100000000E-03 0.  1.
    9900012    2    1    2    0    0  0.15396419142E+02 -0.37136495123E+02 -0.16354031612E+02  0.47787270256E+02  0.19999996403E+02 0.  0.
        -12    1    1    2    0    0 -0.15396419142E+02  0.37136495123E+02  0.16354031612E+02  0.43400729744E+02  0.00000000000E+00 0.  1.
         11    1    3    3    0    0  0.10058928328E+02 -0.10667106710E+02 -0.17443714604E+01  0.14765230670E+02  0.51100000000E-03 0. -1.
        -11    1    3    3    0    0 -0.30165091867E+01 -0.62901310759E+01 -0.70304713413E+01  0.99041710490E+01  0.51100000000E-03 0.  1.
        -12    1    3    3    0    0  0.83540000004E+01 -0.20179257337E+02 -0.75791888099E+01  0.23117868537E+02  0.00000000000E+00 0.  1.
</event>
<event>
 7    1  0.2732193E-010  0.4778727E+02  0.7816164E-02  0.1312668E+00
        -11   -1    0    0    0    0  0.00000000000E+00  0.00000000000E+00  0.45593999997E+02  0.45594000000E+02  0.51100000000E-03 0.  1.
         11   -1    0    0    0    0 -0.00000000000E+00 -0.00000000000E+00 -0.45593999997E+02  0.45594000000E+02  0.51100000000E-03 0. -1.
    9900012    2    1    2    0    0 -0.16524501214E+02  0.18429888499E+02 -0.35649730488E+02  0.47787271731E+02  0.20000003130E+02 0.  0.
        -12    1    1    2    0    0  0.16524501214E+02 -0.18429888499E+02  0.35649730488E+02  0.43400728269E+02  0.00000000000E+00 0.  1.
         11    1    3    3    0    0 -0.18651325689E+02  0.88668944022E+01 -0.24202904645E+02  0.31816259362E+02  0.51100000000E-03 0. -1.
        -11    1    3    3    0    0  0.71144900948E-01  0.80526754459E+01 -0.10538776836E+02  0.13263350289E+02  0.51100000000E-03 0.  1.
         12    1    3    3    0    0  0.20556795741E+01  0.15103186507E+01 -0.90804900656E+00  0.27076620794E+01  0.00000000000E+00 0. -1.
</event>
<event>
 7    1  0.2732193E-010  0.4778727E+02  0.7816164E-02  0.1312668E+00
        -11   -1    0    0    0    0  0.00000000000E+00  0.00000000000E+00  0.45593999997E+02  0.45594000000E+02  0.51100000000E-03 0.  1.
         11   -1    0    0    0    0 -0.00000000000E+00 -0.00000000000E+00 -0.45593999997E+02  0.45594000000E+02  0.51100000000E-03 0. -1.
    9900012    2    1    2    0    0 -0.26348677307E+02 -0.33946075827E+02 -0.60855906033E+01  0.47787271056E+02  0.20000000052E+02 0.  0.
        -12    1    1    2    0    0  0.26348677307E+02  0.33946075827E+02  0.60855906033E+01  0.43400728944E+02  0.00000000000E+00 0.  1.
         11    1    3    3    0    0  0.10951122214E+01 -0.27846297778E+01 -0.53727260145E+01  0.61497657569E+01  0.51100000000E-03 0. -1.
        -11    1    3    3    0    0 -0.17067303824E+02 -0.18163469067E+02  0.80137070441E+00  0.24936853523E+02  0.51100000000E-03 0.  1.
         12    1    3    3    0    0 -0.10376485704E+02 -0.12997976983E+02 -0.15142352932E+01  0.16700651776E+02  0.00000000000E+00 0. -1.
</event>
<event>
 7    1  0.2732193E-010  0.4778727E+02  0.7816164E-02  0.1312668E+00
        -11   -1    0    0    0    0  0.00000000000E+00  0.00000000000E+00  0.45593999997E+02  0.45594000000E+02  0.51100000000E-03 0.  1.
         11   -1    0    0    0    0 -0.00000000000E+00 -0.00000000000E+00 -0.45593999997E+02  0.45594000000E+02  0.51100000000E-03 0. -1.
    9900012    2    1    2    0    0 -0.87265985946E+01  0.56802269291E+01 -0.42133178685E+02  0.47787271353E+02  0.20000001408E+02 0.  0.
        -12    1    1    2    0    0  0.87265985946E+01 -0.56802269291E+01  0.42133178685E+02  0.43400728647E+02  0.00000000000E+00 0.  1.
         11    1    3    3    0    0 -0.33880661017E+01 -0.20155031196E+01 -0.15883816942E+01  0.42502001602E+01  0.51100000000E-03 0. -1.
        -11    1    3    3    0    0 -0.44379306864E+01 -0.27145551313E+01 -0.10321373224E+02  0.11558320977E+02  0.51100000000E-03 0.  1.
         12    1    3    3    0    0 -0.90060180655E+00  0.10410285180E+02 -0.30223423767E+02  0.31978750215E+02  0.00000000000E+00 0. -1.
</event>
<event>
 7    1  0.2732193E-010  0.4778727E+02  0.7816164E-02  0.1312668E+00
        -11   -1    0    0    0    0  0.00000000000E+00  0.00000000000E+00  0.45593999997E+02  0.45594000000E+02  0.51100000000E-03 0. -1.
         11   -1    0    0    0    0 -0.00000000000E+00 -0.00000000000E+00 -0.45593999997E+02  0.45594000000E+02  0.51100000000E-03 0.  1.
    9900012    2    1    2    0    0 -0.33927519365E+02 -0.21574988431E+02  0.16342172123E+02  0.47787270908E+02  0.19999999377E+02 0.  0.
        -12    1    1    2    0    0  0.33927519365E+02  0.21574988431E+02 -0.16342172123E+02  0.43400729092E+02  0.00000000000E+00 0.  1.
         11    1    3    3    0    0 -0.63601198218E+01 -0.43371381209E+01  0.40928164045E+01  0.87185456132E+01  0.51100000000E-03 0. -1.
        -11    1    3    3    0    0 -0.18860849053E+02 -0.18321028634E+01  0.32863462899E+01  0.19232480342E+02  0.51100000000E-03 0.  1.
        -12    1    3    3    0    0 -0.87065504908E+01 -0.15405747446E+02  0.89630094282E+01  0.19836244953E+02  0.00000000000E+00 0.  1.
</event>
<event>
 7    1  0.2732193E-010  0.4778727E+02  0.7816164E-02  0.1312668E+00
        -11   -1    0    0    0    0  0.00000000000E+00  0.00000000000E+00  0.45593999997E+02  0.45594000000E+02  0.51100000000E-03 0.  1.
         11   -1    0    0    0    0 -0.00000000000E+00 -0.00000000000E+00 -0.45593999997E+02  0.45594000000E+02  0.51100000000E-03 0. -1.
    9900012    2    1    2    0    0  0.55374284235E+01 -0.12353213943E+02 -0.41235400856E+02  0.47787270835E+02  0.19999999046E+02 0.  0.
        -12    1    1    2    0    0 -0.55374284235E+01  0.12353213943E+02  0.41235400856E+02  0.43400729165E+02  0.00000000000E+00 0.  1.
         11    1    3    3    0    0  0.85903205597E+01 -0.25275257776E+00 -0.10808840249E+02  0.13809001375E+02  0.51100000000E-03 0. -1.
        -11    1    3    3    0    0  0.28449655103E+00 -0.89683953915E+01 -0.26396741696E+02  0.27880118841E+02  0.51100000000E-03 0.  1.
        -12    1    3    3    0    0 -0.33373886872E+01 -0.31320659737E+01 -0.40298189116E+01  0.60981506191E+01  0.00000000000E+00 0.  1.
</event>
<event>
 7    1  0.2732193E-010  0.4778727E+02  0.7816164E-02  0.1312668E+00
        -11   -1    0    0    0    0  0.00000000000E+00  0.00000000000E+00  0.45593999997E+02  0.45594000000E+02  0.51100000000E-03 0.  1.
         11   -1    0    0    0    0 -0.00000000000E+00 -0.00000000000E+00 -0.45593999997E+02  0.45594000000E+02  0.51100000000E-03 0. -1.
    9900012    2    1    2    0    0  0.32196191792E+02  0.26201282891E+02 -0.12669687567E+02  0.47787274498E+02  0.20000015748E+02 0.  0.
        -12    1    1    2    0    0 -0.32196191792E+02 -0.26201282891E+02  0.12669687567E+02  0.43400725502E+02  0.00000000000E+00 0.  1.
         11    1    3    3    0    0  0.13632476519E+01  0.30275568889E+01 -0.58592350388E+01  0.67346254815E+01  0.51100000000E-03 0. -1.
        -11    1    3    3    0    0  0.91242152151E+01  0.30260155459E+01 -0.61806454507E+01  0.11428405480E+02  0.51100000000E-03 0.  1.
         12    1    3    3    0    0  0.21708728925E+02  0.20147710456E+02 -0.62980707763E+00  0.29624243536E+02  0.00000000000E+00 0. -1.
</event>
<event>
 7    1  0.2732193E-010  0.4778727E+02  0.7816164E-02  0.1312668E+00
        -11   -1    0    0    0    0  0.00000000000E+00  0.00000000000E+00  0.45593999997E+02  0.45594000000E+02  0.51100000000E-03 0. -1.
         11   -1    0    0    0    0 -0.00000000000E+00 -0.00000000000E+00 -0.45593999997E+02  0.45594000000E+02  0.51100000000E-03 0.  1.
    9900012    2    1    2    0    0  0.14560509651E+02 -0.38337556440E+02  0.14207281641E+02  0.47787268131E+02  0.19999986717E+02 0.  0.
        -12    1    1    2    0    0 -0.14560509651E+02  0.38337556440E+02 -0.14207281641E+02  0.43400731869E+02  0.00000000000E+00 0.  1.
         11    1    3    3    0    0  0.13493977615E+02 -0.13911397534E+02  0.28023739794E+01  0.19582331664E+02  0.51100000000E-03 0. -1.
        -11    1    3    3    0    0 -0.65922912556E+00 -0.54819157631E+01  0.65611770705E+01  0.85752567475E+01  0.51100000000E-03 0.  1.
         12    1    3    3    0    0  0.17257611618E+01 -0.18944243143E+02  0.48437305912E+01  0.19629679719E+02  0.00000000000E+00 0. -1.
</event>
<event>
 7    1  0.2732193E-010  0.4778727E+02  0.7816164E-02  0.1312668E+00
        -11   -1    0    0    0    0  0.00000000000E+00  0.00000000000E+00  0.45593999997E+02  0.45594000000E+02  0.51100000000E-03 0.  1.
         11   -1    0    0    0    0 -0.00000000000E+00 -0.00000000000E+00 -0.45593999997E+02  0.45594000000E+02  0.51100000000E-03 0. -1.
    9900012    2    1    2    0    0 -0.19623966793E+02 -0.38289000499E+02  0.56987332962E+01  0.47787271975E+02  0.20000004241E+02 0.  0.
        -12    1    1    2    0    0  0.19623966793E+02  0.38289000499E+02 -0.56987332962E+01  0.43400728025E+02  0.00000000000E+00 0.  1.
         11    1    3    3    0    0 -0.16430967177E+02 -0.26250431989E+02 -0.11768713854E+01  0.30991077563E+02  0.51100000000E-03 0. -1.
        -11    1    3    3    0    0 -0.36351935262E+01 -0.13176167186E+02  0.49915368634E+01  0.14551338571E+02  0.51100000000E-03 0.  1.
         12    1    3    3    0    0  0.44219391017E+00  0.11375986758E+01  0.18840678183E+01  0.22448558406E+01  0.00000000000E+00 0. -1.
</event>
<event>
 7    1  0.2732193E-010  0.4778727E+02  0.7816164E-02  0.1312668E+00
        -11   -1    0    0    0    0  0.00000000000E+00  0.00000000000E+00  0.45593999997E+02  0.45594000000E+02  0.51100000000E-03 0.  1.
         11   -1    0    0    0    0 -0.00000000000E+00 -0.00000000000E+00 -0.45593999997E+02  0.45594000000E+02  0.51100000000E-03 0. -1.
    9900012    2    1    2    0    0 -0.23212506692E+02  0.27635019744E+02 -0.24106189385E+02  0.47787272474E+02  0.20000006517E+02 0.  0.
        -12    1    1    2    0    0  0.23212506692E+02 -0.27635019744E+02  0.24106189385E+02  0.43400727526E+02  0.00000000000E+00 0.  1.
         11    1    3    3    0    0 -0.11552981483E+00  0.17703782621E+01 -0.72206349850E+01  0.74353988580E+01  0.51100000000E-03 0. -1.
        -11    1    3    3    0    0 -0.17933662300E+02  0.20884613399E+02 -0.74858800168E+01  0.28527560713E+02  0.51100000000E-03 0.  1.
        -12    1    3    3    0    0 -0.51633145772E+01  0.49800280821E+01 -0.93996743829E+01  0.11824312903E+02  0.00000000000E+00 0.  1.
</event>
<event>
 7    1  0.2732193E-010  0.4778727E+02  0.7816164E-02  0.1312668E+00
        -11   -1    0    0    0    0  0.00000000000E+00  0.00000000000E+00  0.45593999997E+02  0.45594000000E+02  0.51100000000E-03 0.  1.
         11   -1    0    0    0    0 -0.00000000000E+00 -0.00000000000E+00 -0.45593999997E+02  0.45594000000E+02  0.51100000000E-03 0. -1.
    9900012    2    1    2    0    0 -0.41910902003E+02  0.37657355296E+01 -0.10626326354E+02  0.47787270944E+02  0.19999999542E+02 0.  0.
        -12    1    1    2    0    0  0.41910902003E+02 -0.37657355296E+01  0.10626326354E+02  0.43400729056E+02  0.00000000000E+00 0.  1.
         11    1    3    3    0    0 -0.73412523222E+01  0.59124239838E+01  0.89021150488E-01  0.94264875775E+01  0.51100000000E-03 0.  1.
        -11    1    3    3    0    0 -0.32910871329E+02 -0.52382332739E+01 -0.97361249781E+01  0.34718246922E+02  0.51100000000E-03 0. -1.
         12    1    3    3    0    0 -0.16587783518E+01  0.30915448197E+01 -0.97922252656E+00  0.36425364445E+01  0.00000000000E+00 0. -1.
</event>
<event>
 7    1  0.2732193E-010  0.4778727E+02  0.7816164E-02  0.1312668E+00
        -11   -1    0    0    0    0  0.00000000000E+00  0.00000000000E+00  0.45593999997E+02  0.45594000000E+02  0.51100000000E-03 0.  1.
         11   -1    0    0    0    0 -0.00000000000E+00 -0.00000000000E+00 -0.45593999997E+02  0.45594000000E+02  0.51100000000E-03 0. -1.
    9900012    2    1    2    0    0  0.15065333926E+02 -0.22523861108E+02 -0.33901839308E+02  0.47787270583E+02  0.19999997894E+02 0.  0.
        -12    1    1    2    0    0 -0.15065333926E+02  0.22523861108E+02  0.33901839308E+02  0.43400729417E+02  0.00000000000E+00 0.  1.
         11    1    3    3    0    0  0.73273494564E+01 -0.17052849787E+02 -0.22001528480E+02  0.28784665911E+02  0.51100000000E-03 0. -1.
        -11    1    3    3    0    0  0.32585496767E+01 -0.31477282770E+01  0.14285909653E+01  0.47504959434E+01  0.51100000000E-03 0.  1.
         12    1    3    3    0    0  0.44794347929E+01 -0.23232830436E+01 -0.13328901794E+02  0.14252108728E+02  0.00000000000E+00 0. -1.
</event>
<event>
 7    1  0.2732193E-010  0.4778726E+02  0.7816164E-02  0.1312668E+00
        -11   -1    0    0    0    0  0.00000000000E+00  0.00000000000E+00  0.45593999997E+02  0.45594000000E+02  0.51100000000E-03 0.  1.
         11   -1    0    0    0    0 -0.00000000000E+00 -0.00000000000E+00 -0.45593999997E+02  0.45594000000E+02  0.51100000000E-03 0. -1.
    9900012    2    1    2    0    0 -0.42664638671E+02 -0.52749723642E+01 -0.59604598045E+01  0.47787264897E+02  0.19999971973E+02 0.  0.
        -12    1    1    2    0    0  0.42664638671E+02  0.52749723642E+01  0.59604598045E+01  0.43400735103E+02  0.00000000000E+00 0.  1.
         11    1    3    3    0    0 -0.11434051543E+02  0.13237333951E+01 -0.25208178565E+01  0.11783222297E+02  0.51100000000E-03 0. -1.
        -11    1    3    3    0    0  0.67109505842E+00 -0.75814890141E+00  0.27999170191E+01  0.29773635836E+01  0.51100000000E-03 0.  1.
        -12    1    3    3    0    0 -0.31901682187E+02 -0.58405568579E+01 -0.62395589670E+01  0.33026679016E+02  0.00000000000E+00 0.  1.
</event>
<event>
 7    1  0.2732193E-010  0.4778727E+02  0.7816164E-02  0.1312668E+00
        -11   -1    0    0    0    0  0.00000000000E+00  0.00000000000E+00  0.45593999997E+02  0.45594000000E+02  0.51100000000E-03 0.  1.
         11   -1    0    0    0    0 -0.00000000000E+00 -0.00000000000E+00 -0.45593999997E+02  0.45594000000E+02  0.51100000000E-03 0. -1.
    9900012    2    1    2    0    0 -0.31582498256E+02  0.28362982262E+02 -0.90393569521E+01  0.47787274972E+02  0.20000017907E+02 0.  0.
        -12    1    1    2    0    0  0.31582498256E+02 -0.28362982262E+02  0.90393569521E+01  0.43400725028E+02  0.00000000000E+00 0.  1.
         11    1    3    3    0    0 -0.18675018198E+01  0.10347758327E-02 -0.62709928028E+00  0.19699791588E+01  0.51100000000E-03 0. -1.
        -11    1    3    3    0    0 -0.71302480286E+01  0.86708744927E+01 -0.11032126492E+02  0.15739514497E+02  0.51100000000E-03 0.  1.
        -12    1    3    3    0    0 -0.22584748407E+02  0.19691072993E+02  0.26198688200E+01  0.30077781316E+02  0.00000000000E+00 0.  1.
</event>
<event>
 7    1  0.2732193E-010  0.4778727E+02  0.7816164E-02  0.1312668E+00
        -11   -1    0    0    0    0  0.00000000000E+00  0.00000000000E+00  0.45593999997E+02  0.45594000000E+02  0.51100000000E-03 0. -1.
         11   -1    0    0    0    0 -0.00000000000E+00 -0.00000000000E+00 -0.45593999997E+02  0.45594000000E+02  0.51100000000E-03 0.  1.
    9900012    2    1    2    0    0  0.34211288592E+02  0.70756273587E+01 -0.25751626410E+02  0.47787273826E+02  0.20000012683E+02 0.  0.
        -12    1    1    2    0    0 -0.34211288592E+02 -0.70756273587E+01  0.25751626410E+02  0.43400726174E+02  0.00000000000E+00 0.  1.
         11    1    3    3    0    0  0.15562863887E+02 -0.60611065237E+01 -0.94794044498E+01  0.19204136368E+02  0.51100000000E-03 0. -1.
        -11    1    3    3    0    0  0.13805144905E+01  0.23264865675E+01 -0.39052479045E+01  0.47507179946E+01  0.51100000000E-03 0.  1.
         12    1    3    3    0    0  0.17267910215E+02  0.10810247315E+02 -0.12366974056E+02  0.23832419463E+02  0.00000000000E+00 0. -1.
</event>
<event>
 7    1  0.2732193E-010  0.4778727E+02  0.7816164E-02  0.1312668E+00
        -11   -1    0    0    0    0  0.00000000000E+00  0.00000000000E+00  0.45593999997E+02  0.45594000000E+02  0.51100000000E-03 0.  1.
         11   -1    0    0    0    0 -0.00000000000E+00 -0.00000000000E+00 -0.45593999997E+02  0.45594000000E+02  0.51100000000E-03 0. -1.
    9900012    2    1    2    0    0  0.11945748672E+02  0.13442880411E+02 -0.39499510345E+02  0.47787271174E+02  0.20000000592E+02 0.  0.
        -12    1    1    2    0    0 -0.11945748672E+02 -0.13442880411E+02  0.39499510345E+02  0.43400728826E+02  0.00000000000E+00 0.  1.
         11    1    3    3    0    0  0.70290261444E+01  0.21344736350E+01 -0.14301452581E+02  0.16077771377E+02  0.51100000000E-03 0. -1.
        -11    1    3    3    0    0  0.68721799562E+01 -0.64575661142E+00 -0.68566311918E+01  0.97291957794E+01  0.51100000000E-03 0.  1.
        -12    1    3    3    0    0 -0.19554574285E+01  0.11954163387E+02 -0.18341426572E+02  0.21980304018E+02  0.00000000000E+00 0.  1.
</event>
<event>
 7    1  0.2732193E-010  0.4778725E+02  0.7816164E-02  0.1312668E+00
        -11   -1    0    0    0    0  0.00000000000E+00  0.00000000000E+00  0.45593999997E+02  0.45594000000E+02  0.51100000000E-03 0.  1.
         11   -1    0    0    0    0 -0.00000000000E+00 -0.00000000000E+00 -0.45593999997E+02  0.45594000000E+02  0.51100000000E-03 0. -1.
    9900012    2    1    2    0    0 -0.16048601988E+01 -0.38073696518E+02 -0.20771206507E+02  0.47787251590E+02  0.19999911300E+02 0.  0.
        -12    1    1    2    0    0  0.16048601988E+01  0.38073696518E+02  0.20771206507E+02  0.43400748410E+02  0.00000000000E+00 0.  1.
         11    1    3    3    0    0  0.29559554754E+00 -0.23655167976E+02 -0.19608914089E+02  0.30727249482E+02  0.51100000000E-03 0. -1.
        -11    1    3    3    0    0  0.24485868160E+01 -0.94467681105E+01 -0.29892706620E+01  0.10206505008E+02  0.51100000000E-03 0.  1.
         12    1    3    3    0    0 -0.43490425624E+01 -0.49717604314E+01  0.18269782446E+01  0.68534971002E+01  0.00000000000E+00 0. -1.
</event>
<event>
 7    1  0.2732193E-010  0.4778728E+02  0.7816164E-02  0.1312668E+00
        -11   -1    0    0    0    0  0.00000000000E+00  0.00000000000E+00  0.45593999997E+02  0.45594000000E+02  0.51100000000E-03 0.  1.
         11   -1    0    0    0    0 -0.00000000000E+00 -0.00000000000E+00 -0.45593999997E+02  0.45594000000E+02  0.51100000000E-03 0. -1.
    9900012    2    1    2    0    0 -0.29792396635E+02  0.27446002881E+02 -0.15580527738E+02  0.47787276319E+02  0.20000024050E+02 0.  0.
        -12    1    1    2    0    0  0.29792396635E+02 -0.27446002881E+02  0.15580527738E+02  0.43400723681E+02  0.00000000000E+00 0.  1.
         11    1    3    3    0    0  0.14368598466E+01 -0.18452291851E+01 -0.11227286943E+01  0.25942160563E+01  0.51100000000E-03 0.  1.
        -11    1    3    3    0    0 -0.23484732230E+02  0.21866757285E+02 -0.10955167067E+02  0.33907276620E+02  0.51100000000E-03 0. -1.
        -12    1    3    3    0    0 -0.77445242513E+01  0.74244747816E+01 -0.35026319770E+01  0.11285783643E+02  0.00000000000E+00 0.  1.
</event>
<event>
 7    1  0.2732193E-010  0.4778727E+02  0.7816164E-02  0.1312668E+00
        -11   -1    0    0    0    0  0.00000000000E+00  0.00000000000E+00  0.45593999997E+02  0.45594000000E+02  0.51100000000E-03 0.  1.
         11   -1    0    0    0    0 -0.00000000000E+00 -0.00000000000E+00 -0.45593999997E+02  0.45594000000E+02  0.51100000000E-03 0. -1.
    9900012    2    1    2    0    0  0.25068690565E+02  0.35360583753E+02 -0.21938838312E+01  0.47787271247E+02  0.20000000924E+02 0.  0.
        -12    1    1    2    0    0 -0.25068690565E+02 -0.35360583753E+02  0.21938838312E+01  0.43400728753E+02  0.00000000000E+00 0.  1.
         11    1    3    3    0    0  0.16001961927E+02  0.29278295812E+02  0.14070083625E+01  0.33395524610E+02  0.51100000000E-03 0. -1.
        -11    1    3    3    0    0  0.94391061975E+01  0.26727642647E+01 -0.45775056638E+01  0.10825615594E+02  0.51100000000E-03 0.  1.
         12    1    3    3    0    0 -0.37237755980E+00  0.34095236769E+01  0.97661347012E+00  0.35661310436E+01  0.00000000000E+00 0. -1.
</event>
<event>
 7    1  0.2732193E-010  0.4778726E+02  0.7816164E-02  0.1312668E+00
        -11   -1    0    0    0    0  0.00000000000E+00  0.00000000000E+00  0.45593999997E+02  0.45594000000E+02  0.51100000000E-03 0.  1.
         11   -1    0    0    0    0 -0.00000000000E+00 -0.00000000000E+00 -0.45593999997E+02  0.45594000000E+02  0.51100000000E-03 0. -1.
    9900012    2    1    2    0    0  0.99782852172E+01  0.25938554735E+02 -0.33335401678E+02  0.47787264953E+02  0.19999972225E+02 0.  0.
        -12    1    1    2    0    0 -0.99782852172E+01 -0.25938554735E+02  0.33335401678E+02  0.43400735047E+02  0.00000000000E+00 0.  1.
         11    1    3    3    0    0  0.16968483094E+01  0.68179100957E+01 -0.70738219848E+01  0.99700626875E+01  0.51100000000E-03 0. -1.
        -11    1    3    3    0    0 -0.70422940159E+00  0.10950903587E+02 -0.26859599779E+01  0.11297460320E+02  0.51100000000E-03 0.  1.
        -12    1    3    3    0    0  0.89856663094E+01  0.81697410532E+01 -0.23575619715E+02  0.26519741945E+02  0.00000000000E+00 0.  1.
</event>
