<event>
 7    1  0.1485408E-008  0.4614232E+02  0.7816164E-02  0.1320468E+00
        -11   -1    0    0    0    0  0.00000000000E+00  0.00000000000E+00  0.45593999997E+02  0.45594000000E+02  0.51100000000E-03 0.  1.
         11   -1    0    0    0    0 -0.00000000000E+00 -0.00000000000E+00 -0.45593999997E+02  0.45594000000E+02  0.51100000000E-03 0. -1.
    9900012    2    1    2    0    0  0.10758480236E+02 -0.42229294592E+02 -0.11404159708E+02  0.46142322323E+02  0.10000041599E+02 0.  0.
         12    1    1    2    0    0 -0.10758480236E+02  0.42229294592E+02  0.11404159708E+02  0.45045677677E+02  0.00000000000E+00 0. -1.
         11    1    3    3    0    0  0.99070458258E+00 -0.85165132695E+01 -0.57623900587E+01  0.10330422706E+02  0.51100000000E-03 0. -1.
        -11    1    3    3    0    0  0.93985546162E+01 -0.27190244421E+02 -0.54218325914E+01  0.29275219716E+02  0.51100000000E-03 0.  1.
         12    1    3    3    0    0  0.36922103720E+00 -0.65225369019E+01 -0.21993705767E+00  0.65366799004E+01  0.00000000000E+00 0. -1.
</event>
<event>
 7    1  0.1485408E-008  0.4614232E+02  0.7816164E-02  0.1320468E+00
        -11   -1    0    0    0    0  0.00000000000E+00  0.00000000000E+00  0.45593999997E+02  0.45594000000E+02  0.51100000000E-03 0.  1.
         11   -1    0    0    0    0 -0.00000000000E+00 -0.00000000000E+00 -0.45593999997E+02  0.45594000000E+02  0.51100000000E-03 0. -1.
    9900012    2    1    2    0    0 -0.60113157772E+01  0.35431752522E+02  0.27158211567E+02  0.46142318080E+02  0.10000002909E+02 0.  0.
         12    1    1    2    0    0  0.60113157772E+01 -0.35431752522E+02 -0.27158211567E+02  0.45045681920E+02  0.00000000000E+00 0. -1.
         11    1    3    3    0    0 -0.93779084873E+00  0.15404365076E+02  0.14630258691E+02  0.21265426981E+02  0.51100000000E-03 0. -1.
        -11    1    3    3    0    0 -0.28891210538E+01  0.52136172033E+01  0.62604054789E+01  0.86441599839E+01  0.51100000000E-03 0.  1.
         12    1    3    3    0    0 -0.21844038747E+01  0.14813770242E+02  0.62675473969E+01  0.16232731115E+02  0.00000000000E+00 0. -1.
</event>
<event>
 7    1  0.1485408E-008  0.4614231E+02  0.7816164E-02  0.1320468E+00
        -11   -1    0    0    0    0  0.00000000000E+00  0.00000000000E+00  0.45593999997E+02  0.45594000000E+02  0.51100000000E-03 0.  1.
         11   -1    0    0    0    0 -0.00000000000E+00 -0.00000000000E+00 -0.45593999997E+02  0.45594000000E+02  0.51100000000E-03 0. -1.
    9900012    2    1    2    0    0  0.27532384515E+02  0.33253994446E+02  0.12855095002E+02  0.46142314177E+02  0.99999673183E+01 0.  0.
         12    1    1    2    0    0 -0.27532384515E+02 -0.33253994446E+02 -0.12855095002E+02  0.45045685823E+02  0.00000000000E+00 0. -1.
         11    1    3    3    0    0  0.14045173147E+02  0.18397235954E+02  0.24574916998E+01  0.23275833931E+02  0.51100000000E-03 0. -1.
        -11    1    3    3    0    0  0.60174144002E+01  0.42963162448E+01  0.31257784181E+01  0.80273345713E+01  0.51100000000E-03 0.  1.
         12    1    3    3    0    0  0.74697969682E+01  0.10560442248E+02  0.72718248840E+01  0.14839145675E+02  0.00000000000E+00 0. -1.
</event>
<event>
 7    1  0.1485408E-008  0.4614232E+02  0.7816164E-02  0.1320468E+00
        -11   -1    0    0    0    0  0.00000000000E+00  0.00000000000E+00  0.45593999997E+02  0.45594000000E+02  0.51100000000E-03 0.  1.
         11   -1    0    0    0    0 -0.00000000000E+00 -0.00000000000E+00 -0.45593999997E+02  0.45594000000E+02  0.51100000000E-03 0. -1.
    9900012    2    1    2    0    0 -0.26520319711E+02  0.71290843107E+01  0.35706613803E+02  0.46142317966E+02  0.10000001865E+02 0.  0.
         12    1    1    2    0    0  0.26520319711E+02 -0.71290843107E+01 -0.35706613803E+02  0.45045682034E+02  0.00000000000E+00 0. -1.
         11    1    3    3    0    0 -0.95107432013E+01  0.67085931720E+01  0.10542690120E+02  0.15703750310E+02  0.51100000000E-03 0. -1.
        -11    1    3    3    0    0 -0.11038756079E+02 -0.28702445266E+00  0.17580291620E+02  0.20760615899E+02  0.51100000000E-03 0.  1.
         12    1    3    3    0    0 -0.59708204308E+01  0.70751559139E+00  0.75836320630E+01  0.96779517563E+01  0.00000000000E+00 0. -1.
</event>
<event>
 7    1  0.1485408E-008  0.4614232E+02  0.7816164E-02  0.1320468E+00
        -11   -1    0    0    0    0  0.00000000000E+00  0.00000000000E+00  0.45593999997E+02  0.45594000000E+02  0.51100000000E-03 0. -1.
         11   -1    0    0    0    0 -0.00000000000E+00 -0.00000000000E+00 -0.45593999997E+02  0.45594000000E+02  0.51100000000E-03 0.  1.
    9900012    2    1    2    0    0 -0.44913793860E+02 -0.11334406811E+01 -0.32526743797E+01  0.46142318106E+02  0.10000003145E+02 0.  0.
         12    1    1    2    0    0  0.44913793860E+02  0.11334406811E+01  0.32526743797E+01  0.45045681894E+02  0.00000000000E+00 0. -1.
         11    1    3    3    0    0 -0.25031438289E+01 -0.66638017642E+00  0.13849851593E+01  0.29373416077E+01  0.51100000000E-03 0. -1.
        -11    1    3    3    0    0 -0.11275061090E+02 -0.23726341024E+01 -0.32879402021E+01  0.11981942505E+02  0.51100000000E-03 0.  1.
        -12    1    3    3    0    0 -0.31135588941E+02  0.19055735977E+01 -0.13497193369E+01  0.31223033993E+02  0.00000000000E+00 0.  1.
</event>
<event>
 7    1  0.1485408E-008  0.4614232E+02  0.7816164E-02  0.1320468E+00
        -11   -1    0    0    0    0  0.00000000000E+00  0.00000000000E+00  0.45593999997E+02  0.45594000000E+02  0.51100000000E-03 0.  1.
         11   -1    0    0    0    0 -0.00000000000E+00 -0.00000000000E+00 -0.45593999997E+02  0.45594000000E+02  0.51100000000E-03 0. -1.
    9900012    2    1    2    0    0 -0.30983692872E+02  0.12279938920E+02  0.30303918627E+02  0.46142316433E+02  0.99999878884E+01 0.  0.
         12    1    1    2    0    0  0.30983692872E+02 -0.12279938920E+02 -0.30303918627E+02  0.45045683567E+02  0.00000000000E+00 0. -1.
         11    1    3    3    0    0 -0.25055037254E+02  0.10549353470E+02  0.20496155347E+02  0.34046088391E+02  0.51100000000E-03 0. -1.
        -11    1    3    3    0    0 -0.39821309726E+01 -0.22843720968E+00  0.39177010653E+01  0.55908794067E+01  0.51100000000E-03 0.  1.
         12    1    3    3    0    0 -0.19465246451E+01  0.19590226599E+01  0.58900622143E+01  0.65053486351E+01  0.00000000000E+00 0. -1.
</event>
<event>
 7    1  0.1485408E-008  0.4614232E+02  0.7816164E-02  0.1320468E+00
        -11   -1    0    0    0    0  0.00000000000E+00  0.00000000000E+00  0.45593999997E+02  0.45594000000E+02  0.51100000000E-03 0.  1.
         11   -1    0    0    0    0 -0.00000000000E+00 -0.00000000000E+00 -0.45593999997E+02  0.45594000000E+02  0.51100000000E-03 0. -1.
    9900012    2    1    2    0    0  0.37505537221E+02  0.24932374523E+02 -0.90829597224E+00  0.46142316265E+02  0.99999863552E+01 0.  0.
         12    1    1    2    0    0 -0.37505537221E+02 -0.24932374523E+02  0.90829597224E+00  0.45045683735E+02  0.00000000000E+00 0. -1.
         11    1    3    3    0    0  0.29774109576E+01 -0.63754498963E+00  0.64621928492E+00  0.31127221607E+01  0.51100000000E-03 0. -1.
        -11    1    3    3    0    0  0.17571957185E+02  0.13300978412E+02  0.54857681172E-01  0.22038437233E+02  0.51100000000E-03 0.  1.
         12    1    3    3    0    0  0.16956169078E+02  0.12268941100E+02 -0.16093729383E+01  0.20991156871E+02  0.00000000000E+00 0. -1.
</event>
<event>
 7    1  0.1485408E-008  0.4614232E+02  0.7816164E-02  0.1320468E+00
        -11   -1    0    0    0    0  0.00000000000E+00  0.00000000000E+00  0.45593999997E+02  0.45594000000E+02  0.51100000000E-03 0.  1.
         11   -1    0    0    0    0 -0.00000000000E+00 -0.00000000000E+00 -0.45593999997E+02  0.45594000000E+02  0.51100000000E-03 0. -1.
    9900012    2    1    2    0    0 -0.36306602397E+02 -0.27874442461E+01  0.26517435951E+02  0.46142316162E+02  0.99999854140E+01 0.  0.
         12    1    1    2    0    0  0.36306602397E+02  0.27874442461E+01 -0.26517435951E+02  0.45045683838E+02  0.00000000000E+00 0. -1.
         11    1    3    3    0    0 -0.36324441185E+01 -0.51218227084E+00  0.65509576145E+00  0.37264100244E+01  0.51100000000E-03 0. -1.
        -11    1    3    3    0    0 -0.20327093559E+02  0.14822911908E+01  0.12879491838E+02  0.24109525711E+02  0.51100000000E-03 0.  1.
        -12    1    3    3    0    0 -0.12347064719E+02 -0.37575531661E+01  0.12982848352E+02  0.18306380426E+02  0.00000000000E+00 0.  1.
</event>
<event>
 7    1  0.1485408E-008  0.4614232E+02  0.7816164E-02  0.1320468E+00
        -11   -1    0    0    0    0  0.00000000000E+00  0.00000000000E+00  0.45593999997E+02  0.45594000000E+02  0.51100000000E-03 0.  1.
         11   -1    0    0    0    0 -0.00000000000E+00 -0.00000000000E+00 -0.45593999997E+02  0.45594000000E+02  0.51100000000E-03 0. -1.
    9900012    2    1    2    0    0 -0.37998679687E+02  0.14080412721E+02  0.19671189841E+02  0.46142318851E+02  0.10000009943E+02 0.  0.
         12    1    1    2    0    0  0.37998679687E+02 -0.14080412721E+02 -0.19671189841E+02  0.45045681149E+02  0.00000000000E+00 0. -1.
         11    1    3    3    0    0 -0.54276416802E+01  0.42173081759E+01  0.21824363068E+01  0.72116579892E+01  0.51100000000E-03 0. -1.
        -11    1    3    3    0    0 -0.26856080276E+02  0.85737819535E+01  0.11197163841E+02  0.30333731441E+02  0.51100000000E-03 0.  1.
        -12    1    3    3    0    0 -0.57149577309E+01  0.12893225919E+01  0.62915896927E+01  0.85969294212E+01  0.00000000000E+00 0.  1.
</event>
<event>
 7    1  0.1485408E-008  0.4614232E+02  0.7816164E-02  0.1320468E+00
        -11   -1    0    0    0    0  0.00000000000E+00  0.00000000000E+00  0.45593999997E+02  0.45594000000E+02  0.51100000000E-03 0. -1.
         11   -1    0    0    0    0 -0.00000000000E+00 -0.00000000000E+00 -0.45593999997E+02  0.45594000000E+02  0.51100000000E-03 0.  1.
    9900012    2    1    2    0    0 -0.37631782742E+02 -0.47177579261E+01 -0.24304430227E+02  0.46142316068E+02  0.99999845647E+01 0.  0.
         12    1    1    2    0    0  0.37631782742E+02  0.47177579261E+01  0.24304430227E+02  0.45045683932E+02  0.00000000000E+00 0. -1.
         11    1    3    3    0    0 -0.84377178586E+01 -0.11157027713E+01 -0.23242906764E+01  0.88228228331E+01  0.51100000000E-03 0. -1.
        -11    1    3    3    0    0 -0.55916437964E+01  0.95473587887E+00 -0.18527980624E+01  0.59674837131E+01  0.51100000000E-03 0.  1.
        -12    1    3    3    0    0 -0.23602421087E+02 -0.45567910337E+01 -0.20127341488E+02  0.31352009522E+02  0.00000000000E+00 0.  1.
</event>
<event>
 7    1  0.1485408E-008  0.4614232E+02  0.7816164E-02  0.1320468E+00
        -11   -1    0    0    0    0  0.00000000000E+00  0.00000000000E+00  0.45593999997E+02  0.45594000000E+02  0.51100000000E-03 0. -1.
         11   -1    0    0    0    0 -0.00000000000E+00 -0.00000000000E+00 -0.45593999997E+02  0.45594000000E+02  0.51100000000E-03 0.  1.
    9900012    2    1    2    0    0 -0.45716275203E+01 -0.43951962000E+02 -0.87429272767E+01  0.46142317419E+02  0.99999968786E+01 0.  0.
         12    1    1    2    0    0  0.45716275203E+01  0.43951962000E+02  0.87429272767E+01  0.45045682581E+02  0.00000000000E+00 0. -1.
         11    1    3    3    0    0  0.64272561862E-01 -0.59969201943E+01  0.12307450472E+01  0.61222476601E+01  0.51100000000E-03 0. -1.
        -11    1    3    3    0    0 -0.43198240317E+01 -0.29440013331E+02 -0.50554952894E+01  0.30181671549E+02  0.51100000000E-03 0.  1.
        -12    1    3    3    0    0 -0.31607605053E+00 -0.85150284750E+01 -0.49181770345E+01  0.98383982102E+01  0.00000000000E+00 0.  1.
</event>
<event>
 7    1  0.1485408E-008  0.4614232E+02  0.7816164E-02  0.1320468E+00
        -11   -1    0    0    0    0  0.00000000000E+00  0.00000000000E+00  0.45593999997E+02  0.45594000000E+02  0.51100000000E-03 0. -1.
         11   -1    0    0    0    0 -0.00000000000E+00 -0.00000000000E+00 -0.45593999997E+02  0.45594000000E+02  0.51100000000E-03 0.  1.
    9900012    2    1    2    0    0  0.38713855205E+02  0.18087365618E+01 -0.22958206579E+02  0.46142319162E+02  0.10000012775E+02 0.  0.
         12    1    1    2    0    0 -0.38713855205E+02 -0.18087365618E+01  0.22958206579E+02  0.45045680838E+02  0.00000000000E+00 0. -1.
         11    1    3    3    0    0  0.26481359598E+01  0.30077045972E+00 -0.33531896251E+01  0.42833360660E+01  0.51100000000E-03 0. -1.
        -11    1    3    3    0    0  0.15795290366E+02  0.42626287434E+01 -0.67476596219E+01  0.17697234591E+02  0.51100000000E-03 0.  1.
        -12    1    3    3    0    0  0.20270428880E+02 -0.27546626413E+01 -0.12857357332E+02  0.24161748505E+02  0.00000000000E+00 0.  1.
</event>
<event>
 7    1  0.1485408E-008  0.4614232E+02  0.7816164E-02  0.1320468E+00
        -11   -1    0    0    0    0  0.00000000000E+00  0.00000000000E+00  0.45593999997E+02  0.45594000000E+02  0.51100000000E-03 0. -1.
         11   -1    0    0    0    0 -0.00000000000E+00 -0.00000000000E+00 -0.45593999997E+02  0.45594000000E+02  0.51100000000E-03 0.  1.
    9900012    2    1    2    0    0 -0.39421053353E+02  0.12052022987E+02 -0.18161570847E+02  0.46142319173E+02  0.10000012874E+02 0.  0.
         12    1    1    2    0    0  0.39421053353E+02 -0.12052022987E+02  0.18161570847E+02  0.45045680827E+02  0.00000000000E+00 0. -1.
         11    1    3    3    0    0 -0.73808572920E+01  0.40702411604E+01 -0.24250885979E+01  0.87706882533E+01  0.51100000000E-03 0. -1.
        -11    1    3    3    0    0 -0.25549046441E+02  0.30279064727E+01 -0.11712968138E+02  0.28268633050E+02  0.51100000000E-03 0.  1.
        -12    1    3    3    0    0 -0.64911496204E+01  0.49538753540E+01 -0.40235141106E+01  0.91029978697E+01  0.00000000000E+00 0.  1.
</event>
<event>
 7    1  0.1485408E-008  0.4614233E+02  0.7816164E-02  0.1320468E+00
        -11   -1    0    0    0    0  0.00000000000E+00  0.00000000000E+00  0.45593999997E+02  0.45594000000E+02  0.51100000000E-03 0. -1.
         11   -1    0    0    0    0 -0.00000000000E+00 -0.00000000000E+00 -0.45593999997E+02  0.45594000000E+02  0.51100000000E-03 0.  1.
    9900012    2    1    2    0    0  0.31214246610E+02  0.12528346314E+02 -0.29963709985E+02  0.46142327967E+02  0.10000093069E+02 0.  0.
         12    1    1    2    0    0 -0.31214246610E+02 -0.12528346314E+02  0.29963709985E+02  0.45045672033E+02  0.00000000000E+00 0. -1.
         11    1    3    3    0    0  0.66453344600E+01 -0.25465952255E+00 -0.99356122386E+01  0.11955823367E+02  0.51100000000E-03 0. -1.
        -11    1    3    3    0    0  0.24164801415E+02  0.12482338672E+02 -0.19734081291E+02  0.33603279167E+02  0.51100000000E-03 0.  1.
         12    1    3    3    0    0  0.40411073505E+00  0.30066716494E+00 -0.29401645602E+00  0.58322543383E+00  0.00000000000E+00 0. -1.
</event>
<event>
 7    1  0.1485408E-008  0.4614232E+02  0.7816164E-02  0.1320468E+00
        -11   -1    0    0    0    0  0.00000000000E+00  0.00000000000E+00  0.45593999997E+02  0.45594000000E+02  0.51100000000E-03 0. -1.
         11   -1    0    0    0    0 -0.00000000000E+00 -0.00000000000E+00 -0.45593999997E+02  0.45594000000E+02  0.51100000000E-03 0.  1.
    9900012    2    1    2    0    0  0.25507152437E+02  0.28727975149E+02 -0.23520248955E+02  0.46142317715E+02  0.99999995793E+01 0.  0.
         12    1    1    2    0    0 -0.25507152437E+02 -0.28727975149E+02  0.23520248955E+02  0.45045682285E+02  0.00000000000E+00 0. -1.
         11    1    3    3    0    0  0.28559548263E+00  0.14795084159E+01 -0.79956404843E+00  0.17058173587E+01  0.51100000000E-03 0. -1.
        -11    1    3    3    0    0  0.39531052158E+01  0.50322402458E+00 -0.29511966488E+01  0.49588140908E+01  0.51100000000E-03 0.  1.
        -12    1    3    3    0    0  0.21268451739E+02  0.26745242708E+02 -0.19769488258E+02  0.39477686265E+02  0.00000000000E+00 0.  1.
</event>
<event>
 7    1  0.1485408E-008  0.4614232E+02  0.7816164E-02  0.1320468E+00
        -11   -1    0    0    0    0  0.00000000000E+00  0.00000000000E+00  0.45593999997E+02  0.45594000000E+02  0.51100000000E-03 0.  1.
         11   -1    0    0    0    0 -0.00000000000E+00 -0.00000000000E+00 -0.45593999997E+02  0.45594000000E+02  0.51100000000E-03 0. -1.
    9900012    2    1    2    0    0  0.12683373732E+02 -0.28400318158E+02  0.32583232736E+02  0.46142322114E+02  0.10000039692E+02 0.  0.
         12    1    1    2    0    0 -0.12683373732E+02  0.28400318158E+02 -0.32583232736E+02  0.45045677886E+02  0.00000000000E+00 0. -1.
         11    1    3    3    0    0  0.43299208692E+01 -0.18683901225E+02  0.14987143013E+02  0.24340312975E+02  0.51100000000E-03 0.  1.
        -11    1    3    3    0    0  0.17072744029E+01 -0.19781618306E+01  0.27936328349E+01  0.38252182673E+01  0.51100000000E-03 0. -1.
        -12    1    3    3    0    0  0.66461784596E+01 -0.77382551015E+01  0.14802456888E+02  0.17976790872E+02  0.00000000000E+00 0.  1.
</event>
<event>
 7    1  0.1485408E-008  0.4614232E+02  0.7816164E-02  0.1320468E+00
        -11   -1    0    0    0    0  0.00000000000E+00  0.00000000000E+00  0.45593999997E+02  0.45594000000E+02  0.51100000000E-03 0. -1.
         11   -1    0    0    0    0 -0.00000000000E+00 -0.00000000000E+00 -0.45593999997E+02  0.45594000000E+02  0.51100000000E-03 0.  1.
    9900012    2    1    2    0    0  0.37750961492E+02  0.21872056134E+02 -0.11206767344E+02  0.46142316884E+02  0.99999919983E+01 0.  0.
         12    1    1    2    0    0 -0.37750961492E+02 -0.21872056134E+02  0.11206767344E+02  0.45045683116E+02  0.00000000000E+00 0. -1.
         11    1    3    3    0    0  0.73036910554E+01  0.16944715444E+01 -0.31817607924E+01  0.81448596580E+01  0.51100000000E-03 0. -1.
        -11    1    3    3    0    0  0.26999384207E+02  0.16138385821E+02 -0.48964452922E+01  0.31833777992E+02  0.51100000000E-03 0.  1.
        -12    1    3    3    0    0  0.34478862303E+01  0.40391987680E+01 -0.31285612598E+01  0.61636792341E+01  0.00000000000E+00 0.  1.
</event>
<event>
 7    1  0.1485408E-008  0.4614232E+02  0.7816164E-02  0.1320468E+00
        -11   -1    0    0    0    0  0.00000000000E+00  0.00000000000E+00  0.45593999997E+02  0.45594000000E+02  0.51100000000E-03 0.  1.
         11   -1    0    0    0    0 -0.00000000000E+00 -0.00000000000E+00 -0.45593999997E+02  0.45594000000E+02  0.51100000000E-03 0. -1.
    9900012    2    1    2    0    0 -0.13619365635E+02 -0.28608914921E+02  0.32018063452E+02  0.46142317405E+02  0.99999967537E+01 0.  0.
         12    1    1    2    0    0  0.13619365635E+02  0.28608914921E+02 -0.32018063452E+02  0.45045682595E+02  0.00000000000E+00 0. -1.
         11    1    3    3    0    0 -0.89128864666E+01 -0.94072990978E+01  0.12356020329E+02  0.17905531551E+02  0.51100000000E-03 0. -1.
        -11    1    3    3    0    0 -0.25287689162E+01 -0.15183410102E+02  0.17059641803E+02  0.22977423556E+02  0.51100000000E-03 0.  1.
         12    1    3    3    0    0 -0.21777102518E+01 -0.40182057204E+01  0.26024013192E+01  0.52593622977E+01  0.00000000000E+00 0. -1.
</event>
<event>
 7    1  0.1485408E-008  0.4614232E+02  0.7816164E-02  0.1320468E+00
        -11   -1    0    0    0    0  0.00000000000E+00  0.00000000000E+00  0.45593999997E+02  0.45594000000E+02  0.51100000000E-03 0. -1.
         11   -1    0    0    0    0 -0.00000000000E+00 -0.00000000000E+00 -0.45593999997E+02  0.45594000000E+02  0.51100000000E-03 0.  1.
    9900012    2    1    2    0    0 -0.31762404919E+02  0.31905139527E+02 -0.15248611189E+01  0.46142317678E+02  0.99999992392E+01 0.  0.
         12    1    1    2    0    0  0.31762404919E+02 -0.31905139527E+02  0.15248611189E+01  0.45045682322E+02  0.00000000000E+00 0. -1.
         11    1    3    3    0    0 -0.45127938620E+01  0.72219752496E+01  0.10066366593E+01  0.85752873172E+01  0.51100000000E-03 0. -1.
        -11    1    3    3    0    0 -0.26915748575E+02  0.23313935063E+02 -0.12015015247E+01  0.35629211268E+02  0.51100000000E-03 0.  1.
        -12    1    3    3    0    0 -0.33386248201E+00  0.13692292148E+01 -0.13299962535E+01  0.19378190921E+01  0.00000000000E+00 0.  1.
</event>
<event>
 7    1  0.1485408E-008  0.4614232E+02  0.7816164E-02  0.1320468E+00
        -11   -1    0    0    0    0  0.00000000000E+00  0.00000000000E+00  0.45593999997E+02  0.45594000000E+02  0.51100000000E-03 0.  1.
         11   -1    0    0    0    0 -0.00000000000E+00 -0.00000000000E+00 -0.45593999997E+02  0.45594000000E+02  0.51100000000E-03 0. -1.
    9900012    2    1    2    0    0  0.12448715044E+02  0.34822436089E+02  0.25720439014E+02  0.46142317139E+02  0.99999943243E+01 0.  0.
         12    1    1    2    0    0 -0.12448715044E+02 -0.34822436089E+02 -0.25720439014E+02  0.45045682861E+02  0.00000000000E+00 0. -1.
         11    1    3    3    0    0 -0.37321156467E+00  0.92993834031E+01  0.45347053312E+01  0.10352843631E+02  0.51100000000E-03 0. -1.
        -11    1    3    3    0    0  0.12418738543E+02  0.22667911710E+02  0.19958094218E+02  0.32655547972E+02  0.51100000000E-03 0.  1.
        -12    1    3    3    0    0  0.40318806521E+00  0.28551409757E+01  0.12276394651E+01  0.31339255357E+01  0.00000000000E+00 0.  1.
</event>
<event>
 7    1  0.1485408E-008  0.4614232E+02  0.7816164E-02  0.1320468E+00
        -11   -1    0    0    0    0  0.00000000000E+00  0.00000000000E+00  0.45593999997E+02  0.45594000000E+02  0.51100000000E-03 0.  1.
         11   -1    0    0    0    0 -0.00000000000E+00 -0.00000000000E+00 -0.45593999997E+02  0.45594000000E+02  0.51100000000E-03 0. -1.
    9900012    2    1    2    0    0  0.24221507455E+02 -0.28582224269E+02  0.25009762866E+02  0.46142320894E+02  0.10000028567E+02 0.  0.
         12    1    1    2    0    0 -0.24221507455E+02  0.28582224269E+02 -0.25009762866E+02  0.45045679106E+02  0.00000000000E+00 0. -1.
         11    1    3    3    0    0  0.28968290619E+00 -0.11350368287E+00  0.14913708610E+01  0.15234784469E+01  0.51100000000E-03 0. -1.
        -11    1    3    3    0    0  0.12380607450E+02 -0.11209766650E+02  0.71130506819E+01  0.18153065841E+02  0.51100000000E-03 0.  1.
        -12    1    3    3    0    0  0.11551217099E+02 -0.17258953936E+02  0.16405341323E+02  0.26465776606E+02  0.00000000000E+00 0.  1.
</event>
<event>
 7    1  0.1485408E-008  0.4614232E+02  0.7816164E-02  0.1320468E+00
        -11   -1    0    0    0    0  0.00000000000E+00  0.00000000000E+00  0.45593999997E+02  0.45594000000E+02  0.51100000000E-03 0.  1.
         11   -1    0    0    0    0 -0.00000000000E+00 -0.00000000000E+00 -0.45593999997E+02  0.45594000000E+02  0.51100000000E-03 0. -1.
    9900012    2    1    2    0    0  0.21398679876E+01  0.18342575599E+02  0.41086302482E+02  0.46142319117E+02  0.10000012362E+02 0.  0.
         12    1    1    2    0    0 -0.21398679876E+01 -0.18342575599E+02 -0.41086302482E+02  0.45045680883E+02  0.00000000000E+00 0. -1.
         11    1    3    3    0    0 -0.32488048674E+01  0.85633938742E+01  0.24344740021E+02  0.26010628878E+02  0.51100000000E-03 0. -1.
        -11    1    3    3    0    0  0.37937894397E+01  0.63949748928E+01  0.10889875038E+02  0.13186277746E+02  0.51100000000E-03 0.  1.
         12    1    3    3    0    0  0.15948834153E+01  0.33842068325E+01  0.58516874234E+01  0.69454124927E+01  0.00000000000E+00 0. -1.
</event>
<event>
 7    1  0.1485408E-008  0.4614232E+02  0.7816164E-02  0.1320468E+00
        -11   -1    0    0    0    0  0.00000000000E+00  0.00000000000E+00  0.45593999997E+02  0.45594000000E+02  0.51100000000E-03 0.  1.
         11   -1    0    0    0    0 -0.00000000000E+00 -0.00000000000E+00 -0.45593999997E+02  0.45594000000E+02  0.51100000000E-03 0. -1.
    9900012    2    1    2    0    0  0.20693360398E+02 -0.10943805917E+02  0.38485472908E+02  0.46142315662E+02  0.99999808576E+01 0.  0.
         12    1    1    2    0    0 -0.20693360398E+02  0.10943805917E+02 -0.38485472908E+02  0.45045684338E+02  0.00000000000E+00 0. -1.
         11    1    3    3    0    0  0.11013295301E+02 -0.26871856178E+01  0.15525494610E+02  0.19223803554E+02  0.51100000000E-03 0. -1.
        -11    1    3    3    0    0  0.75950082629E+01 -0.36205343962E+01  0.10457130245E+02  0.13421773096E+02  0.51100000000E-03 0.  1.
         12    1    3    3    0    0  0.20850568342E+01 -0.46360859035E+01  0.12502848054E+02  0.13496739012E+02  0.00000000000E+00 0. -1.
</event>
<event>
 7    1  0.1485408E-008  0.4614232E+02  0.7816164E-02  0.1320468E+00
        -11   -1    0    0    0    0  0.00000000000E+00  0.00000000000E+00  0.45593999997E+02  0.45594000000E+02  0.51100000000E-03 0. -1.
         11   -1    0    0    0    0 -0.00000000000E+00 -0.00000000000E+00 -0.45593999997E+02  0.45594000000E+02  0.51100000000E-03 0.  1.
    9900012    2    1    2    0    0  0.14040413931E+02 -0.37271480521E+02 -0.21043219246E+02  0.46142316968E+02  0.99999927649E+01 0.  0.
         12    1    1    2    0    0 -0.14040413931E+02  0.37271480521E+02  0.21043219246E+02  0.45045683032E+02  0.00000000000E+00 0. -1.
         11    1    3    3    0    0 -0.68136885688E+00 -0.34053961718E+01 -0.19533934448E+00  0.34783824296E+01  0.51100000000E-03 0. -1.
        -11    1    3    3    0    0  0.12281121019E+02 -0.22864531608E+02 -0.14610062835E+02  0.29783664574E+02  0.51100000000E-03 0.  1.
         12    1    3    3    0    0  0.24406617686E+01 -0.11001552742E+02 -0.62378170662E+01  0.12880269964E+02  0.00000000000E+00 0. -1.
</event>
<event>
 7    1  0.1485408E-008  0.4614232E+02  0.7816164E-02  0.1320468E+00
        -11   -1    0    0    0    0  0.00000000000E+00  0.00000000000E+00  0.45593999997E+02  0.45594000000E+02  0.51100000000E-03 0.  1.
         11   -1    0    0    0    0 -0.00000000000E+00 -0.00000000000E+00 -0.45593999997E+02  0.45594000000E+02  0.51100000000E-03 0. -1.
    9900012    2    1    2    0    0 -0.41077308761E+02 -0.85577434197E+01  0.16386977845E+02  0.46142319737E+02  0.10000018016E+02 0.  0.
         12    1    1    2    0    0  0.41077308761E+02  0.85577434197E+01 -0.16386977845E+02  0.45045680263E+02  0.00000000000E+00 0. -1.
         11    1    3    3    0    0 -0.30048090658E+02 -0.87916631498E+01  0.11627626833E+02  0.33397347187E+02  0.51100000000E-03 0. -1.
        -11    1    3    3    0    0 -0.10554589269E+02  0.12276266574E+01  0.38010051287E+01  0.11285125701E+02  0.51100000000E-03 0.  1.
         12    1    3    3    0    0 -0.47462883427E+00 -0.99370692731E+00  0.95834588382E+00  0.14598468484E+01  0.00000000000E+00 0. -1.
</event>
<event>
 7    1  0.1485408E-008  0.4614231E+02  0.7816164E-02  0.1320468E+00
        -11   -1    0    0    0    0  0.00000000000E+00  0.00000000000E+00  0.45593999997E+02  0.45594000000E+02  0.51100000000E-03 0. -1.
         11   -1    0    0    0    0 -0.00000000000E+00 -0.00000000000E+00 -0.45593999997E+02  0.45594000000E+02  0.51100000000E-03 0.  1.
    9900012    2    1    2    0    0 -0.24903328133E+02 -0.29877827759E+02 -0.22721210323E+02  0.46142314943E+02  0.99999743022E+01 0.  0.
         12    1    1    2    0    0  0.24903328133E+02  0.29877827759E+02  0.22721210323E+02  0.45045685057E+02  0.00000000000E+00 0. -1.
         11    1    3    3    0    0 -0.65320880827E+01 -0.83748986637E+01 -0.32701717524E+01  0.11113106042E+02  0.51100000000E-03 0. -1.
        -11    1    3    3    0    0 -0.12970903859E+02 -0.19372843222E+02 -0.15148863087E+02  0.27803587080E+02  0.51100000000E-03 0.  1.
        -12    1    3    3    0    0 -0.54003361920E+01 -0.21300858735E+01 -0.43021754833E+01  0.72256218213E+01  0.00000000000E+00 0.  1.
</event>
<event>
 7    1  0.1485408E-008  0.4614232E+02  0.7816164E-02  0.1320468E+00
        -11   -1    0    0    0    0  0.00000000000E+00  0.00000000000E+00  0.45593999997E+02  0.45594000000E+02  0.51100000000E-03 0.  1.
         11   -1    0    0    0    0 -0.00000000000E+00 -0.00000000000E+00 -0.45593999997E+02  0.45594000000E+02  0.51100000000E-03 0. -1.
    9900012    2    1    2    0    0  0.25123720257E+01  0.44355269495E+01  0.44756313064E+02  0.46142317947E+02  0.10000001696E+02 0.  0.
         12    1    1    2    0    0 -0.25123720257E+01 -0.44355269495E+01 -0.44756313064E+02  0.45045682053E+02  0.00000000000E+00 0. -1.
         11    1    3    3    0    0 -0.85049133837E+00  0.13072533562E+01  0.21230840449E+01  0.26343372936E+01  0.51100000000E-03 0. -1.
        -11    1    3    3    0    0  0.50783363580E+01  0.41566258295E+01  0.29328144454E+02  0.30053404064E+02  0.51100000000E-03 0.  1.
         12    1    3    3    0    0 -0.17154729939E+01 -0.10283522362E+01  0.13305084565E+02  0.13454576589E+02  0.00000000000E+00 0. -1.
</event>
<event>
 7    1  0.1485408E-008  0.4614232E+02  0.7816164E-02  0.1320468E+00
        -11   -1    0    0    0    0  0.00000000000E+00  0.00000000000E+00  0.45593999997E+02  0.45594000000E+02  0.51100000000E-03 0.  1.
         11   -1    0    0    0    0 -0.00000000000E+00 -0.00000000000E+00 -0.45593999997E+02  0.45594000000E+02  0.51100000000E-03 0. -1.
    9900012    2    1    2    0    0  0.31071163627E+02  0.10346914462E+02  0.30929562649E+02  0.46142315482E+02  0.99999792199E+01 0.  0.
         12    1    1    2    0    0 -0.31071163627E+02 -0.10346914462E+02 -0.30929562649E+02  0.45045684518E+02  0.00000000000E+00 0. -1.
         11    1    3    3    0    0  0.18110437655E+01  0.16333871927E+01  0.21998744212E+01  0.32843996365E+01  0.51100000000E-03 0. -1.
        -11    1    3    3    0    0  0.20757702104E+02  0.32171060892E+01  0.15055999128E+02  0.25844053054E+02  0.51100000000E-03 0.  1.
        -12    1    3    3    0    0  0.85024177567E+01  0.54964211801E+01  0.13673689100E+02  0.17013862792E+02  0.00000000000E+00 0.  1.
</event>
<event>
 7    1  0.1485408E-008  0.4614232E+02  0.7816164E-02  0.1320468E+00
        -11   -1    0    0    0    0  0.00000000000E+00  0.00000000000E+00  0.45593999997E+02  0.45594000000E+02  0.51100000000E-03 0.  1.
         11   -1    0    0    0    0 -0.00000000000E+00 -0.00000000000E+00 -0.45593999997E+02  0.45594000000E+02  0.51100000000E-03 0. -1.
    9900012    2    1    2    0    0 -0.10555386277E+02  0.14535985611E+02  0.41308623967E+02  0.46142317952E+02  0.10000001739E+02 0.  0.
         12    1    1    2    0    0  0.10555386277E+02 -0.14535985611E+02 -0.41308623967E+02  0.45045682048E+02  0.00000000000E+00 0. -1.
         11    1    3    3    0    0 -0.95922407415E+00  0.66018390744E+01  0.74078244920E+01  0.99689645377E+01  0.51100000000E-03 0. -1.
        -11    1    3    3    0    0 -0.27370350162E+01  0.17329135614E+01  0.66628384429E+01  0.74086278398E+01  0.51100000000E-03 0.  1.
         12    1    3    3    0    0 -0.68591271863E+01  0.62012329751E+01  0.27237961032E+02  0.28764725574E+02  0.00000000000E+00 0. -1.
</event>
<event>
 7    1  0.1485408E-008  0.4614232E+02  0.7816164E-02  0.1320468E+00
        -11   -1    0    0    0    0  0.00000000000E+00  0.00000000000E+00  0.45593999997E+02  0.45594000000E+02  0.51100000000E-03 0.  1.
         11   -1    0    0    0    0 -0.00000000000E+00 -0.00000000000E+00 -0.45593999997E+02  0.45594000000E+02  0.51100000000E-03 0. -1.
    9900012    2    1    2    0    0 -0.28836768811E+02 -0.94663497601E+01  0.33285771078E+02  0.46142316860E+02  0.99999917858E+01 0.  0.
         12    1    1    2    0    0  0.28836768811E+02  0.94663497601E+01 -0.33285771078E+02  0.45045683140E+02  0.00000000000E+00 0. -1.
         11    1    3    3    0    0 -0.38409901337E+01 -0.36152709535E-01  0.16622136031E+01  0.41853872640E+01  0.51100000000E-03 0. -1.
        -11    1    3    3    0    0 -0.68940486009E+01 -0.60149541338E+01  0.10163869602E+02  0.13675226685E+02  0.51100000000E-03 0.  1.
        -12    1    3    3    0    0 -0.18101730077E+02 -0.34152429168E+01  0.21459687873E+02  0.28281702911E+02  0.00000000000E+00 0.  1.
</event>
<event>
 7    1  0.1485408E-008  0.4614232E+02  0.7816164E-02  0.1320468E+00
        -11   -1    0    0    0    0  0.00000000000E+00  0.00000000000E+00  0.45593999997E+02  0.45594000000E+02  0.51100000000E-03 0.  1.
         11   -1    0    0    0    0 -0.00000000000E+00 -0.00000000000E+00 -0.45593999997E+02  0.45594000000E+02  0.51100000000E-03 0. -1.
    9900012    2    1    2    0    0  0.34285582342E+02  0.37060824121E+01  0.28980637015E+02  0.46142317353E+02  0.99999962744E+01 0.  0.
         12    1    1    2    0    0 -0.34285582342E+02 -0.37060824121E+01 -0.28980637015E+02  0.45045682647E+02  0.00000000000E+00 0. -1.
         11    1    3    3    0    0  0.11046217071E+02 -0.15445724056E-01  0.83540104156E+01  0.13849499645E+02  0.51100000000E-03 0. -1.
        -11    1    3    3    0    0  0.21700648539E+02  0.54408631874E+01  0.19688793567E+02  0.29802176626E+02  0.51100000000E-03 0.  1.
         12    1    3    3    0    0  0.15387167319E+01 -0.17193350512E+01  0.93783303290E+00  0.24906410815E+01  0.00000000000E+00 0. -1.
</event>
<event>
 7    1  0.1485408E-008  0.4614232E+02  0.7816164E-02  0.1320468E+00
        -11   -1    0    0    0    0  0.00000000000E+00  0.00000000000E+00  0.45593999997E+02  0.45594000000E+02  0.51100000000E-03 0. -1.
         11   -1    0    0    0    0 -0.00000000000E+00 -0.00000000000E+00 -0.45593999997E+02  0.45594000000E+02  0.51100000000E-03 0.  1.
    9900012    2    1    2    0    0 -0.42422787419E+02 -0.71877779424E+01 -0.13332535858E+02  0.46142317004E+02  0.99999930955E+01 0.  0.
         12    1    1    2    0    0  0.42422787419E+02  0.71877779424E+01  0.13332535858E+02  0.45045682996E+02  0.00000000000E+00 0. -1.
         11    1    3    3    0    0 -0.12133457103E+02 -0.11561358299E+01 -0.44524555434E+01  0.12976200983E+02  0.51100000000E-03 0. -1.
        -11    1    3    3    0    0 -0.28406229598E+02 -0.73219295132E+01 -0.68790308022E+01  0.30130476213E+02  0.51100000000E-03 0.  1.
         12    1    3    3    0    0 -0.18831007182E+01  0.12902874006E+01 -0.20010495129E+01  0.30356398080E+01  0.00000000000E+00 0. -1.
</event>
<event>
 7    1  0.1485408E-008  0.4614232E+02  0.7816164E-02  0.1320468E+00
        -11   -1    0    0    0    0  0.00000000000E+00  0.00000000000E+00  0.45593999997E+02  0.45594000000E+02  0.51100000000E-03 0.  1.
         11   -1    0    0    0    0 -0.00000000000E+00 -0.00000000000E+00 -0.45593999997E+02  0.45594000000E+02  0.51100000000E-03 0. -1.
    9900012    2    1    2    0    0  0.32356852680E+02  0.30921242306E+02 -0.51014115325E+01  0.46142317180E+02  0.99999946986E+01 0.  0.
         12    1    1    2    0    0 -0.32356852680E+02 -0.30921242306E+02  0.51014115325E+01  0.45045682820E+02  0.00000000000E+00 0. -1.
         11    1    3    3    0    0  0.46200120200E+01  0.90153834045E+00 -0.80929802302E+00  0.47762167031E+01  0.51100000000E-03 0.  1.
        -11    1    3    3    0    0  0.16390980550E+01  0.35476702074E+01 -0.10782720646E+01  0.40540445533E+01  0.51100000000E-03 0. -1.
        -12    1    3    3    0    0  0.26097742605E+02  0.26472033758E+02 -0.32138414448E+01  0.37312055923E+02  0.00000000000E+00 0.  1.
</event>
<event>
 7    1  0.1485408E-008  0.4614232E+02  0.7816164E-02  0.1320468E+00
        -11   -1    0    0    0    0  0.00000000000E+00  0.00000000000E+00  0.45593999997E+02  0.45594000000E+02  0.51100000000E-03 0.  1.
         11   -1    0    0    0    0 -0.00000000000E+00 -0.00000000000E+00 -0.45593999997E+02  0.45594000000E+02  0.51100000000E-03 0. -1.
    9900012    2    1    2    0    0  0.19719506948E+02  0.38084495306E+02 -0.13777721574E+02  0.46142319311E+02  0.10000014133E+02 0.  0.
         12    1    1    2    0    0 -0.19719506948E+02 -0.38084495306E+02  0.13777721574E+02  0.45045680689E+02  0.00000000000E+00 0. -1.
         11    1    3    3    0    0  0.15680181862E+01  0.63420385460E+01 -0.37198988491E+00  0.65435854611E+01  0.51100000000E-03 0. -1.
        -11    1    3    3    0    0  0.21806277406E+01  0.65498191987E+01 -0.52575139928E+01  0.86773684101E+01  0.51100000000E-03 0.  1.
        -12    1    3    3    0    0  0.15970861021E+02  0.25192637561E+02 -0.81482176962E+01  0.30921365440E+02  0.00000000000E+00 0.  1.
</event>
<event>
 7    1  0.1485408E-008  0.4614232E+02  0.7816164E-02  0.1320468E+00
        -11   -1    0    0    0    0  0.00000000000E+00  0.00000000000E+00  0.45593999997E+02  0.45594000000E+02  0.51100000000E-03 0.  1.
         11   -1    0    0    0    0 -0.00000000000E+00 -0.00000000000E+00 -0.45593999997E+02  0.45594000000E+02  0.51100000000E-03 0. -1.
    9900012    2    1    2    0    0 -0.32376217835E+02  0.15329115372E+02  0.27311393544E+02  0.46142317891E+02  0.10000001183E+02 0.  0.
         12    1    1    2    0    0  0.32376217835E+02 -0.15329115372E+02 -0.27311393544E+02  0.45045682109E+02  0.00000000000E+00 0. -1.
         11    1    3    3    0    0 -0.12176695823E+01  0.34854349650E-01 -0.10987638228E+00  0.12231136978E+01  0.51100000000E-03 0. -1.
        -11    1    3    3    0    0 -0.18878144957E+02  0.49861375334E+01  0.14317323883E+02  0.24212221871E+02  0.51100000000E-03 0.  1.
        -12    1    3    3    0    0 -0.12280403296E+02  0.10308123489E+02  0.13103946043E+02  0.20706982322E+02  0.00000000000E+00 0.  1.
</event>
<event>
 7    1  0.1485408E-008  0.4614231E+02  0.7816164E-02  0.1320468E+00
        -11   -1    0    0    0    0  0.00000000000E+00  0.00000000000E+00  0.45593999997E+02  0.45594000000E+02  0.51100000000E-03 0. -1.
         11   -1    0    0    0    0 -0.00000000000E+00 -0.00000000000E+00 -0.45593999997E+02  0.45594000000E+02  0.51100000000E-03 0.  1.
    9900012    2    1    2    0    0  0.19338826127E+02  0.39678474765E+02 -0.89857019395E+01  0.46142307698E+02  0.99999082323E+01 0.  0.
         12    1    1    2    0    0 -0.19338826127E+02 -0.39678474765E+02  0.89857019395E+01  0.45045692302E+02  0.00000000000E+00 0. -1.
         11    1    3    3    0    0 -0.73999944535E+00  0.96760174263E+00 -0.42451899402E+00  0.12899879646E+01  0.51100000000E-03 0. -1.
        -11    1    3    3    0    0  0.27216338635E+01  0.96568834575E+01 -0.35331778475E+01  0.10637012502E+02  0.51100000000E-03 0.  1.
         12    1    3    3    0    0  0.17357191709E+02  0.29053989565E+02 -0.50280050980E+01  0.34215307231E+02  0.00000000000E+00 0. -1.
</event>
<event>
 7    1  0.1485408E-008  0.4614232E+02  0.7816164E-02  0.1320468E+00
        -11   -1    0    0    0    0  0.00000000000E+00  0.00000000000E+00  0.45593999997E+02  0.45594000000E+02  0.51100000000E-03 0.  1.
         11   -1    0    0    0    0 -0.00000000000E+00 -0.00000000000E+00 -0.45593999997E+02  0.45594000000E+02  0.51100000000E-03 0. -1.
    9900012    2    1    2    0    0  0.11947872301E+02  0.15482066396E+02  0.40579149347E+02  0.46142318807E+02  0.10000009537E+02 0.  0.
         12    1    1    2    0    0 -0.11947872301E+02 -0.15482066396E+02 -0.40579149347E+02  0.45045681193E+02  0.00000000000E+00 0. -1.
         11    1    3    3    0    0  0.12763139007E+02  0.12325944334E+02  0.28260954105E+02  0.33369269519E+02  0.51100000000E-03 0. -1.
        -11    1    3    3    0    0 -0.61309802209E+00  0.28734052172E+01  0.97990491616E+01  0.10230039661E+02  0.51100000000E-03 0.  1.
         12    1    3    3    0    0 -0.20216868344E+00  0.28271684468E+00  0.25191460804E+01  0.25430096274E+01  0.00000000000E+00 0. -1.
</event>
<event>
 7    1  0.1485408E-008  0.4614232E+02  0.7816164E-02  0.1320468E+00
        -11   -1    0    0    0    0  0.00000000000E+00  0.00000000000E+00  0.45593999997E+02  0.45594000000E+02  0.51100000000E-03 0.  1.
         11   -1    0    0    0    0 -0.00000000000E+00 -0.00000000000E+00 -0.45593999997E+02  0.45594000000E+02  0.51100000000E-03 0. -1.
    9900012    2    1    2    0    0 -0.24317972155E+02  0.28667998738E+02  0.24817239508E+02  0.46142319873E+02  0.10000019255E+02 0.  0.
         12    1    1    2    0    0  0.24317972155E+02 -0.28667998738E+02 -0.24817239508E+02  0.45045680127E+02  0.00000000000E+00 0. -1.
         11    1    3    3    0    0 -0.37926662055E+00  0.68512071985E+00  0.28746018269E+01  0.29793572284E+01  0.51100000000E-03 0. -1.
        -11    1    3    3    0    0 -0.22332362215E+02  0.23780629817E+02  0.19976561140E+02  0.38253310338E+02  0.51100000000E-03 0.  1.
         12    1    3    3    0    0 -0.16063433194E+01  0.42022482012E+01  0.19660765415E+01  0.49096523065E+01  0.00000000000E+00 0. -1.
</event>
<event>
 7    1  0.1485408E-008  0.4614232E+02  0.7816164E-02  0.1320468E+00
        -11   -1    0    0    0    0  0.00000000000E+00  0.00000000000E+00  0.45593999997E+02  0.45594000000E+02  0.51100000000E-03 0. -1.
         11   -1    0    0    0    0 -0.00000000000E+00 -0.00000000000E+00 -0.45593999997E+02  0.45594000000E+02  0.51100000000E-03 0.  1.
    9900012    2    1    2    0    0  0.10103617650E+01  0.44974626957E+02  0.23185401265E+01  0.46142317309E+02  0.99999958759E+01 0.  0.
         12    1    1    2    0    0 -0.10103617650E+01 -0.44974626957E+02 -0.23185401265E+01  0.45045682691E+02  0.00000000000E+00 0. -1.
         11    1    3    3    0    0 -0.22689500514E+01  0.18812668479E+02 -0.21407697521E+01  0.19069544437E+02  0.51100000000E-03 0. -1.
        -11    1    3    3    0    0  0.32363827754E+01  0.20237556333E+02  0.50825628245E+01  0.21115522843E+02  0.51100000000E-03 0.  1.
         12    1    3    3    0    0  0.42929041001E-01  0.59244021448E+01 -0.62325294587E+00  0.59572500292E+01  0.00000000000E+00 0. -1.
</event>
<event>
 7    1  0.1485408E-008  0.4614232E+02  0.7816164E-02  0.1320468E+00
        -11   -1    0    0    0    0  0.00000000000E+00  0.00000000000E+00  0.45593999997E+02  0.45594000000E+02  0.51100000000E-03 0.  1.
         11   -1    0    0    0    0 -0.00000000000E+00 -0.00000000000E+00 -0.45593999997E+02  0.45594000000E+02  0.51100000000E-03 0. -1.
    9900012    2    1    2    0    0  0.69029024125E+01 -0.42412978308E+02  0.13513058013E+02  0.46142317326E+02  0.99999960337E+01 0.  0.
         12    1    1    2    0    0 -0.69029024125E+01  0.42412978308E+02 -0.13513058013E+02  0.45045682674E+02  0.00000000000E+00 0. -1.
         11    1    3    3    0    0  0.15598966968E+01 -0.25753097416E+01 -0.75162723595E+00  0.31032953022E+01  0.51100000000E-03 0. -1.
        -11    1    3    3    0    0  0.38217641587E+01 -0.11117900999E+02  0.54519881633E+01  0.12959080952E+02  0.51100000000E-03 0.  1.
         12    1    3    3    0    0  0.15212415570E+01 -0.28719767567E+02  0.88126970860E+01  0.30079941072E+02  0.00000000000E+00 0. -1.
</event>
<event>
 7    1  0.1485408E-008  0.4614232E+02  0.7816164E-02  0.1320468E+00
        -11   -1    0    0    0    0  0.00000000000E+00  0.00000000000E+00  0.45593999997E+02  0.45594000000E+02  0.51100000000E-03 0. -1.
         11   -1    0    0    0    0 -0.00000000000E+00 -0.00000000000E+00 -0.45593999997E+02  0.45594000000E+02  0.51100000000E-03 0.  1.
    9900012    2    1    2    0    0  0.72979072638E+01 -0.13056361638E+02 -0.42489827459E+02  0.46142317996E+02  0.10000002145E+02 0.  0.
         12    1    1    2    0    0 -0.72979072638E+01  0.13056361638E+02  0.42489827459E+02  0.45045682004E+02  0.00000000000E+00 0. -1.
         11    1    3    3    0    0 -0.59295320888E+00 -0.47241591003E+01 -0.90080562931E+01  0.10188932778E+02  0.51100000000E-03 0.  1.
        -11    1    3    3    0    0  0.61420106124E+01 -0.91952194904E+01 -0.26767352358E+02  0.28961483187E+02  0.51100000000E-03 0. -1.
        -12    1    3    3    0    0  0.17488498603E+01  0.86301695218E+00 -0.67144188079E+01  0.69919020317E+01  0.00000000000E+00 0.  1.
</event>
<event>
 7    1  0.1485408E-008  0.4614232E+02  0.7816164E-02  0.1320468E+00
        -11   -1    0    0    0    0  0.00000000000E+00  0.00000000000E+00  0.45593999997E+02  0.45594000000E+02  0.51100000000E-03 0. -1.
         11   -1    0    0    0    0 -0.00000000000E+00 -0.00000000000E+00 -0.45593999997E+02  0.45594000000E+02  0.51100000000E-03 0.  1.
    9900012    2    1    2    0    0  0.59314331262E+00  0.14220606719E+02 -0.42737992834E+02  0.46142317567E+02  0.99999982256E+01 0.  0.
         12    1    1    2    0    0 -0.59314331262E+00 -0.14220606719E+02  0.42737992834E+02  0.45045682433E+02  0.00000000000E+00 0. -1.
         11    1    3    3    0    0  0.11413315425E+01  0.32898280181E+01 -0.11079369058E+02  0.11613699887E+02  0.51100000000E-03 0. -1.
        -11    1    3    3    0    0 -0.31208495756E+01  0.84251278557E+00 -0.55815167483E+01  0.64500278557E+01  0.51100000000E-03 0.  1.
        -12    1    3    3    0    0  0.25726613457E+01  0.10088265916E+02 -0.26077107028E+02  0.28078589824E+02  0.00000000000E+00 0.  1.
</event>
<event>
 7    1  0.1485408E-008  0.4614232E+02  0.7816164E-02  0.1320468E+00
        -11   -1    0    0    0    0  0.00000000000E+00  0.00000000000E+00  0.45593999997E+02  0.45594000000E+02  0.51100000000E-03 0.  1.
         11   -1    0    0    0    0 -0.00000000000E+00 -0.00000000000E+00 -0.45593999997E+02  0.45594000000E+02  0.51100000000E-03 0. -1.
    9900012    2    1    2    0    0  0.12971828686E+00 -0.43977513992E+02  0.97506336473E+01  0.46142318517E+02  0.10000006889E+02 0.  0.
         12    1    1    2    0    0 -0.12971828686E+00  0.43977513992E+02 -0.97506336473E+01  0.45045681483E+02  0.00000000000E+00 0. -1.
         11    1    3    3    0    0 -0.25139772061E+01 -0.28564268779E+02  0.32158581503E+01  0.28854449851E+02  0.51100000000E-03 0. -1.
        -11    1    3    3    0    0  0.11799251342E+01 -0.13443083176E+02  0.49900920554E+01  0.14387832623E+02  0.51100000000E-03 0.  1.
         12    1    3    3    0    0  0.14637703588E+01 -0.19701620372E+01  0.15446834417E+01  0.29000360431E+01  0.00000000000E+00 0. -1.
</event>
<event>
 7    1  0.1485408E-008  0.4614232E+02  0.7816164E-02  0.1320468E+00
        -11   -1    0    0    0    0  0.00000000000E+00  0.00000000000E+00  0.45593999997E+02  0.45594000000E+02  0.51100000000E-03 0.  1.
         11   -1    0    0    0    0 -0.00000000000E+00 -0.00000000000E+00 -0.45593999997E+02  0.45594000000E+02  0.51100000000E-03 0. -1.
    9900012    2    1    2    0    0  0.59113323125E+01  0.44457248041E+02  0.42098329503E+01  0.46142318225E+02  0.10000004230E+02 0.  0.
         12    1    1    2    0    0 -0.59113323125E+01 -0.44457248041E+02 -0.42098329503E+01  0.45045681775E+02  0.00000000000E+00 0. -1.
         11    1    3    3    0    0  0.26238338276E+01  0.35041572753E+01 -0.10574288454E+01  0.45035295257E+01  0.51100000000E-03 0. -1.
        -11    1    3    3    0    0  0.60378574376E+00  0.22261563684E+02  0.46233479592E+01  0.22744606426E+02  0.51100000000E-03 0.  1.
         12    1    3    3    0    0  0.26837127411E+01  0.18691527082E+02  0.64391383659E+00  0.18894182273E+02  0.00000000000E+00 0. -1.
</event>
<event>
 7    1  0.1485408E-008  0.4614231E+02  0.7816164E-02  0.1320468E+00
        -11   -1    0    0    0    0  0.00000000000E+00  0.00000000000E+00  0.45593999997E+02  0.45594000000E+02  0.51100000000E-03 0.  1.
         11   -1    0    0    0    0 -0.00000000000E+00 -0.00000000000E+00 -0.45593999997E+02  0.45594000000E+02  0.51100000000E-03 0. -1.
    9900012    2    1    2    0    0  0.15738345247E+02  0.25849610941E+02  0.33364893454E+02  0.46142311947E+02  0.99999469860E+01 0.  0.
         12    1    1    2    0    0 -0.15738345247E+02 -0.25849610941E+02 -0.33364893454E+02  0.45045688053E+02  0.00000000000E+00 0. -1.
         11    1    3    3    0    0  0.28382098838E+01  0.50398627506E+00  0.17874196865E+01  0.33917999508E+01  0.51100000000E-03 0. -1.
        -11    1    3    3    0    0  0.88027792831E+01  0.16674998289E+02  0.24041351892E+02  0.30553741049E+02  0.51100000000E-03 0.  1.
        -12    1    3    3    0    0  0.40973560805E+01  0.86706263768E+01  0.75361218754E+01  0.12196770947E+02  0.00000000000E+00 0.  1.
</event>
<event>
 7    1  0.1485408E-008  0.4614232E+02  0.7816164E-02  0.1320468E+00
        -11   -1    0    0    0    0  0.00000000000E+00  0.00000000000E+00  0.45593999997E+02  0.45594000000E+02  0.51100000000E-03 0.  1.
         11   -1    0    0    0    0 -0.00000000000E+00 -0.00000000000E+00 -0.45593999997E+02  0.45594000000E+02  0.51100000000E-03 0. -1.
    9900012    2    1    2    0    0 -0.49120322028E+01  0.39238747898E+01  0.44604805660E+02  0.46142317169E+02  0.99999946025E+01 0.  0.
         12    1    1    2    0    0  0.49120322028E+01 -0.39238747898E+01 -0.44604805660E+02  0.45045682831E+02  0.00000000000E+00 0. -1.
         11    1    3    3    0    0 -0.31704865931E+00  0.16403759381E+01  0.24626342706E+01  0.29758899312E+01  0.51100000000E-03 0. -1.
        -11    1    3    3    0    0 -0.44550697009E+01 -0.19363959338E+01  0.17346179793E+02  0.18013529053E+02  0.51100000000E-03 0.  1.
        -12    1    3    3    0    0 -0.13991384261E+00  0.42198947854E+01  0.24795991596E+02  0.25152898185E+02  0.00000000000E+00 0.  1.
</event>
<event>
 7    1  0.1485408E-008  0.4614232E+02  0.7816164E-02  0.1320468E+00
        -11   -1    0    0    0    0  0.00000000000E+00  0.00000000000E+00  0.45593999997E+02  0.45594000000E+02  0.51100000000E-03 0.  1.
         11   -1    0    0    0    0 -0.00000000000E+00 -0.00000000000E+00 -0.45593999997E+02  0.45594000000E+02  0.51100000000E-03 0. -1.
    9900012    2    1    2    0    0  0.29318502620E+02  0.34058211462E+02  0.30946930626E+01  0.46142317754E+02  0.99999999342E+01 0.  0.
         12    1    1    2    0    0 -0.29318502620E+02 -0.34058211462E+02 -0.30946930626E+01  0.45045682246E+02  0.00000000000E+00 0. -1.
         11    1    3    3    0    0  0.26735060113E+01  0.76220964172E+00  0.61164635237E+00  0.28465258565E+01  0.51100000000E-03 0. -1.
        -11    1    3    3    0    0  0.78433965604E+01  0.15323508682E+02  0.88602964412E+00  0.17236990361E+02  0.51100000000E-03 0.  1.
        -12    1    3    3    0    0  0.18801600048E+02  0.17972493139E+02  0.15970170661E+01  0.26058801536E+02  0.00000000000E+00 0.  1.
</event>
<event>
 7    1  0.1485408E-008  0.4614232E+02  0.7816164E-02  0.1320468E+00
        -11   -1    0    0    0    0  0.00000000000E+00  0.00000000000E+00  0.45593999997E+02  0.45594000000E+02  0.51100000000E-03 0.  1.
         11   -1    0    0    0    0 -0.00000000000E+00 -0.00000000000E+00 -0.45593999997E+02  0.45594000000E+02  0.51100000000E-03 0. -1.
    9900012    2    1    2    0    0 -0.37789485483E+02 -0.19106600709E+02  0.15362483159E+02  0.46142319934E+02  0.10000019818E+02 0.  0.
         12    1    1    2    0    0  0.37789485483E+02  0.19106600709E+02 -0.15362483159E+02  0.45045680066E+02  0.00000000000E+00 0. -1.
         11    1    3    3    0    0 -0.89281462576E+01 -0.18272757281E+01  0.64566226567E+01  0.11168648467E+02  0.51100000000E-03 0. -1.
        -11    1    3    3    0    0 -0.10306452815E+02 -0.63095625261E+01  0.49484937462E+01  0.13058374306E+02  0.51100000000E-03 0.  1.
         12    1    3    3    0    0 -0.18554886411E+02 -0.10969762455E+02  0.39573667559E+01  0.21915297162E+02  0.00000000000E+00 0. -1.
</event>
<event>
 7    1  0.1485408E-008  0.4614232E+02  0.7816164E-02  0.1320468E+00
        -11   -1    0    0    0    0  0.00000000000E+00  0.00000000000E+00  0.45593999997E+02  0.45594000000E+02  0.51100000000E-03 0.  1.
         11   -1    0    0    0    0 -0.00000000000E+00 -0.00000000000E+00 -0.45593999997E+02  0.45594000000E+02  0.51100000000E-03 0. -1.
    9900012    2    1    2    0    0  0.13288189337E+02  0.40260688883E+02  0.15218884466E+02  0.46142317748E+02  0.99999998775E+01 0.  0.
         12    1    1    2    0    0 -0.13288189337E+02 -0.40260688883E+02 -0.15218884466E+02  0.45045682252E+02  0.00000000000E+00 0. -1.
         11    1    3    3    0    0  0.49060116218E+01  0.22651670854E+02  0.74912644801E+01  0.24357466746E+02  0.51100000000E-03 0. -1.
        -11    1    3    3    0    0  0.68363474109E+01  0.15120787285E+02  0.86502817355E+01  0.18713664216E+02  0.51100000000E-03 0.  1.
        -12    1    3    3    0    0  0.15458303045E+01  0.24882307436E+01 -0.92266174960E+00  0.30711867849E+01  0.00000000000E+00 0.  1.
</event>
<event>
 7    1  0.1485408E-008  0.4614232E+02  0.7816164E-02  0.1320468E+00
        -11   -1    0    0    0    0  0.00000000000E+00  0.00000000000E+00  0.45593999997E+02  0.45594000000E+02  0.51100000000E-03 0.  1.
         11   -1    0    0    0    0 -0.00000000000E+00 -0.00000000000E+00 -0.45593999997E+02  0.45594000000E+02  0.51100000000E-03 0. -1.
    9900012    2    1    2    0    0 -0.30082827976E+02 -0.94005228466E+01  0.32183335939E+02  0.46142317843E+02  0.10000000751E+02 0.  0.
         12    1    1    2    0    0  0.30082827976E+02  0.94005228466E+01 -0.32183335939E+02  0.45045682157E+02  0.00000000000E+00 0. -1.
         11    1    3    3    0    0 -0.51946781745E+01 -0.46676425863E+01  0.34151173591E+01  0.77739690948E+01  0.51100000000E-03 0. -1.
        -11    1    3    3    0    0 -0.44772673780E+01 -0.57602456692E+00  0.60142476047E+01  0.75199003974E+01  0.51100000000E-03 0.  1.
         12    1    3    3    0    0 -0.20410882423E+02 -0.41568556934E+01  0.22753970975E+02  0.30848448351E+02  0.00000000000E+00 0. -1.
</event>
<event>
 7    1  0.1485408E-008  0.4614232E+02  0.7816164E-02  0.1320468E+00
        -11   -1    0    0    0    0  0.00000000000E+00  0.00000000000E+00  0.45593999997E+02  0.45594000000E+02  0.51100000000E-03 0. -1.
         11   -1    0    0    0    0 -0.00000000000E+00 -0.00000000000E+00 -0.45593999997E+02  0.45594000000E+02  0.51100000000E-03 0.  1.
    9900012    2    1    2    0    0  0.69920892030E+01  0.41891134997E+02 -0.15011901744E+02  0.46142315448E+02  0.99999789079E+01 0.  0.
         12    1    1    2    0    0 -0.69920892030E+01 -0.41891134997E+02  0.15011901744E+02  0.45045684552E+02  0.00000000000E+00 0. -1.
         11    1    3    3    0    0  0.59332685140E+01  0.16598327494E+02 -0.41408985073E+01  0.18106771980E+02  0.51100000000E-03 0. -1.
        -11    1    3    3    0    0 -0.16732273450E+01  0.16488888758E+02 -0.61405254273E+01  0.17674535213E+02  0.51100000000E-03 0.  1.
        -12    1    3    3    0    0  0.27320480340E+01  0.88039187457E+01 -0.47304778096E+01  0.10361008254E+02  0.00000000000E+00 0.  1.
</event>
<event>
 7    1  0.1485408E-008  0.4614232E+02  0.7816164E-02  0.1320468E+00
        -11   -1    0    0    0    0  0.00000000000E+00  0.00000000000E+00  0.45593999997E+02  0.45594000000E+02  0.51100000000E-03 0.  1.
         11   -1    0    0    0    0 -0.00000000000E+00 -0.00000000000E+00 -0.45593999997E+02  0.45594000000E+02  0.51100000000E-03 0. -1.
    9900012    2    1    2    0    0  0.14537884745E+02  0.67064139479E+01  0.42104482288E+02  0.46142317525E+02  0.99999978452E+01 0.  0.
         12    1    1    2    0    0 -0.14537884745E+02 -0.67064139479E+01 -0.42104482288E+02  0.45045682475E+02  0.00000000000E+00 0. -1.
         11    1    3    3    0    0  0.68038426620E+01  0.34967363304E+01  0.93806631446E+01  0.12104390990E+02  0.51100000000E-03 0. -1.
        -11    1    3    3    0    0  0.12999230972E+01  0.24241746739E+01  0.73068560630E+01  0.78074687764E+01  0.51100000000E-03 0.  1.
         12    1    3    3    0    0  0.64341189855E+01  0.78550294364E+00  0.25416963081E+02  0.26230457759E+02  0.00000000000E+00 0. -1.
</event>
<event>
 7    1  0.1485408E-008  0.4614232E+02  0.7816164E-02  0.1320468E+00
        -11   -1    0    0    0    0  0.00000000000E+00  0.00000000000E+00  0.45593999997E+02  0.45594000000E+02  0.51100000000E-03 0.  1.
         11   -1    0    0    0    0 -0.00000000000E+00 -0.00000000000E+00 -0.45593999997E+02  0.45594000000E+02  0.51100000000E-03 0. -1.
    9900012    2    1    2    0    0  0.31221979029E+02 -0.37188500588E+01  0.32256343439E+02  0.46142317495E+02  0.99999975755E+01 0.  0.
         12    1    1    2    0    0 -0.31221979029E+02  0.37188500588E+01 -0.32256343439E+02  0.45045682505E+02  0.00000000000E+00 0. -1.
         11    1    3    3    0    0  0.83124741002E+01 -0.13980323604E+01  0.33262284225E+01  0.90617611934E+01  0.51100000000E-03 0. -1.
        -11    1    3    3    0    0  0.18685106727E+02 -0.14016374233E+01  0.24963135203E+02  0.31213072907E+02  0.51100000000E-03 0.  1.
         12    1    3    3    0    0  0.42243982021E+01 -0.91918027505E+00  0.39669798136E+01  0.58674833949E+01  0.00000000000E+00 0. -1.
</event>
<event>
 7    1  0.1485408E-008  0.4614232E+02  0.7816164E-02  0.1320468E+00
        -11   -1    0    0    0    0  0.00000000000E+00  0.00000000000E+00  0.45593999997E+02  0.45594000000E+02  0.51100000000E-03 0. -1.
         11   -1    0    0    0    0 -0.00000000000E+00 -0.00000000000E+00 -0.45593999997E+02  0.45594000000E+02  0.51100000000E-03 0.  1.
    9900012    2    1    2    0    0  0.21012542966E+02  0.35006213179E+02 -0.19030282073E+02  0.46142316979E+02  0.99999928679E+01 0.  0.
         12    1    1    2    0    0 -0.21012542966E+02 -0.35006213179E+02  0.19030282073E+02  0.45045683021E+02  0.00000000000E+00 0. -1.
         11    1    3    3    0    0  0.10304974932E+02  0.18018575523E+02 -0.73380857686E+01  0.22016109448E+02  0.51100000000E-03 0.  1.
        -11    1    3    3    0    0  0.10353039034E+02  0.17054942741E+02 -0.98525446452E+01  0.22251497149E+02  0.51100000000E-03 0. -1.
         12    1    3    3    0    0  0.35452900028E+00 -0.67305084993E-01 -0.18396516593E+01  0.18747103814E+01  0.00000000000E+00 0. -1.
</event>
<event>
 7    1  0.1485408E-008  0.4614231E+02  0.7816164E-02  0.1320468E+00
        -11   -1    0    0    0    0  0.00000000000E+00  0.00000000000E+00  0.45593999997E+02  0.45594000000E+02  0.51100000000E-03 0.  1.
         11   -1    0    0    0    0 -0.00000000000E+00 -0.00000000000E+00 -0.45593999997E+02  0.45594000000E+02  0.51100000000E-03 0. -1.
    9900012    2    1    2    0    0  0.13872663665E+02 -0.20270039498E+02  0.37759614723E+02  0.46142314276E+02  0.99999682157E+01 0.  0.
         12    1    1    2    0    0 -0.13872663665E+02  0.20270039498E+02 -0.37759614723E+02  0.45045685724E+02  0.00000000000E+00 0. -1.
         11    1    3    3    0    0  0.25997418821E+01 -0.52181710417E+01  0.78392396825E+01  0.97694240329E+01  0.51100000000E-03 0. -1.
        -11    1    3    3    0    0  0.85715938815E+01 -0.14845184085E+02  0.28635802085E+02  0.33374554281E+02  0.51100000000E-03 0.  1.
        -12    1    3    3    0    0  0.27013279013E+01 -0.20668437100E+00  0.12845729555E+01  0.29983359614E+01  0.00000000000E+00 0.  1.
</event>
<event>
 7    1  0.1485408E-008  0.4614232E+02  0.7816164E-02  0.1320468E+00
        -11   -1    0    0    0    0  0.00000000000E+00  0.00000000000E+00  0.45593999997E+02  0.45594000000E+02  0.51100000000E-03 0. -1.
         11   -1    0    0    0    0 -0.00000000000E+00 -0.00000000000E+00 -0.45593999997E+02  0.45594000000E+02  0.51100000000E-03 0.  1.
    9900012    2    1    2    0    0  0.44773540341E+02  0.48637510348E+01  0.88740208233E+00  0.46142317951E+02  0.10000001729E+02 0.  0.
         12    1    1    2    0    0 -0.44773540341E+02 -0.48637510348E+01 -0.88740208233E+00  0.45045682049E+02  0.00000000000E+00 0. -1.
         11    1    3    3    0    0  0.64775789971E+01 -0.19006232678E+01 -0.61768181154E+00  0.67788590155E+01  0.51100000000E-03 0. -1.
        -11    1    3    3    0    0  0.16685546052E+02  0.48010792610E+01 -0.16293841741E+01  0.17438827431E+02  0.51100000000E-03 0.  1.
        -12    1    3    3    0    0  0.21610415292E+02  0.19632950416E+01  0.31344680680E+01  0.21924631504E+02  0.00000000000E+00 0.  1.
</event>
<event>
 7    1  0.1485408E-008  0.4614232E+02  0.7816164E-02  0.1320468E+00
        -11   -1    0    0    0    0  0.00000000000E+00  0.00000000000E+00  0.45593999997E+02  0.45594000000E+02  0.51100000000E-03 0.  1.
         11   -1    0    0    0    0 -0.00000000000E+00 -0.00000000000E+00 -0.45593999997E+02  0.45594000000E+02  0.51100000000E-03 0. -1.
    9900012    2    1    2    0    0  0.28592247400E+02 -0.31114875674E+01  0.34668653473E+02  0.46142317633E+02  0.99999988327E+01 0.  0.
         12    1    1    2    0    0 -0.28592247400E+02  0.31114875674E+01 -0.34668653473E+02  0.45045682367E+02  0.00000000000E+00 0. -1.
         11    1    3    3    0    0  0.37336063625E+01 -0.39382277666E+01  0.52974451480E+01  0.75836916979E+01  0.51100000000E-03 0. -1.
        -11    1    3    3    0    0  0.50938990403E+01 -0.12352439826E+00  0.46961496635E+01  0.69294218831E+01  0.51100000000E-03 0.  1.
         12    1    3    3    0    0  0.19764741997E+02  0.95026459746E+00  0.24675058662E+02  0.31629204052E+02  0.00000000000E+00 0. -1.
</event>
<event>
 7    1  0.1485408E-008  0.4614232E+02  0.7816164E-02  0.1320468E+00
        -11   -1    0    0    0    0  0.00000000000E+00  0.00000000000E+00  0.45593999997E+02  0.45594000000E+02  0.51100000000E-03 0.  1.
         11   -1    0    0    0    0 -0.00000000000E+00 -0.00000000000E+00 -0.45593999997E+02  0.45594000000E+02  0.51100000000E-03 0. -1.
    9900012    2    1    2    0    0  0.29291409754E+02  0.32897116888E+02 -0.94290240656E+01  0.46142317857E+02  0.10000000872E+02 0.  0.
         12    1    1    2    0    0 -0.29291409754E+02 -0.32897116888E+02  0.94290240656E+01  0.45045682143E+02  0.00000000000E+00 0. -1.
         11    1    3    3    0    0  0.94549982995E+01  0.85687701569E+01 -0.50189109845E+01  0.13711684163E+02  0.51100000000E-03 0. -1.
        -11    1    3    3    0    0  0.11738043825E+02  0.18893217469E+02 -0.16977891780E+01  0.22307349182E+02  0.51100000000E-03 0.  1.
        -12    1    3    3    0    0  0.80983676291E+01  0.54351292622E+01 -0.27123239030E+01  0.10123284512E+02  0.00000000000E+00 0.  1.
</event>
<event>
 7    1  0.1485408E-008  0.4614232E+02  0.7816164E-02  0.1320468E+00
        -11   -1    0    0    0    0  0.00000000000E+00  0.00000000000E+00  0.45593999997E+02  0.45594000000E+02  0.51100000000E-03 0.  1.
         11   -1    0    0    0    0 -0.00000000000E+00 -0.00000000000E+00 -0.45593999997E+02  0.45594000000E+02  0.51100000000E-03 0. -1.
    9900012    2    1    2    0    0  0.18979744275E+02  0.16424611476E+02  0.37404741280E+02  0.46142320683E+02  0.10000026646E+02 0.  0.
         12    1    1    2    0    0 -0.18979744275E+02 -0.16424611476E+02 -0.37404741280E+02  0.45045679317E+02  0.00000000000E+00 0. -1.
         11    1    3    3    0    0  0.16767822453E+02  0.12979767123E+02  0.32910953585E+02  0.39150543936E+02  0.51100000000E-03 0.  1.
        -11    1    3    3    0    0  0.15885641099E+01  0.40472662605E+01  0.30615089002E+01  0.53175875283E+01  0.51100000000E-03 0. -1.
         12    1    3    3    0    0  0.62335771170E+00 -0.60242190791E+00  0.14322787956E+01  0.16741892187E+01  0.00000000000E+00 0. -1.
</event>
<event>
 7    1  0.1485408E-008  0.4614232E+02  0.7816164E-02  0.1320468E+00
        -11   -1    0    0    0    0  0.00000000000E+00  0.00000000000E+00  0.45593999997E+02  0.45594000000E+02  0.51100000000E-03 0. -1.
         11   -1    0    0    0    0 -0.00000000000E+00 -0.00000000000E+00 -0.45593999997E+02  0.45594000000E+02  0.51100000000E-03 0.  1.
    9900012    2    1    2    0    0 -0.24772914478E+02  0.16494063901E+02  0.33813637714E+02  0.46142317286E+02  0.99999956654E+01 0.  0.
         12    1    1    2    0    0  0.24772914478E+02 -0.16494063901E+02 -0.33813637714E+02  0.45045682714E+02  0.00000000000E+00 0. -1.
         11    1    3    3    0    0 -0.13225353025E+02  0.99633914802E+01  0.23911959427E+02  0.29085407619E+02  0.51100000000E-03 0. -1.
        -11    1    3    3    0    0 -0.11895971724E+02  0.64304826282E+01  0.95808898279E+01  0.16572830182E+02  0.51100000000E-03 0.  1.
         12    1    3    3    0    0  0.34841027160E+00  0.10018979282E+00  0.32078845926E+00  0.48407948474E+00  0.00000000000E+00 0. -1.
</event>
<event>
 7    1  0.1485408E-008  0.4614232E+02  0.7816164E-02  0.1320468E+00
        -11   -1    0    0    0    0  0.00000000000E+00  0.00000000000E+00  0.45593999997E+02  0.45594000000E+02  0.51100000000E-03 0.  1.
         11   -1    0    0    0    0 -0.00000000000E+00 -0.00000000000E+00 -0.45593999997E+02  0.45594000000E+02  0.51100000000E-03 0. -1.
    9900012    2    1    2    0    0 -0.32259277354E+02  0.30963066983E+02  0.54535286748E+01  0.46142317994E+02  0.10000002127E+02 0.  0.
         12    1    1    2    0    0  0.32259277354E+02 -0.30963066983E+02 -0.54535286748E+01  0.45045682006E+02  0.00000000000E+00 0. -1.
         11    1    3    3    0    0 -0.34831425509E+01  0.60410377484E+01 -0.10359029531E+00  0.69740340061E+01  0.51100000000E-03 0. -1.
        -11    1    3    3    0    0 -0.13817297628E+01  0.30337713617E+01  0.20848323007E+01  0.39318534810E+01  0.51100000000E-03 0.  1.
        -12    1    3    3    0    0 -0.27394405040E+02  0.21888257872E+02  0.34722866694E+01  0.35236430507E+02  0.00000000000E+00 0.  1.
</event>
<event>
 7    1  0.1485408E-008  0.4614232E+02  0.7816164E-02  0.1320468E+00
        -11   -1    0    0    0    0  0.00000000000E+00  0.00000000000E+00  0.45593999997E+02  0.45594000000E+02  0.51100000000E-03 0.  1.
         11   -1    0    0    0    0 -0.00000000000E+00 -0.00000000000E+00 -0.45593999997E+02  0.45594000000E+02  0.51100000000E-03 0. -1.
    9900012    2    1    2    0    0 -0.18973646834E+02 -0.39324866920E+02 -0.11075605480E+02  0.46142317974E+02  0.10000001937E+02 0.  0.
         12    1    1    2    0    0  0.18973646834E+02  0.39324866920E+02  0.11075605480E+02  0.45045682026E+02  0.00000000000E+00 0. -1.
         11    1    3    3    0    0 -0.13907981321E+02 -0.34833352374E+02 -0.10431141958E+02  0.38930747551E+02  0.51100000000E-03 0. -1.
        -11    1    3    3    0    0 -0.27609448978E+01 -0.96021168749E+00 -0.65076070279E+00  0.29947141712E+01  0.51100000000E-03 0.  1.
         12    1    3    3    0    0 -0.23047206149E+01 -0.35313028585E+01  0.62971803203E-02  0.42168562515E+01  0.00000000000E+00 0. -1.
</event>
<event>
 7    1  0.1485408E-008  0.4614232E+02  0.7816164E-02  0.1320468E+00
        -11   -1    0    0    0    0  0.00000000000E+00  0.00000000000E+00  0.45593999997E+02  0.45594000000E+02  0.51100000000E-03 0.  1.
         11   -1    0    0    0    0 -0.00000000000E+00 -0.00000000000E+00 -0.45593999997E+02  0.45594000000E+02  0.51100000000E-03 0. -1.
    9900012    2    1    2    0    0  0.81753204768E+01  0.19123167408E+02  0.39957253461E+02  0.46142317624E+02  0.99999987468E+01 0.  0.
         12    1    1    2    0    0 -0.81753204768E+01 -0.19123167408E+02 -0.39957253461E+02  0.45045682376E+02  0.00000000000E+00 0. -1.
         11    1    3    3    0    0 -0.53533041087E-01  0.56011613242E+01  0.16271496259E+02  0.17208645058E+02  0.51100000000E-03 0. -1.
        -11    1    3    3    0    0  0.22252067116E+01  0.83852162586E+01  0.11381303298E+02  0.14310746369E+02  0.51100000000E-03 0.  1.
         12    1    3    3    0    0  0.60036468064E+01  0.51367898248E+01  0.12304453905E+02  0.14622926197E+02  0.00000000000E+00 0. -1.
</event>
<event>
 7    1  0.1485408E-008  0.4614231E+02  0.7816164E-02  0.1320468E+00
        -11   -1    0    0    0    0  0.00000000000E+00  0.00000000000E+00  0.45593999997E+02  0.45594000000E+02  0.51100000000E-03 0.  1.
         11   -1    0    0    0    0 -0.00000000000E+00 -0.00000000000E+00 -0.45593999997E+02  0.45594000000E+02  0.51100000000E-03 0. -1.
    9900012    2    1    2    0    0 -0.29816408913E+02 -0.20258423458E+02  0.27012815923E+02  0.46142310022E+02  0.99999294267E+01 0.  0.
         12    1    1    2    0    0  0.29816408913E+02  0.20258423458E+02 -0.27012815923E+02  0.45045689978E+02  0.00000000000E+00 0. -1.
         11    1    3    3    0    0 -0.55222121164E+01 -0.23628180678E+01  0.42431936030E+01  0.73540756111E+01  0.51100000000E-03 0. -1.
        -11    1    3    3    0    0 -0.22836274476E+02 -0.18820501469E+02  0.20811796044E+02  0.36177860112E+02  0.51100000000E-03 0.  1.
        -12    1    3    3    0    0 -0.14579223206E+01  0.92489607802E+00  0.19578262766E+01  0.26103742984E+01  0.00000000000E+00 0.  1.
</event>
<event>
 7    1  0.1485408E-008  0.4614232E+02  0.7816164E-02  0.1320468E+00
        -11   -1    0    0    0    0  0.00000000000E+00  0.00000000000E+00  0.45593999997E+02  0.45594000000E+02  0.51100000000E-03 0. -1.
         11   -1    0    0    0    0 -0.00000000000E+00 -0.00000000000E+00 -0.45593999997E+02  0.45594000000E+02  0.51100000000E-03 0.  1.
    9900012    2    1    2    0    0  0.60473963276E+01  0.24007709853E+02 -0.37632064250E+02  0.46142318804E+02  0.10000009508E+02 0.  0.
         12    1    1    2    0    0 -0.60473963276E+01 -0.24007709853E+02  0.37632064250E+02  0.45045681196E+02  0.00000000000E+00 0. -1.
         11    1    3    3    0    0  0.12941095083E+01  0.42396898178E+00 -0.53074930060E+01  0.54794115913E+01  0.51100000000E-03 0. -1.
        -11    1    3    3    0    0  0.38364906090E+01  0.23279300899E+02 -0.30154840753E+02  0.38287843131E+02  0.51100000000E-03 0.  1.
        -12    1    3    3    0    0  0.91679621030E+00  0.30443997254E+00 -0.21697304909E+01  0.23750640815E+01  0.00000000000E+00 0.  1.
</event>
<event>
 7    1  0.1485408E-008  0.4614232E+02  0.7816164E-02  0.1320468E+00
        -11   -1    0    0    0    0  0.00000000000E+00  0.00000000000E+00  0.45593999997E+02  0.45594000000E+02  0.51100000000E-03 0. -1.
         11   -1    0    0    0    0 -0.00000000000E+00 -0.00000000000E+00 -0.45593999997E+02  0.45594000000E+02  0.51100000000E-03 0.  1.
    9900012    2    1    2    0    0  0.43266437487E+02 -0.10882239190E+02 -0.62213962792E+01  0.46142317473E+02  0.99999973763E+01 0.  0.
         12    1    1    2    0    0 -0.43266437487E+02  0.10882239190E+02  0.62213962792E+01  0.45045682527E+02  0.00000000000E+00 0. -1.
         11    1    3    3    0    0  0.10471876692E+01 -0.63253777754E-01 -0.12722032396E+01  0.16489707089E+01  0.51100000000E-03 0. -1.
        -11    1    3    3    0    0  0.39129801828E+02 -0.78253953025E+01 -0.41760524127E+01  0.40122532531E+02  0.51100000000E-03 0.  1.
        -12    1    3    3    0    0  0.30894479903E+01 -0.29935901100E+01 -0.77314062697E+00  0.43708142331E+01  0.00000000000E+00 0.  1.
</event>
<event>
 7    1  0.1485408E-008  0.4614232E+02  0.7816164E-02  0.1320468E+00
        -11   -1    0    0    0    0  0.00000000000E+00  0.00000000000E+00  0.45593999997E+02  0.45594000000E+02  0.51100000000E-03 0. -1.
         11   -1    0    0    0    0 -0.00000000000E+00 -0.00000000000E+00 -0.45593999997E+02  0.45594000000E+02  0.51100000000E-03 0.  1.
    9900012    2    1    2    0    0  0.84044985069E+01 -0.10857317835E+02 -0.42902174152E+02  0.46142317713E+02  0.99999995591E+01 0.  0.
         12    1    1    2    0    0 -0.84044985069E+01  0.10857317835E+02  0.42902174152E+02  0.45045682287E+02  0.00000000000E+00 0. -1.
         11    1    3    3    0    0  0.38250580750E+00 -0.76379858337E+01 -0.15102286098E+02  0.16928206755E+02  0.51100000000E-03 0. -1.
        -11    1    3    3    0    0  0.20824013337E+01  0.24512261703E+00 -0.69788409265E+01  0.72870228043E+01  0.51100000000E-03 0.  1.
         12    1    3    3    0    0  0.59395913657E+01 -0.34644546183E+01 -0.20821047128E+02  0.21927088154E+02  0.00000000000E+00 0. -1.
</event>
<event>
 7    1  0.1485408E-008  0.4614232E+02  0.7816164E-02  0.1320468E+00
        -11   -1    0    0    0    0  0.00000000000E+00  0.00000000000E+00  0.45593999997E+02  0.45594000000E+02  0.51100000000E-03 0. -1.
         11   -1    0    0    0    0 -0.00000000000E+00 -0.00000000000E+00 -0.45593999997E+02  0.45594000000E+02  0.51100000000E-03 0.  1.
    9900012    2    1    2    0    0 -0.19896736211E+02  0.35543133557E+02 -0.19233280300E+02  0.46142317343E+02  0.99999961895E+01 0.  0.
         12    1    1    2    0    0  0.19896736211E+02 -0.35543133557E+02  0.19233280300E+02  0.45045682657E+02  0.00000000000E+00 0. -1.
         11    1    3    3    0    0  0.33468482674E+00  0.16159962124E+01 -0.11187653180E+01  0.19937637246E+01  0.51100000000E-03 0. -1.
        -11    1    3    3    0    0 -0.13467347221E+02  0.15831504826E+02 -0.11337483211E+02  0.23675821254E+02  0.51100000000E-03 0.  1.
        -12    1    3    3    0    0 -0.67640738167E+01  0.18095632518E+02 -0.67770317716E+01  0.20472732365E+02  0.00000000000E+00 0.  1.
</event>
<event>
 7    1  0.1485408E-008  0.4614232E+02  0.7816164E-02  0.1320468E+00
        -11   -1    0    0    0    0  0.00000000000E+00  0.00000000000E+00  0.45593999997E+02  0.45594000000E+02  0.51100000000E-03 0.  1.
         11   -1    0    0    0    0 -0.00000000000E+00 -0.00000000000E+00 -0.45593999997E+02  0.45594000000E+02  0.51100000000E-03 0. -1.
    9900012    2    1    2    0    0  0.37272116454E+02  0.14486202034E+02  0.20737711245E+02  0.46142318941E+02  0.10000010762E+02 0.  0.
         12    1    1    2    0    0 -0.37272116454E+02 -0.14486202034E+02 -0.20737711245E+02  0.45045681059E+02  0.00000000000E+00 0. -1.
         11    1    3    3    0    0  0.73449210014E+01  0.26342105386E+01  0.19661280681E+01  0.80468993730E+01  0.51100000000E-03 0. -1.
        -11    1    3    3    0    0  0.29793840172E+02  0.12595392637E+02  0.18626179885E+02  0.37326283035E+02  0.51100000000E-03 0.  1.
        -12    1    3    3    0    0  0.13335528126E+00 -0.74340114186E+00  0.14540329177E+00  0.76913653275E+00  0.00000000000E+00 0.  1.
</event>
<event>
 7    1  0.1485408E-008  0.4614232E+02  0.7816164E-02  0.1320468E+00
        -11   -1    0    0    0    0  0.00000000000E+00  0.00000000000E+00  0.45593999997E+02  0.45594000000E+02  0.51100000000E-03 0. -1.
         11   -1    0    0    0    0 -0.00000000000E+00 -0.00000000000E+00 -0.45593999997E+02  0.45594000000E+02  0.51100000000E-03 0.  1.
    9900012    2    1    2    0    0 -0.26267261887E+02  0.21751599647E+02  0.29428077237E+02  0.46142324691E+02  0.10000063190E+02 0.  0.
         12    1    1    2    0    0  0.26267261887E+02 -0.21751599647E+02 -0.29428077237E+02  0.45045675309E+02  0.00000000000E+00 0. -1.
         11    1    3    3    0    0 -0.52470869074E+01  0.65299347912E+01  0.98365567878E+01  0.12920132317E+02  0.51100000000E-03 0. -1.
        -11    1    3    3    0    0 -0.11716397689E+02  0.88147994225E+01  0.15152595443E+02  0.21084966506E+02  0.51100000000E-03 0.  1.
        -12    1    3    3    0    0 -0.93037772901E+01  0.64068654330E+01  0.44389250062E+01  0.12137225867E+02  0.00000000000E+00 0.  1.
</event>
<event>
 7    1  0.1485408E-008  0.4614232E+02  0.7816164E-02  0.1320468E+00
        -11   -1    0    0    0    0  0.00000000000E+00  0.00000000000E+00  0.45593999997E+02  0.45594000000E+02  0.51100000000E-03 0. -1.
         11   -1    0    0    0    0 -0.00000000000E+00 -0.00000000000E+00 -0.45593999997E+02  0.45594000000E+02  0.51100000000E-03 0.  1.
    9900012    2    1    2    0    0  0.44568690583E+02  0.36100920157E+00 -0.65280164358E+01  0.46142317559E+02  0.99999981589E+01 0.  0.
         12    1    1    2    0    0 -0.44568690583E+02 -0.36100920157E+00  0.65280164358E+01  0.45045682441E+02  0.00000000000E+00 0. -1.
         11    1    3    3    0    0  0.68241342864E+01 -0.28984709740E+01 -0.12983725977E+01  0.75269990308E+01  0.51100000000E-03 0. -1.
        -11    1    3    3    0    0  0.21637411716E+02  0.75349333097E+00 -0.55612111077E+00  0.21657668594E+02  0.51100000000E-03 0.  1.
        -12    1    3    3    0    0  0.16107144581E+02  0.25059868446E+01 -0.46735227273E+01  0.16957649934E+02  0.00000000000E+00 0.  1.
</event>
<event>
 7    1  0.1485408E-008  0.4614232E+02  0.7816164E-02  0.1320468E+00
        -11   -1    0    0    0    0  0.00000000000E+00  0.00000000000E+00  0.45593999997E+02  0.45594000000E+02  0.51100000000E-03 0.  1.
         11   -1    0    0    0    0 -0.00000000000E+00 -0.00000000000E+00 -0.45593999997E+02  0.45594000000E+02  0.51100000000E-03 0. -1.
    9900012    2    1    2    0    0  0.24505475523E+02  0.29397766485E+01  0.37682260841E+02  0.46142318748E+02  0.10000009001E+02 0.  0.
         12    1    1    2    0    0 -0.24505475523E+02 -0.29397766485E+01 -0.37682260841E+02  0.45045681252E+02  0.00000000000E+00 0. -1.
         11    1    3    3    0    0  0.11404851828E+01 -0.34127838824E+00  0.68716649335E+01  0.69740201183E+01  0.51100000000E-03 0.  1.
        -11    1    3    3    0    0  0.86713077561E+01  0.35810016936E+01  0.10251254467E+02  0.13896163850E+02  0.51100000000E-03 0. -1.
        -12    1    3    3    0    0  0.14693682584E+02 -0.29994665682E+00  0.20559341441E+02  0.25272134780E+02  0.00000000000E+00 0.  1.
</event>
<event>
 7    1  0.1485408E-008  0.4614231E+02  0.7816164E-02  0.1320468E+00
        -11   -1    0    0    0    0  0.00000000000E+00  0.00000000000E+00  0.45593999997E+02  0.45594000000E+02  0.51100000000E-03 0.  1.
         11   -1    0    0    0    0 -0.00000000000E+00 -0.00000000000E+00 -0.45593999997E+02  0.45594000000E+02  0.51100000000E-03 0. -1.
    9900012    2    1    2    0    0  0.17000039882E+02 -0.27165348487E+02  0.31656860135E+02  0.46142308663E+02  0.99999170368E+01 0.  0.
         12    1    1    2    0    0 -0.17000039882E+02  0.27165348487E+02 -0.31656860135E+02  0.45045691337E+02  0.00000000000E+00 0. -1.
         11    1    3    3    0    0  0.12073389403E+01 -0.39097860681E-01 -0.12801957492E+00  0.12147366925E+01  0.51100000000E-03 0. -1.
        -11    1    3    3    0    0  0.92318474696E+01 -0.14281820604E+02  0.20359552228E+02  0.26527509771E+02  0.51100000000E-03 0.  1.
        -12    1    3    3    0    0  0.65608534725E+01 -0.12844430022E+02  0.11425327482E+02  0.18400062200E+02  0.00000000000E+00 0.  1.
</event>
<event>
 7    1  0.1485408E-008  0.4614232E+02  0.7816164E-02  0.1320468E+00
        -11   -1    0    0    0    0  0.00000000000E+00  0.00000000000E+00  0.45593999997E+02  0.45594000000E+02  0.51100000000E-03 0.  1.
         11   -1    0    0    0    0 -0.00000000000E+00 -0.00000000000E+00 -0.45593999997E+02  0.45594000000E+02  0.51100000000E-03 0. -1.
    9900012    2    1    2    0    0 -0.43210650134E+02 -0.35141196311E+01 -0.12231275205E+02  0.46142318576E+02  0.10000007434E+02 0.  0.
         12    1    1    2    0    0  0.43210650134E+02  0.35141196311E+01  0.12231275205E+02  0.45045681424E+02  0.00000000000E+00 0. -1.
         11    1    3    3    0    0 -0.16582712742E+02 -0.32181112772E+01 -0.36640905677E+01  0.17284911398E+02  0.51100000000E-03 0. -1.
        -11    1    3    3    0    0 -0.28141352120E+00  0.10505793978E+01 -0.82116527333E+00  0.13627998049E+01  0.51100000000E-03 0.  1.
        -12    1    3    3    0    0 -0.26346523871E+02 -0.13465877518E+01 -0.77460193637E+01  0.27494607374E+02  0.00000000000E+00 0.  1.
</event>
<event>
 7    1  0.1485408E-008  0.4614232E+02  0.7816164E-02  0.1320468E+00
        -11   -1    0    0    0    0  0.00000000000E+00  0.00000000000E+00  0.45593999997E+02  0.45594000000E+02  0.51100000000E-03 0.  1.
         11   -1    0    0    0    0 -0.00000000000E+00 -0.00000000000E+00 -0.45593999997E+02  0.45594000000E+02  0.51100000000E-03 0. -1.
    9900012    2    1    2    0    0 -0.32944727243E+02  0.13003866308E+02  0.27832674828E+02  0.46142318962E+02  0.10000010955E+02 0.  0.
         12    1    1    2    0    0  0.32944727243E+02 -0.13003866308E+02 -0.27832674828E+02  0.45045681038E+02  0.00000000000E+00 0. -1.
         11    1    3    3    0    0 -0.69425949407E+00 -0.12567817566E+00  0.38048962949E+00  0.80160081600E+00  0.51100000000E-03 0. -1.
        -11    1    3    3    0    0 -0.29500466416E+02  0.94735847331E+01  0.20996107980E+02  0.37428102771E+02  0.51100000000E-03 0.  1.
        -12    1    3    3    0    0 -0.27500013324E+01  0.36559597504E+01  0.64560772189E+01  0.79126153755E+01  0.00000000000E+00 0.  1.
</event>
<event>
 7    1  0.1485408E-008  0.4614232E+02  0.7816164E-02  0.1320468E+00
        -11   -1    0    0    0    0  0.00000000000E+00  0.00000000000E+00  0.45593999997E+02  0.45594000000E+02  0.51100000000E-03 0.  1.
         11   -1    0    0    0    0 -0.00000000000E+00 -0.00000000000E+00 -0.45593999997E+02  0.45594000000E+02  0.51100000000E-03 0. -1.
    9900012    2    1    2    0    0  0.20097008253E+02  0.30994084382E+02  0.25779652538E+02  0.46142317717E+02  0.99999995951E+01 0.  0.
         12    1    1    2    0    0 -0.20097008253E+02 -0.30994084382E+02 -0.25779652538E+02  0.45045682283E+02  0.00000000000E+00 0. -1.
         11    1    3    3    0    0  0.69662092149E+01  0.78618021496E+01  0.87006518016E+01  0.13639550795E+02  0.51100000000E-03 0.  1.
        -11    1    3    3    0    0  0.25476086670E+01  0.11418286139E+02  0.90543641654E+01  0.14793548560E+02  0.51100000000E-03 0. -1.
         12    1    3    3    0    0  0.10583190371E+02  0.11713996093E+02  0.80246365711E+01  0.17709218362E+02  0.00000000000E+00 0. -1.
</event>
<event>
 7    1  0.1485408E-008  0.4614232E+02  0.7816164E-02  0.1320468E+00
        -11   -1    0    0    0    0  0.00000000000E+00  0.00000000000E+00  0.45593999997E+02  0.45594000000E+02  0.51100000000E-03 0.  1.
         11   -1    0    0    0    0 -0.00000000000E+00 -0.00000000000E+00 -0.45593999997E+02  0.45594000000E+02  0.51100000000E-03 0. -1.
    9900012    2    1    2    0    0  0.28673861543E+02  0.21233539317E+02  0.27496544409E+02  0.46142317830E+02  0.10000000632E+02 0.  0.
         12    1    1    2    0    0 -0.28673861543E+02 -0.21233539317E+02 -0.27496544409E+02  0.45045682170E+02  0.00000000000E+00 0. -1.
         11    1    3    3    0    0  0.27887008839E+01  0.87552353714E+00  0.28902749482E+01  0.41106062353E+01  0.51100000000E-03 0. -1.
        -11    1    3    3    0    0  0.18458329879E+00 -0.46778244859E+00  0.17586422573E+01  0.18291293732E+01  0.51100000000E-03 0.  1.
        -12    1    3    3    0    0  0.25700577360E+02  0.20825798228E+02  0.22847627203E+02  0.40202582222E+02  0.00000000000E+00 0.  1.
</event>
<event>
 7    1  0.1485408E-008  0.4614232E+02  0.7816164E-02  0.1320468E+00
        -11   -1    0    0    0    0  0.00000000000E+00  0.00000000000E+00  0.45593999997E+02  0.45594000000E+02  0.51100000000E-03 0. -1.
         11   -1    0    0    0    0 -0.00000000000E+00 -0.00000000000E+00 -0.45593999997E+02  0.45594000000E+02  0.51100000000E-03 0.  1.
    9900012    2    1    2    0    0  0.19132667103E+02  0.32530899094E+02 -0.24592580958E+02  0.46142318914E+02  0.10000010510E+02 0.  0.
         12    1    1    2    0    0 -0.19132667103E+02 -0.32530899094E+02  0.24592580958E+02  0.45045681086E+02  0.00000000000E+00 0. -1.
         11    1    3    3    0    0  0.24768921705E+01  0.22147384469E+01 -0.24828032818E+01  0.41478155226E+01  0.51100000000E-03 0. -1.
        -11    1    3    3    0    0  0.11861668796E+02  0.16780978534E+02 -0.17265539106E+02  0.26840254619E+02  0.51100000000E-03 0.  1.
        -12    1    3    3    0    0  0.47941061361E+01  0.13535182114E+02 -0.48442385705E+01  0.15154248772E+02  0.00000000000E+00 0.  1.
</event>
<event>
 7    1  0.1485408E-008  0.4614232E+02  0.7816164E-02  0.1320468E+00
        -11   -1    0    0    0    0  0.00000000000E+00  0.00000000000E+00  0.45593999997E+02  0.45594000000E+02  0.51100000000E-03 0. -1.
         11   -1    0    0    0    0 -0.00000000000E+00 -0.00000000000E+00 -0.45593999997E+02  0.45594000000E+02  0.51100000000E-03 0.  1.
    9900012    2    1    2    0    0 -0.38644295360E+02  0.11490196192E+02 -0.20092471137E+02  0.46142316868E+02  0.99999918566E+01 0.  0.
         12    1    1    2    0    0  0.38644295360E+02 -0.11490196192E+02  0.20092471137E+02  0.45045683132E+02  0.00000000000E+00 0. -1.
         11    1    3    3    0    0 -0.45316206805E+01  0.14187556844E+00 -0.46395319509E+01  0.64869847890E+01  0.51100000000E-03 0. -1.
        -11    1    3    3    0    0 -0.22592648527E+02  0.52000883178E+01 -0.12203320717E+02  0.26199040493E+02  0.51100000000E-03 0.  1.
         12    1    3    3    0    0 -0.11520026153E+02  0.61482323061E+01 -0.32496184692E+01  0.13456291586E+02  0.00000000000E+00 0. -1.
</event>
<event>
 7    1  0.1485408E-008  0.4614232E+02  0.7816164E-02  0.1320468E+00
        -11   -1    0    0    0    0  0.00000000000E+00  0.00000000000E+00  0.45593999997E+02  0.45594000000E+02  0.51100000000E-03 0. -1.
         11   -1    0    0    0    0 -0.00000000000E+00 -0.00000000000E+00 -0.45593999997E+02  0.45594000000E+02  0.51100000000E-03 0.  1.
    9900012    2    1    2    0    0  0.35562335094E+02 -0.49183312141E+01 -0.27207424351E+02  0.46142316533E+02  0.99999887967E+01 0.  0.
         12    1    1    2    0    0 -0.35562335094E+02  0.49183312141E+01  0.27207424351E+02  0.45045683467E+02  0.00000000000E+00 0. -1.
         11    1    3    3    0    0  0.24741354725E+02 -0.58583003859E+01 -0.20616584649E+02  0.32733742223E+02  0.51100000000E-03 0. -1.
        -11    1    3    3    0    0  0.56888170775E+01 -0.11929657137E+01 -0.48913846759E+01  0.75968053315E+01  0.51100000000E-03 0.  1.
         12    1    3    3    0    0  0.51321632913E+01  0.21329348856E+01 -0.16994550257E+01  0.58117689785E+01  0.00000000000E+00 0. -1.
</event>
<event>
 7    1  0.1485408E-008  0.4614232E+02  0.7816164E-02  0.1320468E+00
        -11   -1    0    0    0    0  0.00000000000E+00  0.00000000000E+00  0.45593999997E+02  0.45594000000E+02  0.51100000000E-03 0.  1.
         11   -1    0    0    0    0 -0.00000000000E+00 -0.00000000000E+00 -0.45593999997E+02  0.45594000000E+02  0.51100000000E-03 0. -1.
    9900012    2    1    2    0    0  0.35960602257E+02  0.54073490793E+01  0.26584003451E+02  0.46142316764E+02  0.99999909071E+01 0.  0.
         12    1    1    2    0    0 -0.35960602257E+02 -0.54073490793E+01 -0.26584003451E+02  0.45045683236E+02  0.00000000000E+00 0. -1.
         11    1    3    3    0    0  0.73225535572E+01  0.31676034692E+01  0.33773334658E+01  0.86637107487E+01  0.51100000000E-03 0. -1.
        -11    1    3    3    0    0  0.18460682270E+02  0.20773172794E+01  0.18659647595E+02  0.26330485859E+02  0.51100000000E-03 0.  1.
        -12    1    3    3    0    0  0.10177366429E+02  0.16242833069E+00  0.45470223907E+01  0.11148120156E+02  0.00000000000E+00 0.  1.
</event>
<event>
 7    1  0.1485408E-008  0.4614232E+02  0.7816164E-02  0.1320468E+00
        -11   -1    0    0    0    0  0.00000000000E+00  0.00000000000E+00  0.45593999997E+02  0.45594000000E+02  0.51100000000E-03 0.  1.
         11   -1    0    0    0    0 -0.00000000000E+00 -0.00000000000E+00 -0.45593999997E+02  0.45594000000E+02  0.51100000000E-03 0. -1.
    9900012    2    1    2    0    0  0.24255329189E+02 -0.22777281228E+02  0.30364253864E+02  0.46142318221E+02  0.10000004192E+02 0.  0.
         12    1    1    2    0    0 -0.24255329189E+02  0.22777281228E+02 -0.30364253864E+02  0.45045681779E+02  0.00000000000E+00 0. -1.
         11    1    3    3    0    0  0.21722353825E+02 -0.19599342338E+02  0.21732867589E+02  0.36446020492E+02  0.51100000000E-03 0. -1.
        -11    1    3    3    0    0  0.17687026697E+01 -0.26208340097E+01  0.47844590111E+01  0.57348172012E+01  0.51100000000E-03 0.  1.
         12    1    3    3    0    0  0.76427269511E+00 -0.55710488006E+00  0.38469272638E+01  0.39614805279E+01  0.00000000000E+00 0. -1.
</event>
<event>
 7    1  0.1485408E-008  0.4614232E+02  0.7816164E-02  0.1320468E+00
        -11   -1    0    0    0    0  0.00000000000E+00  0.00000000000E+00  0.45593999997E+02  0.45594000000E+02  0.51100000000E-03 0. -1.
         11   -1    0    0    0    0 -0.00000000000E+00 -0.00000000000E+00 -0.45593999997E+02  0.45594000000E+02  0.51100000000E-03 0.  1.
    9900012    2    1    2    0    0 -0.34478837063E+02  0.20813324755E+02 -0.20177432259E+02  0.46142318019E+02  0.10000002349E+02 0.  0.
         12    1    1    2    0    0  0.34478837063E+02 -0.20813324755E+02  0.20177432259E+02  0.45045681981E+02  0.00000000000E+00 0. -1.
         11    1    3    3    0    0 -0.37924634709E+01  0.59059864000E+00  0.43743535569E+00  0.38630216001E+01  0.51100000000E-03 0. -1.
        -11    1    3    3    0    0 -0.22900428450E+02  0.14293056339E+02 -0.13519455466E+02  0.30191004605E+02  0.51100000000E-03 0.  1.
        -12    1    3    3    0    0 -0.77859451429E+01  0.59296697761E+01 -0.70954121482E+01  0.12088291814E+02  0.00000000000E+00 0.  1.
</event>
<event>
 7    1  0.1485408E-008  0.4614232E+02  0.7816164E-02  0.1320468E+00
        -11   -1    0    0    0    0  0.00000000000E+00  0.00000000000E+00  0.45593999997E+02  0.45594000000E+02  0.51100000000E-03 0.  1.
         11   -1    0    0    0    0 -0.00000000000E+00 -0.00000000000E+00 -0.45593999997E+02  0.45594000000E+02  0.51100000000E-03 0. -1.
    9900012    2    1    2    0    0  0.25610910815E+02 -0.13385988630E+02  0.34554451350E+02  0.46142317049E+02  0.99999935099E+01 0.  0.
         12    1    1    2    0    0 -0.25610910815E+02  0.13385988630E+02 -0.34554451350E+02  0.45045682951E+02  0.00000000000E+00 0. -1.
         11    1    3    3    0    0  0.93443662862E+00 -0.97583342297E+00 -0.43203479626E+00  0.14184770032E+01  0.51100000000E-03 0. -1.
        -11    1    3    3    0    0  0.49626307231E+01 -0.26063665050E+01  0.96296926717E+01  0.11142344065E+02  0.51100000000E-03 0.  1.
        -12    1    3    3    0    0  0.19713843463E+02 -0.98037887024E+01  0.25356793475E+02  0.33581495981E+02  0.00000000000E+00 0.  1.
</event>
<event>
 7    1  0.1485408E-008  0.4614232E+02  0.7816164E-02  0.1320468E+00
        -11   -1    0    0    0    0  0.00000000000E+00  0.00000000000E+00  0.45593999997E+02  0.45594000000E+02  0.51100000000E-03 0.  1.
         11   -1    0    0    0    0 -0.00000000000E+00 -0.00000000000E+00 -0.45593999997E+02  0.45594000000E+02  0.51100000000E-03 0. -1.
    9900012    2    1    2    0    0 -0.87609205939E+01  0.33560469952E+02  0.28741163681E+02  0.46142319155E+02  0.10000012713E+02 0.  0.
         12    1    1    2    0    0  0.87609205939E+01 -0.33560469952E+02 -0.28741163681E+02  0.45045680845E+02  0.00000000000E+00 0. -1.
         11    1    3    3    0    0 -0.39470590803E+01  0.13402992797E+02  0.10389166322E+02  0.17411325867E+02  0.51100000000E-03 0. -1.
        -11    1    3    3    0    0  0.24671893697E+00  0.95028870843E+01  0.12080049554E+02  0.15371835631E+02  0.51100000000E-03 0.  1.
        -12    1    3    3    0    0 -0.50605804506E+01  0.10654590070E+02  0.62719478043E+01  0.13359157658E+02  0.00000000000E+00 0.  1.
</event>
<event>
 7    1  0.1485408E-008  0.4614232E+02  0.7816164E-02  0.1320468E+00
        -11   -1    0    0    0    0  0.00000000000E+00  0.00000000000E+00  0.45593999997E+02  0.45594000000E+02  0.51100000000E-03 0. -1.
         11   -1    0    0    0    0 -0.00000000000E+00 -0.00000000000E+00 -0.45593999997E+02  0.45594000000E+02  0.51100000000E-03 0.  1.
    9900012    2    1    2    0    0  0.22192690841E+01 -0.75237948682E+01 -0.44357422272E+02  0.46142317021E+02  0.99999932468E+01 0.  0.
         12    1    1    2    0    0 -0.22192690841E+01  0.75237948682E+01  0.44357422272E+02  0.45045682979E+02  0.00000000000E+00 0. -1.
         11    1    3    3    0    0  0.88837820578E+00 -0.20467397061E+01 -0.40365239385E+01  0.46121453824E+01  0.51100000000E-03 0. -1.
        -11    1    3    3    0    0  0.24823276765E+01 -0.73451570332E+01 -0.31686453957E+02  0.32621230007E+02  0.51100000000E-03 0.  1.
         12    1    3    3    0    0 -0.11514367981E+01  0.18681018711E+01 -0.86344443760E+01  0.89089416309E+01  0.00000000000E+00 0. -1.
</event>
<event>
 7    1  0.1485408E-008  0.4614232E+02  0.7816164E-02  0.1320468E+00
        -11   -1    0    0    0    0  0.00000000000E+00  0.00000000000E+00  0.45593999997E+02  0.45594000000E+02  0.51100000000E-03 0.  1.
         11   -1    0    0    0    0 -0.00000000000E+00 -0.00000000000E+00 -0.45593999997E+02  0.45594000000E+02  0.51100000000E-03 0. -1.
    9900012    2    1    2    0    0  0.13661127422E+02  0.25356106452E+01  0.42849244730E+02  0.46142317657E+02  0.99999990514E+01 0.  0.
         12    1    1    2    0    0 -0.13661127422E+02 -0.25356106452E+01 -0.42849244730E+02  0.45045682343E+02  0.00000000000E+00 0. -1.
         11    1    3    3    0    0  0.65230231298E+01 -0.28580454445E+01  0.19086942729E+02  0.20372276198E+02  0.51100000000E-03 0.  1.
        -11    1    3    3    0    0  0.52047045721E+01  0.48180846247E+01  0.12892128641E+02  0.14714274372E+02  0.51100000000E-03 0. -1.
         12    1    3    3    0    0  0.19333997206E+01  0.57557146501E+00  0.10870173361E+02  0.11055767087E+02  0.00000000000E+00 0. -1.
</event>
<event>
 7    1  0.1485408E-008  0.4614232E+02  0.7816164E-02  0.1320468E+00
        -11   -1    0    0    0    0  0.00000000000E+00  0.00000000000E+00  0.45593999997E+02  0.45594000000E+02  0.51100000000E-03 0.  1.
         11   -1    0    0    0    0 -0.00000000000E+00 -0.00000000000E+00 -0.45593999997E+02  0.45594000000E+02  0.51100000000E-03 0. -1.
    9900012    2    1    2    0    0 -0.17205162310E+01  0.26346375416E+02  0.36496875569E+02  0.46142316522E+02  0.99999887034E+01 0.  0.
         12    1    1    2    0    0  0.17205162310E+01 -0.26346375416E+02 -0.36496875569E+02  0.45045683478E+02  0.00000000000E+00 0. -1.
         11    1    3    3    0    0  0.16434277640E+01  0.14630831459E+02  0.14398792237E+02  0.20593380056E+02  0.51100000000E-03 0. -1.
        -11    1    3    3    0    0 -0.17121509508E+01  0.29108072634E+01  0.32818520709E+01  0.47090140242E+01  0.51100000000E-03 0.  1.
         12    1    3    3    0    0 -0.16517930441E+01  0.88047366936E+01  0.18816231261E+02  0.20839922442E+02  0.00000000000E+00 0. -1.
</event>
<event>
 7    1  0.1485408E-008  0.4614232E+02  0.7816164E-02  0.1320468E+00
        -11   -1    0    0    0    0  0.00000000000E+00  0.00000000000E+00  0.45593999997E+02  0.45594000000E+02  0.51100000000E-03 0. -1.
         11   -1    0    0    0    0 -0.00000000000E+00 -0.00000000000E+00 -0.45593999997E+02  0.45594000000E+02  0.51100000000E-03 0.  1.
    9900012    2    1    2    0    0  0.50209645168E+01 -0.40881147758E+02 -0.18238287065E+02  0.46142318278E+02  0.10000004713E+02 0.  0.
         12    1    1    2    0    0 -0.50209645168E+01  0.40881147758E+02  0.18238287065E+02  0.45045681722E+02  0.00000000000E+00 0. -1.
         11    1    3    3    0    0 -0.91125160370E+00 -0.13123154918E+02 -0.66447501951E+01  0.14737716238E+02  0.51100000000E-03 0. -1.
        -11    1    3    3    0    0  0.63271097680E+01 -0.26715926317E+02 -0.95345500712E+01  0.29063390757E+02  0.51100000000E-03 0.  1.
        -12    1    3    3    0    0 -0.39489364755E+00 -0.10420665231E+01 -0.20589867990E+01  0.23412112826E+01  0.00000000000E+00 0.  1.
</event>
<event>
 7    1  0.1485408E-008  0.4614232E+02  0.7816164E-02  0.1320468E+00
        -11   -1    0    0    0    0  0.00000000000E+00  0.00000000000E+00  0.45593999997E+02  0.45594000000E+02  0.51100000000E-03 0.  1.
         11   -1    0    0    0    0 -0.00000000000E+00 -0.00000000000E+00 -0.45593999997E+02  0.45594000000E+02  0.51100000000E-03 0. -1.
    9900012    2    1    2    0    0 -0.67565388372E+01  0.43140861556E+02  0.11060232697E+02  0.46142317630E+02  0.99999988082E+01 0.  0.
         12    1    1    2    0    0  0.67565388372E+01 -0.43140861556E+02 -0.11060232697E+02  0.45045682370E+02  0.00000000000E+00 0. -1.
         11    1    3    3    0    0 -0.17761217798E+00  0.15482045068E+02  0.50412200275E+01  0.16283094460E+02  0.51100000000E-03 0. -1.
        -11    1    3    3    0    0 -0.35206755624E+01  0.21722764201E+02  0.70382439464E+01  0.23104339832E+02  0.51100000000E-03 0.  1.
         12    1    3    3    0    0 -0.30582510968E+01  0.59360522863E+01 -0.10192312766E+01  0.67548833382E+01  0.00000000000E+00 0. -1.
</event>
<event>
 7    1  0.1485408E-008  0.4614232E+02  0.7816164E-02  0.1320468E+00
        -11   -1    0    0    0    0  0.00000000000E+00  0.00000000000E+00  0.45593999997E+02  0.45594000000E+02  0.51100000000E-03 0. -1.
         11   -1    0    0    0    0 -0.00000000000E+00 -0.00000000000E+00 -0.45593999997E+02  0.45594000000E+02  0.51100000000E-03 0.  1.
    9900012    2    1    2    0    0  0.27039515679E+02  0.35988743740E+02  0.16698338819E+01  0.46142318417E+02  0.10000005980E+02 0.  0.
         12    1    1    2    0    0 -0.27039515679E+02 -0.35988743740E+02 -0.16698338819E+01  0.45045681583E+02  0.00000000000E+00 0. -1.
         11    1    3    3    0    0  0.20221970833E+02  0.25518871633E+02 -0.19404371856E+01  0.32617575178E+02  0.51100000000E-03 0. -1.
        -11    1    3    3    0    0  0.57772209952E+01  0.62960009547E+01  0.13037915348E+01  0.86438291906E+01  0.51100000000E-03 0.  1.
         12    1    3    3    0    0  0.10403238501E+01  0.41738711523E+01  0.23064795327E+01  0.48809140480E+01  0.00000000000E+00 0. -1.
</event>
<event>
 7    1  0.1485408E-008  0.4614232E+02  0.7816164E-02  0.1320468E+00
        -11   -1    0    0    0    0  0.00000000000E+00  0.00000000000E+00  0.45593999997E+02  0.45594000000E+02  0.51100000000E-03 0.  1.
         11   -1    0    0    0    0 -0.00000000000E+00 -0.00000000000E+00 -0.45593999997E+02  0.45594000000E+02  0.51100000000E-03 0. -1.
    9900012    2    1    2    0    0 -0.11105229172E+02 -0.13979134959E+01  0.43632935294E+02  0.46142319635E+02  0.10000017092E+02 0.  0.
         12    1    1    2    0    0  0.11105229172E+02  0.13979134959E+01 -0.43632935294E+02  0.45045680365E+02  0.00000000000E+00 0. -1.
         11    1    3    3    0    0 -0.60442177224E+01  0.37051247704E+01  0.22272981150E+02  0.23374049863E+02  0.51100000000E-03 0. -1.
        -11    1    3    3    0    0 -0.15512989852E+01 -0.11837744283E+00  0.69463333767E+01  0.71184330721E+01  0.51100000000E-03 0.  1.
         12    1    3    3    0    0 -0.35097124642E+01 -0.49846608234E+01  0.14413620768E+02  0.15649836700E+02  0.00000000000E+00 0. -1.
</event>
<event>
 7    1  0.1770463E-008  0.4614232E+02  0.7816164E-02  0.1320468E+00
        -11   -1    0    0    0    0  0.00000000000E+00  0.00000000000E+00  0.45593999997E+02  0.45594000000E+02  0.51100000000E-03 0. -1.
         11   -1    0    0    0    0 -0.00000000000E+00 -0.00000000000E+00 -0.45593999997E+02  0.45594000000E+02  0.51100000000E-03 0.  1.
    9900012    2    1    2    0    0 -0.25767816926E+02 -0.62674948038E+01 -0.36412243838E+02  0.46142318946E+02  0.10000010809E+02 0.  0.
         12    1    1    2    0    0  0.25767816926E+02  0.62674948038E+01  0.36412243838E+02  0.45045681054E+02  0.00000000000E+00 0. -1.
         11    1    3    3    0    0 -0.39428988450E+01 -0.15495160434E+01 -0.17156243041E+01  0.45706474689E+01  0.51100000000E-03 0. -1.
        -11    1    3    3    0    0 -0.15227209897E+02 -0.40335075324E+01 -0.20088470456E+02  0.25528097262E+02  0.51100000000E-03 0.  1.
         12    1    3    3    0    0 -0.65977081839E+01 -0.68447122797E+00 -0.14608149078E+02  0.16043574216E+02  0.00000000000E+00 0. -1.
</event>
<event>
 7    1  0.1485408E-008  0.4614232E+02  0.7816164E-02  0.1320468E+00
        -11   -1    0    0    0    0  0.00000000000E+00  0.00000000000E+00  0.45593999997E+02  0.45594000000E+02  0.51100000000E-03 0. -1.
         11   -1    0    0    0    0 -0.00000000000E+00 -0.00000000000E+00 -0.45593999997E+02  0.45594000000E+02  0.51100000000E-03 0.  1.
    9900012    2    1    2    0    0 -0.16861920169E+02  0.35184124171E+02 -0.22513697891E+02  0.46142317208E+02  0.99999949593E+01 0.  0.
         12    1    1    2    0    0  0.16861920169E+02 -0.35184124171E+02  0.22513697891E+02  0.45045682792E+02  0.00000000000E+00 0. -1.
         11    1    3    3    0    0 -0.34814580774E+01  0.65713124239E+01 -0.13982482224E+01  0.75668881100E+01  0.51100000000E-03 0. -1.
        -11    1    3    3    0    0 -0.37826518720E+00  0.72078824907E+01 -0.53089706358E+01  0.89600125013E+01  0.51100000000E-03 0.  1.
        -12    1    3    3    0    0 -0.13002196904E+02  0.21404929256E+02 -0.15806479033E+02  0.29615416597E+02  0.00000000000E+00 0.  1.
</event>
<event>
 7    1  0.1485408E-008  0.4614232E+02  0.7816164E-02  0.1320468E+00
        -11   -1    0    0    0    0  0.00000000000E+00  0.00000000000E+00  0.45593999997E+02  0.45594000000E+02  0.51100000000E-03 0.  1.
         11   -1    0    0    0    0 -0.00000000000E+00 -0.00000000000E+00 -0.45593999997E+02  0.45594000000E+02  0.51100000000E-03 0. -1.
    9900012    2    1    2    0    0 -0.17664243627E+02 -0.32707758189E+02  0.25441904807E+02  0.46142317978E+02  0.10000001973E+02 0.  0.
         12    1    1    2    0    0  0.17664243627E+02  0.32707758189E+02 -0.25441904807E+02  0.45045682022E+02  0.00000000000E+00 0. -1.
         11    1    3    3    0    0 -0.80526110012E+00 -0.23578059362E+01  0.38440526591E+01  0.45808771408E+01  0.51100000000E-03 0. -1.
        -11    1    3    3    0    0 -0.13581258666E+02 -0.22323878784E+02  0.19600560106E+02  0.32664783906E+02  0.51100000000E-03 0.  1.
         12    1    3    3    0    0 -0.32777238613E+01 -0.80260734693E+01  0.19972920418E+01  0.88966569309E+01  0.00000000000E+00 0. -1.
</event>
<event>
 7    1  0.1485408E-008  0.4614232E+02  0.7816164E-02  0.1320468E+00
        -11   -1    0    0    0    0  0.00000000000E+00  0.00000000000E+00  0.45593999997E+02  0.45594000000E+02  0.51100000000E-03 0. -1.
         11   -1    0    0    0    0 -0.00000000000E+00 -0.00000000000E+00 -0.45593999997E+02  0.45594000000E+02  0.51100000000E-03 0.  1.
    9900012    2    1    2    0    0 -0.41840310513E+02 -0.16682158639E+02  0.45552761122E+00  0.46142317564E+02  0.99999982052E+01 0.  0.
         12    1    1    2    0    0  0.41840310513E+02  0.16682158639E+02 -0.45552761122E+00  0.45045682436E+02  0.00000000000E+00 0. -1.
         11    1    3    3    0    0 -0.46063155211E+01 -0.45098782235E+01 -0.56747839895E+00  0.64714122311E+01  0.51100000000E-03 0. -1.
        -11    1    3    3    0    0 -0.35091817847E+02 -0.11195192822E+02  0.24534438659E+01  0.36915950606E+02  0.51100000000E-03 0.  1.
        -12    1    3    3    0    0 -0.21421771452E+01 -0.97708759394E+00 -0.14304378557E+01  0.27549547268E+01  0.00000000000E+00 0.  1.
</event>
<event>
 7    1  0.1485408E-008  0.4614233E+02  0.7816164E-02  0.1320468E+00
        -11   -1    0    0    0    0  0.00000000000E+00  0.00000000000E+00  0.45593999997E+02  0.45594000000E+02  0.51100000000E-03 0.  1.
         11   -1    0    0    0    0 -0.00000000000E+00 -0.00000000000E+00 -0.45593999997E+02  0.45594000000E+02  0.51100000000E-03 0. -1.
    9900012    2    1    2    0    0 -0.40210226628E+02 -0.49185017395E+01  0.19699204372E+02  0.46142327203E+02  0.10000086100E+02 0.  0.
         12    1    1    2    0    0  0.40210226628E+02  0.49185017395E+01 -0.19699204372E+02  0.45045672797E+02  0.00000000000E+00 0. -1.
         11    1    3    3    0    0 -0.30055843015E+02 -0.42510460524E+01  0.15079922691E+02  0.33894382433E+02  0.51100000000E-03 0. -1.
        -11    1    3    3    0    0 -0.82542102046E+01 -0.22897470257E+01  0.23739773417E+01  0.88887961065E+01  0.51100000000E-03 0.  1.
         12    1    3    3    0    0 -0.19001734084E+01  0.16222913386E+01  0.22453043396E+01  0.33591486640E+01  0.00000000000E+00 0. -1.
</event>
<event>
 7    1  0.1485408E-008  0.4614232E+02  0.7816164E-02  0.1320468E+00
        -11   -1    0    0    0    0  0.00000000000E+00  0.00000000000E+00  0.45593999997E+02  0.45594000000E+02  0.51100000000E-03 0.  1.
         11   -1    0    0    0    0 -0.00000000000E+00 -0.00000000000E+00 -0.45593999997E+02  0.45594000000E+02  0.51100000000E-03 0. -1.
    9900012    2    1    2    0    0  0.16042119359E+02  0.81711458285E+01  0.41291597626E+02  0.46142320383E+02  0.10000023905E+02 0.  0.
         12    1    1    2    0    0 -0.16042119359E+02 -0.81711458285E+01 -0.41291597626E+02  0.45045679617E+02  0.00000000000E+00 0. -1.
         11    1    3    3    0    0  0.58617924611E+01  0.11220339533E+01  0.62575783390E+01  0.86473613304E+01  0.51100000000E-03 0. -1.
        -11    1    3    3    0    0  0.89811214448E+01  0.66681332125E+01  0.34206368750E+02  0.35988890039E+02  0.51100000000E-03 0.  1.
        -12    1    3    3    0    0  0.11992054530E+01  0.38097866274E+00  0.82765053724E+00  0.15060690129E+01  0.00000000000E+00 0.  1.
</event>
<event>
 7    1  0.1485408E-008  0.4614232E+02  0.7816164E-02  0.1320468E+00
        -11   -1    0    0    0    0  0.00000000000E+00  0.00000000000E+00  0.45593999997E+02  0.45594000000E+02  0.51100000000E-03 0.  1.
         11   -1    0    0    0    0 -0.00000000000E+00 -0.00000000000E+00 -0.45593999997E+02  0.45594000000E+02  0.51100000000E-03 0. -1.
    9900012    2    1    2    0    0  0.22220288881E+02  0.30102660118E+02  0.25083901987E+02  0.46142317377E+02  0.99999964939E+01 0.  0.
         12    1    1    2    0    0 -0.22220288881E+02 -0.30102660118E+02 -0.25083901987E+02  0.45045682623E+02  0.00000000000E+00 0. -1.
         11    1    3    3    0    0  0.10550307294E+02  0.93504093013E+01  0.10300534876E+02  0.17459672307E+02  0.51100000000E-03 0. -1.
        -11    1    3    3    0    0  0.93653530273E+01  0.12091704726E+02  0.70317954942E+01  0.16833458012E+02  0.51100000000E-03 0.  1.
        -12    1    3    3    0    0  0.23046285597E+01  0.86605460907E+01  0.77515716170E+01  0.11849187057E+02  0.00000000000E+00 0.  1.
</event>
<event>
 7    1  0.1485408E-008  0.4614232E+02  0.7816164E-02  0.1320468E+00
        -11   -1    0    0    0    0  0.00000000000E+00  0.00000000000E+00  0.45593999997E+02  0.45594000000E+02  0.51100000000E-03 0. -1.
         11   -1    0    0    0    0 -0.00000000000E+00 -0.00000000000E+00 -0.45593999997E+02  0.45594000000E+02  0.51100000000E-03 0.  1.
    9900012    2    1    2    0    0 -0.35738284071E+02  0.13258518680E+02 -0.24002088022E+02  0.46142317683E+02  0.99999992922E+01 0.  0.
         12    1    1    2    0    0  0.35738284071E+02 -0.13258518680E+02  0.24002088022E+02  0.45045682317E+02  0.00000000000E+00 0. -1.
         11    1    3    3    0    0 -0.26901627705E+01 -0.15393217146E+01 -0.17022114896E+01  0.35361011424E+01  0.51100000000E-03 0. -1.
        -11    1    3    3    0    0 -0.37639766059E+01  0.10931459785E+01 -0.17233402174E+01  0.42816340089E+01  0.51100000000E-03 0.  1.
         12    1    3    3    0    0 -0.29284144695E+02  0.13704694416E+02 -0.20576536315E+02  0.38324582532E+02  0.00000000000E+00 0. -1.
</event>
<event>
 7    1  0.1485408E-008  0.4614231E+02  0.7816164E-02  0.1320468E+00
        -11   -1    0    0    0    0  0.00000000000E+00  0.00000000000E+00  0.45593999997E+02  0.45594000000E+02  0.51100000000E-03 0. -1.
         11   -1    0    0    0    0 -0.00000000000E+00 -0.00000000000E+00 -0.45593999997E+02  0.45594000000E+02  0.51100000000E-03 0.  1.
    9900012    2    1    2    0    0  0.38014768595E+02 -0.24023967870E+02 -0.26154026431E+01  0.46142312143E+02  0.99999487683E+01 0.  0.
         12    1    1    2    0    0 -0.38014768595E+02  0.24023967870E+02  0.26154026431E+01  0.45045687857E+02  0.00000000000E+00 0. -1.
         11    1    3    3    0    0  0.48599758808E+01  0.13541075474E+00 -0.21740255006E+00  0.48667202267E+01  0.51100000000E-03 0. -1.
        -11    1    3    3    0    0  0.12807613047E+02 -0.11455037966E+02 -0.15896768406E+00  0.17183658451E+02  0.51100000000E-03 0.  1.
         12    1    3    3    0    0  0.20347179668E+02 -0.12704340658E+02 -0.22390324090E+01  0.24091933466E+02  0.00000000000E+00 0. -1.
</event>
<event>
 7    1  0.1485408E-008  0.4614232E+02  0.7816164E-02  0.1320468E+00
        -11   -1    0    0    0    0  0.00000000000E+00  0.00000000000E+00  0.45593999997E+02  0.45594000000E+02  0.51100000000E-03 0. -1.
         11   -1    0    0    0    0 -0.00000000000E+00 -0.00000000000E+00 -0.45593999997E+02  0.45594000000E+02  0.51100000000E-03 0.  1.
    9900012    2    1    2    0    0  0.34774329218E+02  0.19806519575E+02 -0.20677555800E+02  0.46142317586E+02  0.99999984036E+01 0.  0.
         12    1    1    2    0    0 -0.34774329218E+02 -0.19806519575E+02  0.20677555800E+02  0.45045682414E+02  0.00000000000E+00 0. -1.
         11    1    3    3    0    0  0.17661611882E+02  0.70025417797E+01 -0.94229303381E+01  0.21207539745E+02  0.51100000000E-03 0. -1.
        -11    1    3    3    0    0  0.10906250532E+02  0.10383934238E+02 -0.10204866018E+02  0.18190978029E+02  0.51100000000E-03 0.  1.
        -12    1    3    3    0    0  0.62064668041E+01  0.24200435579E+01 -0.10497594439E+01  0.67437998118E+01  0.00000000000E+00 0.  1.
</event>
<event>
 7    1  0.1485408E-008  0.4614232E+02  0.7816164E-02  0.1320468E+00
        -11   -1    0    0    0    0  0.00000000000E+00  0.00000000000E+00  0.45593999997E+02  0.45594000000E+02  0.51100000000E-03 0.  1.
         11   -1    0    0    0    0 -0.00000000000E+00 -0.00000000000E+00 -0.45593999997E+02  0.45594000000E+02  0.51100000000E-03 0. -1.
    9900012    2    1    2    0    0 -0.65749744849E+00  0.38317076538E+00  0.45039253003E+02  0.46142318367E+02  0.10000005521E+02 0.  0.
         12    1    1    2    0    0  0.65749744849E+00 -0.38317076538E+00 -0.45039253003E+02  0.45045681633E+02  0.00000000000E+00 0. -1.
         11    1    3    3    0    0 -0.70653629314E+00 -0.33276835626E+01  0.72984019304E+01  0.80522880242E+01  0.51100000000E-03 0. -1.
        -11    1    3    3    0    0 -0.11547037750E+01  0.22976141384E+01  0.30735454397E+02  0.30842835940E+02  0.51100000000E-03 0.  1.
        -12    1    3    3    0    0  0.12037426196E+01  0.14132401895E+01  0.70053966758E+01  0.72471944029E+01  0.00000000000E+00 0.  1.
</event>
<event>
 7    1  0.1485408E-008  0.4614232E+02  0.7816164E-02  0.1320468E+00
        -11   -1    0    0    0    0  0.00000000000E+00  0.00000000000E+00  0.45593999997E+02  0.45594000000E+02  0.51100000000E-03 0.  1.
         11   -1    0    0    0    0 -0.00000000000E+00 -0.00000000000E+00 -0.45593999997E+02  0.45594000000E+02  0.51100000000E-03 0. -1.
    9900012    2    1    2    0    0 -0.16279390427E+02  0.25492470682E+02  0.33380067764E+02  0.46142317210E+02  0.99999949711E+01 0.  0.
         12    1    1    2    0    0  0.16279390427E+02 -0.25492470682E+02 -0.33380067764E+02  0.45045682790E+02  0.00000000000E+00 0. -1.
         11    1    3    3    0    0 -0.14793505747E+01  0.36332143524E+01  0.87282347772E+01  0.95692636729E+01  0.51100000000E-03 0. -1.
        -11    1    3    3    0    0 -0.10580209017E+02  0.10774494617E+02  0.14955880752E+02  0.21253445049E+02  0.51100000000E-03 0.  1.
         12    1    3    3    0    0 -0.42198308345E+01  0.11084761712E+02  0.96959522346E+01  0.15319608488E+02  0.00000000000E+00 0. -1.
</event>
<event>
 7    1  0.1485408E-008  0.4614232E+02  0.7816164E-02  0.1320468E+00
        -11   -1    0    0    0    0  0.00000000000E+00  0.00000000000E+00  0.45593999997E+02  0.45594000000E+02  0.51100000000E-03 0.  1.
         11   -1    0    0    0    0 -0.00000000000E+00 -0.00000000000E+00 -0.45593999997E+02  0.45594000000E+02  0.51100000000E-03 0. -1.
    9900012    2    1    2    0    0  0.25248380580E+02  0.21648773779E+02  0.30380310319E+02  0.46142318929E+02  0.10000010650E+02 0.  0.
         12    1    1    2    0    0 -0.25248380580E+02 -0.21648773779E+02 -0.30380310319E+02  0.45045681071E+02  0.00000000000E+00 0. -1.
         11    1    3    3    0    0  0.12133797475E+02  0.75649247245E+01  0.75923980043E+01  0.16189553266E+02  0.51100000000E-03 0. -1.
        -11    1    3    3    0    0  0.73915966753E+01  0.64787686003E+01  0.13032219292E+02  0.16323262049E+02  0.51100000000E-03 0.  1.
         12    1    3    3    0    0  0.57229864300E+01  0.76050804542E+01  0.97556930231E+01  0.13629503614E+02  0.00000000000E+00 0. -1.
</event>
<event>
 7    1  0.1485408E-008  0.4614232E+02  0.7816164E-02  0.1320468E+00
        -11   -1    0    0    0    0  0.00000000000E+00  0.00000000000E+00  0.45593999997E+02  0.45594000000E+02  0.51100000000E-03 0.  1.
         11   -1    0    0    0    0 -0.00000000000E+00 -0.00000000000E+00 -0.45593999997E+02  0.45594000000E+02  0.51100000000E-03 0. -1.
    9900012    2    1    2    0    0 -0.44030881902E+02  0.90179199128E+01 -0.30119818578E+01  0.46142317906E+02  0.10000001321E+02 0.  0.
         12    1    1    2    0    0  0.44030881902E+02 -0.90179199128E+01  0.30119818578E+01  0.45045682094E+02  0.00000000000E+00 0. -1.
         11    1    3    3    0    0 -0.11715975370E+02  0.61734079180E+00 -0.48276466608E+01  0.12686660753E+02  0.51100000000E-03 0. -1.
        -11    1    3    3    0    0 -0.38226125348E+01  0.11173335900E+01  0.54604368188E+00  0.40198215018E+01  0.51100000000E-03 0.  1.
         12    1    3    3    0    0 -0.28492293997E+02  0.72832455311E+01  0.12696211211E+01  0.29435835651E+02  0.00000000000E+00 0. -1.
</event>
<event>
 7    1  0.1485408E-008  0.4614232E+02  0.7816164E-02  0.1320468E+00
        -11   -1    0    0    0    0  0.00000000000E+00  0.00000000000E+00  0.45593999997E+02  0.45594000000E+02  0.51100000000E-03 0.  1.
         11   -1    0    0    0    0 -0.00000000000E+00 -0.00000000000E+00 -0.45593999997E+02  0.45594000000E+02  0.51100000000E-03 0. -1.
    9900012    2    1    2    0    0 -0.32172568506E+02  0.11425458524E+02  0.29385339340E+02  0.46142318355E+02  0.10000005414E+02 0.  0.
         12    1    1    2    0    0  0.32172568506E+02 -0.11425458524E+02 -0.29385339340E+02  0.45045681645E+02  0.00000000000E+00 0. -1.
         11    1    3    3    0    0 -0.15670196171E+02  0.82423645145E+01  0.10898509361E+02  0.20791082881E+02  0.51100000000E-03 0. -1.
        -11    1    3    3    0    0 -0.92634610301E+01  0.37536700730E+01  0.11970533073E+02  0.15594723838E+02  0.51100000000E-03 0.  1.
         12    1    3    3    0    0 -0.72389113051E+01 -0.57057606372E+00  0.65162969058E+01  0.97565116354E+01  0.00000000000E+00 0. -1.
</event>
<event>
 7    1  0.1485408E-008  0.4614232E+02  0.7816164E-02  0.1320468E+00
        -11   -1    0    0    0    0  0.00000000000E+00  0.00000000000E+00  0.45593999997E+02  0.45594000000E+02  0.51100000000E-03 0. -1.
         11   -1    0    0    0    0 -0.00000000000E+00 -0.00000000000E+00 -0.45593999997E+02  0.45594000000E+02  0.51100000000E-03 0.  1.
    9900012    2    1    2    0    0 -0.21789007446E+02 -0.39406395165E+02  0.12201033741E+01  0.46142317880E+02  0.10000001088E+02 0.  0.
         12    1    1    2    0    0  0.21789007446E+02  0.39406395165E+02 -0.12201033741E+01  0.45045682120E+02  0.00000000000E+00 0. -1.
         11    1    3    3    0    0 -0.91112877097E+01 -0.18333752055E+02 -0.43381133403E+01  0.20927523880E+02  0.51100000000E-03 0. -1.
        -11    1    3    3    0    0 -0.89602772246E+01 -0.14905633732E+02  0.37750800347E+01  0.17796508490E+02  0.51100000000E-03 0.  1.
         12    1    3    3    0    0 -0.37174425115E+01 -0.61670093779E+01  0.17831366797E+01  0.74182855103E+01  0.00000000000E+00 0. -1.
</event>
<event>
 7    1  0.1485408E-008  0.4614232E+02  0.7816164E-02  0.1320468E+00
        -11   -1    0    0    0    0  0.00000000000E+00  0.00000000000E+00  0.45593999997E+02  0.45594000000E+02  0.51100000000E-03 0. -1.
         11   -1    0    0    0    0 -0.00000000000E+00 -0.00000000000E+00 -0.45593999997E+02  0.45594000000E+02  0.51100000000E-03 0.  1.
    9900012    2    1    2    0    0 -0.72745532040E+01 -0.28901629957E+02 -0.33777065260E+02  0.46142317898E+02  0.10000001249E+02 0.  0.
         12    1    1    2    0    0  0.72745532040E+01  0.28901629957E+02  0.33777065260E+02  0.45045682102E+02  0.00000000000E+00 0. -1.
         11    1    3    3    0    0  0.56971026765E+00 -0.83417108660E+00 -0.40412541960E+01  0.41655908259E+01  0.51100000000E-03 0. -1.
        -11    1    3    3    0    0 -0.20192149107E+01 -0.15251540102E+02 -0.17736044296E+02  0.23478798348E+02  0.51100000000E-03 0.  1.
        -12    1    3    3    0    0 -0.58250485610E+01 -0.12815918768E+02 -0.11999766768E+02  0.18497928724E+02  0.00000000000E+00 0.  1.
</event>
<event>
 7    1  0.1485408E-008  0.4614232E+02  0.7816164E-02  0.1320468E+00
        -11   -1    0    0    0    0  0.00000000000E+00  0.00000000000E+00  0.45593999997E+02  0.45594000000E+02  0.51100000000E-03 0. -1.
         11   -1    0    0    0    0 -0.00000000000E+00 -0.00000000000E+00 -0.45593999997E+02  0.45594000000E+02  0.51100000000E-03 0.  1.
    9900012    2    1    2    0    0  0.17682206193E+02  0.40682606169E+02  0.78344527718E+01  0.46142317512E+02  0.99999977307E+01 0.  0.
         12    1    1    2    0    0 -0.17682206193E+02 -0.40682606169E+02 -0.78344527718E+01  0.45045682488E+02  0.00000000000E+00 0. -1.
         11    1    3    3    0    0  0.28960522978E+01  0.56024073872E+01 -0.99583808389E+00  0.63848086263E+01  0.51100000000E-03 0. -1.
        -11    1    3    3    0    0 -0.82705969895E+00  0.12708403748E+01  0.50242599104E+00  0.15973400206E+01  0.51100000000E-03 0.  1.
        -12    1    3    3    0    0  0.15613213594E+02  0.33809358407E+02  0.83278648647E+01  0.38160168865E+02  0.00000000000E+00 0.  1.
</event>
<event>
 7    1  0.1485408E-008  0.4614232E+02  0.7816164E-02  0.1320468E+00
        -11   -1    0    0    0    0  0.00000000000E+00  0.00000000000E+00  0.45593999997E+02  0.45594000000E+02  0.51100000000E-03 0.  1.
         11   -1    0    0    0    0 -0.00000000000E+00 -0.00000000000E+00 -0.45593999997E+02  0.45594000000E+02  0.51100000000E-03 0. -1.
    9900012    2    1    2    0    0  0.10292806455E+02 -0.43628555953E+02  0.44407948615E+01  0.46142318539E+02  0.10000007093E+02 0.  0.
         12    1    1    2    0    0 -0.10292806455E+02  0.43628555953E+02 -0.44407948615E+01  0.45045681461E+02  0.00000000000E+00 0. -1.
         11    1    3    3    0    0  0.26802092163E+01 -0.13579643287E+02 -0.18619532218E+01  0.13966284520E+02  0.51100000000E-03 0. -1.
        -11    1    3    3    0    0  0.59603227570E+01 -0.12893118965E+02  0.14934910826E+01  0.14282453567E+02  0.51100000000E-03 0.  1.
        -12    1    3    3    0    0  0.16522744817E+01 -0.17155793702E+02  0.48092570008E+01  0.17893580452E+02  0.00000000000E+00 0.  1.
</event>
<event>
 7    1  0.1485408E-008  0.4614232E+02  0.7816164E-02  0.1320468E+00
        -11   -1    0    0    0    0  0.00000000000E+00  0.00000000000E+00  0.45593999997E+02  0.45594000000E+02  0.51100000000E-03 0.  1.
         11   -1    0    0    0    0 -0.00000000000E+00 -0.00000000000E+00 -0.45593999997E+02  0.45594000000E+02  0.51100000000E-03 0. -1.
    9900012    2    1    2    0    0  0.43256330579E+02  0.10672368619E+02  0.66410678375E+01  0.46142319084E+02  0.10000012065E+02 0.  0.
         12    1    1    2    0    0 -0.43256330579E+02 -0.10672368619E+02 -0.66410678375E+01  0.45045680916E+02  0.00000000000E+00 0. -1.
         11    1    3    3    0    0  0.12744615991E+00  0.20001887491E+00  0.94424798712E+00  0.97357824354E+00  0.51100000000E-03 0. -1.
        -11    1    3    3    0    0  0.39602233286E+02  0.99449554546E+01  0.68889080137E+01  0.41408888830E+02  0.51100000000E-03 0.  1.
        -12    1    3    3    0    0  0.35266511332E+01  0.52739428991E+00 -0.11920881634E+01  0.37598520106E+01  0.00000000000E+00 0.  1.
</event>
<event>
 7    1  0.1485408E-008  0.4614232E+02  0.7816164E-02  0.1320468E+00
        -11   -1    0    0    0    0  0.00000000000E+00  0.00000000000E+00  0.45593999997E+02  0.45594000000E+02  0.51100000000E-03 0. -1.
         11   -1    0    0    0    0 -0.00000000000E+00 -0.00000000000E+00 -0.45593999997E+02  0.45594000000E+02  0.51100000000E-03 0.  1.
    9900012    2    1    2    0    0  0.16895994660E+02 -0.39935242096E+02 -0.12198985536E+02  0.46142318243E+02  0.10000004394E+02 0.  0.
         12    1    1    2    0    0 -0.16895994660E+02  0.39935242096E+02  0.12198985536E+02  0.45045681757E+02  0.00000000000E+00 0. -1.
         11    1    3    3    0    0 -0.14845709169E+00 -0.85746279459E-01 -0.73887813994E+00  0.75850715179E+00  0.51100000000E-03 0. -1.
        -11    1    3    3    0    0  0.11870099440E+02 -0.19133406793E+02 -0.68989130978E+01  0.23549554527E+02  0.51100000000E-03 0.  1.
         12    1    3    3    0    0  0.51743523120E+01 -0.20716089024E+02 -0.45611942986E+01  0.21834256564E+02  0.00000000000E+00 0. -1.
</event>
<event>
 7    1  0.1485408E-008  0.4614232E+02  0.7816164E-02  0.1320468E+00
        -11   -1    0    0    0    0  0.00000000000E+00  0.00000000000E+00  0.45593999997E+02  0.45594000000E+02  0.51100000000E-03 0.  1.
         11   -1    0    0    0    0 -0.00000000000E+00 -0.00000000000E+00 -0.45593999997E+02  0.45594000000E+02  0.51100000000E-03 0. -1.
    9900012    2    1    2    0    0 -0.76701427570E+00  0.63259929481E+01  0.44592679095E+02  0.46142317337E+02  0.99999961370E+01 0.  0.
         12    1    1    2    0    0  0.76701427570E+00 -0.63259929481E+01 -0.44592679095E+02  0.45045682663E+02  0.00000000000E+00 0. -1.
         11    1    3    3    0    0  0.28533665275E+00 -0.56062261856E+00  0.19923950004E+02  0.19933878166E+02  0.51100000000E-03 0. -1.
        -11    1    3    3    0    0 -0.26319437362E+01  0.44649331507E+01  0.20432246966E+02  0.21079361285E+02  0.51100000000E-03 0.  1.
         12    1    3    3    0    0  0.15795928077E+01  0.24216824159E+01  0.42364821249E+01  0.51290778856E+01  0.00000000000E+00 0. -1.
</event>
<event>
 7    1  0.1485408E-008  0.4614232E+02  0.7816164E-02  0.1320468E+00
        -11   -1    0    0    0    0  0.00000000000E+00  0.00000000000E+00  0.45593999997E+02  0.45594000000E+02  0.51100000000E-03 0.  1.
         11   -1    0    0    0    0 -0.00000000000E+00 -0.00000000000E+00 -0.45593999997E+02  0.45594000000E+02  0.51100000000E-03 0. -1.
    9900012    2    1    2    0    0 -0.39619633269E+02 -0.21364676723E+02  0.17171777137E+01  0.46142318174E+02  0.10000003769E+02 0.  0.
         12    1    1    2    0    0  0.39619633269E+02  0.21364676723E+02 -0.17171777137E+01  0.45045681826E+02  0.00000000000E+00 0. -1.
         11    1    3    3    0    0 -0.15977450503E+02 -0.96525856836E+01 -0.38027360524E+01  0.19050252930E+02  0.51100000000E-03 0. -1.
        -11    1    3    3    0    0 -0.12417046814E+02 -0.47575925788E+01  0.22228044473E+01  0.13481787663E+02  0.51100000000E-03 0.  1.
        -12    1    3    3    0    0 -0.11225135952E+02 -0.69544984606E+01  0.32971093189E+01  0.13610277582E+02  0.00000000000E+00 0.  1.
</event>
<event>
 7    1  0.1485408E-008  0.4614232E+02  0.7816164E-02  0.1320468E+00
        -11   -1    0    0    0    0  0.00000000000E+00  0.00000000000E+00  0.45593999997E+02  0.45594000000E+02  0.51100000000E-03 0.  1.
         11   -1    0    0    0    0 -0.00000000000E+00 -0.00000000000E+00 -0.45593999997E+02  0.45594000000E+02  0.51100000000E-03 0. -1.
    9900012    2    1    2    0    0 -0.22704802291E+02 -0.28717302390E+02  0.26247324796E+02  0.46142316938E+02  0.99999924907E+01 0.  0.
         12    1    1    2    0    0  0.22704802291E+02  0.28717302390E+02 -0.26247324796E+02  0.45045683062E+02  0.00000000000E+00 0. -1.
         11    1    3    3    0    0 -0.15625653478E+02 -0.19834615789E+02  0.21503388792E+02  0.33165776938E+02  0.51100000000E-03 0. -1.
        -11    1    3    3    0    0 -0.29993409911E+01 -0.64250151008E+01  0.40432571596E+01  0.81624012488E+01  0.51100000000E-03 0.  1.
         12    1    3    3    0    0 -0.40798078221E+01 -0.24576715001E+01  0.70067884393E+00  0.48141387506E+01  0.00000000000E+00 0. -1.
</event>
<event>
 7    1  0.1485408E-008  0.4614232E+02  0.7816164E-02  0.1320468E+00
        -11   -1    0    0    0    0  0.00000000000E+00  0.00000000000E+00  0.45593999997E+02  0.45594000000E+02  0.51100000000E-03 0.  1.
         11   -1    0    0    0    0 -0.00000000000E+00 -0.00000000000E+00 -0.45593999997E+02  0.45594000000E+02  0.51100000000E-03 0. -1.
    9900012    2    1    2    0    0  0.28700992018E+02 -0.16482677265E+02  0.30556307826E+02  0.46142317182E+02  0.99999947155E+01 0.  0.
         12    1    1    2    0    0 -0.28700992018E+02  0.16482677265E+02 -0.30556307826E+02  0.45045682818E+02  0.00000000000E+00 0. -1.
         11    1    3    3    0    0  0.13084954371E+01 -0.92497072438E+00 -0.45159087638E+00  0.16648320427E+01  0.51100000000E-03 0. -1.
        -11    1    3    3    0    0  0.22010795034E+02 -0.10294127916E+02  0.22485797510E+02  0.33106725261E+02  0.51100000000E-03 0.  1.
        -12    1    3    3    0    0  0.53817015472E+01 -0.52635786237E+01  0.85221011918E+01  0.11370759878E+02  0.00000000000E+00 0.  1.
</event>
<event>
 7    1  0.1485408E-008  0.4614232E+02  0.7816164E-02  0.1320468E+00
        -11   -1    0    0    0    0  0.00000000000E+00  0.00000000000E+00  0.45593999997E+02  0.45594000000E+02  0.51100000000E-03 0.  1.
         11   -1    0    0    0    0 -0.00000000000E+00 -0.00000000000E+00 -0.45593999997E+02  0.45594000000E+02  0.51100000000E-03 0. -1.
    9900012    2    1    2    0    0 -0.36134661427E+02  0.90879975410E+01  0.25314187843E+02  0.46142316944E+02  0.99999925533E+01 0.  0.
         12    1    1    2    0    0  0.36134661427E+02 -0.90879975410E+01 -0.25314187843E+02  0.45045683056E+02  0.00000000000E+00 0. -1.
         11    1    3    3    0    0  0.14246363556E+00 -0.22536961617E+00  0.88417540611E+00  0.92350081821E+00  0.51100000000E-03 0. -1.
        -11    1    3    3    0    0 -0.17806714774E+02  0.79752801913E+01  0.11772923766E+02  0.22787845871E+02  0.51100000000E-03 0.  1.
        -12    1    3    3    0    0 -0.18470410289E+02  0.13380869659E+01  0.12657088671E+02  0.22430970256E+02  0.00000000000E+00 0.  1.
</event>
<event>
 7    1  0.1485408E-008  0.4614232E+02  0.7816164E-02  0.1320468E+00
        -11   -1    0    0    0    0  0.00000000000E+00  0.00000000000E+00  0.45593999997E+02  0.45594000000E+02  0.51100000000E-03 0.  1.
         11   -1    0    0    0    0 -0.00000000000E+00 -0.00000000000E+00 -0.45593999997E+02  0.45594000000E+02  0.51100000000E-03 0. -1.
    9900012    2    1    2    0    0 -0.26668995883E+02 -0.68377259200E+01  0.35652821407E+02  0.46142317505E+02  0.99999976629E+01 0.  0.
         12    1    1    2    0    0  0.26668995883E+02  0.68377259200E+01 -0.35652821407E+02  0.45045682495E+02  0.00000000000E+00 0. -1.
         11    1    3    3    0    0  0.33809116802E+00  0.27519608215E+00  0.32351925807E+00  0.54286599911E+00  0.51100000000E-03 0. -1.
        -11    1    3    3    0    0 -0.11223763946E+02 -0.61673292752E+01  0.13095507624E+02  0.18316690413E+02  0.51100000000E-03 0.  1.
        -12    1    3    3    0    0 -0.15783323105E+02 -0.94559272695E+00  0.22233794525E+02  0.27282761093E+02  0.00000000000E+00 0.  1.
</event>
<event>
 7    1  0.1485408E-008  0.4614232E+02  0.7816164E-02  0.1320468E+00
        -11   -1    0    0    0    0  0.00000000000E+00  0.00000000000E+00  0.45593999997E+02  0.45594000000E+02  0.51100000000E-03 0.  1.
         11   -1    0    0    0    0 -0.00000000000E+00 -0.00000000000E+00 -0.45593999997E+02  0.45594000000E+02  0.51100000000E-03 0. -1.
    9900012    2    1    2    0    0  0.28608817387E+02  0.22720376129E+02  0.26352108277E+02  0.46142317250E+02  0.99999953437E+01 0.  0.
         12    1    1    2    0    0 -0.28608817387E+02 -0.22720376129E+02 -0.26352108277E+02  0.45045682750E+02  0.00000000000E+00 0. -1.
         11    1    3    3    0    0  0.16166766126E+02  0.13651980012E+02  0.14158170807E+02  0.25459667831E+02  0.51100000000E-03 0. -1.
        -11    1    3    3    0    0  0.12028122178E+02  0.71418540328E+01  0.12410432245E+02  0.18700284247E+02  0.51100000000E-03 0.  1.
         12    1    3    3    0    0  0.41392908362E+00  0.19265420840E+01 -0.21649477532E+00  0.19823651721E+01  0.00000000000E+00 0. -1.
</event>
<event>
 7    1  0.1485408E-008  0.4614233E+02  0.7816164E-02  0.1320468E+00
        -11   -1    0    0    0    0  0.00000000000E+00  0.00000000000E+00  0.45593999997E+02  0.45594000000E+02  0.51100000000E-03 0.  1.
         11   -1    0    0    0    0 -0.00000000000E+00 -0.00000000000E+00 -0.45593999997E+02  0.45594000000E+02  0.51100000000E-03 0. -1.
    9900012    2    1    2    0    0 -0.19763500459E+02 -0.49570497764E+01  0.40173927774E+02  0.46142325783E+02  0.10000073147E+02 0.  0.
         12    1    1    2    0    0  0.19763500459E+02  0.49570497764E+01 -0.40173927774E+02  0.45045674217E+02  0.00000000000E+00 0. -1.
         11    1    3    3    0    0 -0.87982471386E+01 -0.44429050013E+01  0.14101976162E+02  0.17205065809E+02  0.51100000000E-03 0.  1.
        -11    1    3    3    0    0 -0.62220916057E+01 -0.25772450351E+01  0.19125299016E+02  0.20276431605E+02  0.51100000000E-03 0. -1.
         12    1    3    3    0    0 -0.47431617150E+01  0.20631002600E+01  0.69466525961E+01  0.86608283685E+01  0.00000000000E+00 0. -1.
</event>
<event>
 7    1  0.1485408E-008  0.4614232E+02  0.7816164E-02  0.1320468E+00
        -11   -1    0    0    0    0  0.00000000000E+00  0.00000000000E+00  0.45593999997E+02  0.45594000000E+02  0.51100000000E-03 0.  1.
         11   -1    0    0    0    0 -0.00000000000E+00 -0.00000000000E+00 -0.45593999997E+02  0.45594000000E+02  0.51100000000E-03 0. -1.
    9900012    2    1    2    0    0 -0.21595792087E+02  0.11401129479E+02  0.37851677731E+02  0.46142317673E+02  0.99999991968E+01 0.  0.
         12    1    1    2    0    0  0.21595792087E+02 -0.11401129479E+02 -0.37851677731E+02  0.45045682327E+02  0.00000000000E+00 0. -1.
         11    1    3    3    0    0 -0.43286511418E+01  0.13918242690E+01  0.50423258711E+01  0.67896572781E+01  0.51100000000E-03 0. -1.
        -11    1    3    3    0    0 -0.93373130378E+01  0.82685162555E+01  0.25678061590E+02  0.28546744527E+02  0.51100000000E-03 0.  1.
        -12    1    3    3    0    0 -0.79298279073E+01  0.17407889550E+01  0.71312902697E+01  0.10805915868E+02  0.00000000000E+00 0.  1.
</event>
<event>
 7    1  0.1485408E-008  0.4614232E+02  0.7816164E-02  0.1320468E+00
        -11   -1    0    0    0    0  0.00000000000E+00  0.00000000000E+00  0.45593999997E+02  0.45594000000E+02  0.51100000000E-03 0.  1.
         11   -1    0    0    0    0 -0.00000000000E+00 -0.00000000000E+00 -0.45593999997E+02  0.45594000000E+02  0.51100000000E-03 0. -1.
    9900012    2    1    2    0    0  0.22756605483E+02 -0.16951862444E+02 -0.34984063589E+02  0.46142318313E+02  0.10000005036E+02 0.  0.
         12    1    1    2    0    0 -0.22756605483E+02  0.16951862444E+02  0.34984063589E+02  0.45045681687E+02  0.00000000000E+00 0. -1.
         11    1    3    3    0    0  0.21688832907E+01 -0.29086931727E+01 -0.68392284194E+01  0.77420666709E+01  0.51100000000E-03 0. -1.
        -11    1    3    3    0    0  0.10403499469E+01  0.93413507097E+00 -0.84024091953E+00  0.16312392243E+01  0.51100000000E-03 0.  1.
        -12    1    3    3    0    0  0.19547372245E+02 -0.14977304342E+02 -0.27304594250E+02  0.36769012418E+02  0.00000000000E+00 0.  1.
</event>
<event>
 7    1  0.1485408E-008  0.4614232E+02  0.7816164E-02  0.1320468E+00
        -11   -1    0    0    0    0  0.00000000000E+00  0.00000000000E+00  0.45593999997E+02  0.45594000000E+02  0.51100000000E-03 0.  1.
         11   -1    0    0    0    0 -0.00000000000E+00 -0.00000000000E+00 -0.45593999997E+02  0.45594000000E+02  0.51100000000E-03 0. -1.
    9900012    2    1    2    0    0 -0.29566991986E+02 -0.11234433124E+02  0.32073259740E+02  0.46142317709E+02  0.99999995255E+01 0.  0.
         12    1    1    2    0    0  0.29566991986E+02  0.11234433124E+02 -0.32073259740E+02  0.45045682291E+02  0.00000000000E+00 0. -1.
         11    1    3    3    0    0 -0.99035495717E+01 -0.50564729067E+01  0.15431790205E+02  0.19020735043E+02  0.51100000000E-03 0.  1.
        -11    1    3    3    0    0 -0.54308385634E+01  0.76355379116E+00  0.31913229122E+01  0.63452000823E+01  0.51100000000E-03 0. -1.
        -12    1    3    3    0    0 -0.14232603851E+02 -0.69415140088E+01  0.13450146623E+02  0.20776382584E+02  0.00000000000E+00 0.  1.
</event>
<event>
 7    1  0.1485408E-008  0.4614233E+02  0.7816164E-02  0.1320468E+00
        -11   -1    0    0    0    0  0.00000000000E+00  0.00000000000E+00  0.45593999997E+02  0.45594000000E+02  0.51100000000E-03 0.  1.
         11   -1    0    0    0    0 -0.00000000000E+00 -0.00000000000E+00 -0.45593999997E+02  0.45594000000E+02  0.51100000000E-03 0. -1.
    9900012    2    1    2    0    0  0.24638514787E+00  0.43567590940E+02  0.11441884808E+02  0.46142329687E+02  0.10000108752E+02 0.  0.
         12    1    1    2    0    0 -0.24638514787E+00 -0.43567590940E+02 -0.11441884808E+02  0.45045670313E+02  0.00000000000E+00 0. -1.
         11    1    3    3    0    0 -0.22392523904E+00  0.18027007130E+01  0.19119811711E+01  0.26373366553E+01  0.51100000000E-03 0. -1.
        -11    1    3    3    0    0 -0.26303910954E+01  0.81898987080E+01  0.59027904207E+00  0.86221707111E+01  0.51100000000E-03 0.  1.
        -12    1    3    3    0    0  0.31007014824E+01  0.33574991519E+02  0.89396245944E+01  0.34882822321E+02  0.00000000000E+00 0.  1.
</event>
<event>
 7    1  0.1485408E-008  0.4614232E+02  0.7816164E-02  0.1320468E+00
        -11   -1    0    0    0    0  0.00000000000E+00  0.00000000000E+00  0.45593999997E+02  0.45594000000E+02  0.51100000000E-03 0.  1.
         11   -1    0    0    0    0 -0.00000000000E+00 -0.00000000000E+00 -0.45593999997E+02  0.45594000000E+02  0.51100000000E-03 0. -1.
    9900012    2    1    2    0    0 -0.33983507497E+02  0.18375444906E+02  0.23164146186E+02  0.46142318455E+02  0.10000006332E+02 0.  0.
         12    1    1    2    0    0  0.33983507497E+02 -0.18375444906E+02 -0.23164146186E+02  0.45045681545E+02  0.00000000000E+00 0. -1.
         11    1    3    3    0    0 -0.16675135374E+02  0.68147138140E+01  0.12262071296E+02  0.21791256431E+02  0.51100000000E-03 0.  1.
        -11    1    3    3    0    0 -0.31406728436E+01  0.55518914874E+01  0.29286075949E+01  0.70188366347E+01  0.51100000000E-03 0. -1.
         12    1    3    3    0    0 -0.14167699279E+02  0.60088396047E+01  0.79734672954E+01  0.17332225390E+02  0.00000000000E+00 0. -1.
</event>
<event>
 7    1  0.1485408E-008  0.4614232E+02  0.7816164E-02  0.1320468E+00
        -11   -1    0    0    0    0  0.00000000000E+00  0.00000000000E+00  0.45593999997E+02  0.45594000000E+02  0.51100000000E-03 0.  1.
         11   -1    0    0    0    0 -0.00000000000E+00 -0.00000000000E+00 -0.45593999997E+02  0.45594000000E+02  0.51100000000E-03 0. -1.
    9900012    2    1    2    0    0 -0.49537518631E+00  0.23185662301E+02  0.38617265197E+02  0.46142317586E+02  0.99999984017E+01 0.  0.
         12    1    1    2    0    0  0.49537518631E+00 -0.23185662301E+02 -0.38617265197E+02  0.45045682414E+02  0.00000000000E+00 0. -1.
         11    1    3    3    0    0  0.21090866259E+01  0.55348762086E+01  0.10188079449E+02  0.11784738612E+02  0.51100000000E-03 0. -1.
        -11    1    3    3    0    0 -0.30754208067E+01  0.16895297415E+02  0.28683849701E+02  0.33431609620E+02  0.51100000000E-03 0.  1.
         12    1    3    3    0    0  0.47095899448E+00  0.75548867665E+00 -0.25466395266E+00  0.92596935360E+00  0.00000000000E+00 0. -1.
</event>
<event>
 7    1  0.1485408E-008  0.4614232E+02  0.7816164E-02  0.1320468E+00
        -11   -1    0    0    0    0  0.00000000000E+00  0.00000000000E+00  0.45593999997E+02  0.45594000000E+02  0.51100000000E-03 0.  1.
         11   -1    0    0    0    0 -0.00000000000E+00 -0.00000000000E+00 -0.45593999997E+02  0.45594000000E+02  0.51100000000E-03 0. -1.
    9900012    2    1    2    0    0 -0.12714344811E+02  0.81599228577E+01  0.42436711022E+02  0.46142319326E+02  0.10000014273E+02 0.  0.
         12    1    1    2    0    0  0.12714344811E+02 -0.81599228577E+01 -0.42436711022E+02  0.45045680674E+02  0.00000000000E+00 0. -1.
         11    1    3    3    0    0 -0.29878271438E+01 -0.47562189737E+00  0.38328446426E+01  0.48830344609E+01  0.51100000000E-03 0. -1.
        -11    1    3    3    0    0 -0.77764665564E+01  0.31252389588E+01  0.18243636810E+02  0.20076624093E+02  0.51100000000E-03 0.  1.
        -12    1    3    3    0    0 -0.19500511109E+01  0.55103057963E+01  0.20360229569E+02  0.21182660773E+02  0.00000000000E+00 0.  1.
</event>
<event>
 7    1  0.1485408E-008  0.4614232E+02  0.7816164E-02  0.1320468E+00
        -11   -1    0    0    0    0  0.00000000000E+00  0.00000000000E+00  0.45593999997E+02  0.45594000000E+02  0.51100000000E-03 0.  1.
         11   -1    0    0    0    0 -0.00000000000E+00 -0.00000000000E+00 -0.45593999997E+02  0.45594000000E+02  0.51100000000E-03 0. -1.
    9900012    2    1    2    0    0  0.35768646622E+02  0.14367922219E+02  0.23308372634E+02  0.46142317578E+02  0.99999983274E+01 0.  0.
         12    1    1    2    0    0 -0.35768646622E+02 -0.14367922219E+02 -0.23308372634E+02  0.45045682422E+02  0.00000000000E+00 0. -1.
         11    1    3    3    0    0  0.16186320951E+02  0.82440329690E+01  0.15671131281E+02  0.23990527743E+02  0.51100000000E-03 0.  1.
        -11    1    3    3    0    0  0.53971151686E+01  0.48480165169E+00  0.10188151841E+01  0.55137890261E+01  0.51100000000E-03 0. -1.
        -12    1    3    3    0    0  0.14185210503E+02  0.56390875979E+01  0.66184261688E+01  0.16638000808E+02  0.00000000000E+00 0.  1.
</event>
<event>
 7    1  0.1485408E-008  0.4614232E+02  0.7816164E-02  0.1320468E+00
        -11   -1    0    0    0    0  0.00000000000E+00  0.00000000000E+00  0.45593999997E+02  0.45594000000E+02  0.51100000000E-03 0.  1.
         11   -1    0    0    0    0 -0.00000000000E+00 -0.00000000000E+00 -0.45593999997E+02  0.45594000000E+02  0.51100000000E-03 0. -1.
    9900012    2    1    2    0    0 -0.11507106893E+02 -0.35500376574E+02  0.25227430304E+02  0.46142317791E+02  0.10000000269E+02 0.  0.
         12    1    1    2    0    0  0.11507106893E+02  0.35500376574E+02 -0.25227430304E+02  0.45045682209E+02  0.00000000000E+00 0. -1.
         11    1    3    3    0    0  0.13620202214E+01 -0.69831881980E+01  0.62170711230E+01  0.94483855818E+01  0.51100000000E-03 0. -1.
        -11    1    3    3    0    0 -0.22593713468E+01 -0.72897404258E+01  0.52283863793E+01  0.92510052833E+01  0.51100000000E-03 0.  1.
         12    1    3    3    0    0 -0.10609755767E+02 -0.21227447950E+02  0.13781972802E+02  0.27442926926E+02  0.00000000000E+00 0. -1.
</event>
<event>
 7    1  0.1485408E-008  0.4614232E+02  0.7816164E-02  0.1320468E+00
        -11   -1    0    0    0    0  0.00000000000E+00  0.00000000000E+00  0.45593999997E+02  0.45594000000E+02  0.51100000000E-03 0.  1.
         11   -1    0    0    0    0 -0.00000000000E+00 -0.00000000000E+00 -0.45593999997E+02  0.45594000000E+02  0.51100000000E-03 0. -1.
    9900012    2    1    2    0    0 -0.32619748999E+02 -0.31060691128E+02  0.54655486950E+00  0.46142320070E+02  0.10000021057E+02 0.  0.
         12    1    1    2    0    0  0.32619748999E+02  0.31060691128E+02 -0.54655486950E+00  0.45045679930E+02  0.00000000000E+00 0. -1.
         11    1    3    3    0    0 -0.51384466399E+01 -0.10426860104E+02 -0.54552212557E+00  0.11637037430E+02  0.51100000000E-03 0. -1.
        -11    1    3    3    0    0 -0.25418126984E+02 -0.19525785060E+02  0.16615605443E+01  0.32095143641E+02  0.51100000000E-03 0.  1.
        -12    1    3    3    0    0 -0.20631753750E+01 -0.11080459636E+01 -0.56948354923E+00  0.24101389998E+01  0.00000000000E+00 0.  1.
</event>
<event>
 7    1  0.1485408E-008  0.4614232E+02  0.7816164E-02  0.1320468E+00
        -11   -1    0    0    0    0  0.00000000000E+00  0.00000000000E+00  0.45593999997E+02  0.45594000000E+02  0.51100000000E-03 0.  1.
         11   -1    0    0    0    0 -0.00000000000E+00 -0.00000000000E+00 -0.45593999997E+02  0.45594000000E+02  0.51100000000E-03 0. -1.
    9900012    2    1    2    0    0 -0.72894353193E+01  0.16417435058E+02  0.41309138107E+02  0.46142323934E+02  0.10000056287E+02 0.  0.
         12    1    1    2    0    0  0.72894353193E+01 -0.16417435058E+02 -0.41309138107E+02  0.45045676066E+02  0.00000000000E+00 0. -1.
         11    1    3    3    0    0 -0.62574033655E+01  0.27963524976E+01  0.14174971250E+02  0.15744983149E+02  0.51100000000E-03 0. -1.
        -11    1    3    3    0    0 -0.68985702899E+00  0.90852837144E+01  0.16956362653E+02  0.19249325120E+02  0.51100000000E-03 0.  1.
         12    1    3    3    0    0 -0.34217492479E+00  0.45357988456E+01  0.10177804204E+02  0.11148015665E+02  0.00000000000E+00 0. -1.
</event>
<event>
 7    1  0.1485408E-008  0.4614232E+02  0.7816164E-02  0.1320468E+00
        -11   -1    0    0    0    0  0.00000000000E+00  0.00000000000E+00  0.45593999997E+02  0.45594000000E+02  0.51100000000E-03 0. -1.
         11   -1    0    0    0    0 -0.00000000000E+00 -0.00000000000E+00 -0.45593999997E+02  0.45594000000E+02  0.51100000000E-03 0.  1.
    9900012    2    1    2    0    0 -0.30567228416E+02  0.32263508472E+01 -0.32929452364E+02  0.46142316236E+02  0.99999860883E+01 0.  0.
         12    1    1    2    0    0  0.30567228416E+02 -0.32263508472E+01  0.32929452364E+02  0.45045683764E+02  0.00000000000E+00 0. -1.
         11    1    3    3    0    0 -0.11270384989E+02  0.10694088908E+00 -0.58885106353E+01  0.12716429213E+02  0.51100000000E-03 0. -1.
        -11    1    3    3    0    0 -0.11757117673E+02  0.10427785532E+01 -0.17084583728E+02  0.20765360688E+02  0.51100000000E-03 0.  1.
        -12    1    3    3    0    0 -0.75397257533E+01  0.20766314049E+01 -0.99563580012E+01  0.12660526335E+02  0.00000000000E+00 0.  1.
</event>
<event>
 7    1  0.1485408E-008  0.4614232E+02  0.7816164E-02  0.1320468E+00
        -11   -1    0    0    0    0  0.00000000000E+00  0.00000000000E+00  0.45593999997E+02  0.45594000000E+02  0.51100000000E-03 0.  1.
         11   -1    0    0    0    0 -0.00000000000E+00 -0.00000000000E+00 -0.45593999997E+02  0.45594000000E+02  0.51100000000E-03 0. -1.
    9900012    2    1    2    0    0  0.34024692921E+02  0.22437899151E+02  0.19182659959E+02  0.46142317745E+02  0.99999998562E+01 0.  0.
         12    1    1    2    0    0 -0.34024692921E+02 -0.22437899151E+02 -0.19182659959E+02  0.45045682255E+02  0.00000000000E+00 0. -1.
         11    1    3    3    0    0  0.10735227994E+02  0.11444668570E+02  0.98681509834E+01  0.18536611418E+02  0.51100000000E-03 0. -1.
        -11    1    3    3    0    0  0.12082696594E+02  0.71359286434E+01  0.38277024448E+01  0.14545251488E+02  0.51100000000E-03 0.  1.
        -12    1    3    3    0    0  0.11206768333E+02  0.38573019380E+01  0.54868065308E+01  0.13060454839E+02  0.00000000000E+00 0.  1.
</event>
<event>
 7    1  0.1485408E-008  0.4614232E+02  0.7816164E-02  0.1320468E+00
        -11   -1    0    0    0    0  0.00000000000E+00  0.00000000000E+00  0.45593999997E+02  0.45594000000E+02  0.51100000000E-03 0.  1.
         11   -1    0    0    0    0 -0.00000000000E+00 -0.00000000000E+00 -0.45593999997E+02  0.45594000000E+02  0.51100000000E-03 0. -1.
    9900012    2    1    2    0    0  0.43437684815E+02 -0.11448716556E+02 -0.33478266434E+01  0.46142317453E+02  0.99999971907E+01 0.  0.
         12    1    1    2    0    0 -0.43437684815E+02  0.11448716556E+02  0.33478266434E+01  0.45045682547E+02  0.00000000000E+00 0. -1.
         11    1    3    3    0    0  0.51025956066E+01  0.15184867826E+01 -0.11173689740E+01  0.54397424312E+01  0.51100000000E-03 0. -1.
        -11    1    3    3    0    0  0.34244945796E+02 -0.10433438508E+02 -0.24790083482E+01  0.35884793915E+02  0.51100000000E-03 0.  1.
        -12    1    3    3    0    0  0.40901434130E+01 -0.25337648306E+01  0.24855067876E+00  0.48177811070E+01  0.00000000000E+00 0.  1.
</event>
<event>
 7    1  0.1485408E-008  0.4614232E+02  0.7816164E-02  0.1320468E+00
        -11   -1    0    0    0    0  0.00000000000E+00  0.00000000000E+00  0.45593999997E+02  0.45594000000E+02  0.51100000000E-03 0. -1.
         11   -1    0    0    0    0 -0.00000000000E+00 -0.00000000000E+00 -0.45593999997E+02  0.45594000000E+02  0.51100000000E-03 0.  1.
    9900012    2    1    2    0    0  0.15376624187E+02 -0.62192663327E+01 -0.41880707256E+02  0.46142317795E+02  0.10000000307E+02 0.  0.
         12    1    1    2    0    0 -0.15376624187E+02  0.62192663327E+01  0.41880707256E+02  0.45045682205E+02  0.00000000000E+00 0. -1.
         11    1    3    3    0    0  0.19392364089E+01 -0.11743076892E+01 -0.12163668571E+02  0.12373135001E+02  0.51100000000E-03 0. -1.
        -11    1    3    3    0    0  0.12130876523E+02 -0.60069192315E+01 -0.21597120646E+02  0.25488759568E+02  0.51100000000E-03 0.  1.
        -12    1    3    3    0    0  0.13065112552E+01  0.96196058803E+00 -0.81199180388E+01  0.82804232252E+01  0.00000000000E+00 0.  1.
</event>
<event>
 7    1  0.1485408E-008  0.4614232E+02  0.7816164E-02  0.1320468E+00
        -11   -1    0    0    0    0  0.00000000000E+00  0.00000000000E+00  0.45593999997E+02  0.45594000000E+02  0.51100000000E-03 0. -1.
         11   -1    0    0    0    0 -0.00000000000E+00 -0.00000000000E+00 -0.45593999997E+02  0.45594000000E+02  0.51100000000E-03 0.  1.
    9900012    2    1    2    0    0  0.39297498745E+02  0.20101614219E+02 -0.89858306673E+01  0.46142318136E+02  0.10000003422E+02 0.  0.
         12    1    1    2    0    0 -0.39297498745E+02 -0.20101614219E+02  0.89858306673E+01  0.45045681864E+02  0.00000000000E+00 0. -1.
         11    1    3    3    0    0  0.20224859889E+02  0.10952848141E+02 -0.91062498148E+01  0.24737292210E+02  0.51100000000E-03 0. -1.
        -11    1    3    3    0    0  0.15060625547E+02  0.85342388770E+01 -0.38519017973E+00  0.17314850470E+02  0.51100000000E-03 0.  1.
        -12    1    3    3    0    0  0.40120133086E+01  0.61452720010E+00  0.50560932720E+00  0.40901754559E+01  0.00000000000E+00 0.  1.
</event>
<event>
 7    1  0.1485408E-008  0.4614232E+02  0.7816164E-02  0.1320468E+00
        -11   -1    0    0    0    0  0.00000000000E+00  0.00000000000E+00  0.45593999997E+02  0.45594000000E+02  0.51100000000E-03 0. -1.
         11   -1    0    0    0    0 -0.00000000000E+00 -0.00000000000E+00 -0.45593999997E+02  0.45594000000E+02  0.51100000000E-03 0.  1.
    9900012    2    1    2    0    0 -0.31508260884E+02  0.31875345575E+02  0.45061524857E+01  0.46142316859E+02  0.99999917707E+01 0.  0.
         12    1    1    2    0    0  0.31508260884E+02 -0.31875345575E+02 -0.45061524857E+01  0.45045683141E+02  0.00000000000E+00 0. -1.
         11    1    3    3    0    0 -0.59261025676E+01  0.65496502551E+01  0.21183939409E+01  0.90831824409E+01  0.51100000000E-03 0. -1.
        -11    1    3    3    0    0 -0.19743747589E+02  0.18736542334E+02  0.54095349213E+01  0.27751336109E+02  0.51100000000E-03 0.  1.
        -12    1    3    3    0    0 -0.58384107272E+01  0.65891529854E+01 -0.30217763766E+01  0.93077983087E+01  0.00000000000E+00 0.  1.
</event>
<event>
 7    1  0.1485408E-008  0.4614232E+02  0.7816164E-02  0.1320468E+00
        -11   -1    0    0    0    0  0.00000000000E+00  0.00000000000E+00  0.45593999997E+02  0.45594000000E+02  0.51100000000E-03 0.  1.
         11   -1    0    0    0    0 -0.00000000000E+00 -0.00000000000E+00 -0.45593999997E+02  0.45594000000E+02  0.51100000000E-03 0. -1.
    9900012    2    1    2    0    0 -0.88053150069E+01  0.28220111647E+02  0.33988309782E+02  0.46142317903E+02  0.10000001293E+02 0.  0.
         12    1    1    2    0    0  0.88053150069E+01 -0.28220111647E+02 -0.33988309782E+02  0.45045682097E+02  0.00000000000E+00 0. -1.
         11    1    3    3    0    0 -0.60795210979E+01  0.15918478834E+02  0.21330496142E+02  0.27301073443E+02  0.51100000000E-03 0.  1.
        -11    1    3    3    0    0 -0.26681244706E+00  0.78596523218E+01  0.40454063353E+01  0.88436777520E+01  0.51100000000E-03 0. -1.
        -12    1    3    3    0    0 -0.24589814619E+01  0.44419804912E+01  0.86124073043E+01  0.99975667085E+01  0.00000000000E+00 0.  1.
</event>
<event>
 7    1  0.1485408E-008  0.4614232E+02  0.7816164E-02  0.1320468E+00
        -11   -1    0    0    0    0  0.00000000000E+00  0.00000000000E+00  0.45593999997E+02  0.45594000000E+02  0.51100000000E-03 0.  1.
         11   -1    0    0    0    0 -0.00000000000E+00 -0.00000000000E+00 -0.45593999997E+02  0.45594000000E+02  0.51100000000E-03 0. -1.
    9900012    2    1    2    0    0 -0.19529545470E+02 -0.15897647137E+02  0.37349361479E+02  0.46142321699E+02  0.10000035905E+02 0.  0.
         12    1    1    2    0    0  0.19529545470E+02  0.15897647137E+02 -0.37349361479E+02  0.45045678301E+02  0.00000000000E+00 0. -1.
         11    1    3    3    0    0 -0.50541349445E+01 -0.77105241511E+00  0.86987751185E+01  0.10089969806E+02  0.51100000000E-03 0. -1.
        -11    1    3    3    0    0 -0.18014385620E+01 -0.59608090153E+01  0.75440240509E+01  0.97820613447E+01  0.51100000000E-03 0.  1.
        -12    1    3    3    0    0 -0.12673971964E+02 -0.91657857070E+01  0.21106562309E+02  0.26270290548E+02  0.00000000000E+00 0.  1.
</event>
<event>
 7    1  0.1485408E-008  0.4614232E+02  0.7816164E-02  0.1320468E+00
        -11   -1    0    0    0    0  0.00000000000E+00  0.00000000000E+00  0.45593999997E+02  0.45594000000E+02  0.51100000000E-03 0. -1.
         11   -1    0    0    0    0 -0.00000000000E+00 -0.00000000000E+00 -0.45593999997E+02  0.45594000000E+02  0.51100000000E-03 0.  1.
    9900012    2    1    2    0    0 -0.49761044044E+01  0.44608367535E+02 -0.38007211882E+01  0.46142317069E+02  0.99999936884E+01 0.  0.
         12    1    1    2    0    0  0.49761044044E+01 -0.44608367535E+02  0.38007211882E+01  0.45045682931E+02  0.00000000000E+00 0. -1.
         11    1    3    3    0    0 -0.65390053633E+01  0.27301112475E+02 -0.62796051539E+00  0.28080307481E+02  0.51100000000E-03 0. -1.
        -11    1    3    3    0    0  0.36692528096E+00  0.15455916778E+02 -0.34501863120E+01  0.15840573962E+02  0.51100000000E-03 0.  1.
         12    1    3    3    0    0  0.11959756780E+01  0.18513382817E+01  0.27742563922E+00  0.22214356261E+01  0.00000000000E+00 0. -1.
</event>
<event>
 7    1  0.1485408E-008  0.4614232E+02  0.7816164E-02  0.1320468E+00
        -11   -1    0    0    0    0  0.00000000000E+00  0.00000000000E+00  0.45593999997E+02  0.45594000000E+02  0.51100000000E-03 0.  1.
         11   -1    0    0    0    0 -0.00000000000E+00 -0.00000000000E+00 -0.45593999997E+02  0.45594000000E+02  0.51100000000E-03 0. -1.
    9900012    2    1    2    0    0 -0.27722349414E+02  0.28252148285E+02  0.21503512626E+02  0.46142316577E+02  0.99999892044E+01 0.  0.
         12    1    1    2    0    0  0.27722349414E+02 -0.28252148285E+02 -0.21503512626E+02  0.45045683423E+02  0.00000000000E+00 0. -1.
         11    1    3    3    0    0 -0.46581549510E+01  0.57189800129E+01  0.81868409919E+01  0.11019505689E+02  0.51100000000E-03 0. -1.
        -11    1    3    3    0    0 -0.15772695006E+02  0.15012605609E+02  0.69157956681E+01  0.22846979339E+02  0.51100000000E-03 0.  1.
        -12    1    3    3    0    0 -0.72914994577E+01  0.75205626629E+01  0.64008759658E+01  0.12275831550E+02  0.00000000000E+00 0.  1.
</event>
<event>
 7    1  0.1485408E-008  0.4614232E+02  0.7816164E-02  0.1320468E+00
        -11   -1    0    0    0    0  0.00000000000E+00  0.00000000000E+00  0.45593999997E+02  0.45594000000E+02  0.51100000000E-03 0.  1.
         11   -1    0    0    0    0 -0.00000000000E+00 -0.00000000000E+00 -0.45593999997E+02  0.45594000000E+02  0.51100000000E-03 0. -1.
    9900012    2    1    2    0    0  0.37666672950E+02  0.23777290215E+02  0.67063925553E+01  0.46142317829E+02  0.10000000622E+02 0.  0.
         12    1    1    2    0    0 -0.37666672950E+02 -0.23777290215E+02 -0.67063925553E+01  0.45045682171E+02  0.00000000000E+00 0. -1.
         11    1    3    3    0    0  0.19986113547E+02  0.12706828849E+02  0.81381732796E+01  0.25042725465E+02  0.51100000000E-03 0. -1.
        -11    1    3    3    0    0  0.25964320824E+01  0.28437883006E+01  0.79452881057E-01  0.38516106343E+01  0.51100000000E-03 0.  1.
         12    1    3    3    0    0  0.15084127321E+02  0.82266730659E+01 -0.15112336053E+01  0.17247981730E+02  0.00000000000E+00 0. -1.
</event>
<event>
 7    1  0.1485408E-008  0.4614232E+02  0.7816164E-02  0.1320468E+00
        -11   -1    0    0    0    0  0.00000000000E+00  0.00000000000E+00  0.45593999997E+02  0.45594000000E+02  0.51100000000E-03 0.  1.
         11   -1    0    0    0    0 -0.00000000000E+00 -0.00000000000E+00 -0.45593999997E+02  0.45594000000E+02  0.51100000000E-03 0. -1.
    9900012    2    1    2    0    0 -0.70017692720E-01  0.13143738780E+02  0.43085389755E+02  0.46142316722E+02  0.99999905283E+01 0.  0.
         12    1    1    2    0    0  0.70017692720E-01 -0.13143738780E+02 -0.43085389755E+02  0.45045683278E+02  0.00000000000E+00 0. -1.
         11    1    3    3    0    0 -0.30021908255E+01  0.10749419639E+01  0.71941283180E+01  0.78691888080E+01  0.51100000000E-03 0. -1.
        -11    1    3    3    0    0  0.30578498225E+01  0.10226865788E+02  0.33974315368E+02  0.35611702211E+02  0.51100000000E-03 0.  1.
        -12    1    3    3    0    0 -0.12567668968E+00  0.18419310281E+01  0.19169460690E+01  0.26614257033E+01  0.00000000000E+00 0.  1.
</event>
<event>
 7    1  0.1485408E-008  0.4614232E+02  0.7816164E-02  0.1320468E+00
        -11   -1    0    0    0    0  0.00000000000E+00  0.00000000000E+00  0.45593999997E+02  0.45594000000E+02  0.51100000000E-03 0.  1.
         11   -1    0    0    0    0 -0.00000000000E+00 -0.00000000000E+00 -0.45593999997E+02  0.45594000000E+02  0.51100000000E-03 0. -1.
    9900012    2    1    2    0    0  0.18220134152E+02 -0.35176861747E+02  0.21441285409E+02  0.46142316401E+02  0.99999875982E+01 0.  0.
         12    1    1    2    0    0 -0.18220134152E+02  0.35176861747E+02 -0.21441285409E+02  0.45045683599E+02  0.00000000000E+00 0. -1.
         11    1    3    3    0    0 -0.36348291289E-02 -0.26306824374E+01 -0.32841335812E+00  0.26511052211E+01  0.51100000000E-03 0. -1.
        -11    1    3    3    0    0  0.14643685026E+02 -0.26232853953E+02  0.15057731321E+02  0.33605586000E+02  0.51100000000E-03 0.  1.
        -12    1    3    3    0    0  0.35800839556E+01 -0.63133253571E+01  0.67119674460E+01  0.98856251795E+01  0.00000000000E+00 0.  1.
</event>
<event>
 7    1  0.1485408E-008  0.4614232E+02  0.7816164E-02  0.1320468E+00
        -11   -1    0    0    0    0  0.00000000000E+00  0.00000000000E+00  0.45593999997E+02  0.45594000000E+02  0.51100000000E-03 0. -1.
         11   -1    0    0    0    0 -0.00000000000E+00 -0.00000000000E+00 -0.45593999997E+02  0.45594000000E+02  0.51100000000E-03 0.  1.
    9900012    2    1    2    0    0  0.58366890034E+01  0.42591347933E+02 -0.13454504762E+02  0.46142317014E+02  0.99999931917E+01 0.  0.
         12    1    1    2    0    0 -0.58366890034E+01 -0.42591347933E+02  0.13454504762E+02  0.45045682986E+02  0.00000000000E+00 0. -1.
         11    1    3    3    0    0  0.43074005811E+01  0.22050320386E+02 -0.55050722436E+01  0.23131713070E+02  0.51100000000E-03 0. -1.
        -11    1    3    3    0    0 -0.33273373273E+00  0.15882330285E+02 -0.34164101958E+01  0.16249030306E+02  0.51100000000E-03 0.  1.
         12    1    3    3    0    0  0.18620221551E+01  0.46586972620E+01 -0.45330223228E+01  0.67615736382E+01  0.00000000000E+00 0. -1.
</event>
<event>
 7    1  0.1485408E-008  0.4614232E+02  0.7816164E-02  0.1320468E+00
        -11   -1    0    0    0    0  0.00000000000E+00  0.00000000000E+00  0.45593999997E+02  0.45594000000E+02  0.51100000000E-03 0.  1.
         11   -1    0    0    0    0 -0.00000000000E+00 -0.00000000000E+00 -0.45593999997E+02  0.45594000000E+02  0.51100000000E-03 0. -1.
    9900012    2    1    2    0    0 -0.43483257664E+02  0.43197008417E+01  0.10938910632E+02  0.46142320093E+02  0.10000021266E+02 0.  0.
         12    1    1    2    0    0  0.43483257664E+02 -0.43197008417E+01 -0.10938910632E+02  0.45045679907E+02  0.00000000000E+00 0. -1.
         11    1    3    3    0    0 -0.16851754460E+02  0.45712656767E+01  0.37684148773E+01  0.17862783916E+02  0.51100000000E-03 0. -1.
        -11    1    3    3    0    0 -0.26923015062E+02 -0.56635140881E-01  0.73167433442E+01  0.27899582093E+02  0.51100000000E-03 0.  1.
         12    1    3    3    0    0  0.29151185768E+00 -0.19492969415E+00 -0.14624758927E+00  0.37995408433E+00  0.00000000000E+00 0. -1.
</event>
<event>
 7    1  0.1485408E-008  0.4614232E+02  0.7816164E-02  0.1320468E+00
        -11   -1    0    0    0    0  0.00000000000E+00  0.00000000000E+00  0.45593999997E+02  0.45594000000E+02  0.51100000000E-03 0.  1.
         11   -1    0    0    0    0 -0.00000000000E+00 -0.00000000000E+00 -0.45593999997E+02  0.45594000000E+02  0.51100000000E-03 0. -1.
    9900012    2    1    2    0    0  0.22364596100E+01 -0.15244006783E+02  0.42328852864E+02  0.46142320083E+02  0.10000021177E+02 0.  0.
         12    1    1    2    0    0 -0.22364596100E+01  0.15244006783E+02 -0.42328852864E+02  0.45045679917E+02  0.00000000000E+00 0. -1.
         11    1    3    3    0    0  0.44065994053E+01 -0.51300514705E+01  0.17966433736E+02  0.19197090609E+02  0.51100000000E-03 0. -1.
        -11    1    3    3    0    0 -0.14816913308E+01 -0.27791424222E+01  0.13202647911E+02  0.13573096696E+02  0.51100000000E-03 0.  1.
         12    1    3    3    0    0 -0.68844846448E+00 -0.73348128903E+01  0.11159771217E+02  0.13372132778E+02  0.00000000000E+00 0. -1.
</event>
<event>
 7    1  0.1485408E-008  0.4614232E+02  0.7816164E-02  0.1320468E+00
        -11   -1    0    0    0    0  0.00000000000E+00  0.00000000000E+00  0.45593999997E+02  0.45594000000E+02  0.51100000000E-03 0.  1.
         11   -1    0    0    0    0 -0.00000000000E+00 -0.00000000000E+00 -0.45593999997E+02  0.45594000000E+02  0.51100000000E-03 0. -1.
    9900012    2    1    2    0    0 -0.23395953929E+02  0.35259337580E+01  0.38331588592E+02  0.46142317042E+02  0.99999934421E+01 0.  0.
         12    1    1    2    0    0  0.23395953929E+02 -0.35259337580E+01 -0.38331588592E+02  0.45045682958E+02  0.00000000000E+00 0. -1.
         11    1    3    3    0    0 -0.10940925578E+02  0.22380645051E+01  0.15895522719E+02  0.19426281888E+02  0.51100000000E-03 0. -1.
        -11    1    3    3    0    0 -0.62579358593E+01 -0.47490491678E+00  0.17524849513E+02  0.18614715862E+02  0.51100000000E-03 0.  1.
        -12    1    3    3    0    0 -0.61970924921E+01  0.17627741697E+01  0.49112163606E+01  0.81013192919E+01  0.00000000000E+00 0.  1.
</event>
<event>
 7    1  0.1485408E-008  0.4614232E+02  0.7816164E-02  0.1320468E+00
        -11   -1    0    0    0    0  0.00000000000E+00  0.00000000000E+00  0.45593999997E+02  0.45594000000E+02  0.51100000000E-03 0.  1.
         11   -1    0    0    0    0 -0.00000000000E+00 -0.00000000000E+00 -0.45593999997E+02  0.45594000000E+02  0.51100000000E-03 0. -1.
    9900012    2    1    2    0    0  0.38856090089E+02 -0.16662646121E+02 -0.15545867989E+02  0.46142317362E+02  0.99999963618E+01 0.  0.
         12    1    1    2    0    0 -0.38856090089E+02  0.16662646121E+02  0.15545867989E+02  0.45045682638E+02  0.00000000000E+00 0. -1.
         11    1    3    3    0    0  0.40147098335E+00 -0.21263295240E+01 -0.61636612531E+00  0.22499697013E+01  0.51100000000E-03 0. -1.
        -11    1    3    3    0    0  0.28732960073E+02 -0.93338829158E+01 -0.10096180509E+02  0.31853370716E+02  0.51100000000E-03 0.  1.
         12    1    3    3    0    0  0.97216590332E+01 -0.52024336809E+01 -0.48333213554E+01  0.12038976945E+02  0.00000000000E+00 0. -1.
</event>
<event>
 7    1  0.1485408E-008  0.4614232E+02  0.7816164E-02  0.1320468E+00
        -11   -1    0    0    0    0  0.00000000000E+00  0.00000000000E+00  0.45593999997E+02  0.45594000000E+02  0.51100000000E-03 0. -1.
         11   -1    0    0    0    0 -0.00000000000E+00 -0.00000000000E+00 -0.45593999997E+02  0.45594000000E+02  0.51100000000E-03 0.  1.
    9900012    2    1    2    0    0 -0.10115773166E+02 -0.17869251676E+02 -0.40093319871E+02  0.46142319624E+02  0.10000016992E+02 0.  0.
         12    1    1    2    0    0  0.10115773166E+02  0.17869251676E+02  0.40093319871E+02  0.45045680376E+02  0.00000000000E+00 0. -1.
         11    1    3    3    0    0 -0.10317265585E+01 -0.11165985346E+01 -0.59186194844E+01  0.61107535412E+01  0.51100000000E-03 0. -1.
        -11    1    3    3    0    0 -0.10298089253E+02 -0.14810213644E+02 -0.26768158939E+02  0.32278900286E+02  0.51100000000E-03 0.  1.
        -12    1    3    3    0    0  0.12140426450E+01 -0.19424394969E+01 -0.74065414477E+01  0.77526657970E+01  0.00000000000E+00 0.  1.
</event>
<event>
 7    1  0.1485408E-008  0.4614232E+02  0.7816164E-02  0.1320468E+00
        -11   -1    0    0    0    0  0.00000000000E+00  0.00000000000E+00  0.45593999997E+02  0.45594000000E+02  0.51100000000E-03 0. -1.
         11   -1    0    0    0    0 -0.00000000000E+00 -0.00000000000E+00 -0.45593999997E+02  0.45594000000E+02  0.51100000000E-03 0.  1.
    9900012    2    1    2    0    0  0.25696790446E+02 -0.32336362822E+02  0.17976319053E+02  0.46142318227E+02  0.10000004245E+02 0.  0.
         12    1    1    2    0    0 -0.25696790446E+02  0.32336362822E+02 -0.17976319053E+02  0.45045681773E+02  0.00000000000E+00 0. -1.
         11    1    3    3    0    0  0.20098299137E+02 -0.27956132805E+02  0.18126862794E+02  0.38911054273E+02  0.51100000000E-03 0. -1.
        -11    1    3    3    0    0  0.42761224707E+01 -0.30878148375E+01  0.43331936063E+00  0.52922197408E+01  0.51100000000E-03 0.  1.
         12    1    3    3    0    0  0.13223688377E+01 -0.12924151790E+01 -0.58386310171E+00  0.19390442128E+01  0.00000000000E+00 0. -1.
</event>
<event>
 7    1  0.1485408E-008  0.4614232E+02  0.7816164E-02  0.1320468E+00
        -11   -1    0    0    0    0  0.00000000000E+00  0.00000000000E+00  0.45593999997E+02  0.45594000000E+02  0.51100000000E-03 0.  1.
         11   -1    0    0    0    0 -0.00000000000E+00 -0.00000000000E+00 -0.45593999997E+02  0.45594000000E+02  0.51100000000E-03 0. -1.
    9900012    2    1    2    0    0 -0.25202649098E+01 -0.26591902211E+02  0.36271648593E+02  0.46142317742E+02  0.99999998223E+01 0.  0.
         12    1    1    2    0    0  0.25202649098E+01  0.26591902211E+02 -0.36271648593E+02  0.45045682258E+02  0.00000000000E+00 0. -1.
         11    1    3    3    0    0 -0.37974959805E+01 -0.24299609644E+02  0.31104362282E+02  0.39653163277E+02  0.51100000000E-03 0. -1.
        -11    1    3    3    0    0  0.21274114284E+01 -0.22152034304E+01  0.40789055320E+01  0.51059255991E+01  0.51100000000E-03 0.  1.
         12    1    3    3    0    0 -0.85018035763E+00 -0.77089136977E-01  0.10883807789E+01  0.13832288659E+01  0.00000000000E+00 0. -1.
</event>
<event>
 7    1  0.1485408E-008  0.4614232E+02  0.7816164E-02  0.1320468E+00
        -11   -1    0    0    0    0  0.00000000000E+00  0.00000000000E+00  0.45593999997E+02  0.45594000000E+02  0.51100000000E-03 0.  1.
         11   -1    0    0    0    0 -0.00000000000E+00 -0.00000000000E+00 -0.45593999997E+02  0.45594000000E+02  0.51100000000E-03 0. -1.
    9900012    2    1    2    0    0  0.22666000896E+02  0.25422421323E+02  0.29479929950E+02  0.46142319048E+02  0.10000011736E+02 0.  0.
         12    1    1    2    0    0 -0.22666000896E+02 -0.25422421323E+02 -0.29479929950E+02  0.45045680952E+02  0.00000000000E+00 0. -1.
         11    1    3    3    0    0  0.10843951802E+01  0.10921771456E+01  0.32166603031E+00  0.15723336543E+01  0.51100000000E-03 0. -1.
        -11    1    3    3    0    0  0.42359817635E+01  0.45191443735E+01  0.14820232140E+01  0.63688774864E+01  0.51100000000E-03 0.  1.
        -12    1    3    3    0    0  0.17345623953E+02  0.19811099804E+02  0.27676240706E+02  0.38201107907E+02  0.00000000000E+00 0.  1.
</event>
<event>
 7    1  0.1485408E-008  0.4614232E+02  0.7816164E-02  0.1320468E+00
        -11   -1    0    0    0    0  0.00000000000E+00  0.00000000000E+00  0.45593999997E+02  0.45594000000E+02  0.51100000000E-03 0.  1.
         11   -1    0    0    0    0 -0.00000000000E+00 -0.00000000000E+00 -0.45593999997E+02  0.45594000000E+02  0.51100000000E-03 0. -1.
    9900012    2    1    2    0    0 -0.17999652880E+02  0.40769612064E+02  0.65547485355E+01  0.46142317631E+02  0.99999988178E+01 0.  0.
         12    1    1    2    0    0  0.17999652880E+02 -0.40769612064E+02 -0.65547485355E+01  0.45045682369E+02  0.00000000000E+00 0. -1.
         11    1    3    3    0    0 -0.60127878871E+01  0.66187597302E+01 -0.99363979803E+00  0.89971617108E+01  0.51100000000E-03 0. -1.
        -11    1    3    3    0    0 -0.11981600580E+02  0.31927254231E+02  0.75230560131E+01  0.34921407291E+02  0.51100000000E-03 0.  1.
        -12    1    3    3    0    0 -0.52644130011E-02  0.22235981037E+01  0.25332320493E-01  0.22237486295E+01  0.00000000000E+00 0.  1.
</event>
<event>
 7    1  0.1485408E-008  0.4614232E+02  0.7816164E-02  0.1320468E+00
        -11   -1    0    0    0    0  0.00000000000E+00  0.00000000000E+00  0.45593999997E+02  0.45594000000E+02  0.51100000000E-03 0. -1.
         11   -1    0    0    0    0 -0.00000000000E+00 -0.00000000000E+00 -0.45593999997E+02  0.45594000000E+02  0.51100000000E-03 0.  1.
    9900012    2    1    2    0    0 -0.34621354679E+02 -0.21796635509E+02 -0.18851578275E+02  0.46142317379E+02  0.99999965155E+01 0.  0.
         12    1    1    2    0    0  0.34621354679E+02  0.21796635509E+02  0.18851578275E+02  0.45045682621E+02  0.00000000000E+00 0. -1.
         11    1    3    3    0    0 -0.13909483850E+01 -0.30646034450E+01 -0.19858443806E+00  0.33713450913E+01  0.51100000000E-03 0. -1.
        -11    1    3    3    0    0 -0.14486038995E+02 -0.54897252702E+01 -0.85657110586E+01  0.17701802606E+02  0.51100000000E-03 0.  1.
        -12    1    3    3    0    0 -0.18744367299E+02 -0.13242306794E+02 -0.10087282778E+02  0.25069169681E+02  0.00000000000E+00 0.  1.
</event>
<event>
 7    1  0.1485408E-008  0.4614232E+02  0.7816164E-02  0.1320468E+00
        -11   -1    0    0    0    0  0.00000000000E+00  0.00000000000E+00  0.45593999997E+02  0.45594000000E+02  0.51100000000E-03 0.  1.
         11   -1    0    0    0    0 -0.00000000000E+00 -0.00000000000E+00 -0.45593999997E+02  0.45594000000E+02  0.51100000000E-03 0. -1.
    9900012    2    1    2    0    0 -0.42078436553E+01  0.13762515951E+02  0.42684898481E+02  0.46142319277E+02  0.10000013819E+02 0.  0.
         12    1    1    2    0    0  0.42078436553E+01 -0.13762515951E+02 -0.42684898481E+02  0.45045680723E+02  0.00000000000E+00 0. -1.
         11    1    3    3    0    0  0.16712654082E+00  0.33506662234E+01  0.22999072211E+01  0.40674892635E+01  0.51100000000E-03 0. -1.
        -11    1    3    3    0    0 -0.47203302540E+01  0.81853585856E+01  0.34586468689E+02  0.35853945801E+02  0.51100000000E-03 0.  1.
         12    1    3    3    0    0  0.34536005794E+00  0.22264911422E+01  0.57985225707E+01  0.62208842120E+01  0.00000000000E+00 0. -1.
</event>
<event>
 7    1  0.1485408E-008  0.4614232E+02  0.7816164E-02  0.1320468E+00
        -11   -1    0    0    0    0  0.00000000000E+00  0.00000000000E+00  0.45593999997E+02  0.45594000000E+02  0.51100000000E-03 0.  1.
         11   -1    0    0    0    0 -0.00000000000E+00 -0.00000000000E+00 -0.45593999997E+02  0.45594000000E+02  0.51100000000E-03 0. -1.
    9900012    2    1    2    0    0  0.27380258263E+02 -0.34547478134E+02 -0.92685903614E+01  0.46142317019E+02  0.99999932308E+01 0.  0.
         12    1    1    2    0    0 -0.27380258263E+02  0.34547478134E+02  0.92685903614E+01  0.45045682981E+02  0.00000000000E+00 0. -1.
         11    1    3    3    0    0  0.59018102120E+01 -0.45873102075E+01  0.53858818418E+00  0.74943215978E+01  0.51100000000E-03 0. -1.
        -11    1    3    3    0    0  0.27966961291E+01 -0.37739177290E+01  0.82520700522E+00  0.47691646151E+01  0.51100000000E-03 0.  1.
        -12    1    3    3    0    0  0.18681751922E+02 -0.26186250197E+02 -0.10632385551E+02  0.33878830806E+02  0.00000000000E+00 0.  1.
</event>
<event>
 7    1  0.1485408E-008  0.4614231E+02  0.7816164E-02  0.1320468E+00
        -11   -1    0    0    0    0  0.00000000000E+00  0.00000000000E+00  0.45593999997E+02  0.45594000000E+02  0.51100000000E-03 0.  1.
         11   -1    0    0    0    0 -0.00000000000E+00 -0.00000000000E+00 -0.45593999997E+02  0.45594000000E+02  0.51100000000E-03 0. -1.
    9900012    2    1    2    0    0  0.29271045065E+02  0.24445101828E+02  0.23974089225E+02  0.46142311674E+02  0.99999444956E+01 0.  0.
         12    1    1    2    0    0 -0.29271045065E+02 -0.24445101828E+02 -0.23974089225E+02  0.45045688326E+02  0.00000000000E+00 0. -1.
         11    1    3    3    0    0  0.48466545397E+01  0.24370531024E+01  0.11778824433E+01  0.55512787142E+01  0.51100000000E-03 0. -1.
        -11    1    3    3    0    0  0.22069081157E+02  0.16615866220E+02  0.19801268805E+02  0.33988551012E+02  0.51100000000E-03 0.  1.
        -12    1    3    3    0    0  0.23553093690E+01  0.53921825053E+01  0.29949379760E+01  0.66024819480E+01  0.00000000000E+00 0.  1.
</event>
<event>
 7    1  0.1485408E-008  0.4614232E+02  0.7816164E-02  0.1320468E+00
        -11   -1    0    0    0    0  0.00000000000E+00  0.00000000000E+00  0.45593999997E+02  0.45594000000E+02  0.51100000000E-03 0.  1.
         11   -1    0    0    0    0 -0.00000000000E+00 -0.00000000000E+00 -0.45593999997E+02  0.45594000000E+02  0.51100000000E-03 0. -1.
    9900012    2    1    2    0    0  0.16611418930E+02  0.27537946791E+02  0.31541019478E+02  0.46142315833E+02  0.99999824168E+01 0.  0.
         12    1    1    2    0    0 -0.16611418930E+02 -0.27537946791E+02 -0.31541019478E+02  0.45045684167E+02  0.00000000000E+00 0. -1.
         11    1    3    3    0    0  0.54679053319E+01  0.82144987286E+01  0.60873105114E+01  0.11594452449E+02  0.51100000000E-03 0. -1.
        -11    1    3    3    0    0  0.12132076352E+02  0.17723878537E+02  0.23335909012E+02  0.31715734214E+02  0.51100000000E-03 0.  1.
         12    1    3    3    0    0 -0.98856275421E+00  0.15995695257E+01  0.21177999545E+01  0.28321291697E+01  0.00000000000E+00 0. -1.
</event>
<event>
 7    1  0.1485408E-008  0.4614232E+02  0.7816164E-02  0.1320468E+00
        -11   -1    0    0    0    0  0.00000000000E+00  0.00000000000E+00  0.45593999997E+02  0.45594000000E+02  0.51100000000E-03 0.  1.
         11   -1    0    0    0    0 -0.00000000000E+00 -0.00000000000E+00 -0.45593999997E+02  0.45594000000E+02  0.51100000000E-03 0. -1.
    9900012    2    1    2    0    0 -0.20414131681E+02 -0.41315584697E+01  0.39941293993E+02  0.46142317482E+02  0.99999974526E+01 0.  0.
         12    1    1    2    0    0  0.20414131681E+02  0.41315584697E+01 -0.39941293993E+02  0.45045682518E+02  0.00000000000E+00 0. -1.
         11    1    3    3    0    0 -0.12000338034E+02  0.11457083814E+01  0.17099941718E+02  0.20921968542E+02  0.51100000000E-03 0. -1.
        -11    1    3    3    0    0 -0.83863263375E+01 -0.57200588724E+01  0.20980106809E+02  0.23306960868E+02  0.51100000000E-03 0.  1.
        -12    1    3    3    0    0 -0.27467308854E-01  0.44279202125E+00  0.18612454665E+01  0.19133880719E+01  0.00000000000E+00 0.  1.
</event>
<event>
 7    1  0.1485408E-008  0.4614232E+02  0.7816164E-02  0.1320468E+00
        -11   -1    0    0    0    0  0.00000000000E+00  0.00000000000E+00  0.45593999997E+02  0.45594000000E+02  0.51100000000E-03 0.  1.
         11   -1    0    0    0    0 -0.00000000000E+00 -0.00000000000E+00 -0.45593999997E+02  0.45594000000E+02  0.51100000000E-03 0. -1.
    9900012    2    1    2    0    0  0.21989334273E+02 -0.36957213083E+02  0.13406982537E+02  0.46142316506E+02  0.99999885573E+01 0.  0.
         12    1    1    2    0    0 -0.21989334273E+02  0.36957213083E+02 -0.13406982537E+02  0.45045683494E+02  0.00000000000E+00 0. -1.
         11    1    3    3    0    0  0.18641908987E+00 -0.48450307315E+01  0.10442307537E+01  0.49597875956E+01  0.51100000000E-03 0. -1.
        -11    1    3    3    0    0  0.13118308446E+02 -0.13996156541E+02  0.65061203414E+01  0.20256159966E+02  0.51100000000E-03 0.  1.
        -12    1    3    3    0    0  0.86846067370E+01 -0.18116025810E+02  0.58566314424E+01  0.20926368944E+02  0.00000000000E+00 0.  1.
</event>
<event>
 7    1  0.1485408E-008  0.4614232E+02  0.7816164E-02  0.1320468E+00
        -11   -1    0    0    0    0  0.00000000000E+00  0.00000000000E+00  0.45593999997E+02  0.45594000000E+02  0.51100000000E-03 0.  1.
         11   -1    0    0    0    0 -0.00000000000E+00 -0.00000000000E+00 -0.45593999997E+02  0.45594000000E+02  0.51100000000E-03 0. -1.
    9900012    2    1    2    0    0  0.36047263463E+01 -0.29271215831E+02  0.34048720965E+02  0.46142317326E+02  0.99999960282E+01 0.  0.
         12    1    1    2    0    0 -0.36047263463E+01  0.29271215831E+02 -0.34048720965E+02  0.45045682674E+02  0.00000000000E+00 0. -1.
         11    1    3    3    0    0 -0.23428422134E+01 -0.59598119523E+01  0.10588713623E+02  0.12374535329E+02  0.51100000000E-03 0. -1.
        -11    1    3    3    0    0  0.46673714524E+01 -0.11681224969E+02  0.12589580094E+02  0.17796991326E+02  0.51100000000E-03 0.  1.
         12    1    3    3    0    0  0.12801971074E+01 -0.11630178910E+02  0.10870427247E+02  0.15970790670E+02  0.00000000000E+00 0. -1.
</event>
<event>
 7    1  0.1485408E-008  0.4614232E+02  0.7816164E-02  0.1320468E+00
        -11   -1    0    0    0    0  0.00000000000E+00  0.00000000000E+00  0.45593999997E+02  0.45594000000E+02  0.51100000000E-03 0.  1.
         11   -1    0    0    0    0 -0.00000000000E+00 -0.00000000000E+00 -0.45593999997E+02  0.45594000000E+02  0.51100000000E-03 0. -1.
    9900012    2    1    2    0    0 -0.24721556847E+02  0.17402462498E+02  0.33393299982E+02  0.46142316992E+02  0.99999929910E+01 0.  0.
         12    1    1    2    0    0  0.24721556847E+02 -0.17402462498E+02 -0.33393299982E+02  0.45045683008E+02  0.00000000000E+00 0. -1.
         11    1    3    3    0    0 -0.12156447009E+02  0.58173577950E+01  0.15740886576E+02  0.20721881335E+02  0.51100000000E-03 0.  1.
        -11    1    3    3    0    0 -0.10676024285E+02  0.11400564701E+02  0.17586862026E+02  0.23521226291E+02  0.51100000000E-03 0. -1.
        -12    1    3    3    0    0 -0.18890855524E+01  0.18454000196E+00  0.65551380622E-01  0.18992093671E+01  0.00000000000E+00 0.  1.
</event>
<event>
 7    1  0.1485408E-008  0.4614232E+02  0.7816164E-02  0.1320468E+00
        -11   -1    0    0    0    0  0.00000000000E+00  0.00000000000E+00  0.45593999997E+02  0.45594000000E+02  0.51100000000E-03 0. -1.
         11   -1    0    0    0    0 -0.00000000000E+00 -0.00000000000E+00 -0.45593999997E+02  0.45594000000E+02  0.51100000000E-03 0.  1.
    9900012    2    1    2    0    0  0.44066257110E+02  0.93233939510E+01  0.59397197953E+00  0.46142317708E+02  0.99999995185E+01 0.  0.
         12    1    1    2    0    0 -0.44066257110E+02 -0.93233939510E+01 -0.59397197953E+00  0.45045682292E+02  0.00000000000E+00 0. -1.
         11    1    3    3    0    0  0.28815130286E+02  0.51414078603E+01  0.17372198374E+01  0.29321728142E+02  0.51100000000E-03 0.  1.
        -11    1    3    3    0    0  0.20989539839E+01 -0.22309471025E+00 -0.20213668905E+01  0.29225508453E+01  0.51100000000E-03 0. -1.
         12    1    3    3    0    0  0.13152172840E+02  0.44050808010E+01  0.87811903255E+00  0.13898038721E+02  0.00000000000E+00 0. -1.
</event>
<event>
 7    1  0.1485408E-008  0.4614232E+02  0.7816164E-02  0.1320468E+00
        -11   -1    0    0    0    0  0.00000000000E+00  0.00000000000E+00  0.45593999997E+02  0.45594000000E+02  0.51100000000E-03 0.  1.
         11   -1    0    0    0    0 -0.00000000000E+00 -0.00000000000E+00 -0.45593999997E+02  0.45594000000E+02  0.51100000000E-03 0. -1.
    9900012    2    1    2    0    0  0.97703590216E+01 -0.39449270591E+02  0.19426995757E+02  0.46142322852E+02  0.10000046424E+02 0.  0.
         12    1    1    2    0    0 -0.97703590216E+01  0.39449270591E+02 -0.19426995757E+02  0.45045677148E+02  0.00000000000E+00 0. -1.
         11    1    3    3    0    0 -0.15907801854E+01 -0.79484906138E+01  0.33783727146E+01  0.87819409641E+01  0.51100000000E-03 0. -1.
        -11    1    3    3    0    0  0.10022316910E+02 -0.29553261287E+02  0.15816291676E+02  0.34985670946E+02  0.51100000000E-03 0.  1.
        -12    1    3    3    0    0  0.13388222974E+01 -0.19475186904E+01  0.23233136627E+00  0.23747109419E+01  0.00000000000E+00 0.  1.
</event>
<event>
 7    1  0.1485408E-008  0.4614232E+02  0.7816164E-02  0.1320468E+00
        -11   -1    0    0    0    0  0.00000000000E+00  0.00000000000E+00  0.45593999997E+02  0.45594000000E+02  0.51100000000E-03 0.  1.
         11   -1    0    0    0    0 -0.00000000000E+00 -0.00000000000E+00 -0.45593999997E+02  0.45594000000E+02  0.51100000000E-03 0. -1.
    9900012    2    1    2    0    0  0.21244258025E+02  0.91614461368E+01  0.38650522218E+02  0.46142318053E+02  0.10000002658E+02 0.  0.
         12    1    1    2    0    0 -0.21244258025E+02 -0.91614461368E+01 -0.38650522218E+02  0.45045681947E+02  0.00000000000E+00 0. -1.
         11    1    3    3    0    0  0.70461451011E+00 -0.71328936838E+00  0.72777127681E+00  0.12389167137E+01  0.51100000000E-03 0. -1.
        -11    1    3    3    0    0  0.11854375450E+02  0.22740882557E+01  0.23613908770E+02  0.26520075082E+02  0.51100000000E-03 0.  1.
        -12    1    3    3    0    0  0.86852680651E+01  0.76006472495E+01  0.14308842172E+02  0.18383326257E+02  0.00000000000E+00 0.  1.
</event>
<event>
 7    1  0.1485408E-008  0.4614232E+02  0.7816164E-02  0.1320468E+00
        -11   -1    0    0    0    0  0.00000000000E+00  0.00000000000E+00  0.45593999997E+02  0.45594000000E+02  0.51100000000E-03 0.  1.
         11   -1    0    0    0    0 -0.00000000000E+00 -0.00000000000E+00 -0.45593999997E+02  0.45594000000E+02  0.51100000000E-03 0. -1.
    9900012    2    1    2    0    0 -0.19572692111E+01 -0.16619430304E+02  0.41821970811E+02  0.46142316423E+02  0.99999878024E+01 0.  0.
         12    1    1    2    0    0  0.19572692111E+01  0.16619430304E+02 -0.41821970811E+02  0.45045683577E+02  0.00000000000E+00 0. -1.
         11    1    3    3    0    0 -0.18793668717E+01 -0.19242301350E+01  0.20347309214E+01  0.33726564655E+01  0.51100000000E-03 0. -1.
        -11    1    3    3    0    0 -0.17296300954E+01 -0.11455929253E+02  0.25194170356E+02  0.27730419317E+02  0.51100000000E-03 0.  1.
         12    1    3    3    0    0  0.16517277560E+01 -0.32392709153E+01  0.14593069533E+02  0.15039240640E+02  0.00000000000E+00 0. -1.
</event>
<event>
 7    1  0.1485408E-008  0.4614232E+02  0.7816164E-02  0.1320468E+00
        -11   -1    0    0    0    0  0.00000000000E+00  0.00000000000E+00  0.45593999997E+02  0.45594000000E+02  0.51100000000E-03 0.  1.
         11   -1    0    0    0    0 -0.00000000000E+00 -0.00000000000E+00 -0.45593999997E+02  0.45594000000E+02  0.51100000000E-03 0. -1.
    9900012    2    1    2    0    0 -0.97878179123E+01 -0.36142111455E+02  0.25041161930E+02  0.46142318845E+02  0.10000009885E+02 0.  0.
         12    1    1    2    0    0  0.97878179123E+01  0.36142111455E+02 -0.25041161930E+02  0.45045681155E+02  0.00000000000E+00 0. -1.
         11    1    3    3    0    0 -0.80729859530E+01 -0.18682498424E+02  0.14321925429E+02  0.24886269263E+02  0.51100000000E-03 0.  1.
        -11    1    3    3    0    0 -0.30170946761E+01 -0.10800702854E+02  0.86494832466E+01  0.14162330427E+02  0.51100000000E-03 0. -1.
         12    1    3    3    0    0  0.13022627168E+01 -0.66589101766E+01  0.20697532549E+01  0.70937191557E+01  0.00000000000E+00 0. -1.
</event>
<event>
 7    1  0.1485408E-008  0.4614231E+02  0.7816164E-02  0.1320468E+00
        -11   -1    0    0    0    0  0.00000000000E+00  0.00000000000E+00  0.45593999997E+02  0.45594000000E+02  0.51100000000E-03 0.  1.
         11   -1    0    0    0    0 -0.00000000000E+00 -0.00000000000E+00 -0.45593999997E+02  0.45594000000E+02  0.51100000000E-03 0. -1.
    9900012    2    1    2    0    0 -0.64201887277E+01 -0.43147470443E+01  0.44376556016E+02  0.46142305543E+02  0.99998885809E+01 0.  0.
         12    1    1    2    0    0  0.64201887277E+01  0.43147470443E+01 -0.44376556016E+02  0.45045694457E+02  0.00000000000E+00 0. -1.
         11    1    3    3    0    0  0.96234834177E+00 -0.16590477081E+01  0.29754874487E+01  0.35400677179E+01  0.51100000000E-03 0. -1.
        -11    1    3    3    0    0 -0.72557506246E+01 -0.23167416672E+01  0.41526494598E+02  0.42219225040E+02  0.51100000000E-03 0.  1.
        -12    1    3    3    0    0 -0.12678644483E+00 -0.33895766899E+00 -0.12542603154E+00  0.38301278484E+00  0.00000000000E+00 0.  1.
</event>
<event>
 7    1  0.1485408E-008  0.4614232E+02  0.7816164E-02  0.1320468E+00
        -11   -1    0    0    0    0  0.00000000000E+00  0.00000000000E+00  0.45593999997E+02  0.45594000000E+02  0.51100000000E-03 0. -1.
         11   -1    0    0    0    0 -0.00000000000E+00 -0.00000000000E+00 -0.45593999997E+02  0.45594000000E+02  0.51100000000E-03 0.  1.
    9900012    2    1    2    0    0  0.18954848433E+02 -0.40787105140E+02  0.24978335498E+01  0.46142318772E+02  0.10000009217E+02 0.  0.
         12    1    1    2    0    0 -0.18954848433E+02  0.40787105140E+02 -0.24978335498E+01  0.45045681228E+02  0.00000000000E+00 0. -1.
         11    1    3    3    0    0  0.97158784646E+01 -0.29238559866E+02  0.47776113533E-01  0.30810614408E+02  0.51100000000E-03 0. -1.
        -11    1    3    3    0    0  0.30135387410E+01 -0.63276493964E+01  0.12303010367E+01  0.71157714640E+01  0.51100000000E-03 0.  1.
         12    1    3    3    0    0  0.62254312277E+01 -0.52208958781E+01  0.12197563995E+01  0.82159328998E+01  0.00000000000E+00 0. -1.
</event>
<event>
 7    1  0.1485408E-008  0.4614232E+02  0.7816164E-02  0.1320468E+00
        -11   -1    0    0    0    0  0.00000000000E+00  0.00000000000E+00  0.45593999997E+02  0.45594000000E+02  0.51100000000E-03 0.  1.
         11   -1    0    0    0    0 -0.00000000000E+00 -0.00000000000E+00 -0.45593999997E+02  0.45594000000E+02  0.51100000000E-03 0. -1.
    9900012    2    1    2    0    0 -0.68522810107E+01  0.53096027912E+01  0.44203709986E+02  0.46142316373E+02  0.99999873465E+01 0.  0.
         12    1    1    2    0    0  0.68522810107E+01 -0.53096027912E+01 -0.44203709986E+02  0.45045683627E+02  0.00000000000E+00 0. -1.
         11    1    3    3    0    0 -0.11697097602E+01  0.31686017732E+01  0.21745150350E+02  0.22005904256E+02  0.51100000000E-03 0. -1.
        -11    1    3    3    0    0 -0.27407952629E+01  0.30258142857E+01  0.19312464570E+02  0.19739270473E+02  0.51100000000E-03 0.  1.
         12    1    3    3    0    0 -0.29417759876E+01 -0.88481326767E+00  0.31460950661E+01  0.43971416449E+01  0.00000000000E+00 0. -1.
</event>
<event>
 7    1  0.1485408E-008  0.4614232E+02  0.7816164E-02  0.1320468E+00
        -11   -1    0    0    0    0  0.00000000000E+00  0.00000000000E+00  0.45593999997E+02  0.45594000000E+02  0.51100000000E-03 0.  1.
         11   -1    0    0    0    0 -0.00000000000E+00 -0.00000000000E+00 -0.45593999997E+02  0.45594000000E+02  0.51100000000E-03 0. -1.
    9900012    2    1    2    0    0 -0.24278677914E+02 -0.15126930766E+02  0.34797058167E+02  0.46142317713E+02  0.99999995586E+01 0.  0.
         12    1    1    2    0    0  0.24278677914E+02  0.15126930766E+02 -0.34797058167E+02  0.45045682287E+02  0.00000000000E+00 0. -1.
         11    1    3    3    0    0 -0.16520850052E+02 -0.12049171951E+02  0.26959928626E+02  0.33837239588E+02  0.51100000000E-03 0.  1.
        -11    1    3    3    0    0 -0.67349443922E+01 -0.59588445638E+00  0.50801088256E+01  0.84570716086E+01  0.51100000000E-03 0. -1.
        -12    1    3    3    0    0 -0.10228834699E+01 -0.24818743584E+01  0.27570207147E+01  0.38480065157E+01  0.00000000000E+00 0.  1.
</event>
<event>
 7    1  0.1485408E-008  0.4614232E+02  0.7816164E-02  0.1320468E+00
        -11   -1    0    0    0    0  0.00000000000E+00  0.00000000000E+00  0.45593999997E+02  0.45594000000E+02  0.51100000000E-03 0. -1.
         11   -1    0    0    0    0 -0.00000000000E+00 -0.00000000000E+00 -0.45593999997E+02  0.45594000000E+02  0.51100000000E-03 0.  1.
    9900012    2    1    2    0    0 -0.28257203713E+02  0.33581504993E+02 -0.10145272021E+02  0.46142316704E+02  0.99999903589E+01 0.  0.
         12    1    1    2    0    0  0.28257203713E+02 -0.33581504993E+02  0.10145272021E+02  0.45045683296E+02  0.00000000000E+00 0. -1.
         11    1    3    3    0    0 -0.17355184872E+02  0.25958659925E+02 -0.82115855731E+01  0.32287530177E+02  0.51100000000E-03 0. -1.
        -11    1    3    3    0    0 -0.21564210457E+01  0.10046245897E+01 -0.16286361969E+01  0.28830328502E+01  0.51100000000E-03 0.  1.
         12    1    3    3    0    0 -0.87455977946E+01  0.66182204779E+01 -0.30505025115E+00  0.10971753676E+02  0.00000000000E+00 0. -1.
</event>
<event>
 7    1  0.1485408E-008  0.4614232E+02  0.7816164E-02  0.1320468E+00
        -11   -1    0    0    0    0  0.00000000000E+00  0.00000000000E+00  0.45593999997E+02  0.45594000000E+02  0.51100000000E-03 0. -1.
         11   -1    0    0    0    0 -0.00000000000E+00 -0.00000000000E+00 -0.45593999997E+02  0.45594000000E+02  0.51100000000E-03 0.  1.
    9900012    2    1    2    0    0  0.34902384452E+01 -0.36961877002E+02 -0.25509826843E+02  0.46142318948E+02  0.10000010820E+02 0.  0.
         12    1    1    2    0    0 -0.34902384452E+01  0.36961877002E+02  0.25509826843E+02  0.45045681052E+02  0.00000000000E+00 0. -1.
         11    1    3    3    0    0 -0.27372830677E+01 -0.14630848377E+02 -0.10483813170E+02  0.18206174274E+02  0.51100000000E-03 0. -1.
        -11    1    3    3    0    0  0.45003050607E+01 -0.18740739721E+02 -0.10658244506E+02  0.22024219558E+02  0.51100000000E-03 0.  1.
        -12    1    3    3    0    0  0.17272164522E+01 -0.35902889041E+01 -0.43677691663E+01  0.59119251161E+01  0.00000000000E+00 0.  1.
</event>
<event>
 7    1  0.1485408E-008  0.4614232E+02  0.7816164E-02  0.1320468E+00
        -11   -1    0    0    0    0  0.00000000000E+00  0.00000000000E+00  0.45593999997E+02  0.45594000000E+02  0.51100000000E-03 0. -1.
         11   -1    0    0    0    0 -0.00000000000E+00 -0.00000000000E+00 -0.45593999997E+02  0.45594000000E+02  0.51100000000E-03 0.  1.
    9900012    2    1    2    0    0  0.41007504705E+01  0.15445607886E+02 -0.42115680562E+02  0.46142317559E+02  0.99999981547E+01 0.  0.
         12    1    1    2    0    0 -0.41007504705E+01 -0.15445607886E+02  0.42115680562E+02  0.45045682441E+02  0.00000000000E+00 0. -1.
         11    1    3    3    0    0 -0.15966251388E+01  0.83525425239E+00 -0.25420518363E+01  0.31159090647E+01  0.51100000000E-03 0. -1.
        -11    1    3    3    0    0 -0.96284892711E+00  0.39311480581E+01 -0.13144514722E+02  0.13753518482E+02  0.51100000000E-03 0.  1.
         12    1    3    3    0    0  0.66602245364E+01  0.10679205576E+02 -0.26429114004E+02  0.29272890012E+02  0.00000000000E+00 0. -1.
</event>
<event>
 7    1  0.1485408E-008  0.4614232E+02  0.7816164E-02  0.1320468E+00
        -11   -1    0    0    0    0  0.00000000000E+00  0.00000000000E+00  0.45593999997E+02  0.45594000000E+02  0.51100000000E-03 0. -1.
         11   -1    0    0    0    0 -0.00000000000E+00 -0.00000000000E+00 -0.45593999997E+02  0.45594000000E+02  0.51100000000E-03 0.  1.
    9900012    2    1    2    0    0  0.30543322120E+02 -0.33095899720E+02  0.93830054684E+00  0.46142317495E+02  0.99999975772E+01 0.  0.
         12    1    1    2    0    0 -0.30543322120E+02  0.33095899720E+02 -0.93830054684E+00  0.45045682505E+02  0.00000000000E+00 0. -1.
         11    1    3    3    0    0  0.74880648766E+01 -0.29989849583E+01 -0.57219511223E+00  0.80865588406E+01  0.51100000000E-03 0.  1.
        -11    1    3    3    0    0  0.21686944651E+02 -0.27054320872E+02  0.10644089785E+01  0.34689952621E+02  0.51100000000E-03 0. -1.
        -12    1    3    3    0    0  0.13683125921E+01 -0.30425938897E+01  0.44608668061E+00  0.33658060333E+01  0.00000000000E+00 0.  1.
</event>
<event>
 7    1  0.1485408E-008  0.4614232E+02  0.7816164E-02  0.1320468E+00
        -11   -1    0    0    0    0  0.00000000000E+00  0.00000000000E+00  0.45593999997E+02  0.45594000000E+02  0.51100000000E-03 0.  1.
         11   -1    0    0    0    0 -0.00000000000E+00 -0.00000000000E+00 -0.45593999997E+02  0.45594000000E+02  0.51100000000E-03 0. -1.
    9900012    2    1    2    0    0 -0.25063452102E+02  0.69235230756E+00  0.37422688111E+02  0.46142316873E+02  0.99999919009E+01 0.  0.
         12    1    1    2    0    0  0.25063452102E+02 -0.69235230756E+00 -0.37422688111E+02  0.45045683127E+02  0.00000000000E+00 0. -1.
         11    1    3    3    0    0 -0.12613420484E+02 -0.14477578997E+00  0.24098397786E+02  0.27200222655E+02  0.51100000000E-03 0.  1.
        -11    1    3    3    0    0 -0.82629024671E+00 -0.11787554955E+01  0.27289399139E+01  0.30853416999E+01  0.51100000000E-03 0. -1.
        -12    1    3    3    0    0 -0.11623741370E+02  0.20158835930E+01  0.10595350410E+02  0.15856752518E+02  0.00000000000E+00 0.  1.
</event>
<event>
 7    1  0.1485408E-008  0.4614232E+02  0.7816164E-02  0.1320468E+00
        -11   -1    0    0    0    0  0.00000000000E+00  0.00000000000E+00  0.45593999997E+02  0.45594000000E+02  0.51100000000E-03 0.  1.
         11   -1    0    0    0    0 -0.00000000000E+00 -0.00000000000E+00 -0.45593999997E+02  0.45594000000E+02  0.51100000000E-03 0. -1.
    9900012    2    1    2    0    0 -0.31287266942E+02  0.48047593481E+01  0.32048942964E+02  0.46142317297E+02  0.99999957679E+01 0.  0.
         12    1    1    2    0    0  0.31287266942E+02 -0.48047593481E+01 -0.32048942964E+02  0.45045682703E+02  0.00000000000E+00 0. -1.
         11    1    3    3    0    0 -0.49869285242E-01 -0.10800244180E+01  0.21401334852E+01  0.23977304445E+01  0.51100000000E-03 0. -1.
        -11    1    3    3    0    0 -0.21220404749E+02  0.32727743717E+01  0.21763454730E+02  0.30572284701E+02  0.51100000000E-03 0.  1.
        -12    1    3    3    0    0 -0.10016992907E+02  0.26120093943E+01  0.81453547487E+01  0.13172302151E+02  0.00000000000E+00 0.  1.
</event>
<event>
 7    1  0.1485408E-008  0.4614232E+02  0.7816164E-02  0.1320468E+00
        -11   -1    0    0    0    0  0.00000000000E+00  0.00000000000E+00  0.45593999997E+02  0.45594000000E+02  0.51100000000E-03 0. -1.
         11   -1    0    0    0    0 -0.00000000000E+00 -0.00000000000E+00 -0.45593999997E+02  0.45594000000E+02  0.51100000000E-03 0.  1.
    9900012    2    1    2    0    0 -0.29365275597E+02  0.27117851269E+02 -0.20770560866E+02  0.46142317998E+02  0.10000002159E+02 0.  0.
         12    1    1    2    0    0  0.29365275597E+02 -0.27117851269E+02  0.20770560866E+02  0.45045682002E+02  0.00000000000E+00 0. -1.
         11    1    3    3    0    0 -0.72087853507E+01  0.77109404605E+01 -0.91036287972E+00  0.10594996454E+02  0.51100000000E-03 0. -1.
        -11    1    3    3    0    0 -0.74308809493E+01  0.71572478935E+01 -0.74000947751E+01  0.12696676417E+02  0.51100000000E-03 0.  1.
        -12    1    3    3    0    0 -0.14725609298E+02  0.12249662915E+02 -0.12460103211E+02  0.22850645127E+02  0.00000000000E+00 0.  1.
</event>
<event>
 7    1  0.1485408E-008  0.4614232E+02  0.7816164E-02  0.1320468E+00
        -11   -1    0    0    0    0  0.00000000000E+00  0.00000000000E+00  0.45593999997E+02  0.45594000000E+02  0.51100000000E-03 0.  1.
         11   -1    0    0    0    0 -0.00000000000E+00 -0.00000000000E+00 -0.45593999997E+02  0.45594000000E+02  0.51100000000E-03 0. -1.
    9900012    2    1    2    0    0 -0.26074155558E+02 -0.21058024750E+01  0.36671753278E+02  0.46142317848E+02  0.10000000791E+02 0.  0.
         12    1    1    2    0    0  0.26074155558E+02  0.21058024750E+01 -0.36671753278E+02  0.45045682152E+02  0.00000000000E+00 0. -1.
         11    1    3    3    0    0 -0.10484868011E+01 -0.97085866021E+00  0.83801193072E+00  0.16565492348E+01  0.51100000000E-03 0. -1.
        -11    1    3    3    0    0 -0.15699364312E+02  0.31887729100E+01  0.20324449054E+02  0.25878978768E+02  0.51100000000E-03 0.  1.
        -12    1    3    3    0    0 -0.93263044447E+01 -0.43237167248E+01  0.15509292293E+02  0.18606789845E+02  0.00000000000E+00 0.  1.
</event>
<event>
 7    1  0.1485408E-008  0.4614232E+02  0.7816164E-02  0.1320468E+00
        -11   -1    0    0    0    0  0.00000000000E+00  0.00000000000E+00  0.45593999997E+02  0.45594000000E+02  0.51100000000E-03 0.  1.
         11   -1    0    0    0    0 -0.00000000000E+00 -0.00000000000E+00 -0.45593999997E+02  0.45594000000E+02  0.51100000000E-03 0. -1.
    9900012    2    1    2    0    0 -0.20983817947E+02  0.34027131456E+02  0.20759268330E+02  0.46142317495E+02  0.99999975725E+01 0.  0.
         12    1    1    2    0    0  0.20983817947E+02 -0.34027131456E+02 -0.20759268330E+02  0.45045682505E+02  0.00000000000E+00 0. -1.
         11    1    3    3    0    0 -0.48181402160E+01  0.31099473034E+01  0.16061204696E+01  0.59553228792E+01  0.51100000000E-03 0. -1.
        -11    1    3    3    0    0 -0.14170988593E+02  0.24651354117E+02  0.17565622935E+02  0.33422406958E+02  0.51100000000E-03 0.  1.
        -12    1    3    3    0    0 -0.19946891381E+01  0.62658300353E+01  0.15875249251E+01  0.67645876575E+01  0.00000000000E+00 0.  1.
</event>
<event>
 7    1  0.1485408E-008  0.4614232E+02  0.7816164E-02  0.1320468E+00
        -11   -1    0    0    0    0  0.00000000000E+00  0.00000000000E+00  0.45593999997E+02  0.45594000000E+02  0.51100000000E-03 0.  1.
         11   -1    0    0    0    0 -0.00000000000E+00 -0.00000000000E+00 -0.45593999997E+02  0.45594000000E+02  0.51100000000E-03 0. -1.
    9900012    2    1    2    0    0 -0.24953268060E+02 -0.34385665132E+01  0.37344665797E+02  0.46142318852E+02  0.10000009951E+02 0.  0.
         12    1    1    2    0    0  0.24953268060E+02  0.34385665132E+01 -0.37344665797E+02  0.45045681148E+02  0.00000000000E+00 0. -1.
         11    1    3    3    0    0 -0.90828195765E+01 -0.17497488965E+00  0.73605156947E+01  0.11692109272E+02  0.51100000000E-03 0. -1.
        -11    1    3    3    0    0 -0.56304446596E+01 -0.22479260285E+01  0.69540298490E+01  0.92257037616E+01  0.51100000000E-03 0.  1.
         12    1    3    3    0    0 -0.10240003824E+02 -0.10156655951E+01  0.23030120254E+02  0.25224505819E+02  0.00000000000E+00 0. -1.
</event>
<event>
 7    1  0.1485408E-008  0.4614232E+02  0.7816164E-02  0.1320468E+00
        -11   -1    0    0    0    0  0.00000000000E+00  0.00000000000E+00  0.45593999997E+02  0.45594000000E+02  0.51100000000E-03 0.  1.
         11   -1    0    0    0    0 -0.00000000000E+00 -0.00000000000E+00 -0.45593999997E+02  0.45594000000E+02  0.51100000000E-03 0. -1.
    9900012    2    1    2    0    0  0.41744627149E+02 -0.88551017319E+01  0.14425210666E+02  0.46142318462E+02  0.10000006393E+02 0.  0.
         12    1    1    2    0    0 -0.41744627149E+02  0.88551017319E+01 -0.14425210666E+02  0.45045681538E+02  0.00000000000E+00 0. -1.
         11    1    3    3    0    0  0.15090427425E+01  0.96782219915E+00 -0.11355999016E-01  0.17927685371E+01  0.51100000000E-03 0. -1.
        -11    1    3    3    0    0  0.38437979629E+02 -0.78189692465E+01  0.13195778755E+02  0.41385300956E+02  0.51100000000E-03 0.  1.
        -12    1    3    3    0    0  0.17976047772E+01 -0.20039546846E+01  0.12407879095E+01  0.29642489689E+01  0.00000000000E+00 0.  1.
</event>
<event>
 7    1  0.1485408E-008  0.4614232E+02  0.7816164E-02  0.1320468E+00
        -11   -1    0    0    0    0  0.00000000000E+00  0.00000000000E+00  0.45593999997E+02  0.45594000000E+02  0.51100000000E-03 0.  1.
         11   -1    0    0    0    0 -0.00000000000E+00 -0.00000000000E+00 -0.45593999997E+02  0.45594000000E+02  0.51100000000E-03 0. -1.
    9900012    2    1    2    0    0  0.97198779355E+01 -0.36296630320E+02  0.24843350572E+02  0.46142317995E+02  0.10000002130E+02 0.  0.
         12    1    1    2    0    0 -0.97198779355E+01  0.36296630320E+02 -0.24843350572E+02  0.45045682005E+02  0.00000000000E+00 0. -1.
         11    1    3    3    0    0  0.43206339185E+01 -0.51507218103E+01  0.54909252026E+01  0.86803267489E+01  0.51100000000E-03 0. -1.
        -11    1    3    3    0    0 -0.86088666598E+00 -0.71094830502E+01  0.54357183816E+01  0.89907124121E+01  0.51100000000E-03 0.  1.
        -12    1    3    3    0    0  0.62601306829E+01 -0.24036425460E+02  0.13916706987E+02  0.28471278834E+02  0.00000000000E+00 0.  1.
</event>
<event>
 7    1  0.1485408E-008  0.4614232E+02  0.7816164E-02  0.1320468E+00
        -11   -1    0    0    0    0  0.00000000000E+00  0.00000000000E+00  0.45593999997E+02  0.45594000000E+02  0.51100000000E-03 0.  1.
         11   -1    0    0    0    0 -0.00000000000E+00 -0.00000000000E+00 -0.45593999997E+02  0.45594000000E+02  0.51100000000E-03 0. -1.
    9900012    2    1    2    0    0 -0.69152683342E+01 -0.40077898024E+02  0.19366330070E+02  0.46142316672E+02  0.99999900663E+01 0.  0.
         12    1    1    2    0    0  0.69152683342E+01  0.40077898024E+02 -0.19366330070E+02  0.45045683328E+02  0.00000000000E+00 0. -1.
         11    1    3    3    0    0 -0.26786785867E+01 -0.43878832367E+01  0.52899707178E+00  0.51680437724E+01  0.51100000000E-03 0. -1.
        -11    1    3    3    0    0 -0.39658174634E+00 -0.15290320846E+02  0.52795856366E+01  0.16181013980E+02  0.51100000000E-03 0.  1.
        -12    1    3    3    0    0 -0.38400080012E+01 -0.20399693940E+02  0.13557747362E+02  0.24793258919E+02  0.00000000000E+00 0.  1.
</event>
<event>
 7    1  0.1485408E-008  0.4614232E+02  0.7816164E-02  0.1320468E+00
        -11   -1    0    0    0    0  0.00000000000E+00  0.00000000000E+00  0.45593999997E+02  0.45594000000E+02  0.51100000000E-03 0.  1.
         11   -1    0    0    0    0 -0.00000000000E+00 -0.00000000000E+00 -0.45593999997E+02  0.45594000000E+02  0.51100000000E-03 0. -1.
    9900012    2    1    2    0    0  0.42421993014E+02 -0.13701141209E+02 -0.64627215424E+01  0.46142317283E+02  0.99999956399E+01 0.  0.
         12    1    1    2    0    0 -0.42421993014E+02  0.13701141209E+02  0.64627215424E+01  0.45045682717E+02  0.00000000000E+00 0. -1.
         11    1    3    3    0    0  0.18601535710E+02 -0.59105375943E+01 -0.46728139208E+00  0.19523573894E+02  0.51100000000E-03 0. -1.
        -11    1    3    3    0    0  0.17776268258E+02 -0.86749457970E+01 -0.52497567989E+01  0.20464856327E+02  0.51100000000E-03 0.  1.
         12    1    3    3    0    0  0.60441890455E+01  0.88434218224E+00 -0.74568335145E+00  0.61538870621E+01  0.00000000000E+00 0. -1.
</event>
<event>
 7    1  0.1485408E-008  0.4614232E+02  0.7816164E-02  0.1320468E+00
        -11   -1    0    0    0    0  0.00000000000E+00  0.00000000000E+00  0.45593999997E+02  0.45594000000E+02  0.51100000000E-03 0.  1.
         11   -1    0    0    0    0 -0.00000000000E+00 -0.00000000000E+00 -0.45593999997E+02  0.45594000000E+02  0.51100000000E-03 0. -1.
    9900012    2    1    2    0    0 -0.15638770655E+02  0.42140060096E+02 -0.29593331214E+01  0.46142318020E+02  0.10000002360E+02 0.  0.
         12    1    1    2    0    0  0.15638770655E+02 -0.42140060096E+02  0.29593331214E+01  0.45045681980E+02  0.00000000000E+00 0. -1.
         11    1    3    3    0    0 -0.27457352247E+01  0.32922634000E+01  0.11471031005E+01  0.44377816535E+01  0.51100000000E-03 0. -1.
        -11    1    3    3    0    0 -0.13095570842E+01  0.13891334384E+02 -0.57046246841E+00  0.13964581569E+02  0.51100000000E-03 0.  1.
        -12    1    3    3    0    0 -0.11583478346E+02  0.24956462313E+02 -0.35359737535E+01  0.27739954797E+02  0.00000000000E+00 0.  1.
</event>
<event>
 7    1  0.1485408E-008  0.4614232E+02  0.7816164E-02  0.1320468E+00
        -11   -1    0    0    0    0  0.00000000000E+00  0.00000000000E+00  0.45593999997E+02  0.45594000000E+02  0.51100000000E-03 0.  1.
         11   -1    0    0    0    0 -0.00000000000E+00 -0.00000000000E+00 -0.45593999997E+02  0.45594000000E+02  0.51100000000E-03 0. -1.
    9900012    2    1    2    0    0 -0.40651559278E+02 -0.18928198125E+02  0.42764045539E+01  0.46142316612E+02  0.99999895198E+01 0.  0.
         12    1    1    2    0    0  0.40651559278E+02  0.18928198125E+02 -0.42764045539E+01  0.45045683388E+02  0.00000000000E+00 0. -1.
         11    1    3    3    0    0 -0.21390609863E+02 -0.95178614630E+01  0.48308205290E+01  0.23905746263E+02  0.51100000000E-03 0. -1.
        -11    1    3    3    0    0 -0.15597251868E+02 -0.59821116982E+01  0.15888446774E+01  0.16780475377E+02  0.51100000000E-03 0.  1.
         12    1    3    3    0    0 -0.36636975465E+01 -0.34282249636E+01 -0.21432606525E+01  0.54560949715E+01  0.00000000000E+00 0. -1.
</event>
<event>
 7    1  0.1485408E-008  0.4614232E+02  0.7816164E-02  0.1320468E+00
        -11   -1    0    0    0    0  0.00000000000E+00  0.00000000000E+00  0.45593999997E+02  0.45594000000E+02  0.51100000000E-03 0. -1.
         11   -1    0    0    0    0 -0.00000000000E+00 -0.00000000000E+00 -0.45593999997E+02  0.45594000000E+02  0.51100000000E-03 0.  1.
    9900012    2    1    2    0    0  0.26935910259E+02  0.36002296537E+02  0.27212065345E+01  0.46142316717E+02  0.99999904786E+01 0.  0.
         12    1    1    2    0    0 -0.26935910259E+02 -0.36002296537E+02 -0.27212065345E+01  0.45045683283E+02  0.00000000000E+00 0. -1.
         11    1    3    3    0    0  0.48728882916E+01  0.11158678912E+02  0.24712915345E+01  0.12424509546E+02  0.51100000000E-03 0. -1.
        -11    1    3    3    0    0  0.19345670817E+02  0.18591852823E+02 -0.66805785454E+00  0.26839490910E+02  0.51100000000E-03 0.  1.
        -12    1    3    3    0    0  0.27173511507E+01  0.62517648027E+01  0.91797285459E+00  0.68783162610E+01  0.00000000000E+00 0.  1.
</event>
<event>
 7    1  0.1485408E-008  0.4614232E+02  0.7816164E-02  0.1320468E+00
        -11   -1    0    0    0    0  0.00000000000E+00  0.00000000000E+00  0.45593999997E+02  0.45594000000E+02  0.51100000000E-03 0. -1.
         11   -1    0    0    0    0 -0.00000000000E+00 -0.00000000000E+00 -0.45593999997E+02  0.45594000000E+02  0.51100000000E-03 0.  1.
    9900012    2    1    2    0    0  0.23504821817E+02  0.36838371540E+02  0.10934864768E+02  0.46142317256E+02  0.99999953949E+01 0.  0.
         12    1    1    2    0    0 -0.23504821817E+02 -0.36838371540E+02 -0.10934864768E+02  0.45045682744E+02  0.00000000000E+00 0. -1.
         11    1    3    3    0    0  0.45340180755E+01  0.34418334697E+01  0.41236852934E+01  0.70291050783E+01  0.51100000000E-03 0. -1.
        -11    1    3    3    0    0  0.12370119053E+02  0.19200717972E+02  0.34252455571E+01  0.23095881092E+02  0.51100000000E-03 0.  1.
         12    1    3    3    0    0  0.66006846889E+01  0.14195820098E+02  0.33859339177E+01  0.16017331086E+02  0.00000000000E+00 0. -1.
</event>
<event>
 7    1  0.1485408E-008  0.4614232E+02  0.7816164E-02  0.1320468E+00
        -11   -1    0    0    0    0  0.00000000000E+00  0.00000000000E+00  0.45593999997E+02  0.45594000000E+02  0.51100000000E-03 0.  1.
         11   -1    0    0    0    0 -0.00000000000E+00 -0.00000000000E+00 -0.45593999997E+02  0.45594000000E+02  0.51100000000E-03 0. -1.
    9900012    2    1    2    0    0 -0.46443974330E+01 -0.22859010816E+02  0.38535810361E+02  0.46142317818E+02  0.10000000522E+02 0.  0.
         12    1    1    2    0    0  0.46443974330E+01  0.22859010816E+02 -0.38535810361E+02  0.45045682182E+02  0.00000000000E+00 0. -1.
         11    1    3    3    0    0 -0.39032292348E+00 -0.53867715898E+01  0.14349702413E+02  0.15332436850E+02  0.51100000000E-03 0. -1.
        -11    1    3    3    0    0 -0.53685797305E+01 -0.85836794063E+01  0.13134462305E+02  0.16583585281E+02  0.51100000000E-03 0.  1.
        -12    1    3    3    0    0  0.11145052210E+01 -0.88885598200E+01  0.11051645643E+02  0.14226295687E+02  0.00000000000E+00 0.  1.
</event>
<event>
 7    1  0.1485408E-008  0.4614232E+02  0.7816164E-02  0.1320468E+00
        -11   -1    0    0    0    0  0.00000000000E+00  0.00000000000E+00  0.45593999997E+02  0.45594000000E+02  0.51100000000E-03 0.  1.
         11   -1    0    0    0    0 -0.00000000000E+00 -0.00000000000E+00 -0.45593999997E+02  0.45594000000E+02  0.51100000000E-03 0. -1.
    9900012    2    1    2    0    0  0.28967355646E+02 -0.17070224608E+02  0.29976877321E+02  0.46142318351E+02  0.10000005382E+02 0.  0.
         12    1    1    2    0    0 -0.28967355646E+02  0.17070224608E+02 -0.29976877321E+02  0.45045681649E+02  0.00000000000E+00 0. -1.
         11    1    3    3    0    0  0.23260858718E+02 -0.14893464815E+02  0.27368882929E+02  0.38883654606E+02  0.51100000000E-03 0.  1.
        -11    1    3    3    0    0  0.26884496190E+01  0.30036997431E+00  0.29672624679E+00  0.27214022492E+01  0.51100000000E-03 0. -1.
        -12    1    3    3    0    0  0.30180473088E+01 -0.24771297674E+01  0.23112681452E+01  0.45372614959E+01  0.00000000000E+00 0.  1.
</event>
<event>
 7    1  0.1485408E-008  0.4614231E+02  0.7816164E-02  0.1320468E+00
        -11   -1    0    0    0    0  0.00000000000E+00  0.00000000000E+00  0.45593999997E+02  0.45594000000E+02  0.51100000000E-03 0.  1.
         11   -1    0    0    0    0 -0.00000000000E+00 -0.00000000000E+00 -0.45593999997E+02  0.45594000000E+02  0.51100000000E-03 0. -1.
    9900012    2    1    2    0    0  0.37419540737E+02  0.12112097525E+02  0.21958801322E+02  0.46142313293E+02  0.99999592573E+01 0.  0.
         12    1    1    2    0    0 -0.37419540737E+02 -0.12112097525E+02 -0.21958801322E+02  0.45045686707E+02  0.00000000000E+00 0. -1.
         11    1    3    3    0    0  0.10091642860E+02  0.70925775844E+01  0.61048369078E+01  0.13762810263E+02  0.51100000000E-03 0. -1.
        -11    1    3    3    0    0  0.47607772399E+00  0.61329138119E+00  0.13172789888E+01  0.15290521616E+01  0.51100000000E-03 0.  1.
        -12    1    3    3    0    0  0.26851820153E+02  0.44062285593E+01  0.14536685425E+02  0.30850450869E+02  0.00000000000E+00 0.  1.
</event>
<event>
 7    1  0.1485408E-008  0.4614232E+02  0.7816164E-02  0.1320468E+00
        -11   -1    0    0    0    0  0.00000000000E+00  0.00000000000E+00  0.45593999997E+02  0.45594000000E+02  0.51100000000E-03 0.  1.
         11   -1    0    0    0    0 -0.00000000000E+00 -0.00000000000E+00 -0.45593999997E+02  0.45594000000E+02  0.51100000000E-03 0. -1.
    9900012    2    1    2    0    0  0.14065826507E+01  0.27391066541E+02  0.35733240550E+02  0.46142317841E+02  0.10000000726E+02 0.  0.
         12    1    1    2    0    0 -0.14065826507E+01 -0.27391066541E+02 -0.35733240550E+02  0.45045682159E+02  0.00000000000E+00 0. -1.
         11    1    3    3    0    0  0.43217974538E+01  0.50776957389E+01  0.82338474814E+01  0.10595148506E+02  0.51100000000E-03 0. -1.
        -11    1    3    3    0    0 -0.19679356713E+01  0.15209940575E+02  0.19466686948E+02  0.24782392219E+02  0.51100000000E-03 0.  1.
         12    1    3    3    0    0 -0.94727913178E+00  0.71034302274E+01  0.80327061202E+01  0.10764777116E+02  0.00000000000E+00 0. -1.
</event>
<event>
 7    1  0.1485408E-008  0.4614232E+02  0.7816164E-02  0.1320468E+00
        -11   -1    0    0    0    0  0.00000000000E+00  0.00000000000E+00  0.45593999997E+02  0.45594000000E+02  0.51100000000E-03 0.  1.
         11   -1    0    0    0    0 -0.00000000000E+00 -0.00000000000E+00 -0.45593999997E+02  0.45594000000E+02  0.51100000000E-03 0. -1.
    9900012    2    1    2    0    0  0.32427420452E+02  0.21744280801E+02  0.22466912971E+02  0.46142317375E+02  0.99999964765E+01 0.  0.
         12    1    1    2    0    0 -0.32427420452E+02 -0.21744280801E+02 -0.22466912971E+02  0.45045682625E+02  0.00000000000E+00 0. -1.
         11    1    3    3    0    0  0.41154691764E+01  0.29580274533E+01  0.55878634363E+01  0.75439532740E+01  0.51100000000E-03 0. -1.
        -11    1    3    3    0    0  0.62109698879E+01  0.16662297035E+01  0.11870242744E+01  0.65392274209E+01  0.51100000000E-03 0.  1.
        -12    1    3    3    0    0  0.22100981388E+02  0.17120023644E+02  0.15692025260E+02  0.32059136680E+02  0.00000000000E+00 0.  1.
</event>
<event>
 7    1  0.1485408E-008  0.4614232E+02  0.7816164E-02  0.1320468E+00
        -11   -1    0    0    0    0  0.00000000000E+00  0.00000000000E+00  0.45593999997E+02  0.45594000000E+02  0.51100000000E-03 0.  1.
         11   -1    0    0    0    0 -0.00000000000E+00 -0.00000000000E+00 -0.45593999997E+02  0.45594000000E+02  0.51100000000E-03 0. -1.
    9900012    2    1    2    0    0 -0.37018799206E+02  0.10940178768E+02  0.23217118169E+02  0.46142316719E+02  0.99999905007E+01 0.  0.
         12    1    1    2    0    0  0.37018799206E+02 -0.10940178768E+02 -0.23217118169E+02  0.45045683281E+02  0.00000000000E+00 0. -1.
         11    1    3    3    0    0 -0.11121797731E+02  0.77764383341E+01  0.79997791000E+01  0.15753216937E+02  0.51100000000E-03 0. -1.
        -11    1    3    3    0    0 -0.25608877924E+02  0.32542647415E+01  0.14494405748E+02  0.29605618821E+02  0.51100000000E-03 0.  1.
        -12    1    3    3    0    0 -0.28812355120E+00 -0.90524307759E-01  0.72293332106E+00  0.78348096196E+00  0.00000000000E+00 0.  1.
</event>
<event>
 7    1  0.1485408E-008  0.4614232E+02  0.7816164E-02  0.1320468E+00
        -11   -1    0    0    0    0  0.00000000000E+00  0.00000000000E+00  0.45593999997E+02  0.45594000000E+02  0.51100000000E-03 0.  1.
         11   -1    0    0    0    0 -0.00000000000E+00 -0.00000000000E+00 -0.45593999997E+02  0.45594000000E+02  0.51100000000E-03 0. -1.
    9900012    2    1    2    0    0  0.40954742573E+02  0.90989083379E+01 -0.16402205817E+02  0.46142318433E+02  0.10000006130E+02 0.  0.
         12    1    1    2    0    0 -0.40954742573E+02 -0.90989083379E+01  0.16402205817E+02  0.45045681567E+02  0.00000000000E+00 0. -1.
         11    1    3    3    0    0  0.11591045530E+02  0.43097561724E+01 -0.82579109329E+01  0.14870085002E+02  0.51100000000E-03 0. -1.
        -11    1    3    3    0    0  0.17690292892E+02  0.48987643482E+01 -0.65514527929E+01  0.19490148504E+02  0.51100000000E-03 0.  1.
        -12    1    3    3    0    0  0.11673404151E+02 -0.10961218262E+00 -0.15928420911E+01  0.11782084927E+02  0.00000000000E+00 0.  1.
</event>
<event>
 7    1  0.1485408E-008  0.4614232E+02  0.7816164E-02  0.1320468E+00
        -11   -1    0    0    0    0  0.00000000000E+00  0.00000000000E+00  0.45593999997E+02  0.45594000000E+02  0.51100000000E-03 0. -1.
         11   -1    0    0    0    0 -0.00000000000E+00 -0.00000000000E+00 -0.45593999997E+02  0.45594000000E+02  0.51100000000E-03 0.  1.
    9900012    2    1    2    0    0 -0.18933958870E+02 -0.31192329541E+02 -0.26413201903E+02  0.46142318127E+02  0.10000003332E+02 0.  0.
         12    1    1    2    0    0  0.18933958870E+02  0.31192329541E+02  0.26413201903E+02  0.45045681873E+02  0.00000000000E+00 0. -1.
         11    1    3    3    0    0 -0.10098091120E+01 -0.55385300119E+01 -0.65535023869E+01  0.86396425234E+01  0.51100000000E-03 0. -1.
        -11    1    3    3    0    0 -0.13480733202E+02 -0.19266858386E+02 -0.17688370238E+02  0.29424826960E+02  0.51100000000E-03 0.  1.
        -12    1    3    3    0    0 -0.44434165563E+01 -0.63869411435E+01 -0.21713292778E+01  0.80778486428E+01  0.00000000000E+00 0.  1.
</event>
<event>
 7    1  0.1485408E-008  0.4614232E+02  0.7816164E-02  0.1320468E+00
        -11   -1    0    0    0    0  0.00000000000E+00  0.00000000000E+00  0.45593999997E+02  0.45594000000E+02  0.51100000000E-03 0.  1.
         11   -1    0    0    0    0 -0.00000000000E+00 -0.00000000000E+00 -0.45593999997E+02  0.45594000000E+02  0.51100000000E-03 0. -1.
    9900012    2    1    2    0    0  0.14695673550E+02 -0.34164201103E+02  0.25415704974E+02  0.46142317439E+02  0.99999970597E+01 0.  0.
         12    1    1    2    0    0 -0.14695673550E+02  0.34164201103E+02 -0.25415704974E+02  0.45045682561E+02  0.00000000000E+00 0. -1.
         11    1    3    3    0    0  0.32689160371E+01 -0.14068769740E+02  0.10037526601E+02  0.17588861094E+02  0.51100000000E-03 0. -1.
        -11    1    3    3    0    0  0.12860762905E+00 -0.24183033503E+01 -0.18947458681E+00  0.24291216307E+01  0.51100000000E-03 0.  1.
        -12    1    3    3    0    0  0.11298149884E+02 -0.17677128013E+02  0.15567652959E+02  0.26124334714E+02  0.00000000000E+00 0.  1.
</event>
<event>
 7    1  0.1485408E-008  0.4614232E+02  0.7816164E-02  0.1320468E+00
        -11   -1    0    0    0    0  0.00000000000E+00  0.00000000000E+00  0.45593999997E+02  0.45594000000E+02  0.51100000000E-03 0. -1.
         11   -1    0    0    0    0 -0.00000000000E+00 -0.00000000000E+00 -0.45593999997E+02  0.45594000000E+02  0.51100000000E-03 0.  1.
    9900012    2    1    2    0    0 -0.45887495493E+01 -0.33577557174E+02 -0.29674982584E+02  0.46142316971E+02  0.99999927979E+01 0.  0.
         12    1    1    2    0    0  0.45887495493E+01  0.33577557174E+02  0.29674982584E+02  0.45045683029E+02  0.00000000000E+00 0. -1.
         11    1    3    3    0    0  0.10739336817E+01 -0.50725590912E+01 -0.24488185324E+01  0.57341871048E+01  0.51100000000E-03 0. -1.
        -11    1    3    3    0    0 -0.59785439880E+01 -0.19298804695E+02 -0.21776228940E+02  0.29705066874E+02  0.51100000000E-03 0.  1.
        -12    1    3    3    0    0  0.31586075694E+00 -0.92061933877E+01 -0.54499351108E+01  0.10703062992E+02  0.00000000000E+00 0.  1.
</event>
<event>
 7    1  0.1485408E-008  0.4614232E+02  0.7816164E-02  0.1320468E+00
        -11   -1    0    0    0    0  0.00000000000E+00  0.00000000000E+00  0.45593999997E+02  0.45594000000E+02  0.51100000000E-03 0.  1.
         11   -1    0    0    0    0 -0.00000000000E+00 -0.00000000000E+00 -0.45593999997E+02  0.45594000000E+02  0.51100000000E-03 0. -1.
    9900012    2    1    2    0    0  0.30966842636E+02  0.69083729889E+01  0.31975654774E+02  0.46142318093E+02  0.10000003030E+02 0.  0.
         12    1    1    2    0    0 -0.30966842636E+02 -0.69083729889E+01 -0.31975654774E+02  0.45045681907E+02  0.00000000000E+00 0. -1.
         11    1    3    3    0    0  0.79089540350E+01  0.11358128558E+01  0.30813334240E+01  0.85636581379E+01  0.51100000000E-03 0. -1.
        -11    1    3    3    0    0  0.51852238560E+01  0.24946536277E+01  0.84906460085E+01  0.10256749634E+02  0.51100000000E-03 0.  1.
         12    1    3    3    0    0  0.17872664745E+02  0.32779065055E+01  0.20403675342E+02  0.27321910321E+02  0.00000000000E+00 0. -1.
</event>
<event>
 7    1  0.1485408E-008  0.4614232E+02  0.7816164E-02  0.1320468E+00
        -11   -1    0    0    0    0  0.00000000000E+00  0.00000000000E+00  0.45593999997E+02  0.45594000000E+02  0.51100000000E-03 0.  1.
         11   -1    0    0    0    0 -0.00000000000E+00 -0.00000000000E+00 -0.45593999997E+02  0.45594000000E+02  0.51100000000E-03 0. -1.
    9900012    2    1    2    0    0  0.12162564513E+02  0.34663207297E+02  0.26070054256E+02  0.46142316027E+02  0.99999841882E+01 0.  0.
         12    1    1    2    0    0 -0.12162564513E+02 -0.34663207297E+02 -0.26070054256E+02  0.45045683973E+02  0.00000000000E+00 0. -1.
         11    1    3    3    0    0  0.14942901843E+01  0.13000211321E+02  0.55353019868E+01  0.14208376610E+02  0.51100000000E-03 0. -1.
        -11    1    3    3    0    0  0.53961284784E+01  0.85121519252E+01  0.65095714552E+01  0.11997893721E+02  0.51100000000E-03 0.  1.
         12    1    3    3    0    0  0.52721458504E+01  0.13150844051E+02  0.14025180814E+02  0.19936045696E+02  0.00000000000E+00 0. -1.
</event>
<event>
 7    1  0.1485408E-008  0.4614232E+02  0.7816164E-02  0.1320468E+00
        -11   -1    0    0    0    0  0.00000000000E+00  0.00000000000E+00  0.45593999997E+02  0.45594000000E+02  0.51100000000E-03 0. -1.
         11   -1    0    0    0    0 -0.00000000000E+00 -0.00000000000E+00 -0.45593999997E+02  0.45594000000E+02  0.51100000000E-03 0.  1.
    9900012    2    1    2    0    0  0.10737943957E+02  0.33181175041E+02 -0.28509991524E+02  0.46142318362E+02  0.10000005475E+02 0.  0.
         12    1    1    2    0    0 -0.10737943957E+02 -0.33181175041E+02  0.28509991524E+02  0.45045681638E+02  0.00000000000E+00 0. -1.
         11    1    3    3    0    0  0.16651910562E+01  0.10239119499E+02 -0.10875785872E+02  0.15029808647E+02  0.51100000000E-03 0. -1.
        -11    1    3    3    0    0  0.31913117464E+01  0.15578557531E+02 -0.86987259979E+01  0.18125776112E+02  0.51100000000E-03 0.  1.
        -12    1    3    3    0    0  0.58814411539E+01  0.73634980113E+01 -0.89354796550E+01  0.12986733603E+02  0.00000000000E+00 0.  1.
</event>
<event>
 7    1  0.1485408E-008  0.4614233E+02  0.7816164E-02  0.1320468E+00
        -11   -1    0    0    0    0  0.00000000000E+00  0.00000000000E+00  0.45593999997E+02  0.45594000000E+02  0.51100000000E-03 0. -1.
         11   -1    0    0    0    0 -0.00000000000E+00 -0.00000000000E+00 -0.45593999997E+02  0.45594000000E+02  0.51100000000E-03 0.  1.
    9900012    2    1    2    0    0 -0.21906786800E+02  0.21053554440E+02 -0.33255875659E+02  0.46142326198E+02  0.10000076930E+02 0.  0.
         12    1    1    2    0    0  0.21906786800E+02 -0.21053554440E+02  0.33255875659E+02  0.45045673802E+02  0.00000000000E+00 0. -1.
         11    1    3    3    0    0  0.40858718168E+00  0.15282699061E+01 -0.14594140602E+00  0.15886634465E+01  0.51100000000E-03 0. -1.
        -11    1    3    3    0    0 -0.15920978762E+02  0.13163320198E+02 -0.24931013990E+02  0.32377554296E+02  0.51100000000E-03 0.  1.
        -12    1    3    3    0    0 -0.63943952194E+01  0.63619643357E+01 -0.81789202633E+01  0.12176108455E+02  0.00000000000E+00 0.  1.
</event>
<event>
 7    1  0.1485408E-008  0.4614232E+02  0.7816164E-02  0.1320468E+00
        -11   -1    0    0    0    0  0.00000000000E+00  0.00000000000E+00  0.45593999997E+02  0.45594000000E+02  0.51100000000E-03 0.  1.
         11   -1    0    0    0    0 -0.00000000000E+00 -0.00000000000E+00 -0.45593999997E+02  0.45594000000E+02  0.51100000000E-03 0. -1.
    9900012    2    1    2    0    0 -0.14256860381E+02 -0.15892154014E+02  0.39664781234E+02  0.46142317660E+02  0.99999990776E+01 0.  0.
         12    1    1    2    0    0  0.14256860381E+02  0.15892154014E+02 -0.39664781234E+02  0.45045682340E+02  0.00000000000E+00 0. -1.
         11    1    3    3    0    0 -0.22169640730E+01  0.11786397966E+01  0.27844276633E+01  0.37492878183E+01  0.51100000000E-03 0. -1.
        -11    1    3    3    0    0 -0.89559566366E+01 -0.12081087463E+02  0.26624568568E+02  0.30578251835E+02  0.51100000000E-03 0.  1.
         12    1    3    3    0    0 -0.30839396710E+01 -0.49897063478E+01  0.10255785003E+02  0.11814778007E+02  0.00000000000E+00 0. -1.
</event>
<event>
 7    1  0.1485408E-008  0.4614232E+02  0.7816164E-02  0.1320468E+00
        -11   -1    0    0    0    0  0.00000000000E+00  0.00000000000E+00  0.45593999997E+02  0.45594000000E+02  0.51100000000E-03 0.  1.
         11   -1    0    0    0    0 -0.00000000000E+00 -0.00000000000E+00 -0.45593999997E+02  0.45594000000E+02  0.51100000000E-03 0. -1.
    9900012    2    1    2    0    0 -0.32685776886E+02  0.14123093617E+02  0.27591514863E+02  0.46142317894E+02  0.10000001213E+02 0.  0.
         12    1    1    2    0    0  0.32685776886E+02 -0.14123093617E+02 -0.27591514863E+02  0.45045682106E+02  0.00000000000E+00 0. -1.
         11    1    3    3    0    0 -0.90491580756E+01  0.11417858948E+00  0.73605372718E+01  0.11665239295E+02  0.51100000000E-03 0. -1.
        -11    1    3    3    0    0 -0.19986271155E+02  0.95578362431E+01  0.15748773046E+02  0.27181374524E+02  0.51100000000E-03 0.  1.
         12    1    3    3    0    0 -0.36503476551E+01  0.44510787848E+01  0.44822045455E+01  0.72957040743E+01  0.00000000000E+00 0. -1.
</event>
<event>
 7    1  0.1485408E-008  0.4614232E+02  0.7816164E-02  0.1320468E+00
        -11   -1    0    0    0    0  0.00000000000E+00  0.00000000000E+00  0.45593999997E+02  0.45594000000E+02  0.51100000000E-03 0.  1.
         11   -1    0    0    0    0 -0.00000000000E+00 -0.00000000000E+00 -0.45593999997E+02  0.45594000000E+02  0.51100000000E-03 0. -1.
    9900012    2    1    2    0    0 -0.14009157894E+01 -0.38536016512E+02  0.23283609546E+02  0.46142316442E+02  0.99999879753E+01 0.  0.
         12    1    1    2    0    0  0.14009157894E+01  0.38536016512E+02 -0.23283609546E+02  0.45045683558E+02  0.00000000000E+00 0. -1.
         11    1    3    3    0    0  0.79295317652E+00 -0.67141699046E+01  0.63458632697E+00  0.67905487492E+01  0.51100000000E-03 0. -1.
        -11    1    3    3    0    0 -0.99062998324E+00 -0.10952023752E+02  0.54072790724E+01  0.12254258005E+02  0.51100000000E-03 0.  1.
         12    1    3    3    0    0 -0.12032389826E+01 -0.20869822855E+02  0.17241744147E+02  0.27097509688E+02  0.00000000000E+00 0. -1.
</event>
<event>
 7    1  0.1485408E-008  0.4614232E+02  0.7816164E-02  0.1320468E+00
        -11   -1    0    0    0    0  0.00000000000E+00  0.00000000000E+00  0.45593999997E+02  0.45594000000E+02  0.51100000000E-03 0.  1.
         11   -1    0    0    0    0 -0.00000000000E+00 -0.00000000000E+00 -0.45593999997E+02  0.45594000000E+02  0.51100000000E-03 0. -1.
    9900012    2    1    2    0    0  0.33863471678E+02  0.23791884178E+02  0.17785525880E+02  0.46142318768E+02  0.10000009185E+02 0.  0.
         12    1    1    2    0    0 -0.33863471678E+02 -0.23791884178E+02 -0.17785525880E+02  0.45045681232E+02  0.00000000000E+00 0. -1.
         11    1    3    3    0    0  0.74094414340E+01  0.73613324946E+01  0.63222591544E+01  0.12209013045E+02  0.51100000000E-03 0. -1.
        -11    1    3    3    0    0  0.18436822146E+02  0.11517278905E+02  0.11364313608E+02  0.24529813457E+02  0.51100000000E-03 0.  1.
        -12    1    3    3    0    0  0.80172080980E+01  0.49132727777E+01  0.98953118163E-01  0.94034922659E+01  0.00000000000E+00 0.  1.
</event>
<event>
 7    1  0.1485408E-008  0.4614232E+02  0.7816164E-02  0.1320468E+00
        -11   -1    0    0    0    0  0.00000000000E+00  0.00000000000E+00  0.45593999997E+02  0.45594000000E+02  0.51100000000E-03 0.  1.
         11   -1    0    0    0    0 -0.00000000000E+00 -0.00000000000E+00 -0.45593999997E+02  0.45594000000E+02  0.51100000000E-03 0. -1.
    9900012    2    1    2    0    0  0.24892107753E+02 -0.22301807956E+02  0.30201422396E+02  0.46142316730E+02  0.99999905977E+01 0.  0.
         12    1    1    2    0    0 -0.24892107753E+02  0.22301807956E+02 -0.30201422396E+02  0.45045683270E+02  0.00000000000E+00 0. -1.
         11    1    3    3    0    0  0.33745414527E+01 -0.21707429537E+00  0.15204897207E+01  0.37076327377E+01  0.51100000000E-03 0. -1.
        -11    1    3    3    0    0  0.21529239784E+02 -0.22332175057E+02  0.28527909102E+02  0.42143514405E+02  0.51100000000E-03 0.  1.
        -12    1    3    3    0    0 -0.11673483357E-01  0.24744139571E+00  0.15302357402E+00  0.29116958758E+00  0.00000000000E+00 0.  1.
</event>
<event>
 7    1  0.1485408E-008  0.4614232E+02  0.7816164E-02  0.1320468E+00
        -11   -1    0    0    0    0  0.00000000000E+00  0.00000000000E+00  0.45593999997E+02  0.45594000000E+02  0.51100000000E-03 0.  1.
         11   -1    0    0    0    0 -0.00000000000E+00 -0.00000000000E+00 -0.45593999997E+02  0.45594000000E+02  0.51100000000E-03 0. -1.
    9900012    2    1    2    0    0 -0.27809698185E+02  0.12079880357E+02  0.33313822907E+02  0.46142316308E+02  0.99999867522E+01 0.  0.
         12    1    1    2    0    0  0.27809698185E+02 -0.12079880357E+02 -0.33313822907E+02  0.45045683692E+02  0.00000000000E+00 0. -1.
         11    1    3    3    0    0 -0.38907293890E+01  0.34878405441E+01  0.30482437588E+01  0.60493468336E+01  0.51100000000E-03 0. -1.
        -11    1    3    3    0    0 -0.22990157761E+02  0.95038310341E+01  0.29475445393E+02  0.38570351820E+02  0.51100000000E-03 0.  1.
         12    1    3    3    0    0 -0.92881103528E+00 -0.91179122103E+00  0.79013375535E+00  0.15226176544E+01  0.00000000000E+00 0. -1.
</event>
<event>
 7    1  0.1485408E-008  0.4614232E+02  0.7816164E-02  0.1320468E+00
        -11   -1    0    0    0    0  0.00000000000E+00  0.00000000000E+00  0.45593999997E+02  0.45594000000E+02  0.51100000000E-03 0.  1.
         11   -1    0    0    0    0 -0.00000000000E+00 -0.00000000000E+00 -0.45593999997E+02  0.45594000000E+02  0.51100000000E-03 0. -1.
    9900012    2    1    2    0    0  0.16975747340E+02  0.41705111929E+00  0.41722457208E+02  0.46142319132E+02  0.10000012500E+02 0.  0.
         12    1    1    2    0    0 -0.16975747340E+02 -0.41705111929E+00 -0.41722457208E+02  0.45045680868E+02  0.00000000000E+00 0. -1.
         11    1    3    3    0    0 -0.10115640556E+00 -0.18496145096E+01  0.21862035045E+01  0.28654480412E+01  0.51100000000E-03 0. -1.
        -11    1    3    3    0    0  0.13066837059E+02  0.25474849421E+01  0.33239308988E+02  0.35806194611E+02  0.51100000000E-03 0.  1.
        -12    1    3    3    0    0  0.40100666859E+01 -0.28081931320E+00  0.62969447161E+01  0.74706764801E+01  0.00000000000E+00 0.  1.
</event>
<event>
 7    1  0.1485408E-008  0.4614232E+02  0.7816164E-02  0.1320468E+00
        -11   -1    0    0    0    0  0.00000000000E+00  0.00000000000E+00  0.45593999997E+02  0.45594000000E+02  0.51100000000E-03 0.  1.
         11   -1    0    0    0    0 -0.00000000000E+00 -0.00000000000E+00 -0.45593999997E+02  0.45594000000E+02  0.51100000000E-03 0. -1.
    9900012    2    1    2    0    0  0.44763288967E+02 -0.45283915583E+01 -0.22034117118E+01  0.46142318826E+02  0.10000009709E+02 0.  0.
         12    1    1    2    0    0 -0.44763288967E+02  0.45283915583E+01  0.22034117118E+01  0.45045681174E+02  0.00000000000E+00 0. -1.
         11    1    3    3    0    0  0.30691734156E+02 -0.32718474527E+01 -0.54834115972E+01  0.31348928758E+02  0.51100000000E-03 0. -1.
        -11    1    3    3    0    0  0.13968565244E+02 -0.15802949586E+01  0.30546925846E+01  0.14385732312E+02  0.51100000000E-03 0.  1.
         12    1    3    3    0    0  0.10298956783E+00  0.32375085295E+00  0.22530730089E+00  0.40765775560E+00  0.00000000000E+00 0. -1.
</event>
<event>
 7    1  0.1485408E-008  0.4614232E+02  0.7816164E-02  0.1320468E+00
        -11   -1    0    0    0    0  0.00000000000E+00  0.00000000000E+00  0.45593999997E+02  0.45594000000E+02  0.51100000000E-03 0. -1.
         11   -1    0    0    0    0 -0.00000000000E+00 -0.00000000000E+00 -0.45593999997E+02  0.45594000000E+02  0.51100000000E-03 0.  1.
    9900012    2    1    2    0    0  0.25713200911E+02 -0.21376663816E+02  0.30182495084E+02  0.46142318004E+02  0.10000002216E+02 0.  0.
         12    1    1    2    0    0 -0.25713200911E+02  0.21376663816E+02 -0.30182495084E+02  0.45045681996E+02  0.00000000000E+00 0. -1.
         11    1    3    3    0    0  0.11663910145E+02 -0.40307860419E+01  0.11484457876E+02  0.16857841171E+02  0.51100000000E-03 0.  1.
        -11    1    3    3    0    0  0.75241907967E+01 -0.10110654169E+02  0.12416907894E+02  0.17692325364E+02  0.51100000000E-03 0. -1.
         12    1    3    3    0    0  0.65250999689E+01 -0.72352236049E+01  0.62811293142E+01  0.11592151469E+02  0.00000000000E+00 0. -1.
</event>
<event>
 7    1  0.1485408E-008  0.4614232E+02  0.7816164E-02  0.1320468E+00
        -11   -1    0    0    0    0  0.00000000000E+00  0.00000000000E+00  0.45593999997E+02  0.45594000000E+02  0.51100000000E-03 0. -1.
         11   -1    0    0    0    0 -0.00000000000E+00 -0.00000000000E+00 -0.45593999997E+02  0.45594000000E+02  0.51100000000E-03 0.  1.
    9900012    2    1    2    0    0 -0.44498003972E+02  0.67316011701E+01  0.19304620205E+01  0.46142317683E+02  0.99999992893E+01 0.  0.
         12    1    1    2    0    0  0.44498003972E+02 -0.67316011701E+01 -0.19304620205E+01  0.45045682317E+02  0.00000000000E+00 0. -1.
         11    1    3    3    0    0 -0.16065063169E+02  0.75631067896E+00 -0.27284612757E+01  0.16312656487E+02  0.51100000000E-03 0. -1.
        -11    1    3    3    0    0 -0.24845725566E+02  0.49392767717E+01  0.56754928347E+01  0.25959925907E+02  0.51100000000E-03 0.  1.
        -12    1    3    3    0    0 -0.35872152375E+01  0.10360137194E+01 -0.10165695384E+01  0.38697352898E+01  0.00000000000E+00 0.  1.
</event>
<event>
 7    1  0.1485408E-008  0.4614232E+02  0.7816164E-02  0.1320468E+00
        -11   -1    0    0    0    0  0.00000000000E+00  0.00000000000E+00  0.45593999997E+02  0.45594000000E+02  0.51100000000E-03 0.  1.
         11   -1    0    0    0    0 -0.00000000000E+00 -0.00000000000E+00 -0.45593999997E+02  0.45594000000E+02  0.51100000000E-03 0. -1.
    9900012    2    1    2    0    0 -0.12063498951E+02  0.28671756032E+02  0.32580913907E+02  0.46142317056E+02  0.99999935712E+01 0.  0.
         12    1    1    2    0    0  0.12063498951E+02 -0.28671756032E+02 -0.32580913907E+02  0.45045682944E+02  0.00000000000E+00 0. -1.
         11    1    3    3    0    0 -0.72257401356E+01  0.11950911091E+02  0.19298911513E+02  0.23821913909E+02  0.51100000000E-03 0. -1.
        -11    1    3    3    0    0 -0.55021351670E+00  0.82719502092E+01  0.46608397398E+01  0.95105900195E+01  0.51100000000E-03 0.  1.
        -12    1    3    3    0    0 -0.42875452986E+01  0.84488947316E+01  0.86211626536E+01  0.12809813128E+02  0.00000000000E+00 0.  1.
</event>
<event>
 7    1  0.1485408E-008  0.4614232E+02  0.7816164E-02  0.1320468E+00
        -11   -1    0    0    0    0  0.00000000000E+00  0.00000000000E+00  0.45593999997E+02  0.45594000000E+02  0.51100000000E-03 0.  1.
         11   -1    0    0    0    0 -0.00000000000E+00 -0.00000000000E+00 -0.45593999997E+02  0.45594000000E+02  0.51100000000E-03 0. -1.
    9900012    2    1    2    0    0 -0.54205529073E+01 -0.33871469221E+02  0.29196826626E+02  0.46142317566E+02  0.99999982165E+01 0.  0.
         12    1    1    2    0    0  0.54205529073E+01  0.33871469221E+02 -0.29196826626E+02  0.45045682434E+02  0.00000000000E+00 0. -1.
         11    1    3    3    0    0  0.86923849014E-01 -0.13609207359E+02  0.69843940368E+01  0.15297053345E+02  0.51100000000E-03 0.  1.
        -11    1    3    3    0    0 -0.28954817874E+01 -0.10646842501E+02  0.14631074094E+02  0.18325048415E+02  0.51100000000E-03 0. -1.
        -12    1    3    3    0    0 -0.26119949690E+01 -0.96154193603E+01  0.75813584951E+01  0.12520215806E+02  0.00000000000E+00 0.  1.
</event>
<event>
 7    1  0.1485408E-008  0.4614232E+02  0.7816164E-02  0.1320468E+00
        -11   -1    0    0    0    0  0.00000000000E+00  0.00000000000E+00  0.45593999997E+02  0.45594000000E+02  0.51100000000E-03 0.  1.
         11   -1    0    0    0    0 -0.00000000000E+00 -0.00000000000E+00 -0.45593999997E+02  0.45594000000E+02  0.51100000000E-03 0. -1.
    9900012    2    1    2    0    0 -0.25277137549E+01 -0.10794212637E+02  0.43660155565E+02  0.46142317107E+02  0.99999940387E+01 0.  0.
         12    1    1    2    0    0  0.25277137549E+01  0.10794212637E+02 -0.43660155565E+02  0.45045682893E+02  0.00000000000E+00 0. -1.
         11    1    3    3    0    0 -0.25333118634E+01 -0.96582317587E+00  0.18088298843E+02  0.18290353706E+02  0.51100000000E-03 0. -1.
        -11    1    3    3    0    0 -0.37839009329E+00 -0.85043062838E+01  0.15479013349E+02  0.17665397221E+02  0.51100000000E-03 0.  1.
         12    1    3    3    0    0  0.38398820181E+00 -0.13240831773E+01  0.10092843373E+02  0.10186566180E+02  0.00000000000E+00 0. -1.
</event>
<event>
 7    1  0.1485408E-008  0.4614232E+02  0.7816164E-02  0.1320468E+00
        -11   -1    0    0    0    0  0.00000000000E+00  0.00000000000E+00  0.45593999997E+02  0.45594000000E+02  0.51100000000E-03 0. -1.
         11   -1    0    0    0    0 -0.00000000000E+00 -0.00000000000E+00 -0.45593999997E+02  0.45594000000E+02  0.51100000000E-03 0.  1.
    9900012    2    1    2    0    0 -0.20223003708E+02  0.36289742594E+02  0.17412580187E+02  0.46142320459E+02  0.10000024605E+02 0.  0.
         12    1    1    2    0    0  0.20223003708E+02 -0.36289742594E+02 -0.17412580187E+02  0.45045679541E+02  0.00000000000E+00 0. -1.
         11    1    3    3    0    0 -0.10583894579E+02  0.22458801328E+02  0.14535816723E+02  0.28769889635E+02  0.51100000000E-03 0. -1.
        -11    1    3    3    0    0 -0.94204422240E+01  0.11845155543E+02  0.25071314268E+01  0.15340734982E+02  0.51100000000E-03 0.  1.
         12    1    3    3    0    0 -0.21866690516E+00  0.19857857229E+01  0.36963203724E+00  0.20316958423E+01  0.00000000000E+00 0. -1.
</event>
<event>
 7    1  0.1485408E-008  0.4614232E+02  0.7816164E-02  0.1320468E+00
        -11   -1    0    0    0    0  0.00000000000E+00  0.00000000000E+00  0.45593999997E+02  0.45594000000E+02  0.51100000000E-03 0.  1.
         11   -1    0    0    0    0 -0.00000000000E+00 -0.00000000000E+00 -0.45593999997E+02  0.45594000000E+02  0.51100000000E-03 0. -1.
    9900012    2    1    2    0    0 -0.22411486058E+02  0.12054986952E+02  0.37168752600E+02  0.46142316660E+02  0.99999899563E+01 0.  0.
         12    1    1    2    0    0  0.22411486058E+02 -0.12054986952E+02 -0.37168752600E+02  0.45045683340E+02  0.00000000000E+00 0. -1.
         11    1    3    3    0    0 -0.14163263259E+02  0.54243479794E+01  0.24134263604E+02  0.28504109477E+02  0.51100000000E-03 0. -1.
        -11    1    3    3    0    0 -0.81435681532E+01  0.48565485016E+01  0.83733832608E+01  0.12649794983E+02  0.51100000000E-03 0.  1.
         12    1    3    3    0    0 -0.10465464628E+00  0.17740904712E+01  0.46611057359E+01  0.49884121999E+01  0.00000000000E+00 0. -1.
</event>
<event>
 7    1  0.1485408E-008  0.4614232E+02  0.7816164E-02  0.1320468E+00
        -11   -1    0    0    0    0  0.00000000000E+00  0.00000000000E+00  0.45593999997E+02  0.45594000000E+02  0.51100000000E-03 0.  1.
         11   -1    0    0    0    0 -0.00000000000E+00 -0.00000000000E+00 -0.45593999997E+02  0.45594000000E+02  0.51100000000E-03 0. -1.
    9900012    2    1    2    0    0  0.21872248082E+02  0.34489456986E+02  0.19005147663E+02  0.46142317442E+02  0.99999970930E+01 0.  0.
         12    1    1    2    0    0 -0.21872248082E+02 -0.34489456986E+02 -0.19005147663E+02  0.45045682558E+02  0.00000000000E+00 0. -1.
         11    1    3    3    0    0  0.11604704392E+02  0.14610857724E+02  0.10631041601E+02  0.21474761308E+02  0.51100000000E-03 0. -1.
        -11    1    3    3    0    0  0.34960003719E+01  0.53266060408E+01  0.53828052266E+01  0.83408238732E+01  0.51100000000E-03 0.  1.
         12    1    3    3    0    0  0.67715433180E+01  0.14551993222E+02  0.29913008358E+01  0.16326732261E+02  0.00000000000E+00 0. -1.
</event>
<event>
 7    1  0.1485408E-008  0.4614232E+02  0.7816164E-02  0.1320468E+00
        -11   -1    0    0    0    0  0.00000000000E+00  0.00000000000E+00  0.45593999997E+02  0.45594000000E+02  0.51100000000E-03 0.  1.
         11   -1    0    0    0    0 -0.00000000000E+00 -0.00000000000E+00 -0.45593999997E+02  0.45594000000E+02  0.51100000000E-03 0. -1.
    9900012    2    1    2    0    0 -0.20232923375E+01  0.35914593535E+02  0.27113866947E+02  0.46142317393E+02  0.99999966477E+01 0.  0.
         12    1    1    2    0    0  0.20232923375E+01 -0.35914593535E+02 -0.27113866947E+02  0.45045682607E+02  0.00000000000E+00 0. -1.
         11    1    3    3    0    0 -0.62330741484E+00  0.15825526407E+02  0.77115522328E+01  0.17615443120E+02  0.51100000000E-03 0. -1.
        -11    1    3    3    0    0 -0.13598698590E+01  0.19217743609E+02  0.19747628770E+02  0.27588761439E+02  0.51100000000E-03 0.  1.
         12    1    3    3    0    0 -0.40115063656E-01  0.87132351909E+00 -0.34531405601E+00  0.93811283465E+00  0.00000000000E+00 0. -1.
</event>
<event>
 7    1  0.1485408E-008  0.4614232E+02  0.7816164E-02  0.1320468E+00
        -11   -1    0    0    0    0  0.00000000000E+00  0.00000000000E+00  0.45593999997E+02  0.45594000000E+02  0.51100000000E-03 0.  1.
         11   -1    0    0    0    0 -0.00000000000E+00 -0.00000000000E+00 -0.45593999997E+02  0.45594000000E+02  0.51100000000E-03 0. -1.
    9900012    2    1    2    0    0 -0.33514938520E+01  0.11666981606E+02  0.43379287270E+02  0.46142317245E+02  0.99999952931E+01 0.  0.
         12    1    1    2    0    0  0.33514938520E+01 -0.11666981606E+02 -0.43379287270E+02  0.45045682755E+02  0.00000000000E+00 0. -1.
         11    1    3    3    0    0  0.23176358183E+01  0.21365563265E+01  0.12939094151E+02  0.13317524786E+02  0.51100000000E-03 0. -1.
        -11    1    3    3    0    0 -0.20166823156E+01  0.76066915232E+01  0.23096722246E+02  0.24400560286E+02  0.51100000000E-03 0.  1.
         12    1    3    3    0    0 -0.36524473546E+01  0.19237337567E+01  0.73434708728E+01  0.84242321730E+01  0.00000000000E+00 0. -1.
</event>
<event>
 7    1  0.1485408E-008  0.4614232E+02  0.7816164E-02  0.1320468E+00
        -11   -1    0    0    0    0  0.00000000000E+00  0.00000000000E+00  0.45593999997E+02  0.45594000000E+02  0.51100000000E-03 0. -1.
         11   -1    0    0    0    0 -0.00000000000E+00 -0.00000000000E+00 -0.45593999997E+02  0.45594000000E+02  0.51100000000E-03 0.  1.
    9900012    2    1    2    0    0  0.39032526602E+02  0.11710090400E+02 -0.19195029448E+02  0.46142317570E+02  0.99999982533E+01 0.  0.
         12    1    1    2    0    0 -0.39032526602E+02 -0.11710090400E+02  0.19195029448E+02  0.45045682430E+02  0.00000000000E+00 0. -1.
         11    1    3    3    0    0  0.32505496168E+01  0.16089629045E+01 -0.24182703179E+01  0.43592276874E+01  0.51100000000E-03 0. -1.
        -11    1    3    3    0    0  0.32070373189E+02  0.77711753110E+01 -0.17483776826E+02  0.37344108699E+02  0.51100000000E-03 0.  1.
        -12    1    3    3    0    0  0.37116037965E+01  0.23299521843E+01  0.70701769515E+00  0.44389811832E+01  0.00000000000E+00 0.  1.
</event>
<event>
 7    1  0.1485408E-008  0.4614232E+02  0.7816164E-02  0.1320468E+00
        -11   -1    0    0    0    0  0.00000000000E+00  0.00000000000E+00  0.45593999997E+02  0.45594000000E+02  0.51100000000E-03 0. -1.
         11   -1    0    0    0    0 -0.00000000000E+00 -0.00000000000E+00 -0.45593999997E+02  0.45594000000E+02  0.51100000000E-03 0.  1.
    9900012    2    1    2    0    0 -0.28665746805E+02 -0.29599652368E+02  0.18200248067E+02  0.46142317744E+02  0.99999998454E+01 0.  0.
         12    1    1    2    0    0  0.28665746805E+02  0.29599652368E+02 -0.18200248067E+02  0.45045682256E+02  0.00000000000E+00 0. -1.
         11    1    3    3    0    0 -0.12007389200E+02 -0.81610564052E+01  0.70997179445E+01  0.16161257136E+02  0.51100000000E-03 0. -1.
        -11    1    3    3    0    0 -0.15939316962E+02 -0.19347408795E+02  0.82856356845E+01  0.26401435780E+02  0.51100000000E-03 0.  1.
         12    1    3    3    0    0 -0.71904064320E+00 -0.20911871677E+01  0.28148944376E+01  0.35796248284E+01  0.00000000000E+00 0. -1.
</event>
<event>
 7    1  0.1485408E-008  0.4614232E+02  0.7816164E-02  0.1320468E+00
        -11   -1    0    0    0    0  0.00000000000E+00  0.00000000000E+00  0.45593999997E+02  0.45594000000E+02  0.51100000000E-03 0.  1.
         11   -1    0    0    0    0 -0.00000000000E+00 -0.00000000000E+00 -0.45593999997E+02  0.45594000000E+02  0.51100000000E-03 0. -1.
    9900012    2    1    2    0    0  0.30701858931E+02  0.17487401381E+02  0.27941013549E+02  0.46142316666E+02  0.99999900113E+01 0.  0.
         12    1    1    2    0    0 -0.30701858931E+02 -0.17487401381E+02 -0.27941013549E+02  0.45045683334E+02  0.00000000000E+00 0. -1.
         11    1    3    3    0    0  0.17644259396E+02  0.64449359706E+01  0.15450517604E+02  0.24322326858E+02  0.51100000000E-03 0. -1.
        -11    1    3    3    0    0  0.38678774788E+01  0.54287327139E+00  0.32866559379E+01  0.51046346681E+01  0.51100000000E-03 0.  1.
         12    1    3    3    0    0  0.91897220564E+01  0.10499592139E+02  0.92038400074E+01  0.16715355139E+02  0.00000000000E+00 0. -1.
</event>
<event>
 7    1  0.1485408E-008  0.4614231E+02  0.7816164E-02  0.1320468E+00
        -11   -1    0    0    0    0  0.00000000000E+00  0.00000000000E+00  0.45593999997E+02  0.45594000000E+02  0.51100000000E-03 0.  1.
         11   -1    0    0    0    0 -0.00000000000E+00 -0.00000000000E+00 -0.45593999997E+02  0.45594000000E+02  0.51100000000E-03 0. -1.
    9900012    2    1    2    0    0  0.27528222762E+01 -0.43395615622E+02 -0.11762496731E+02  0.46142314135E+02  0.99999669325E+01 0.  0.
         12    1    1    2    0    0 -0.27528222762E+01  0.43395615622E+02  0.11762496731E+02  0.45045685865E+02  0.00000000000E+00 0. -1.
         11    1    3    3    0    0  0.29207738456E+01 -0.55018003723E+01 -0.31184655026E+01  0.69660286064E+01  0.51100000000E-03 0. -1.
        -11    1    3    3    0    0 -0.17134277623E+01 -0.32883391850E+02 -0.80631126426E+01  0.33900841878E+02  0.51100000000E-03 0.  1.
        -12    1    3    3    0    0  0.15454761928E+01 -0.50104233997E+01 -0.58091858564E+00  0.52754436505E+01  0.00000000000E+00 0.  1.
</event>
<event>
 7    1  0.1485408E-008  0.4614232E+02  0.7816164E-02  0.1320468E+00
        -11   -1    0    0    0    0  0.00000000000E+00  0.00000000000E+00  0.45593999997E+02  0.45594000000E+02  0.51100000000E-03 0. -1.
         11   -1    0    0    0    0 -0.00000000000E+00 -0.00000000000E+00 -0.45593999997E+02  0.45594000000E+02  0.51100000000E-03 0.  1.
    9900012    2    1    2    0    0  0.27660982554E+02  0.29931436025E-01 -0.35552533348E+02  0.46142317862E+02  0.10000000924E+02 0.  0.
         12    1    1    2    0    0 -0.27660982554E+02 -0.29931436025E-01  0.35552533348E+02  0.45045682138E+02  0.00000000000E+00 0. -1.
         11    1    3    3    0    0  0.81923173902E+01  0.31814603415E+01 -0.69490611554E+01  0.11203803164E+02  0.51100000000E-03 0. -1.
        -11    1    3    3    0    0  0.18417468991E+02 -0.35361930895E+01 -0.27897393661E+02  0.33615062084E+02  0.51100000000E-03 0.  1.
        -12    1    3    3    0    0  0.10511961737E+01  0.38466418403E+00 -0.70607853145E+00  0.13234526144E+01  0.00000000000E+00 0.  1.
</event>
<event>
 7    1  0.1485408E-008  0.4614232E+02  0.7816164E-02  0.1320468E+00
        -11   -1    0    0    0    0  0.00000000000E+00  0.00000000000E+00  0.45593999997E+02  0.45594000000E+02  0.51100000000E-03 0. -1.
         11   -1    0    0    0    0 -0.00000000000E+00 -0.00000000000E+00 -0.45593999997E+02  0.45594000000E+02  0.51100000000E-03 0.  1.
    9900012    2    1    2    0    0  0.35591591072E+02  0.26011699802E+02  0.92597844987E+01  0.46142317736E+02  0.99999997727E+01 0.  0.
         12    1    1    2    0    0 -0.35591591072E+02 -0.26011699802E+02 -0.92597844987E+01  0.45045682264E+02  0.00000000000E+00 0. -1.
         11    1    3    3    0    0  0.29085015119E+02  0.20878350167E+02  0.62622333155E+01  0.36346377764E+02  0.51100000000E-03 0.  1.
        -11    1    3    3    0    0  0.44328295582E+01  0.53793016693E+01  0.32529315106E+01  0.76921016644E+01  0.51100000000E-03 0. -1.
         12    1    3    3    0    0  0.20737463950E+01 -0.24595203484E+00 -0.25538032736E+00  0.21038383079E+01  0.00000000000E+00 0. -1.
</event>
<event>
 7    1  0.1485408E-008  0.4614232E+02  0.7816164E-02  0.1320468E+00
        -11   -1    0    0    0    0  0.00000000000E+00  0.00000000000E+00  0.45593999997E+02  0.45594000000E+02  0.51100000000E-03 0.  1.
         11   -1    0    0    0    0 -0.00000000000E+00 -0.00000000000E+00 -0.45593999997E+02  0.45594000000E+02  0.51100000000E-03 0. -1.
    9900012    2    1    2    0    0  0.38444469996E+02  0.66144857482E+01  0.22525202292E+02  0.46142318373E+02  0.10000005578E+02 0.  0.
         12    1    1    2    0    0 -0.38444469996E+02 -0.66144857482E+01 -0.22525202292E+02  0.45045681627E+02  0.00000000000E+00 0. -1.
         11    1    3    3    0    0  0.13945429616E+02  0.21413444424E+01  0.55679501793E+01  0.15167809092E+02  0.51100000000E-03 0. -1.
        -11    1    3    3    0    0  0.21282843623E+02  0.15559605740E+01  0.15570624443E+02  0.26416373554E+02  0.51100000000E-03 0.  1.
        -12    1    3    3    0    0  0.32161967574E+01  0.29171807318E+01  0.13866276696E+01  0.45581357262E+01  0.00000000000E+00 0.  1.
</event>
<event>
 7    1  0.1485408E-008  0.4614232E+02  0.7816164E-02  0.1320468E+00
        -11   -1    0    0    0    0  0.00000000000E+00  0.00000000000E+00  0.45593999997E+02  0.45594000000E+02  0.51100000000E-03 0.  1.
         11   -1    0    0    0    0 -0.00000000000E+00 -0.00000000000E+00 -0.45593999997E+02  0.45594000000E+02  0.51100000000E-03 0. -1.
    9900012    2    1    2    0    0  0.21518708234E+02  0.23229528434E+02  0.32038224244E+02  0.46142316433E+02  0.99999878897E+01 0.  0.
         12    1    1    2    0    0 -0.21518708234E+02 -0.23229528434E+02 -0.32038224244E+02  0.45045683567E+02  0.00000000000E+00 0. -1.
         11    1    3    3    0    0  0.16646118345E+01  0.48988422565E+01  0.61831090601E+01  0.80622841629E+01  0.51100000000E-03 0. -1.
        -11    1    3    3    0    0  0.17779609586E+02  0.17868765314E+02  0.25620449318E+02  0.35941824027E+02  0.51100000000E-03 0.  1.
        -12    1    3    3    0    0  0.20744868133E+01  0.46192086321E+00  0.23466586608E+00  0.21382082431E+01  0.00000000000E+00 0.  1.
</event>
<event>
 7    1  0.1485408E-008  0.4614230E+02  0.7816164E-02  0.1320468E+00
        -11   -1    0    0    0    0  0.00000000000E+00  0.00000000000E+00  0.45593999997E+02  0.45594000000E+02  0.51100000000E-03 0.  1.
         11   -1    0    0    0    0 -0.00000000000E+00 -0.00000000000E+00 -0.45593999997E+02  0.45594000000E+02  0.51100000000E-03 0. -1.
    9900012    2    1    2    0    0 -0.17407031242E+02  0.41512353150E+01  0.41338569089E+02  0.46142303362E+02  0.99998686938E+01 0.  0.
         12    1    1    2    0    0  0.17407031242E+02 -0.41512353150E+01 -0.41338569089E+02  0.45045696638E+02  0.00000000000E+00 0. -1.
         11    1    3    3    0    0 -0.45972514841E+01  0.54632804358E+01  0.10623952584E+02  0.12800411052E+02  0.51100000000E-03 0.  1.
        -11    1    3    3    0    0 -0.74853944692E+01 -0.15441177956E+01  0.18222060064E+02  0.19760032980E+02  0.51100000000E-03 0. -1.
        -12    1    3    3    0    0 -0.53243852891E+01  0.23207267483E+00  0.12492556440E+02  0.13581859330E+02  0.00000000000E+00 0.  1.
</event>
<event>
 7    1  0.1485408E-008  0.4614232E+02  0.7816164E-02  0.1320468E+00
        -11   -1    0    0    0    0  0.00000000000E+00  0.00000000000E+00  0.45593999997E+02  0.45594000000E+02  0.51100000000E-03 0.  1.
         11   -1    0    0    0    0 -0.00000000000E+00 -0.00000000000E+00 -0.45593999997E+02  0.45594000000E+02  0.51100000000E-03 0. -1.
    9900012    2    1    2    0    0 -0.14274649086E+02 -0.17641476849E+02  0.38911773913E+02  0.46142318065E+02  0.10000002774E+02 0.  0.
         12    1    1    2    0    0  0.14274649086E+02  0.17641476849E+02 -0.38911773913E+02  0.45045681935E+02  0.00000000000E+00 0. -1.
         11    1    3    3    0    0 -0.86348431884E+00 -0.32044062011E+01  0.52426382109E+01  0.62047626822E+01  0.51100000000E-03 0. -1.
        -11    1    3    3    0    0 -0.11307887092E+02 -0.70901421748E+01  0.25297042382E+02  0.28602076499E+02  0.51100000000E-03 0.  1.
        -12    1    3    3    0    0 -0.21032776751E+01 -0.73469284733E+01  0.83720933199E+01  0.11335478884E+02  0.00000000000E+00 0.  1.
</event>
<event>
 7    1  0.1485408E-008  0.4614232E+02  0.7816164E-02  0.1320468E+00
        -11   -1    0    0    0    0  0.00000000000E+00  0.00000000000E+00  0.45593999997E+02  0.45594000000E+02  0.51100000000E-03 0. -1.
         11   -1    0    0    0    0 -0.00000000000E+00 -0.00000000000E+00 -0.45593999997E+02  0.45594000000E+02  0.51100000000E-03 0.  1.
    9900012    2    1    2    0    0 -0.37473432207E+02 -0.13812474676E+02 -0.20834357014E+02  0.46142323068E+02  0.10000048394E+02 0.  0.
         12    1    1    2    0    0  0.37473432207E+02  0.13812474676E+02  0.20834357014E+02  0.45045676932E+02  0.00000000000E+00 0. -1.
         11    1    3    3    0    0 -0.11311561918E+02 -0.78474423588E+00 -0.89237834627E+01  0.14429177665E+02  0.51100000000E-03 0. -1.
        -11    1    3    3    0    0 -0.15736694948E+02 -0.63915303219E+01 -0.59944184174E+01  0.18011892742E+02  0.51100000000E-03 0.  1.
        -12    1    3    3    0    0 -0.10425175341E+02 -0.66362001183E+01 -0.59161551343E+01  0.13701252661E+02  0.00000000000E+00 0.  1.
</event>
<event>
 7    1  0.1485408E-008  0.4614232E+02  0.7816164E-02  0.1320468E+00
        -11   -1    0    0    0    0  0.00000000000E+00  0.00000000000E+00  0.45593999997E+02  0.45594000000E+02  0.51100000000E-03 0.  1.
         11   -1    0    0    0    0 -0.00000000000E+00 -0.00000000000E+00 -0.45593999997E+02  0.45594000000E+02  0.51100000000E-03 0. -1.
    9900012    2    1    2    0    0 -0.17044739510E+02  0.92164559686E+01  0.40665062288E+02  0.46142317672E+02  0.99999991839E+01 0.  0.
         12    1    1    2    0    0  0.17044739510E+02 -0.92164559686E+01 -0.40665062288E+02  0.45045682328E+02  0.00000000000E+00 0. -1.
         11    1    3    3    0    0 -0.66725859056E+01  0.40088242052E+01  0.86123638820E+01  0.11608914078E+02  0.51100000000E-03 0. -1.
        -11    1    3    3    0    0 -0.83990367946E+01  0.19692189982E+01  0.25970849249E+02  0.27366158910E+02  0.51100000000E-03 0.  1.
        -12    1    3    3    0    0 -0.19731168093E+01  0.32384127652E+01  0.60818491567E+01  0.71672446830E+01  0.00000000000E+00 0.  1.
</event>
<event>
 7    1  0.1485408E-008  0.4614232E+02  0.7816164E-02  0.1320468E+00
        -11   -1    0    0    0    0  0.00000000000E+00  0.00000000000E+00  0.45593999997E+02  0.45594000000E+02  0.51100000000E-03 0.  1.
         11   -1    0    0    0    0 -0.00000000000E+00 -0.00000000000E+00 -0.45593999997E+02  0.45594000000E+02  0.51100000000E-03 0. -1.
    9900012    2    1    2    0    0 -0.22395464609E+02  0.31740120614E+02 -0.22806171997E+02  0.46142316824E+02  0.99999914537E+01 0.  0.
         12    1    1    2    0    0  0.22395464609E+02 -0.31740120614E+02  0.22806171997E+02  0.45045683176E+02  0.00000000000E+00 0. -1.
         11    1    3    3    0    0  0.74499212017E-01  0.27868812415E+00 -0.85563596640E+00  0.90295646143E+00  0.51100000000E-03 0. -1.
        -11    1    3    3    0    0 -0.47907956074E+01  0.31044692036E+01 -0.57505932740E+01  0.81030102340E+01  0.51100000000E-03 0.  1.
        -12    1    3    3    0    0 -0.17679168213E+02  0.28356963287E+02 -0.16199942757E+02  0.37136350128E+02  0.00000000000E+00 0.  1.
</event>
<event>
 7    1  0.1485408E-008  0.4614232E+02  0.7816164E-02  0.1320468E+00
        -11   -1    0    0    0    0  0.00000000000E+00  0.00000000000E+00  0.45593999997E+02  0.45594000000E+02  0.51100000000E-03 0. -1.
         11   -1    0    0    0    0 -0.00000000000E+00 -0.00000000000E+00 -0.45593999997E+02  0.45594000000E+02  0.51100000000E-03 0.  1.
    9900012    2    1    2    0    0 -0.29699328884E+02 -0.23481891210E+02 -0.24406231530E+02  0.46142317760E+02  0.99999999918E+01 0.  0.
         12    1    1    2    0    0  0.29699328884E+02  0.23481891210E+02  0.24406231530E+02  0.45045682240E+02  0.00000000000E+00 0. -1.
         11    1    3    3    0    0 -0.23517667811E+01 -0.55003173645E+00 -0.28224442361E+01  0.37147723525E+01  0.51100000000E-03 0. -1.
        -11    1    3    3    0    0 -0.13086321447E+02 -0.62695424825E+01 -0.10016218890E+02  0.17631891931E+02  0.51100000000E-03 0.  1.
        -12    1    3    3    0    0 -0.14261240655E+02 -0.16662316991E+02 -0.11567568404E+02  0.24795653476E+02  0.00000000000E+00 0.  1.
</event>
<event>
 7    1  0.1485408E-008  0.4614232E+02  0.7816164E-02  0.1320468E+00
        -11   -1    0    0    0    0  0.00000000000E+00  0.00000000000E+00  0.45593999997E+02  0.45594000000E+02  0.51100000000E-03 0. -1.
         11   -1    0    0    0    0 -0.00000000000E+00 -0.00000000000E+00 -0.45593999997E+02  0.45594000000E+02  0.51100000000E-03 0.  1.
    9900012    2    1    2    0    0  0.16334130881E+02  0.41384711825E+02 -0.70438138245E+01  0.46142317435E+02  0.99999970300E+01 0.  0.
         12    1    1    2    0    0 -0.16334130881E+02 -0.41384711825E+02  0.70438138245E+01  0.45045682565E+02  0.00000000000E+00 0. -1.
         11    1    3    3    0    0  0.72143937499E+00  0.10805878644E+00  0.56601258845E+00  0.92332117084E+00  0.51100000000E-03 0. -1.
        -11    1    3    3    0    0  0.61582695875E+01  0.11656721893E+02  0.10526597434E+00  0.13183873892E+02  0.51100000000E-03 0.  1.
         12    1    3    3    0    0  0.94544219189E+01  0.29619931146E+02 -0.77150923873E+01  0.32035122373E+02  0.00000000000E+00 0. -1.
</event>
<event>
 7    1  0.1485408E-008  0.4614232E+02  0.7816164E-02  0.1320468E+00
        -11   -1    0    0    0    0  0.00000000000E+00  0.00000000000E+00  0.45593999997E+02  0.45594000000E+02  0.51100000000E-03 0.  1.
         11   -1    0    0    0    0 -0.00000000000E+00 -0.00000000000E+00 -0.45593999997E+02  0.45594000000E+02  0.51100000000E-03 0. -1.
    9900012    2    1    2    0    0  0.66254184463E+01  0.44286494990E+02  0.48911825956E+01  0.46142317906E+02  0.10000001321E+02 0.  0.
         12    1    1    2    0    0 -0.66254184463E+01 -0.44286494990E+02 -0.48911825956E+01  0.45045682094E+02  0.00000000000E+00 0. -1.
         11    1    3    3    0    0  0.31404044347E+01  0.27886519399E+02  0.27172627820E+01  0.28194035212E+02  0.51100000000E-03 0. -1.
        -11    1    3    3    0    0  0.44488284371E+01  0.15743666950E+02  0.11568970757E+01  0.16401022364E+02  0.51100000000E-03 0.  1.
         12    1    3    3    0    0 -0.96381442551E+00  0.65630864124E+00  0.10170227380E+01  0.15472603301E+01  0.00000000000E+00 0. -1.
</event>
<event>
 7    1  0.1485408E-008  0.4614232E+02  0.7816164E-02  0.1320468E+00
        -11   -1    0    0    0    0  0.00000000000E+00  0.00000000000E+00  0.45593999997E+02  0.45594000000E+02  0.51100000000E-03 0.  1.
         11   -1    0    0    0    0 -0.00000000000E+00 -0.00000000000E+00 -0.45593999997E+02  0.45594000000E+02  0.51100000000E-03 0. -1.
    9900012    2    1    2    0    0  0.90778531967E+01 -0.34431441532E+02  0.27589524911E+02  0.46142317971E+02  0.10000001914E+02 0.  0.
         12    1    1    2    0    0 -0.90778531967E+01  0.34431441532E+02 -0.27589524911E+02  0.45045682029E+02  0.00000000000E+00 0. -1.
         11    1    3    3    0    0 -0.88314423810E+00 -0.71452861279E+01  0.67591617562E+01  0.98752886288E+01  0.51100000000E-03 0. -1.
        -11    1    3    3    0    0  0.56124728148E+01 -0.85831837390E+01  0.51476166722E+01  0.11474704870E+02  0.51100000000E-03 0.  1.
        -12    1    3    3    0    0  0.43485246200E+01 -0.18702971666E+02  0.15682746482E+02  0.24792324472E+02  0.00000000000E+00 0.  1.
</event>
<event>
 7    1  0.1485408E-008  0.4614232E+02  0.7816164E-02  0.1320468E+00
        -11   -1    0    0    0    0  0.00000000000E+00  0.00000000000E+00  0.45593999997E+02  0.45594000000E+02  0.51100000000E-03 0.  1.
         11   -1    0    0    0    0 -0.00000000000E+00 -0.00000000000E+00 -0.45593999997E+02  0.45594000000E+02  0.51100000000E-03 0. -1.
    9900012    2    1    2    0    0 -0.42074351824E+02 -0.10206013602E+02  0.12437836043E+02  0.46142316961E+02  0.99999927045E+01 0.  0.
         12    1    1    2    0    0  0.42074351824E+02  0.10206013602E+02 -0.12437836043E+02  0.45045683039E+02  0.00000000000E+00 0. -1.
         11    1    3    3    0    0 -0.12801531736E+02  0.87958731627E-02  0.14996146746E+01  0.12889070432E+02  0.51100000000E-03 0.  1.
        -11    1    3    3    0    0 -0.11239281797E+01  0.26808084294E+00  0.12258427365E+01  0.16845689560E+01  0.51100000000E-03 0. -1.
         12    1    3    3    0    0 -0.28148891908E+02 -0.10482890318E+02  0.97123786314E+01  0.31568677573E+02  0.00000000000E+00 0. -1.
</event>
<event>
 7    1  0.1485408E-008  0.4614231E+02  0.7816164E-02  0.1320468E+00
        -11   -1    0    0    0    0  0.00000000000E+00  0.00000000000E+00  0.45593999997E+02  0.45594000000E+02  0.51100000000E-03 0. -1.
         11   -1    0    0    0    0 -0.00000000000E+00 -0.00000000000E+00 -0.45593999997E+02  0.45594000000E+02  0.51100000000E-03 0.  1.
    9900012    2    1    2    0    0 -0.35487854397E+02 -0.27719419982E+02  0.11661653903E+01  0.46142312131E+02  0.99999486645E+01 0.  0.
         12    1    1    2    0    0  0.35487854397E+02  0.27719419982E+02 -0.11661653903E+01  0.45045687869E+02  0.00000000000E+00 0. -1.
         11    1    3    3    0    0 -0.16153783103E+02 -0.11371858463E+02 -0.24266227205E+00  0.19756587729E+02  0.51100000000E-03 0. -1.
        -11    1    3    3    0    0 -0.18657311409E+02 -0.14865869405E+02 -0.51978007627E+00  0.23861255494E+02  0.51100000000E-03 0.  1.
         12    1    3    3    0    0 -0.67675988555E+00 -0.14816921139E+01  0.19286077386E+01  0.25244689090E+01  0.00000000000E+00 0. -1.
</event>
<event>
 7    1  0.1485408E-008  0.4614232E+02  0.7816164E-02  0.1320468E+00
        -11   -1    0    0    0    0  0.00000000000E+00  0.00000000000E+00  0.45593999997E+02  0.45594000000E+02  0.51100000000E-03 0. -1.
         11   -1    0    0    0    0 -0.00000000000E+00 -0.00000000000E+00 -0.45593999997E+02  0.45594000000E+02  0.51100000000E-03 0.  1.
    9900012    2    1    2    0    0  0.16268533864E+02  0.38943043854E+02  0.15744448963E+02  0.46142317278E+02  0.99999955972E+01 0.  0.
         12    1    1    2    0    0 -0.16268533864E+02 -0.38943043854E+02 -0.15744448963E+02  0.45045682722E+02  0.00000000000E+00 0. -1.
         11    1    3    3    0    0  0.51531758344E+01  0.10700847017E+02  0.64117991832E+01  0.13497204047E+02  0.51100000000E-03 0.  1.
        -11    1    3    3    0    0  0.22795092224E+01  0.15762356008E+02  0.37077806467E+01  0.16352237364E+02  0.51100000000E-03 0. -1.
         12    1    3    3    0    0  0.88358488071E+01  0.12479840829E+02  0.56248691327E+01  0.16292875867E+02  0.00000000000E+00 0. -1.
</event>
<event>
 7    1  0.1485408E-008  0.4614232E+02  0.7816164E-02  0.1320468E+00
        -11   -1    0    0    0    0  0.00000000000E+00  0.00000000000E+00  0.45593999997E+02  0.45594000000E+02  0.51100000000E-03 0.  1.
         11   -1    0    0    0    0 -0.00000000000E+00 -0.00000000000E+00 -0.45593999997E+02  0.45594000000E+02  0.51100000000E-03 0. -1.
    9900012    2    1    2    0    0  0.12142431816E+02 -0.22991592830E+02  0.36783987294E+02  0.46142315273E+02  0.99999773123E+01 0.  0.
         12    1    1    2    0    0 -0.12142431816E+02  0.22991592830E+02 -0.36783987294E+02  0.45045684727E+02  0.00000000000E+00 0. -1.
         11    1    3    3    0    0  0.27865205371E+01 -0.65154632836E+01  0.62162371915E+01  0.94264289943E+01  0.51100000000E-03 0. -1.
        -11    1    3    3    0    0  0.84301376147E+01 -0.15828642546E+02  0.23514350148E+02  0.29572585416E+02  0.51100000000E-03 0.  1.
        -12    1    3    3    0    0  0.92577366431E+00 -0.64748700018E+00  0.70533999548E+01  0.71433008627E+01  0.00000000000E+00 0.  1.
</event>
<event>
 7    1  0.1485408E-008  0.4614232E+02  0.7816164E-02  0.1320468E+00
        -11   -1    0    0    0    0  0.00000000000E+00  0.00000000000E+00  0.45593999997E+02  0.45594000000E+02  0.51100000000E-03 0.  1.
         11   -1    0    0    0    0 -0.00000000000E+00 -0.00000000000E+00 -0.45593999997E+02  0.45594000000E+02  0.51100000000E-03 0. -1.
    9900012    2    1    2    0    0 -0.38408509643E+02  0.15063041952E+01  0.23486825985E+02  0.46142316964E+02  0.99999927321E+01 0.  0.
         12    1    1    2    0    0  0.38408509643E+02 -0.15063041952E+01 -0.23486825985E+02  0.45045683036E+02  0.00000000000E+00 0. -1.
         11    1    3    3    0    0 -0.96221583742E+01  0.41573237280E+01  0.53078875291E+01  0.11749167742E+02  0.51100000000E-03 0. -1.
        -11    1    3    3    0    0 -0.20266598815E+02 -0.37194372505E+01  0.13108263966E+02  0.24421216707E+02  0.51100000000E-03 0.  1.
        -12    1    3    3    0    0 -0.85197524539E+01  0.10684177176E+01  0.50706744900E+01  0.99719325147E+01  0.00000000000E+00 0.  1.
</event>
<event>
 7    1  0.1485408E-008  0.4614232E+02  0.7816164E-02  0.1320468E+00
        -11   -1    0    0    0    0  0.00000000000E+00  0.00000000000E+00  0.45593999997E+02  0.45594000000E+02  0.51100000000E-03 0.  1.
         11   -1    0    0    0    0 -0.00000000000E+00 -0.00000000000E+00 -0.45593999997E+02  0.45594000000E+02  0.51100000000E-03 0. -1.
    9900012    2    1    2    0    0 -0.38265292232E+02 -0.16729751735E+02  0.16881832405E+02  0.46142318208E+02  0.10000004075E+02 0.  0.
         12    1    1    2    0    0  0.38265292232E+02  0.16729751735E+02 -0.16881832405E+02  0.45045681792E+02  0.00000000000E+00 0. -1.
         11    1    3    3    0    0 -0.78822560938E+01 -0.13207694582E+00  0.37651657994E+01  0.87363538851E+01  0.51100000000E-03 0.  1.
        -11    1    3    3    0    0 -0.20832889473E+02 -0.12317169001E+02  0.66308799918E+01  0.25093634765E+02  0.51100000000E-03 0. -1.
         12    1    3    3    0    0 -0.95501466660E+01 -0.42805057884E+01  0.64857866139E+01  0.12312329558E+02  0.00000000000E+00 0. -1.
</event>
<event>
 7    1  0.1485408E-008  0.4614232E+02  0.7816164E-02  0.1320468E+00
        -11   -1    0    0    0    0  0.00000000000E+00  0.00000000000E+00  0.45593999997E+02  0.45594000000E+02  0.51100000000E-03 0.  1.
         11   -1    0    0    0    0 -0.00000000000E+00 -0.00000000000E+00 -0.45593999997E+02  0.45594000000E+02  0.51100000000E-03 0. -1.
    9900012    2    1    2    0    0  0.22029678411E+02  0.14927651933E+02  0.36345178579E+02  0.46142317309E+02  0.99999958799E+01 0.  0.
         12    1    1    2    0    0 -0.22029678411E+02 -0.14927651933E+02 -0.36345178579E+02  0.45045682691E+02  0.00000000000E+00 0. -1.
         11    1    3    3    0    0  0.10210703356E+02  0.52642035018E+01  0.16750454181E+02  0.20311278075E+02  0.51100000000E-03 0.  1.
        -11    1    3    3    0    0  0.13817153005E+01  0.11663787281E+01 -0.27831617236E+00  0.18294908204E+01  0.51100000000E-03 0. -1.
         12    1    3    3    0    0  0.10437259755E+02  0.84970697031E+01  0.19873040571E+02  0.24001548414E+02  0.00000000000E+00 0. -1.
</event>
<event>
 7    1  0.1485408E-008  0.4614232E+02  0.7816164E-02  0.1320468E+00
        -11   -1    0    0    0    0  0.00000000000E+00  0.00000000000E+00  0.45593999997E+02  0.45594000000E+02  0.51100000000E-03 0.  1.
         11   -1    0    0    0    0 -0.00000000000E+00 -0.00000000000E+00 -0.45593999997E+02  0.45594000000E+02  0.51100000000E-03 0. -1.
    9900012    2    1    2    0    0  0.34957627911E+01 -0.10018481171E+01  0.44898657122E+02  0.46142317982E+02  0.10000002015E+02 0.  0.
         12    1    1    2    0    0 -0.34957627911E+01  0.10018481171E+01 -0.44898657122E+02  0.45045682018E+02  0.00000000000E+00 0. -1.
         11    1    3    3    0    0  0.35585782556E+01 -0.39824889467E+01  0.29394295424E+02  0.29875546876E+02  0.51100000000E-03 0. -1.
        -11    1    3    3    0    0  0.39212484748E-01  0.31237933599E+01  0.60338489358E+01  0.67946269814E+01  0.51100000000E-03 0.  1.
         12    1    3    3    0    0 -0.10202794922E+00 -0.14315253034E+00  0.94705127616E+01  0.94721441246E+01  0.00000000000E+00 0. -1.
</event>
<event>
 7    1  0.1485408E-008  0.4614232E+02  0.7816164E-02  0.1320468E+00
        -11   -1    0    0    0    0  0.00000000000E+00  0.00000000000E+00  0.45593999997E+02  0.45594000000E+02  0.51100000000E-03 0.  1.
         11   -1    0    0    0    0 -0.00000000000E+00 -0.00000000000E+00 -0.45593999997E+02  0.45594000000E+02  0.51100000000E-03 0. -1.
    9900012    2    1    2    0    0 -0.30488106084E+02 -0.31956290868E+02  0.88534919776E+01  0.46142318089E+02  0.10000002988E+02 0.  0.
         12    1    1    2    0    0  0.30488106084E+02  0.31956290868E+02 -0.88534919776E+01  0.45045681911E+02  0.00000000000E+00 0. -1.
         11    1    3    3    0    0 -0.93305953193E+00 -0.12249642125E+01  0.17665514934E+01  0.23434679115E+01  0.51100000000E-03 0. -1.
        -11    1    3    3    0    0 -0.28094447219E+02 -0.26454371684E+02  0.53557833093E+01  0.38959160166E+02  0.51100000000E-03 0.  1.
        -12    1    3    3    0    0 -0.14605993333E+01 -0.42769549711E+01  0.17311571749E+01  0.48396900109E+01  0.00000000000E+00 0.  1.
</event>
<event>
 7    1  0.1485408E-008  0.4614232E+02  0.7816164E-02  0.1320468E+00
        -11   -1    0    0    0    0  0.00000000000E+00  0.00000000000E+00  0.45593999997E+02  0.45594000000E+02  0.51100000000E-03 0.  1.
         11   -1    0    0    0    0 -0.00000000000E+00 -0.00000000000E+00 -0.45593999997E+02  0.45594000000E+02  0.51100000000E-03 0. -1.
    9900012    2    1    2    0    0 -0.32969778176E+02  0.10715067522E+02  0.28762728558E+02  0.46142317643E+02  0.99999989191E+01 0.  0.
         12    1    1    2    0    0  0.32969778176E+02 -0.10715067522E+02 -0.28762728558E+02  0.45045682357E+02  0.00000000000E+00 0. -1.
         11    1    3    3    0    0 -0.35489059698E+01 -0.20009759968E+00  0.38176607254E+01  0.52162540494E+01  0.51100000000E-03 0. -1.
        -11    1    3    3    0    0 -0.14535141540E+02  0.44942564979E+01  0.17188189897E+02  0.22954358044E+02  0.51100000000E-03 0.  1.
        -12    1    3    3    0    0 -0.14885730666E+02  0.64209086239E+01  0.77568779358E+01  0.17971705549E+02  0.00000000000E+00 0.  1.
</event>
<event>
 7    1  0.1485408E-008  0.4614232E+02  0.7816164E-02  0.1320468E+00
        -11   -1    0    0    0    0  0.00000000000E+00  0.00000000000E+00  0.45593999997E+02  0.45594000000E+02  0.51100000000E-03 0. -1.
         11   -1    0    0    0    0 -0.00000000000E+00 -0.00000000000E+00 -0.45593999997E+02  0.45594000000E+02  0.51100000000E-03 0.  1.
    9900012    2    1    2    0    0 -0.29957055562E+02  0.29403472252E+02 -0.16343930806E+02  0.46142318380E+02  0.10000005643E+02 0.  0.
         12    1    1    2    0    0  0.29957055562E+02 -0.29403472252E+02  0.16343930806E+02  0.45045681620E+02  0.00000000000E+00 0. -1.
         11    1    3    3    0    0 -0.79602748952E+01  0.85041140441E+01 -0.14883061795E+01  0.11743125122E+02  0.51100000000E-03 0. -1.
        -11    1    3    3    0    0 -0.18013106455E+02  0.13220716771E+02 -0.11397244075E+02  0.25082992822E+02  0.51100000000E-03 0.  1.
        -12    1    3    3    0    0 -0.39836742118E+01  0.76786414364E+01 -0.34583805512E+01  0.93162004364E+01  0.00000000000E+00 0.  1.
</event>
<event>
 7    1  0.1485408E-008  0.4614232E+02  0.7816164E-02  0.1320468E+00
        -11   -1    0    0    0    0  0.00000000000E+00  0.00000000000E+00  0.45593999997E+02  0.45594000000E+02  0.51100000000E-03 0. -1.
         11   -1    0    0    0    0 -0.00000000000E+00 -0.00000000000E+00 -0.45593999997E+02  0.45594000000E+02  0.51100000000E-03 0.  1.
    9900012    2    1    2    0    0 -0.86270794706E+01  0.10490130619E+02 -0.42949321169E+02  0.46142317305E+02  0.99999958378E+01 0.  0.
         12    1    1    2    0    0  0.86270794706E+01 -0.10490130619E+02  0.42949321169E+02  0.45045682695E+02  0.00000000000E+00 0. -1.
         11    1    3    3    0    0 -0.11102946166E+01  0.73867180892E+01 -0.26031214095E+02  0.27081736757E+02  0.51100000000E-03 0. -1.
        -11    1    3    3    0    0 -0.96977614469E-01 -0.27718843726E+00 -0.23302507997E+01  0.23486820003E+01  0.51100000000E-03 0.  1.
         12    1    3    3    0    0 -0.74198072395E+01  0.33806009672E+01 -0.14587856274E+02  0.16711898547E+02  0.00000000000E+00 0. -1.
</event>
<event>
 7    1  0.1485408E-008  0.4614232E+02  0.7816164E-02  0.1320468E+00
        -11   -1    0    0    0    0  0.00000000000E+00  0.00000000000E+00  0.45593999997E+02  0.45594000000E+02  0.51100000000E-03 0.  1.
         11   -1    0    0    0    0 -0.00000000000E+00 -0.00000000000E+00 -0.45593999997E+02  0.45594000000E+02  0.51100000000E-03 0. -1.
    9900012    2    1    2    0    0  0.15210205342E+02 -0.23342229728E+02  0.35396376586E+02  0.46142317514E+02  0.99999977501E+01 0.  0.
         12    1    1    2    0    0 -0.15210205342E+02  0.23342229728E+02 -0.35396376586E+02  0.45045682486E+02  0.00000000000E+00 0. -1.
         11    1    3    3    0    0  0.31102664272E+00 -0.10815084369E+01  0.54825704538E+01  0.55968720830E+01  0.51100000000E-03 0. -1.
        -11    1    3    3    0    0  0.59181746819E+01 -0.50436894678E+01  0.65628055171E+01  0.10175166413E+02  0.51100000000E-03 0.  1.
        -12    1    3    3    0    0  0.89810040174E+01 -0.17217031823E+02  0.23351000615E+02  0.30370279019E+02  0.00000000000E+00 0.  1.
</event>
<event>
 7    1  0.1485408E-008  0.4614232E+02  0.7816164E-02  0.1320468E+00
        -11   -1    0    0    0    0  0.00000000000E+00  0.00000000000E+00  0.45593999997E+02  0.45594000000E+02  0.51100000000E-03 0. -1.
         11   -1    0    0    0    0 -0.00000000000E+00 -0.00000000000E+00 -0.45593999997E+02  0.45594000000E+02  0.51100000000E-03 0.  1.
    9900012    2    1    2    0    0 -0.68656254049E+00 -0.44863304148E+02  0.39907407857E+01  0.46142318307E+02  0.10000004978E+02 0.  0.
         12    1    1    2    0    0  0.68656254049E+00  0.44863304148E+02 -0.39907407857E+01  0.45045681693E+02  0.00000000000E+00 0. -1.
         11    1    3    3    0    0 -0.20237035175E+01 -0.17265851812E+02  0.27463659696E+00  0.17386214086E+02  0.51100000000E-03 0. -1.
        -11    1    3    3    0    0 -0.20995131142E+01 -0.51481101866E+01  0.22505525286E+01  0.59979980623E+01  0.51100000000E-03 0.  1.
        -12    1    3    3    0    0  0.34366540912E+01 -0.22449342149E+02  0.14655516601E+01  0.22758106158E+02  0.00000000000E+00 0.  1.
</event>
<event>
 7    1  0.1485408E-008  0.4614232E+02  0.7816164E-02  0.1320468E+00
        -11   -1    0    0    0    0  0.00000000000E+00  0.00000000000E+00  0.45593999997E+02  0.45594000000E+02  0.51100000000E-03 0. -1.
         11   -1    0    0    0    0 -0.00000000000E+00 -0.00000000000E+00 -0.45593999997E+02  0.45594000000E+02  0.51100000000E-03 0.  1.
    9900012    2    1    2    0    0 -0.16142577276E+01 -0.24240541032E+02 -0.37932887083E+02  0.46142316744E+02  0.99999907219E+01 0.  0.
         12    1    1    2    0    0  0.16142577276E+01  0.24240541032E+02  0.37932887083E+02  0.45045683256E+02  0.00000000000E+00 0. -1.
         11    1    3    3    0    0 -0.19232762968E+00 -0.76402546994E+01 -0.73452834061E+01  0.10600173129E+02  0.51100000000E-03 0. -1.
        -11    1    3    3    0    0 -0.21287622205E+01 -0.16958215092E+02 -0.27705720347E+02  0.32553335127E+02  0.51100000000E-03 0.  1.
         12    1    3    3    0    0  0.70683212260E+00  0.35792875869E+00 -0.28818833305E+01  0.29888084878E+01  0.00000000000E+00 0. -1.
</event>
<event>
 7    1  0.1485408E-008  0.4614232E+02  0.7816164E-02  0.1320468E+00
        -11   -1    0    0    0    0  0.00000000000E+00  0.00000000000E+00  0.45593999997E+02  0.45594000000E+02  0.51100000000E-03 0.  1.
         11   -1    0    0    0    0 -0.00000000000E+00 -0.00000000000E+00 -0.45593999997E+02  0.45594000000E+02  0.51100000000E-03 0. -1.
    9900012    2    1    2    0    0  0.40479249972E+01 -0.41998505779E+01  0.44666419541E+02  0.46142317895E+02  0.10000001223E+02 0.  0.
         12    1    1    2    0    0 -0.40479249972E+01  0.41998505779E+01 -0.44666419541E+02  0.45045682105E+02  0.00000000000E+00 0. -1.
         11    1    3    3    0    0  0.23850788381E+01 -0.38545390986E+01  0.64409948384E+01  0.78760705619E+01  0.51100000000E-03 0. -1.
        -11    1    3    3    0    0  0.71383675134E+00 -0.10533363941E-01  0.20349707358E+02  0.20362226393E+02  0.51100000000E-03 0.  1.
         12    1    3    3    0    0  0.94900940770E+00 -0.33477811535E+00  0.17875717345E+02  0.17904020941E+02  0.00000000000E+00 0. -1.
</event>
<event>
 7    1  0.1485408E-008  0.4614232E+02  0.7816164E-02  0.1320468E+00
        -11   -1    0    0    0    0  0.00000000000E+00  0.00000000000E+00  0.45593999997E+02  0.45594000000E+02  0.51100000000E-03 0.  1.
         11   -1    0    0    0    0 -0.00000000000E+00 -0.00000000000E+00 -0.45593999997E+02  0.45594000000E+02  0.51100000000E-03 0. -1.
    9900012    2    1    2    0    0 -0.10728158226E+02 -0.42817394769E+02  0.89828054170E+01  0.46142318000E+02  0.10000002178E+02 0.  0.
         12    1    1    2    0    0  0.10728158226E+02  0.42817394769E+02 -0.89828054170E+01  0.45045682000E+02  0.00000000000E+00 0. -1.
         11    1    3    3    0    0 -0.10033691578E+02 -0.21987951179E+02  0.37895821919E+01  0.24464380171E+02  0.51100000000E-03 0. -1.
        -11    1    3    3    0    0 -0.13646817839E+01 -0.19550782673E+02  0.49515586118E+01  0.20214187900E+02  0.51100000000E-03 0.  1.
         12    1    3    3    0    0  0.67021513588E+00 -0.12786609165E+01  0.24166461333E+00  0.14637499285E+01  0.00000000000E+00 0. -1.
</event>
<event>
 7    1  0.1485408E-008  0.4614231E+02  0.7816164E-02  0.1320468E+00
        -11   -1    0    0    0    0  0.00000000000E+00  0.00000000000E+00  0.45593999997E+02  0.45594000000E+02  0.51100000000E-03 0.  1.
         11   -1    0    0    0    0 -0.00000000000E+00 -0.00000000000E+00 -0.45593999997E+02  0.45594000000E+02  0.51100000000E-03 0. -1.
    9900012    2    1    2    0    0  0.17317698970E+01 -0.29948417387E+01  0.44912652354E+02  0.46142307137E+02  0.99999031228E+01 0.  0.
         12    1    1    2    0    0 -0.17317698970E+01  0.29948417387E+01 -0.44912652354E+02  0.45045692863E+02  0.00000000000E+00 0. -1.
         11    1    3    3    0    0  0.17729666746E+01 -0.61023237717E+01  0.20697315513E+02  0.21650880720E+02  0.51100000000E-03 0. -1.
        -11    1    3    3    0    0  0.22303205105E-01 -0.92790684043E-02  0.67508225262E+01  0.67508657649E+01  0.51100000000E-03 0.  1.
         12    1    3    3    0    0 -0.63499982731E-01  0.31167611014E+01  0.17464514315E+02  0.17740560653E+02  0.00000000000E+00 0. -1.
</event>
<event>
 7    1  0.1485408E-008  0.4614232E+02  0.7816164E-02  0.1320468E+00
        -11   -1    0    0    0    0  0.00000000000E+00  0.00000000000E+00  0.45593999997E+02  0.45594000000E+02  0.51100000000E-03 0.  1.
         11   -1    0    0    0    0 -0.00000000000E+00 -0.00000000000E+00 -0.45593999997E+02  0.45594000000E+02  0.51100000000E-03 0. -1.
    9900012    2    1    2    0    0  0.25785488415E+02  0.32697406934E+02  0.17178522603E+02  0.46142317944E+02  0.10000001670E+02 0.  0.
         12    1    1    2    0    0 -0.25785488415E+02 -0.32697406934E+02 -0.17178522603E+02  0.45045682056E+02  0.00000000000E+00 0. -1.
         11    1    3    3    0    0  0.18339774862E+02  0.21845680732E+02  0.12836940172E+02  0.31278876928E+02  0.51100000000E-03 0. -1.
        -11    1    3    3    0    0  0.53774210844E+01  0.32603729813E+01  0.12610022362E+01  0.64137989052E+01  0.51100000000E-03 0.  1.
        -12    1    3    3    0    0  0.20682924685E+01  0.75913532215E+01  0.30805801951E+01  0.84496421111E+01  0.00000000000E+00 0.  1.
</event>
<event>
 7    1  0.1485408E-008  0.4614232E+02  0.7816164E-02  0.1320468E+00
        -11   -1    0    0    0    0  0.00000000000E+00  0.00000000000E+00  0.45593999997E+02  0.45594000000E+02  0.51100000000E-03 0.  1.
         11   -1    0    0    0    0 -0.00000000000E+00 -0.00000000000E+00 -0.45593999997E+02  0.45594000000E+02  0.51100000000E-03 0. -1.
    9900012    2    1    2    0    0  0.21468299405E+02 -0.35735528315E+02  0.17064512280E+02  0.46142318268E+02  0.10000004625E+02 0.  0.
         12    1    1    2    0    0 -0.21468299405E+02  0.35735528315E+02 -0.17064512280E+02  0.45045681732E+02  0.00000000000E+00 0. -1.
         11    1    3    3    0    0  0.10119929276E+01 -0.37085414450E+01  0.40569126190E+01  0.55889130960E+01  0.51100000000E-03 0.  1.
        -11    1    3    3    0    0  0.12405735404E+02 -0.20065815934E+02  0.52012195933E+01  0.24157647351E+02  0.51100000000E-03 0. -1.
        -12    1    3    3    0    0  0.80505710731E+01 -0.11961170936E+02  0.78063800674E+01  0.16395757821E+02  0.00000000000E+00 0.  1.
</event>
<event>
 7    1  0.1485408E-008  0.4614232E+02  0.7816164E-02  0.1320468E+00
        -11   -1    0    0    0    0  0.00000000000E+00  0.00000000000E+00  0.45593999997E+02  0.45594000000E+02  0.51100000000E-03 0.  1.
         11   -1    0    0    0    0 -0.00000000000E+00 -0.00000000000E+00 -0.45593999997E+02  0.45594000000E+02  0.51100000000E-03 0. -1.
    9900012    2    1    2    0    0  0.39070537108E+02  0.74674604972E+01  0.21138672622E+02  0.46142319670E+02  0.10000017404E+02 0.  0.
         12    1    1    2    0    0 -0.39070537108E+02 -0.74674604972E+01 -0.21138672622E+02  0.45045680330E+02  0.00000000000E+00 0. -1.
         11    1    3    3    0    0  0.57452450000E+01 -0.92682896249E+00  0.40349337241E+01  0.70814929538E+01  0.51100000000E-03 0. -1.
        -11    1    3    3    0    0  0.28575876726E+02  0.59865157882E+01  0.16894300393E+02  0.33731831969E+02  0.51100000000E-03 0.  1.
         12    1    3    3    0    0  0.47494153817E+01  0.24077736716E+01  0.20943850481E+00  0.53289947465E+01  0.00000000000E+00 0. -1.
</event>
<event>
 7    1  0.1485408E-008  0.4614232E+02  0.7816164E-02  0.1320468E+00
        -11   -1    0    0    0    0  0.00000000000E+00  0.00000000000E+00  0.45593999997E+02  0.45594000000E+02  0.51100000000E-03 0.  1.
         11   -1    0    0    0    0 -0.00000000000E+00 -0.00000000000E+00 -0.45593999997E+02  0.45594000000E+02  0.51100000000E-03 0. -1.
    9900012    2    1    2    0    0 -0.29751286684E+02 -0.24306194662E+00  0.33821819366E+02  0.46142316482E+02  0.99999883332E+01 0.  0.
         12    1    1    2    0    0  0.29751286684E+02  0.24306194662E+00 -0.33821819366E+02  0.45045683518E+02  0.00000000000E+00 0. -1.
         11    1    3    3    0    0 -0.18809085780E+01 -0.13244695351E+01  0.12088543533E+01  0.25987238669E+01  0.51100000000E-03 0. -1.
        -11    1    3    3    0    0 -0.80703588731E+01  0.33078901287E+01  0.76310970637E+01  0.11589066921E+02  0.51100000000E-03 0.  1.
        -12    1    3    3    0    0 -0.19800019232E+02 -0.22264825402E+01  0.24981867949E+02  0.31954525694E+02  0.00000000000E+00 0.  1.
</event>
<event>
 7    1  0.1485408E-008  0.4614232E+02  0.7816164E-02  0.1320468E+00
        -11   -1    0    0    0    0  0.00000000000E+00  0.00000000000E+00  0.45593999997E+02  0.45594000000E+02  0.51100000000E-03 0.  1.
         11   -1    0    0    0    0 -0.00000000000E+00 -0.00000000000E+00 -0.45593999997E+02  0.45594000000E+02  0.51100000000E-03 0. -1.
    9900012    2    1    2    0    0 -0.29528640931E+01 -0.36367465054E+02  0.26415934475E+02  0.46142317465E+02  0.99999973010E+01 0.  0.
         12    1    1    2    0    0  0.29528640931E+01  0.36367465054E+02 -0.26415934475E+02  0.45045682535E+02  0.00000000000E+00 0. -1.
         11    1    3    3    0    0  0.50794851872E+00 -0.20949087771E+02  0.12591352250E+02  0.24447176563E+02  0.51100000000E-03 0. -1.
        -11    1    3    3    0    0  0.89767800751E-01 -0.10850500776E+02  0.10028807507E+02  0.14775601701E+02  0.51100000000E-03 0.  1.
         12    1    3    3    0    0 -0.35505804125E+01 -0.45678765072E+01  0.37957747177E+01  0.69195392013E+01  0.00000000000E+00 0. -1.
</event>
<event>
 7    1  0.1485408E-008  0.4614232E+02  0.7816164E-02  0.1320468E+00
        -11   -1    0    0    0    0  0.00000000000E+00  0.00000000000E+00  0.45593999997E+02  0.45594000000E+02  0.51100000000E-03 0.  1.
         11   -1    0    0    0    0 -0.00000000000E+00 -0.00000000000E+00 -0.45593999997E+02  0.45594000000E+02  0.51100000000E-03 0. -1.
    9900012    2    1    2    0    0  0.87495738662E+01 -0.44141702561E+02  0.20170918017E+01  0.46142316442E+02  0.99999879747E+01 0.  0.
         12    1    1    2    0    0 -0.87495738662E+01  0.44141702561E+02 -0.20170918017E+01  0.45045683558E+02  0.00000000000E+00 0. -1.
         11    1    3    3    0    0 -0.84499038332E+00 -0.11677346583E+02  0.21242065583E+01  0.11899020369E+02  0.51100000000E-03 0. -1.
        -11    1    3    3    0    0  0.90905153926E+01 -0.25427219051E+02 -0.15277034052E+01  0.27046530586E+02  0.51100000000E-03 0.  1.
        -12    1    3    3    0    0  0.50404885685E+00 -0.70371369268E+01  0.14205886486E+01  0.71967654877E+01  0.00000000000E+00 0.  1.
</event>
<event>
 7    1  0.1485408E-008  0.4614232E+02  0.7816164E-02  0.1320468E+00
        -11   -1    0    0    0    0  0.00000000000E+00  0.00000000000E+00  0.45593999997E+02  0.45594000000E+02  0.51100000000E-03 0.  1.
         11   -1    0    0    0    0 -0.00000000000E+00 -0.00000000000E+00 -0.45593999997E+02  0.45594000000E+02  0.51100000000E-03 0. -1.
    9900012    2    1    2    0    0 -0.97359008265E+00 -0.42022377201E+02  0.16195229842E+02  0.46142317267E+02  0.99999954957E+01 0.  0.
         12    1    1    2    0    0  0.97359008265E+00  0.42022377201E+02 -0.16195229842E+02  0.45045682733E+02  0.00000000000E+00 0. -1.
         11    1    3    3    0    0 -0.47566285985E+01 -0.29267912981E+02  0.12276614774E+02  0.32092857717E+02  0.51100000000E-03 0. -1.
        -11    1    3    3    0    0  0.35696114872E+00 -0.49293234259E+01  0.12127943879E+01  0.50888624649E+01  0.51100000000E-03 0.  1.
         12    1    3    3    0    0  0.34260773672E+01 -0.78251407941E+01  0.27058206796E+01  0.89605970852E+01  0.00000000000E+00 0. -1.
</event>
<event>
 7    1  0.1485408E-008  0.4614232E+02  0.7816164E-02  0.1320468E+00
        -11   -1    0    0    0    0  0.00000000000E+00  0.00000000000E+00  0.45593999997E+02  0.45594000000E+02  0.51100000000E-03 0.  1.
         11   -1    0    0    0    0 -0.00000000000E+00 -0.00000000000E+00 -0.45593999997E+02  0.45594000000E+02  0.51100000000E-03 0. -1.
    9900012    2    1    2    0    0  0.41275404624E+02 -0.16254226435E+02  0.78265246059E+01  0.46142318839E+02  0.10000009830E+02 0.  0.
         12    1    1    2    0    0 -0.41275404624E+02  0.16254226435E+02 -0.78265246059E+01  0.45045681161E+02  0.00000000000E+00 0. -1.
         11    1    3    3    0    0  0.28835809566E+02 -0.12028460549E+02  0.38057129991E+01  0.31474930154E+02  0.51100000000E-03 0. -1.
        -11    1    3    3    0    0  0.23320025312E+01  0.58109533232E+00  0.23312036720E+01  0.33481962924E+01  0.51100000000E-03 0.  1.
        -12    1    3    3    0    0  0.10107592526E+02 -0.48068612182E+01  0.16896079348E+01  0.11319192393E+02  0.00000000000E+00 0.  1.
</event>
<event>
 7    1  0.1485408E-008  0.4614232E+02  0.7816164E-02  0.1320468E+00
        -11   -1    0    0    0    0  0.00000000000E+00  0.00000000000E+00  0.45593999997E+02  0.45594000000E+02  0.51100000000E-03 0.  1.
         11   -1    0    0    0    0 -0.00000000000E+00 -0.00000000000E+00 -0.45593999997E+02  0.45594000000E+02  0.51100000000E-03 0. -1.
    9900012    2    1    2    0    0 -0.43526276303E+02  0.89521303287E+00 -0.11566101879E+02  0.46142324871E+02  0.10000064833E+02 0.  0.
         12    1    1    2    0    0  0.43526276303E+02 -0.89521303287E+00  0.11566101879E+02  0.45045675129E+02  0.00000000000E+00 0. -1.
         11    1    3    3    0    0  0.23179693201E-03  0.39890623744E+00 -0.48345159746E+00  0.62677902662E+00  0.51100000000E-03 0. -1.
        -11    1    3    3    0    0 -0.94238725326E+00 -0.71278893979E-01  0.86743865281E+00  0.12828189636E+01  0.51100000000E-03 0.  1.
        -12    1    3    3    0    0 -0.42584120846E+02  0.56758568941E+00 -0.11950088935E+02  0.44232726881E+02  0.00000000000E+00 0.  1.
</event>
<event>
 7    1  0.1485408E-008  0.4614232E+02  0.7816164E-02  0.1320468E+00
        -11   -1    0    0    0    0  0.00000000000E+00  0.00000000000E+00  0.45593999997E+02  0.45594000000E+02  0.51100000000E-03 0. -1.
         11   -1    0    0    0    0 -0.00000000000E+00 -0.00000000000E+00 -0.45593999997E+02  0.45594000000E+02  0.51100000000E-03 0.  1.
    9900012    2    1    2    0    0  0.16715204855E+02  0.14762406403E+02 -0.39138047857E+02  0.46142317563E+02  0.99999981915E+01 0.  0.
         12    1    1    2    0    0 -0.16715204855E+02 -0.14762406403E+02  0.39138047857E+02  0.45045682437E+02  0.00000000000E+00 0. -1.
         11    1    3    3    0    0  0.14259776239E+02  0.15015435938E+02 -0.29045784979E+02  0.35671587575E+02  0.51100000000E-03 0. -1.
        -11    1    3    3    0    0  0.15463236127E+01  0.29497313010E+00 -0.76084939672E+01  0.77696400543E+01  0.51100000000E-03 0.  1.
         12    1    3    3    0    0  0.90910500299E+00 -0.54800266464E+00 -0.24837689105E+01  0.27010899333E+01  0.00000000000E+00 0. -1.
</event>
<event>
 7    1  0.1485408E-008  0.4614232E+02  0.7816164E-02  0.1320468E+00
        -11   -1    0    0    0    0  0.00000000000E+00  0.00000000000E+00  0.45593999997E+02  0.45594000000E+02  0.51100000000E-03 0. -1.
         11   -1    0    0    0    0 -0.00000000000E+00 -0.00000000000E+00 -0.45593999997E+02  0.45594000000E+02  0.51100000000E-03 0.  1.
    9900012    2    1    2    0    0  0.61766491058E+01 -0.40840212613E+02  0.17973300762E+02  0.46142317624E+02  0.99999987533E+01 0.  0.
         12    1    1    2    0    0 -0.61766491058E+01  0.40840212613E+02 -0.17973300762E+02  0.45045682376E+02  0.00000000000E+00 0. -1.
         11    1    3    3    0    0 -0.41228794358E+00 -0.20178719118E+02  0.54682881282E+01  0.20910592098E+02  0.51100000000E-03 0. -1.
        -11    1    3    3    0    0  0.56834812601E+01 -0.13986314119E+02  0.96346894450E+01  0.17909388120E+02  0.51100000000E-03 0.  1.
        -12    1    3    3    0    0  0.90545578929E+00 -0.66751793751E+01  0.28703231886E+01  0.73223374057E+01  0.00000000000E+00 0.  1.
</event>
<event>
 7    1  0.1485408E-008  0.4614232E+02  0.7816164E-02  0.1320468E+00
        -11   -1    0    0    0    0  0.00000000000E+00  0.00000000000E+00  0.45593999997E+02  0.45594000000E+02  0.51100000000E-03 0.  1.
         11   -1    0    0    0    0 -0.00000000000E+00 -0.00000000000E+00 -0.45593999997E+02  0.45594000000E+02  0.51100000000E-03 0. -1.
    9900012    2    1    2    0    0 -0.23135803095E+02  0.28597533953E+02  0.26000561146E+02  0.46142317488E+02  0.99999975130E+01 0.  0.
         12    1    1    2    0    0  0.23135803095E+02 -0.28597533953E+02 -0.26000561146E+02  0.45045682512E+02  0.00000000000E+00 0. -1.
         11    1    3    3    0    0 -0.97479526289E+00  0.71403392731E+00 -0.24202072228E+00  0.12323329684E+01  0.51100000000E-03 0.  1.
        -11    1    3    3    0    0 -0.23083696188E+01  0.58533666220E+01  0.76616450952E+01  0.99141957281E+01  0.51100000000E-03 0. -1.
        -12    1    3    3    0    0 -0.19852638213E+02  0.22030133403E+02  0.18580936773E+02  0.34995788792E+02  0.00000000000E+00 0.  1.
</event>
<event>
 7    1  0.1485408E-008  0.4614232E+02  0.7816164E-02  0.1320468E+00
        -11   -1    0    0    0    0  0.00000000000E+00  0.00000000000E+00  0.45593999997E+02  0.45594000000E+02  0.51100000000E-03 0.  1.
         11   -1    0    0    0    0 -0.00000000000E+00 -0.00000000000E+00 -0.45593999997E+02  0.45594000000E+02  0.51100000000E-03 0. -1.
    9900012    2    1    2    0    0 -0.20803091797E+02 -0.34431110063E+02  0.20269271578E+02  0.46142319422E+02  0.10000015142E+02 0.  0.
         12    1    1    2    0    0  0.20803091797E+02  0.34431110063E+02 -0.20269271578E+02  0.45045680578E+02  0.00000000000E+00 0. -1.
         11    1    3    3    0    0 -0.36476157335E+01 -0.13596773974E+02  0.79943915503E+01  0.16189121643E+02  0.51100000000E-03 0. -1.
        -11    1    3    3    0    0 -0.12234437442E+02 -0.14794831377E+02  0.65476128807E+01  0.20283977167E+02  0.51100000000E-03 0.  1.
        -12    1    3    3    0    0 -0.49210386210E+01 -0.60395047115E+01  0.57272671474E+01  0.96692206122E+01  0.00000000000E+00 0.  1.
</event>
<event>
 7    1  0.1485408E-008  0.4614232E+02  0.7816164E-02  0.1320468E+00
        -11   -1    0    0    0    0  0.00000000000E+00  0.00000000000E+00  0.45593999997E+02  0.45594000000E+02  0.51100000000E-03 0. -1.
         11   -1    0    0    0    0 -0.00000000000E+00 -0.00000000000E+00 -0.45593999997E+02  0.45594000000E+02  0.51100000000E-03 0.  1.
    9900012    2    1    2    0    0 -0.35604105684E+01  0.19648017805E+02 -0.40378117494E+02  0.46142317638E+02  0.99999988797E+01 0.  0.
         12    1    1    2    0    0  0.35604105684E+01 -0.19648017805E+02  0.40378117494E+02  0.45045682362E+02  0.00000000000E+00 0. -1.
         11    1    3    3    0    0 -0.44759936751E+01  0.17835841304E+02 -0.27543598333E+02  0.33117994562E+02  0.51100000000E-03 0. -1.
        -11    1    3    3    0    0 -0.40305897718E-01  0.67443024683E+00 -0.27994349548E+01  0.28798119818E+01  0.51100000000E-03 0.  1.
         12    1    3    3    0    0  0.95588900439E+00  0.11377462542E+01 -0.10035084206E+02  0.10144511094E+02  0.00000000000E+00 0. -1.
</event>
<event>
 7    1  0.1485408E-008  0.4614232E+02  0.7816164E-02  0.1320468E+00
        -11   -1    0    0    0    0  0.00000000000E+00  0.00000000000E+00  0.45593999997E+02  0.45594000000E+02  0.51100000000E-03 0. -1.
         11   -1    0    0    0    0 -0.00000000000E+00 -0.00000000000E+00 -0.45593999997E+02  0.45594000000E+02  0.51100000000E-03 0.  1.
    9900012    2    1    2    0    0 -0.13388550528E+02 -0.39456584949E+02 -0.17118351583E+02  0.46142319386E+02  0.10000014813E+02 0.  0.
         12    1    1    2    0    0  0.13388550528E+02  0.39456584949E+02  0.17118351583E+02  0.45045680614E+02  0.00000000000E+00 0. -1.
         11    1    3    3    0    0 -0.12474625511E+02 -0.22144128282E+02 -0.10716232948E+02  0.27582899555E+02  0.51100000000E-03 0. -1.
        -11    1    3    3    0    0 -0.75361049606E+00 -0.16667945525E+02 -0.64619059794E+01  0.17892584105E+02  0.51100000000E-03 0.  1.
         12    1    3    3    0    0 -0.16031452102E+00 -0.64451114233E+00  0.59787344684E-01  0.66683572551E+00  0.00000000000E+00 0. -1.
</event>
<event>
 7    1  0.1485408E-008  0.4614232E+02  0.7816164E-02  0.1320468E+00
        -11   -1    0    0    0    0  0.00000000000E+00  0.00000000000E+00  0.45593999997E+02  0.45594000000E+02  0.51100000000E-03 0. -1.
         11   -1    0    0    0    0 -0.00000000000E+00 -0.00000000000E+00 -0.45593999997E+02  0.45594000000E+02  0.51100000000E-03 0.  1.
    9900012    2    1    2    0    0 -0.13711123251E+01  0.42253063065E+02 -0.15553521484E+02  0.46142319653E+02  0.10000017254E+02 0.  0.
         12    1    1    2    0    0  0.13711123251E+01 -0.42253063065E+02  0.15553521484E+02  0.45045680347E+02  0.00000000000E+00 0. -1.
         11    1    3    3    0    0 -0.25130615089E+01  0.70888226727E+01 -0.69420980991E+00  0.75530664339E+01  0.51100000000E-03 0. -1.
        -11    1    3    3    0    0  0.26488622255E+01  0.93797098748E+01 -0.48791135826E+01  0.10899595315E+02  0.51100000000E-03 0.  1.
        -12    1    3    3    0    0 -0.15069130416E+01  0.25784530517E+02 -0.99801980911E+01  0.27689657904E+02  0.00000000000E+00 0.  1.
</event>
<event>
 7    1  0.1485408E-008  0.4614232E+02  0.7816164E-02  0.1320468E+00
        -11   -1    0    0    0    0  0.00000000000E+00  0.00000000000E+00  0.45593999997E+02  0.45594000000E+02  0.51100000000E-03 0. -1.
         11   -1    0    0    0    0 -0.00000000000E+00 -0.00000000000E+00 -0.45593999997E+02  0.45594000000E+02  0.51100000000E-03 0.  1.
    9900012    2    1    2    0    0  0.16724194424E+02  0.40149568559E+02  0.11722921668E+02  0.46142318442E+02  0.10000006207E+02 0.  0.
         12    1    1    2    0    0 -0.16724194424E+02 -0.40149568559E+02 -0.11722921668E+02  0.45045681558E+02  0.00000000000E+00 0. -1.
         11    1    3    3    0    0  0.11319728455E+02  0.28206605547E+02  0.39949571551E+01  0.30654665741E+02  0.51100000000E-03 0. -1.
        -11    1    3    3    0    0  0.32393713270E+01  0.95090665995E+01  0.49147067897E+01  0.11183479659E+02  0.51100000000E-03 0.  1.
         12    1    3    3    0    0  0.21650946423E+01  0.24338964123E+01  0.28132577230E+01  0.43041730416E+01  0.00000000000E+00 0. -1.
</event>
<event>
 7    1  0.1485408E-008  0.4614232E+02  0.7816164E-02  0.1320468E+00
        -11   -1    0    0    0    0  0.00000000000E+00  0.00000000000E+00  0.45593999997E+02  0.45594000000E+02  0.51100000000E-03 0. -1.
         11   -1    0    0    0    0 -0.00000000000E+00 -0.00000000000E+00 -0.45593999997E+02  0.45594000000E+02  0.51100000000E-03 0.  1.
    9900012    2    1    2    0    0  0.51796319314E+01 -0.42490568344E+02  0.14029848258E+02  0.46142316219E+02  0.99999859416E+01 0.  0.
         12    1    1    2    0    0 -0.51796319314E+01  0.42490568344E+02 -0.14029848258E+02  0.45045683781E+02  0.00000000000E+00 0. -1.
         11    1    3    3    0    0  0.56923999448E+01 -0.28100335954E+02  0.70999430454E+01  0.29537120533E+02  0.51100000000E-03 0.  1.
        -11    1    3    3    0    0 -0.19975870295E+01 -0.62963129382E+01  0.46108736156E+01  0.80556853412E+01  0.51100000000E-03 0. -1.
         12    1    3    3    0    0  0.14848190162E+01 -0.80939194512E+01  0.23190315971E+01  0.85495103451E+01  0.00000000000E+00 0. -1.
</event>
<event>
 7    1  0.1485408E-008  0.4614231E+02  0.7816164E-02  0.1320468E+00
        -11   -1    0    0    0    0  0.00000000000E+00  0.00000000000E+00  0.45593999997E+02  0.45594000000E+02  0.51100000000E-03 0.  1.
         11   -1    0    0    0    0 -0.00000000000E+00 -0.00000000000E+00 -0.45593999997E+02  0.45594000000E+02  0.51100000000E-03 0. -1.
    9900012    2    1    2    0    0 -0.14818829217E+02 -0.22325277203E+02  0.36209089364E+02  0.46142313701E+02  0.99999629801E+01 0.  0.
         12    1    1    2    0    0  0.14818829217E+02  0.22325277203E+02 -0.36209089364E+02  0.45045686299E+02  0.00000000000E+00 0. -1.
         11    1    3    3    0    0  0.18146265431E+00 -0.36730170441E+01  0.22964292767E+01  0.43356165174E+01  0.51100000000E-03 0. -1.
        -11    1    3    3    0    0 -0.68979958340E+01 -0.12491835138E+02  0.19911209564E+02  0.24496623404E+02  0.51100000000E-03 0.  1.
         12    1    3    3    0    0 -0.81022960374E+01 -0.61604250210E+01  0.14001450524E+02  0.17310073780E+02  0.00000000000E+00 0. -1.
</event>
<event>
 7    1  0.1485408E-008  0.4614232E+02  0.7816164E-02  0.1320468E+00
        -11   -1    0    0    0    0  0.00000000000E+00  0.00000000000E+00  0.45593999997E+02  0.45594000000E+02  0.51100000000E-03 0. -1.
         11   -1    0    0    0    0 -0.00000000000E+00 -0.00000000000E+00 -0.45593999997E+02  0.45594000000E+02  0.51100000000E-03 0.  1.
    9900012    2    1    2    0    0  0.38552836897E+02 -0.59658930853E+01 -0.22521105043E+02  0.46142320013E+02  0.10000020539E+02 0.  0.
         12    1    1    2    0    0 -0.38552836897E+02  0.59658930853E+01  0.22521105043E+02  0.45045679987E+02  0.00000000000E+00 0. -1.
         11    1    3    3    0    0  0.14331905987E+02  0.24876929497E+01 -0.87854764534E+01  0.16993432326E+02  0.51100000000E-03 0. -1.
        -11    1    3    3    0    0  0.11749946219E+02 -0.49985845946E+01 -0.68092784887E+01  0.14471121515E+02  0.51100000000E-03 0.  1.
         12    1    3    3    0    0  0.12470984691E+02 -0.34550014404E+01 -0.69263501007E+01  0.14677766173E+02  0.00000000000E+00 0. -1.
</event>
<event>
 7    1  0.1485408E-008  0.4614232E+02  0.7816164E-02  0.1320468E+00
        -11   -1    0    0    0    0  0.00000000000E+00  0.00000000000E+00  0.45593999997E+02  0.45594000000E+02  0.51100000000E-03 0. -1.
         11   -1    0    0    0    0 -0.00000000000E+00 -0.00000000000E+00 -0.45593999997E+02  0.45594000000E+02  0.51100000000E-03 0.  1.
    9900012    2    1    2    0    0 -0.90721392041E+01 -0.12273812799E+02 -0.42381167175E+02  0.46142317394E+02  0.99999966514E+01 0.  0.
         12    1    1    2    0    0  0.90721392041E+01  0.12273812799E+02  0.42381167175E+02  0.45045682606E+02  0.00000000000E+00 0. -1.
         11    1    3    3    0    0 -0.10916563931E+01  0.14262103568E+01 -0.41365249600E+01  0.45096151352E+01  0.51100000000E-03 0. -1.
        -11    1    3    3    0    0 -0.27117184055E+01 -0.70489159387E+01 -0.22694128051E+02  0.23917861127E+02  0.51100000000E-03 0.  1.
        -12    1    3    3    0    0 -0.52687644054E+01 -0.66511072171E+01 -0.15550514163E+02  0.17714841132E+02  0.00000000000E+00 0.  1.
</event>
<event>
 7    1  0.1485408E-008  0.4614231E+02  0.7816164E-02  0.1320468E+00
        -11   -1    0    0    0    0  0.00000000000E+00  0.00000000000E+00  0.45593999997E+02  0.45594000000E+02  0.51100000000E-03 0.  1.
         11   -1    0    0    0    0 -0.00000000000E+00 -0.00000000000E+00 -0.45593999997E+02  0.45594000000E+02  0.51100000000E-03 0. -1.
    9900012    2    1    2    0    0  0.15569339273E+01  0.76391060032E+01  0.44365908701E+02  0.46142313873E+02  0.99999645456E+01 0.  0.
         12    1    1    2    0    0 -0.15569339273E+01 -0.76391060032E+01 -0.44365908701E+02  0.45045686127E+02  0.00000000000E+00 0. -1.
         11    1    3    3    0    0  0.19360031213E+01 -0.15233970534E+00  0.67930760981E+01  0.70652104432E+01  0.51100000000E-03 0. -1.
        -11    1    3    3    0    0 -0.36510256166E+01  0.39811630858E+01  0.14745430441E+02  0.15703737349E+02  0.51100000000E-03 0.  1.
        -12    1    3    3    0    0  0.32719564226E+01  0.38102826227E+01  0.22827402162E+02  0.23373366081E+02  0.00000000000E+00 0.  1.
</event>
<event>
 7    1  0.1485408E-008  0.4614232E+02  0.7816164E-02  0.1320468E+00
        -11   -1    0    0    0    0  0.00000000000E+00  0.00000000000E+00  0.45593999997E+02  0.45594000000E+02  0.51100000000E-03 0.  1.
         11   -1    0    0    0    0 -0.00000000000E+00 -0.00000000000E+00 -0.45593999997E+02  0.45594000000E+02  0.51100000000E-03 0. -1.
    9900012    2    1    2    0    0  0.17939601734E+02  0.17927328174E+02  0.37227611766E+02  0.46142317814E+02  0.10000000480E+02 0.  0.
         12    1    1    2    0    0 -0.17939601734E+02 -0.17927328174E+02 -0.37227611766E+02  0.45045682186E+02  0.00000000000E+00 0. -1.
         11    1    3    3    0    0  0.51402775980E+01  0.77183040263E+00  0.38805441642E+01  0.64866631812E+01  0.51100000000E-03 0. -1.
        -11    1    3    3    0    0  0.86391871458E+01  0.10903342023E+02  0.22785043712E+02  0.26696004178E+02  0.51100000000E-03 0.  1.
         12    1    3    3    0    0  0.41601369904E+01  0.62521557483E+01  0.10562023889E+02  0.12959650455E+02  0.00000000000E+00 0. -1.
</event>
<event>
 7    1  0.1485408E-008  0.4614232E+02  0.7816164E-02  0.1320468E+00
        -11   -1    0    0    0    0  0.00000000000E+00  0.00000000000E+00  0.45593999997E+02  0.45594000000E+02  0.51100000000E-03 0.  1.
         11   -1    0    0    0    0 -0.00000000000E+00 -0.00000000000E+00 -0.45593999997E+02  0.45594000000E+02  0.51100000000E-03 0. -1.
    9900012    2    1    2    0    0 -0.76881803903E+01 -0.36330024703E+02 -0.25497740503E+02  0.46142316706E+02  0.99999903811E+01 0.  0.
         12    1    1    2    0    0  0.76881803903E+01  0.36330024703E+02  0.25497740503E+02  0.45045683294E+02  0.00000000000E+00 0. -1.
         11    1    3    3    0    0 -0.41487162116E+01 -0.18906478416E+02 -0.19239343366E+02  0.27291374200E+02  0.51100000000E-03 0. -1.
        -11    1    3    3    0    0 -0.16459003040E+01 -0.76339758236E+01 -0.28634369164E+01  0.83178029504E+01  0.51100000000E-03 0.  1.
         12    1    3    3    0    0 -0.18935638747E+01 -0.97895704633E+01 -0.33949602202E+01  0.10533139556E+02  0.00000000000E+00 0. -1.
</event>
<event>
 7    1  0.1485408E-008  0.4614232E+02  0.7816164E-02  0.1320468E+00
        -11   -1    0    0    0    0  0.00000000000E+00  0.00000000000E+00  0.45593999997E+02  0.45594000000E+02  0.51100000000E-03 0.  1.
         11   -1    0    0    0    0 -0.00000000000E+00 -0.00000000000E+00 -0.45593999997E+02  0.45594000000E+02  0.51100000000E-03 0. -1.
    9900012    2    1    2    0    0 -0.35935025672E+02  0.35266056959E+01  0.26932329991E+02  0.46142318558E+02  0.10000007267E+02 0.  0.
         12    1    1    2    0    0  0.35935025672E+02 -0.35266056959E+01 -0.26932329991E+02  0.45045681442E+02  0.00000000000E+00 0. -1.
         11    1    3    3    0    0 -0.12214665882E+00 -0.28403192271E+00 -0.24090295640E+00  0.39195463373E+00  0.51100000000E-03 0. -1.
        -11    1    3    3    0    0 -0.30398577264E+02  0.56211436091E+01  0.21181882943E+02  0.37474563646E+02  0.51100000000E-03 0.  1.
        -12    1    3    3    0    0 -0.54143017497E+01 -0.18105059905E+01  0.59913500042E+01  0.82758002786E+01  0.00000000000E+00 0.  1.
</event>
<event>
 7    1  0.1485408E-008  0.4614232E+02  0.7816164E-02  0.1320468E+00
        -11   -1    0    0    0    0  0.00000000000E+00  0.00000000000E+00  0.45593999997E+02  0.45594000000E+02  0.51100000000E-03 0. -1.
         11   -1    0    0    0    0 -0.00000000000E+00 -0.00000000000E+00 -0.45593999997E+02  0.45594000000E+02  0.51100000000E-03 0.  1.
    9900012    2    1    2    0    0  0.32717613969E+02 -0.27583437252E+02 -0.14065034316E+02  0.46142318023E+02  0.10000002388E+02 0.  0.
         12    1    1    2    0    0 -0.32717613969E+02  0.27583437252E+02  0.14065034316E+02  0.45045681977E+02  0.00000000000E+00 0. -1.
         11    1    3    3    0    0  0.40485447204E+01 -0.48422451126E+01 -0.57187192568E+01  0.85171475438E+01  0.51100000000E-03 0. -1.
        -11    1    3    3    0    0  0.15575966106E+02 -0.13806617485E+02 -0.53894107748E+01  0.21500678019E+02  0.51100000000E-03 0.  1.
         12    1    3    3    0    0  0.13093103142E+02 -0.89345746548E+01 -0.29569042846E+01  0.16124492461E+02  0.00000000000E+00 0. -1.
</event>
<event>
 7    1  0.1485408E-008  0.4614232E+02  0.7816164E-02  0.1320468E+00
        -11   -1    0    0    0    0  0.00000000000E+00  0.00000000000E+00  0.45593999997E+02  0.45594000000E+02  0.51100000000E-03 0.  1.
         11   -1    0    0    0    0 -0.00000000000E+00 -0.00000000000E+00 -0.45593999997E+02  0.45594000000E+02  0.51100000000E-03 0. -1.
    9900012    2    1    2    0    0 -0.16197537296E+02  0.31991442927E+01  0.41910845297E+02  0.46142315499E+02  0.99999793718E+01 0.  0.
         12    1    1    2    0    0  0.16197537296E+02 -0.31991442927E+01 -0.41910845297E+02  0.45045684501E+02  0.00000000000E+00 0. -1.
         11    1    3    3    0    0 -0.57871650623E+01 -0.89482916257E+00  0.87236372943E+01  0.10506847605E+02  0.51100000000E-03 0. -1.
        -11    1    3    3    0    0 -0.12969131328E+00  0.98404962795E+00  0.10361754537E+02  0.10409184928E+02  0.51100000000E-03 0.  1.
         12    1    3    3    0    0 -0.10280680920E+02  0.31099238273E+01  0.22825453466E+02  0.25226282966E+02  0.00000000000E+00 0. -1.
</event>
<event>
 7    1  0.1485408E-008  0.4614232E+02  0.7816164E-02  0.1320468E+00
        -11   -1    0    0    0    0  0.00000000000E+00  0.00000000000E+00  0.45593999997E+02  0.45594000000E+02  0.51100000000E-03 0.  1.
         11   -1    0    0    0    0 -0.00000000000E+00 -0.00000000000E+00 -0.45593999997E+02  0.45594000000E+02  0.51100000000E-03 0. -1.
    9900012    2    1    2    0    0  0.13305752304E+02 -0.17506531705E+02  0.39314014905E+02  0.46142318024E+02  0.10000002398E+02 0.  0.
         12    1    1    2    0    0 -0.13305752304E+02  0.17506531705E+02 -0.39314014905E+02  0.45045681976E+02  0.00000000000E+00 0. -1.
         11    1    3    3    0    0  0.76753461625E+01 -0.11083674239E+02  0.14683342261E+02  0.19933873522E+02  0.51100000000E-03 0. -1.
        -11    1    3    3    0    0  0.56741452980E+01 -0.54451795205E+01  0.22992269072E+02  0.24300007041E+02  0.51100000000E-03 0.  1.
         12    1    3    3    0    0 -0.43739156096E-01 -0.97767794531E+00  0.16384035717E+01  0.19084374609E+01  0.00000000000E+00 0. -1.
</event>
<event>
 7    1  0.1485408E-008  0.4614232E+02  0.7816164E-02  0.1320468E+00
        -11   -1    0    0    0    0  0.00000000000E+00  0.00000000000E+00  0.45593999997E+02  0.45594000000E+02  0.51100000000E-03 0.  1.
         11   -1    0    0    0    0 -0.00000000000E+00 -0.00000000000E+00 -0.45593999997E+02  0.45594000000E+02  0.51100000000E-03 0. -1.
    9900012    2    1    2    0    0 -0.30934091242E+02 -0.22789172669E+02  0.23512744024E+02  0.46142317372E+02  0.99999964495E+01 0.  0.
         12    1    1    2    0    0  0.30934091242E+02  0.22789172669E+02 -0.23512744024E+02  0.45045682628E+02  0.00000000000E+00 0. -1.
         11    1    3    3    0    0 -0.10211745460E+02 -0.10616605034E+02  0.74190912105E+01  0.16493482423E+02  0.51100000000E-03 0. -1.
        -11    1    3    3    0    0 -0.93083294747E+00  0.78347251566E+00  0.49400587218E+00  0.13131341218E+01  0.51100000000E-03 0.  1.
        -12    1    3    3    0    0 -0.19791512835E+02 -0.12956040151E+02  0.15599646941E+02  0.28335700827E+02  0.00000000000E+00 0.  1.
</event>
<event>
 7    1  0.1485408E-008  0.4614232E+02  0.7816164E-02  0.1320468E+00
        -11   -1    0    0    0    0  0.00000000000E+00  0.00000000000E+00  0.45593999997E+02  0.45594000000E+02  0.51100000000E-03 0. -1.
         11   -1    0    0    0    0 -0.00000000000E+00 -0.00000000000E+00 -0.45593999997E+02  0.45594000000E+02  0.51100000000E-03 0.  1.
    9900012    2    1    2    0    0 -0.19570051234E+02 -0.34555388740E+02 -0.21261506039E+02  0.46142318350E+02  0.10000005369E+02 0.  0.
         12    1    1    2    0    0  0.19570051234E+02  0.34555388740E+02  0.21261506039E+02  0.45045681650E+02  0.00000000000E+00 0. -1.
         11    1    3    3    0    0 -0.36306729347E+01 -0.42098887725E+01 -0.47378072712E+01  0.73042294211E+01  0.51100000000E-03 0. -1.
        -11    1    3    3    0    0 -0.48072150252E+00 -0.99551292203E+00  0.84732270623E+00  0.13928729915E+01  0.51100000000E-03 0.  1.
        -12    1    3    3    0    0 -0.15458656797E+02 -0.29349987045E+02 -0.17371021474E+02  0.37445215937E+02  0.00000000000E+00 0.  1.
</event>
<event>
 7    1  0.1485408E-008  0.4614231E+02  0.7816164E-02  0.1320468E+00
        -11   -1    0    0    0    0  0.00000000000E+00  0.00000000000E+00  0.45593999997E+02  0.45594000000E+02  0.51100000000E-03 0.  1.
         11   -1    0    0    0    0 -0.00000000000E+00 -0.00000000000E+00 -0.45593999997E+02  0.45594000000E+02  0.51100000000E-03 0. -1.
    9900012    2    1    2    0    0 -0.10771173395E+02  0.25170649939E+02  0.35770574187E+02  0.46142314609E+02  0.99999712570E+01 0.  0.
         12    1    1    2    0    0  0.10771173395E+02 -0.25170649939E+02 -0.35770574187E+02  0.45045685391E+02  0.00000000000E+00 0. -1.
         11    1    3    3    0    0  0.29901350826E+00  0.48950512181E+00 -0.11422634665E+00  0.58486943995E+00  0.51100000000E-03 0. -1.
        -11    1    3    3    0    0 -0.33798978337E+01  0.16445704848E+02  0.22063531898E+02  0.27725157482E+02  0.51100000000E-03 0.  1.
        -12    1    3    3    0    0 -0.76902890695E+01  0.82354399692E+01  0.13821268636E+02  0.17832287687E+02  0.00000000000E+00 0.  1.
</event>
<event>
 7    1  0.1485408E-008  0.4614232E+02  0.7816164E-02  0.1320468E+00
        -11   -1    0    0    0    0  0.00000000000E+00  0.00000000000E+00  0.45593999997E+02  0.45594000000E+02  0.51100000000E-03 0. -1.
         11   -1    0    0    0    0 -0.00000000000E+00 -0.00000000000E+00 -0.45593999997E+02  0.45594000000E+02  0.51100000000E-03 0.  1.
    9900012    2    1    2    0    0 -0.17676770395E+02 -0.13773633686E+02 -0.39075981610E+02  0.46142317241E+02  0.99999952540E+01 0.  0.
         12    1    1    2    0    0  0.17676770395E+02  0.13773633686E+02  0.39075981610E+02  0.45045682759E+02  0.00000000000E+00 0. -1.
         11    1    3    3    0    0 -0.32531092586E+01 -0.41474235668E+01 -0.75689014042E+01  0.92234543864E+01  0.51100000000E-03 0. -1.
        -11    1    3    3    0    0 -0.47248658096E+01 -0.80168344404E+01 -0.13388227236E+02  0.16304558263E+02  0.51100000000E-03 0.  1.
        -12    1    3    3    0    0 -0.96987953265E+01 -0.16093756789E+01 -0.18118852969E+02  0.20614304591E+02  0.00000000000E+00 0.  1.
</event>
<event>
 7    1  0.1485408E-008  0.4614232E+02  0.7816164E-02  0.1320468E+00
        -11   -1    0    0    0    0  0.00000000000E+00  0.00000000000E+00  0.45593999997E+02  0.45594000000E+02  0.51100000000E-03 0.  1.
         11   -1    0    0    0    0 -0.00000000000E+00 -0.00000000000E+00 -0.45593999997E+02  0.45594000000E+02  0.51100000000E-03 0. -1.
    9900012    2    1    2    0    0 -0.17151392074E+02 -0.36269994323E+02  0.20480009275E+02  0.46142317430E+02  0.99999969807E+01 0.  0.
         12    1    1    2    0    0  0.17151392074E+02  0.36269994323E+02 -0.20480009275E+02  0.45045682570E+02  0.00000000000E+00 0. -1.
         11    1    3    3    0    0 -0.65088690576E+01 -0.20543229886E+02  0.12790781206E+02  0.25059803565E+02  0.51100000000E-03 0. -1.
        -11    1    3    3    0    0 -0.94328341220E+01 -0.13420826963E+02  0.45893335618E+01  0.17034052329E+02  0.51100000000E-03 0.  1.
        -12    1    3    3    0    0 -0.12096888941E+01 -0.23059374740E+01  0.30998945077E+01  0.40484615366E+01  0.00000000000E+00 0.  1.
</event>
<event>
 7    1  0.1485408E-008  0.4614232E+02  0.7816164E-02  0.1320468E+00
        -11   -1    0    0    0    0  0.00000000000E+00  0.00000000000E+00  0.45593999997E+02  0.45594000000E+02  0.51100000000E-03 0.  1.
         11   -1    0    0    0    0 -0.00000000000E+00 -0.00000000000E+00 -0.45593999997E+02  0.45594000000E+02  0.51100000000E-03 0. -1.
    9900012    2    1    2    0    0  0.16668732766E+02 -0.21240669563E+02  0.36056912562E+02  0.46142316089E+02  0.99999847529E+01 0.  0.
         12    1    1    2    0    0 -0.16668732766E+02  0.21240669563E+02 -0.36056912562E+02  0.45045683911E+02  0.00000000000E+00 0. -1.
         11    1    3    3    0    0  0.14451361199E+01 -0.78467959883E+01  0.14104245342E+02  0.16204640157E+02  0.51100000000E-03 0. -1.
        -11    1    3    3    0    0  0.24836964749E+01 -0.30675000304E+01  0.39093104915E+01  0.55552689760E+01  0.51100000000E-03 0.  1.
         12    1    3    3    0    0  0.12739900171E+02 -0.10326373544E+02  0.18043356729E+02  0.24382406956E+02  0.00000000000E+00 0. -1.
</event>
<event>
 7    1  0.1485408E-008  0.4614232E+02  0.7816164E-02  0.1320468E+00
        -11   -1    0    0    0    0  0.00000000000E+00  0.00000000000E+00  0.45593999997E+02  0.45594000000E+02  0.51100000000E-03 0. -1.
         11   -1    0    0    0    0 -0.00000000000E+00 -0.00000000000E+00 -0.45593999997E+02  0.45594000000E+02  0.51100000000E-03 0.  1.
    9900012    2    1    2    0    0 -0.85432834888E+01  0.11919000947E+02 -0.42591820883E+02  0.46142317827E+02  0.10000000600E+02 0.  0.
         12    1    1    2    0    0  0.85432834888E+01 -0.11919000947E+02  0.42591820883E+02  0.45045682173E+02  0.00000000000E+00 0. -1.
         11    1    3    3    0    0  0.65594339294E+00  0.48358284539E+01 -0.93784114931E+01  0.10572137956E+02  0.51100000000E-03 0. -1.
        -11    1    3    3    0    0 -0.17843178881E+01  0.44495934342E+01 -0.14417662054E+02  0.15193803060E+02  0.51100000000E-03 0.  1.
         12    1    3    3    0    0 -0.74149089936E+01  0.26335790589E+01 -0.18795747335E+02  0.20376376811E+02  0.00000000000E+00 0. -1.
</event>
<event>
 7    1  0.1485408E-008  0.4614231E+02  0.7816164E-02  0.1320468E+00
        -11   -1    0    0    0    0  0.00000000000E+00  0.00000000000E+00  0.45593999997E+02  0.45594000000E+02  0.51100000000E-03 0.  1.
         11   -1    0    0    0    0 -0.00000000000E+00 -0.00000000000E+00 -0.45593999997E+02  0.45594000000E+02  0.51100000000E-03 0. -1.
    9900012    2    1    2    0    0 -0.22613557674E+02 -0.18481234933E+02  0.34295556225E+02  0.46142309727E+02  0.99999267421E+01 0.  0.
         12    1    1    2    0    0  0.22613557674E+02  0.18481234933E+02 -0.34295556225E+02  0.45045690273E+02  0.00000000000E+00 0. -1.
         11    1    3    3    0    0  0.20107781669E+00  0.33502293912E+00  0.64502353633E+00  0.75414075718E+00  0.51100000000E-03 0. -1.
        -11    1    3    3    0    0 -0.90505328896E+01 -0.57283351498E+01  0.17193705162E+02  0.20257084357E+02  0.51100000000E-03 0.  1.
         12    1    3    3    0    0 -0.13764102601E+02 -0.13087922722E+02  0.16456827527E+02  0.25131084614E+02  0.00000000000E+00 0. -1.
</event>
<event>
 7    1  0.1485408E-008  0.4614232E+02  0.7816164E-02  0.1320468E+00
        -11   -1    0    0    0    0  0.00000000000E+00  0.00000000000E+00  0.45593999997E+02  0.45594000000E+02  0.51100000000E-03 0. -1.
         11   -1    0    0    0    0 -0.00000000000E+00 -0.00000000000E+00 -0.45593999997E+02  0.45594000000E+02  0.51100000000E-03 0.  1.
    9900012    2    1    2    0    0 -0.15766923397E+02  0.32761229257E+02 -0.26593601806E+02  0.46142315713E+02  0.99999813279E+01 0.  0.
         12    1    1    2    0    0  0.15766923397E+02 -0.32761229257E+02  0.26593601806E+02  0.45045684287E+02  0.00000000000E+00 0. -1.
         11    1    3    3    0    0 -0.59310598484E+01  0.70055536440E+01 -0.10386743002E+02  0.13861445929E+02  0.51100000000E-03 0. -1.
        -11    1    3    3    0    0 -0.77568735674E+01  0.23533495746E+02 -0.15228511876E+02  0.29084395881E+02  0.51100000000E-03 0.  1.
        -12    1    3    3    0    0 -0.20789899814E+01  0.22221798665E+01 -0.97834692819E+00  0.31964739032E+01  0.00000000000E+00 0.  1.
</event>
<event>
 7    1  0.1485408E-008  0.4614232E+02  0.7816164E-02  0.1320468E+00
        -11   -1    0    0    0    0  0.00000000000E+00  0.00000000000E+00  0.45593999997E+02  0.45594000000E+02  0.51100000000E-03 0.  1.
         11   -1    0    0    0    0 -0.00000000000E+00 -0.00000000000E+00 -0.45593999997E+02  0.45594000000E+02  0.51100000000E-03 0. -1.
    9900012    2    1    2    0    0 -0.26212205015E+02 -0.13645311472E+01  0.36608357060E+02  0.46142318257E+02  0.10000004522E+02 0.  0.
         12    1    1    2    0    0  0.26212205015E+02  0.13645311472E+01 -0.36608357060E+02  0.45045681743E+02  0.00000000000E+00 0. -1.
         11    1    3    3    0    0 -0.67211854517E+01  0.35744258449E-01  0.15663396121E+02  0.17044576552E+02  0.51100000000E-03 0. -1.
        -11    1    3    3    0    0 -0.34419296062E+01 -0.45034508823E+00  0.12858922829E+01  0.37017846152E+01  0.51100000000E-03 0.  1.
        -12    1    3    3    0    0 -0.16049089958E+02 -0.94993031739E+00  0.19659068656E+02  0.25395957090E+02  0.00000000000E+00 0.  1.
</event>
<event>
 7    1  0.1485408E-008  0.4614232E+02  0.7816164E-02  0.1320468E+00
        -11   -1    0    0    0    0  0.00000000000E+00  0.00000000000E+00  0.45593999997E+02  0.45594000000E+02  0.51100000000E-03 0. -1.
         11   -1    0    0    0    0 -0.00000000000E+00 -0.00000000000E+00 -0.45593999997E+02  0.45594000000E+02  0.51100000000E-03 0.  1.
    9900012    2    1    2    0    0 -0.31894983562E+02 -0.30337955101E+02  0.95620025847E+01  0.46142318858E+02  0.10000010001E+02 0.  0.
         12    1    1    2    0    0  0.31894983562E+02  0.30337955101E+02 -0.95620025847E+01  0.45045681142E+02  0.00000000000E+00 0. -1.
         11    1    3    3    0    0  0.42139416484E-01  0.22637452308E+00 -0.44316773818E+00  0.49941872253E+00  0.51100000000E-03 0. -1.
        -11    1    3    3    0    0 -0.17025208979E+02 -0.16772870250E+02  0.26743666460E+01  0.24048683008E+02  0.51100000000E-03 0.  1.
        -12    1    3    3    0    0 -0.14911913999E+02 -0.13791459375E+02  0.73308036769E+01  0.21594217127E+02  0.00000000000E+00 0.  1.
</event>
<event>
 7    1  0.1485408E-008  0.4614232E+02  0.7816164E-02  0.1320468E+00
        -11   -1    0    0    0    0  0.00000000000E+00  0.00000000000E+00  0.45593999997E+02  0.45594000000E+02  0.51100000000E-03 0.  1.
         11   -1    0    0    0    0 -0.00000000000E+00 -0.00000000000E+00 -0.45593999997E+02  0.45594000000E+02  0.51100000000E-03 0. -1.
    9900012    2    1    2    0    0 -0.36304144288E+02  0.15024708981E+02  0.22031357842E+02  0.46142317623E+02  0.99999987446E+01 0.  0.
         12    1    1    2    0    0  0.36304144288E+02 -0.15024708981E+02 -0.22031357842E+02  0.45045682377E+02  0.00000000000E+00 0. -1.
         11    1    3    3    0    0 -0.49436117975E+00  0.17801778464E+01  0.18935259346E+01  0.26455371604E+01  0.51100000000E-03 0. -1.
        -11    1    3    3    0    0 -0.27108423732E+02  0.79569524072E+01  0.13256802304E+02  0.31207731998E+02  0.51100000000E-03 0.  1.
        -12    1    3    3    0    0 -0.87013593758E+01  0.52875787272E+01  0.68810296035E+01  0.12289048465E+02  0.00000000000E+00 0.  1.
</event>
<event>
 7    1  0.1485408E-008  0.4614232E+02  0.7816164E-02  0.1320468E+00
        -11   -1    0    0    0    0  0.00000000000E+00  0.00000000000E+00  0.45593999997E+02  0.45594000000E+02  0.51100000000E-03 0.  1.
         11   -1    0    0    0    0 -0.00000000000E+00 -0.00000000000E+00 -0.45593999997E+02  0.45594000000E+02  0.51100000000E-03 0. -1.
    9900012    2    1    2    0    0 -0.41340801425E+01  0.20290094942E+02  0.40004186646E+02  0.46142317403E+02  0.99999967369E+01 0.  0.
         12    1    1    2    0    0  0.41340801425E+01 -0.20290094942E+02 -0.40004186646E+02  0.45045682597E+02  0.00000000000E+00 0. -1.
         11    1    3    3    0    0  0.19990890173E+01  0.54636678020E+01  0.74456091648E+01  0.94490803175E+01  0.51100000000E-03 0. -1.
        -11    1    3    3    0    0 -0.40847932263E+01  0.64645909206E+01  0.20475778078E+02  0.21857126061E+02  0.51100000000E-03 0.  1.
        -12    1    3    3    0    0 -0.20483759335E+01  0.83618362193E+01  0.12082799403E+02  0.14836111025E+02  0.00000000000E+00 0.  1.
</event>
<event>
 7    1  0.1485408E-008  0.4614232E+02  0.7816164E-02  0.1320468E+00
        -11   -1    0    0    0    0  0.00000000000E+00  0.00000000000E+00  0.45593999997E+02  0.45594000000E+02  0.51100000000E-03 0. -1.
         11   -1    0    0    0    0 -0.00000000000E+00 -0.00000000000E+00 -0.45593999997E+02  0.45594000000E+02  0.51100000000E-03 0.  1.
    9900012    2    1    2    0    0 -0.28356736684E+02 -0.20587129627E+02 -0.28305107896E+02  0.46142317025E+02  0.99999932856E+01 0.  0.
         12    1    1    2    0    0  0.28356736684E+02  0.20587129627E+02  0.28305107896E+02  0.45045682975E+02  0.00000000000E+00 0. -1.
         11    1    3    3    0    0 -0.14917041661E+01 -0.25389231652E+01 -0.52754815843E+01  0.60416900256E+01  0.51100000000E-03 0. -1.
        -11    1    3    3    0    0 -0.19184447583E+02 -0.13361670149E+02 -0.19469801636E+02  0.30424503845E+02  0.51100000000E-03 0.  1.
        -12    1    3    3    0    0 -0.76805849354E+01 -0.46865363131E+01 -0.35598246762E+01  0.96761231539E+01  0.00000000000E+00 0.  1.
</event>
<event>
 7    1  0.1485408E-008  0.4614232E+02  0.7816164E-02  0.1320468E+00
        -11   -1    0    0    0    0  0.00000000000E+00  0.00000000000E+00  0.45593999997E+02  0.45594000000E+02  0.51100000000E-03 0.  1.
         11   -1    0    0    0    0 -0.00000000000E+00 -0.00000000000E+00 -0.45593999997E+02  0.45594000000E+02  0.51100000000E-03 0. -1.
    9900012    2    1    2    0    0 -0.44588974618E+02 -0.48230989674E+01  0.42040988454E+01  0.46142318873E+02  0.10000010136E+02 0.  0.
         12    1    1    2    0    0  0.44588974618E+02  0.48230989674E+01 -0.42040988454E+01  0.45045681127E+02  0.00000000000E+00 0. -1.
         11    1    3    3    0    0 -0.41500789788E+01 -0.21042879446E+01  0.20079007284E+01  0.50678248668E+01  0.51100000000E-03 0. -1.
        -11    1    3    3    0    0 -0.19251780873E+02 -0.20925114951E+01  0.40944775868E+01  0.19793292250E+02  0.51100000000E-03 0.  1.
        -12    1    3    3    0    0 -0.21187114767E+02 -0.62629952766E+00 -0.18982794698E+01  0.21281201756E+02  0.00000000000E+00 0.  1.
</event>
<event>
 7    1  0.1485408E-008  0.4614232E+02  0.7816164E-02  0.1320468E+00
        -11   -1    0    0    0    0  0.00000000000E+00  0.00000000000E+00  0.45593999997E+02  0.45594000000E+02  0.51100000000E-03 0.  1.
         11   -1    0    0    0    0 -0.00000000000E+00 -0.00000000000E+00 -0.45593999997E+02  0.45594000000E+02  0.51100000000E-03 0. -1.
    9900012    2    1    2    0    0 -0.13981317616E+02  0.13875950593E+02  0.40510420996E+02  0.46142318116E+02  0.10000003233E+02 0.  0.
         12    1    1    2    0    0  0.13981317616E+02 -0.13875950593E+02 -0.40510420996E+02  0.45045681884E+02  0.00000000000E+00 0. -1.
         11    1    3    3    0    0 -0.13542322460E+01  0.54310975088E+00  0.38554330501E+01  0.41222903151E+01  0.51100000000E-03 0. -1.
        -11    1    3    3    0    0 -0.61611186472E+01  0.34937768882E+01  0.63657962780E+01  0.95230889129E+01  0.51100000000E-03 0.  1.
        -12    1    3    3    0    0 -0.64659667229E+01  0.98390639540E+01  0.30289191668E+02  0.32496938888E+02  0.00000000000E+00 0.  1.
</event>
<event>
 7    1  0.1485408E-008  0.4614232E+02  0.7816164E-02  0.1320468E+00
        -11   -1    0    0    0    0  0.00000000000E+00  0.00000000000E+00  0.45593999997E+02  0.45594000000E+02  0.51100000000E-03 0.  1.
         11   -1    0    0    0    0 -0.00000000000E+00 -0.00000000000E+00 -0.45593999997E+02  0.45594000000E+02  0.51100000000E-03 0. -1.
    9900012    2    1    2    0    0 -0.29292536960E+02  0.77786438566E+01  0.33324970355E+02  0.46142315734E+02  0.99999815182E+01 0.  0.
         12    1    1    2    0    0  0.29292536960E+02 -0.77786438566E+01 -0.33324970355E+02  0.45045684266E+02  0.00000000000E+00 0. -1.
         11    1    3    3    0    0 -0.25369132310E+01  0.36280487464E+01  0.62316995169E+01  0.76441314470E+01  0.51100000000E-03 0. -1.
        -11    1    3    3    0    0 -0.94776038107E+01  0.23069741833E+01  0.12143857924E+02  0.15576276494E+02  0.51100000000E-03 0.  1.
         12    1    3    3    0    0 -0.17278019918E+02  0.18436209268E+01  0.14949412915E+02  0.22921907794E+02  0.00000000000E+00 0. -1.
</event>
<event>
 7    1  0.1485408E-008  0.4614232E+02  0.7816164E-02  0.1320468E+00
        -11   -1    0    0    0    0  0.00000000000E+00  0.00000000000E+00  0.45593999997E+02  0.45594000000E+02  0.51100000000E-03 0.  1.
         11   -1    0    0    0    0 -0.00000000000E+00 -0.00000000000E+00 -0.45593999997E+02  0.45594000000E+02  0.51100000000E-03 0. -1.
    9900012    2    1    2    0    0 -0.43474260706E+02  0.99311872976E+01  0.63618927166E+01  0.46142317587E+02  0.99999984168E+01 0.  0.
         12    1    1    2    0    0  0.43474260706E+02 -0.99311872976E+01 -0.63618927166E+01  0.45045682413E+02  0.00000000000E+00 0. -1.
         11    1    3    3    0    0 -0.13658375779E+02  0.16072749431E+01 -0.87189803964E+00  0.13780231061E+02  0.51100000000E-03 0. -1.
        -11    1    3    3    0    0  0.12146406541E+00 -0.34569863730E+00  0.82473930460E-03  0.36641780570E+00  0.51100000000E-03 0.  1.
        -12    1    3    3    0    0 -0.29937348993E+02  0.86696109917E+01  0.72329660169E+01  0.31995668721E+02  0.00000000000E+00 0.  1.
</event>
<event>
 7    1  0.1485408E-008  0.4614232E+02  0.7816164E-02  0.1320468E+00
        -11   -1    0    0    0    0  0.00000000000E+00  0.00000000000E+00  0.45593999997E+02  0.45594000000E+02  0.51100000000E-03 0. -1.
         11   -1    0    0    0    0 -0.00000000000E+00 -0.00000000000E+00 -0.45593999997E+02  0.45594000000E+02  0.51100000000E-03 0.  1.
    9900012    2    1    2    0    0  0.23237624085E+02  0.11984322499E+02 -0.36681089059E+02  0.46142318149E+02  0.10000003536E+02 0.  0.
         12    1    1    2    0    0 -0.23237624085E+02 -0.11984322499E+02  0.36681089059E+02  0.45045681851E+02  0.00000000000E+00 0. -1.
         11    1    3    3    0    0  0.60240974810E+01  0.56464839981E+01 -0.11608093722E+02  0.14245012184E+02  0.51100000000E-03 0. -1.
        -11    1    3    3    0    0  0.17744782780E+02  0.67389513571E+01 -0.23640672460E+02  0.30317852429E+02  0.51100000000E-03 0.  1.
        -12    1    3    3    0    0 -0.53125617548E+00 -0.40111285653E+00 -0.14323228772E+01  0.15794535360E+01  0.00000000000E+00 0.  1.
</event>
<event>
 7    1  0.1485408E-008  0.4614232E+02  0.7816164E-02  0.1320468E+00
        -11   -1    0    0    0    0  0.00000000000E+00  0.00000000000E+00  0.45593999997E+02  0.45594000000E+02  0.51100000000E-03 0. -1.
         11   -1    0    0    0    0 -0.00000000000E+00 -0.00000000000E+00 -0.45593999997E+02  0.45594000000E+02  0.51100000000E-03 0.  1.
    9900012    2    1    2    0    0  0.18784265060E+02  0.40837961949E+02 -0.29198763731E+01  0.46142318431E+02  0.10000006108E+02 0.  0.
         12    1    1    2    0    0 -0.18784265060E+02 -0.40837961949E+02  0.29198763731E+01  0.45045681569E+02  0.00000000000E+00 0. -1.
         11    1    3    3    0    0  0.81110096884E+01  0.10456384719E+02  0.19373089264E+00  0.13234877842E+02  0.51100000000E-03 0. -1.
        -11    1    3    3    0    0  0.77816053971E+01  0.13311972298E+02 -0.21395267868E+01  0.15567259366E+02  0.51100000000E-03 0.  1.
         12    1    3    3    0    0  0.28916499749E+01  0.17069604931E+02 -0.97408047893E+00  0.17340181224E+02  0.00000000000E+00 0. -1.
</event>
<event>
 7    1  0.1485408E-008  0.4614232E+02  0.7816164E-02  0.1320468E+00
        -11   -1    0    0    0    0  0.00000000000E+00  0.00000000000E+00  0.45593999997E+02  0.45594000000E+02  0.51100000000E-03 0.  1.
         11   -1    0    0    0    0 -0.00000000000E+00 -0.00000000000E+00 -0.45593999997E+02  0.45594000000E+02  0.51100000000E-03 0. -1.
    9900012    2    1    2    0    0  0.29294734218E+02  0.27975487636E+02  0.19705429322E+02  0.46142319784E+02  0.10000018446E+02 0.  0.
         12    1    1    2    0    0 -0.29294734218E+02 -0.27975487636E+02 -0.19705429322E+02  0.45045680216E+02  0.00000000000E+00 0. -1.
         11    1    3    3    0    0  0.32941377915E+01  0.49170108164E+01 -0.10867549502E+00  0.59194720864E+01  0.51100000000E-03 0. -1.
        -11    1    3    3    0    0  0.14560887244E+02  0.10483199004E+02  0.11367322434E+02  0.21239889789E+02  0.51100000000E-03 0.  1.
         12    1    3    3    0    0  0.11439709183E+02  0.12575277816E+02  0.84467823831E+01  0.18982957909E+02  0.00000000000E+00 0. -1.
</event>
<event>
 7    1  0.1485408E-008  0.4614231E+02  0.7816164E-02  0.1320468E+00
        -11   -1    0    0    0    0  0.00000000000E+00  0.00000000000E+00  0.45593999997E+02  0.45594000000E+02  0.51100000000E-03 0. -1.
         11   -1    0    0    0    0 -0.00000000000E+00 -0.00000000000E+00 -0.45593999997E+02  0.45594000000E+02  0.51100000000E-03 0.  1.
    9900012    2    1    2    0    0 -0.28669772459E+02  0.72070625622E+01 -0.33988470916E+02  0.46142314760E+02  0.99999726290E+01 0.  0.
         12    1    1    2    0    0  0.28669772459E+02 -0.72070625622E+01  0.33988470916E+02  0.45045685240E+02  0.00000000000E+00 0. -1.
         11    1    3    3    0    0 -0.22199674019E+02  0.32657445753E+01 -0.21606618238E+02  0.31150225779E+02  0.51100000000E-03 0. -1.
        -11    1    3    3    0    0 -0.22591242274E+01  0.31837364364E+00 -0.65592066786E+01  0.69446523718E+01  0.51100000000E-03 0.  1.
        -12    1    3    3    0    0 -0.42109742122E+01  0.36229443432E+01 -0.58226459996E+01  0.80474366084E+01  0.00000000000E+00 0.  1.
</event>
<event>
 7    1  0.1485408E-008  0.4614232E+02  0.7816164E-02  0.1320468E+00
        -11   -1    0    0    0    0  0.00000000000E+00  0.00000000000E+00  0.45593999997E+02  0.45594000000E+02  0.51100000000E-03 0.  1.
         11   -1    0    0    0    0 -0.00000000000E+00 -0.00000000000E+00 -0.45593999997E+02  0.45594000000E+02  0.51100000000E-03 0. -1.
    9900012    2    1    2    0    0 -0.98743562136E+01 -0.28742071130E+02  0.33249118464E+02  0.46142318274E+02  0.10000004679E+02 0.  0.
         12    1    1    2    0    0  0.98743562136E+01  0.28742071130E+02 -0.33249118464E+02  0.45045681726E+02  0.00000000000E+00 0. -1.
         11    1    3    3    0    0  0.81390483035E+00 -0.15399521476E+01  0.86325930832E+00  0.19439934630E+01  0.51100000000E-03 0. -1.
        -11    1    3    3    0    0 -0.14506826751E+01 -0.44453607819E+01  0.96809463917E+01  0.10751113245E+02  0.51100000000E-03 0.  1.
        -12    1    3    3    0    0 -0.92375783688E+01 -0.22756758201E+02  0.22704912764E+02  0.33447211566E+02  0.00000000000E+00 0.  1.
</event>
<event>
 7    1  0.1485408E-008  0.4614232E+02  0.7816164E-02  0.1320468E+00
        -11   -1    0    0    0    0  0.00000000000E+00  0.00000000000E+00  0.45593999997E+02  0.45594000000E+02  0.51100000000E-03 0.  1.
         11   -1    0    0    0    0 -0.00000000000E+00 -0.00000000000E+00 -0.45593999997E+02  0.45594000000E+02  0.51100000000E-03 0. -1.
    9900012    2    1    2    0    0  0.22800045055E+02 -0.17737755158E+02  0.34563615058E+02  0.46142317649E+02  0.99999989790E+01 0.  0.
         12    1    1    2    0    0 -0.22800045055E+02  0.17737755158E+02 -0.34563615058E+02  0.45045682351E+02  0.00000000000E+00 0. -1.
         11    1    3    3    0    0  0.93657984233E+01 -0.13484864537E+02  0.19333217603E+02  0.25364011016E+02  0.51100000000E-03 0. -1.
        -11    1    3    3    0    0  0.99062680312E+01 -0.27869507315E+01  0.10570642167E+02  0.14752617285E+02  0.51100000000E-03 0.  1.
         12    1    3    3    0    0  0.35279786008E+01 -0.14659398897E+01  0.46597552880E+01  0.60256893474E+01  0.00000000000E+00 0. -1.
</event>
<event>
 7    1  0.1485408E-008  0.4614232E+02  0.7816164E-02  0.1320468E+00
        -11   -1    0    0    0    0  0.00000000000E+00  0.00000000000E+00  0.45593999997E+02  0.45594000000E+02  0.51100000000E-03 0.  1.
         11   -1    0    0    0    0 -0.00000000000E+00 -0.00000000000E+00 -0.45593999997E+02  0.45594000000E+02  0.51100000000E-03 0. -1.
    9900012    2    1    2    0    0  0.38229879525E+02 -0.21766414047E+02 -0.96857071083E+01  0.46142318840E+02  0.10000009840E+02 0.  0.
         12    1    1    2    0    0 -0.38229879525E+02  0.21766414047E+02  0.96857071083E+01  0.45045681160E+02  0.00000000000E+00 0. -1.
         11    1    3    3    0    0  0.25727813282E+01 -0.16740630373E+01 -0.32796118871E+01  0.44919422533E+01  0.51100000000E-03 0. -1.
        -11    1    3    3    0    0  0.27938569842E+02 -0.15354746289E+02 -0.67524730373E+01  0.32587233863E+02  0.51100000000E-03 0.  1.
         12    1    3    3    0    0  0.77185283545E+01 -0.47376047206E+01  0.34637781616E+00  0.90631427242E+01  0.00000000000E+00 0. -1.
</event>
<event>
 7    1  0.1485408E-008  0.4614232E+02  0.7816164E-02  0.1320468E+00
        -11   -1    0    0    0    0  0.00000000000E+00  0.00000000000E+00  0.45593999997E+02  0.45594000000E+02  0.51100000000E-03 0. -1.
         11   -1    0    0    0    0 -0.00000000000E+00 -0.00000000000E+00 -0.45593999997E+02  0.45594000000E+02  0.51100000000E-03 0.  1.
    9900012    2    1    2    0    0 -0.31573737652E+02 -0.30326883252E+02 -0.10606259391E+02  0.46142317683E+02  0.99999992900E+01 0.  0.
         12    1    1    2    0    0  0.31573737652E+02  0.30326883252E+02  0.10606259391E+02  0.45045682317E+02  0.00000000000E+00 0. -1.
         11    1    3    3    0    0 -0.77176578534E+01 -0.39583999132E+01  0.41343818427E-02  0.86735915266E+01  0.51100000000E-03 0. -1.
        -11    1    3    3    0    0 -0.20075991847E+02 -0.24574924151E+02 -0.89877162088E+01  0.32981076219E+02  0.51100000000E-03 0.  1.
        -12    1    3    3    0    0 -0.37800879517E+01 -0.17935591877E+01 -0.16226775642E+01  0.44876499373E+01  0.00000000000E+00 0.  1.
</event>
<event>
 7    1  0.1485408E-008  0.4614232E+02  0.7816164E-02  0.1320468E+00
        -11   -1    0    0    0    0  0.00000000000E+00  0.00000000000E+00  0.45593999997E+02  0.45594000000E+02  0.51100000000E-03 0.  1.
         11   -1    0    0    0    0 -0.00000000000E+00 -0.00000000000E+00 -0.45593999997E+02  0.45594000000E+02  0.51100000000E-03 0. -1.
    9900012    2    1    2    0    0 -0.35730325821E+02 -0.22419076211E+02  0.15806400420E+02  0.46142318125E+02  0.10000003314E+02 0.  0.
         12    1    1    2    0    0  0.35730325821E+02  0.22419076211E+02 -0.15806400420E+02  0.45045681875E+02  0.00000000000E+00 0. -1.
         11    1    3    3    0    0 -0.57468471004E+01 -0.62852961859E+01  0.49954385702E+01  0.98734799595E+01  0.51100000000E-03 0. -1.
        -11    1    3    3    0    0 -0.71733856596E+01 -0.45331086210E+01  0.55604790612E+01  0.10145218738E+02  0.51100000000E-03 0.  1.
         12    1    3    3    0    0 -0.22810093061E+02 -0.11600671404E+02  0.52504827884E+01  0.26123619427E+02  0.00000000000E+00 0. -1.
</event>
<event>
 7    1  0.1485408E-008  0.4614232E+02  0.7816164E-02  0.1320468E+00
        -11   -1    0    0    0    0  0.00000000000E+00  0.00000000000E+00  0.45593999997E+02  0.45594000000E+02  0.51100000000E-03 0. -1.
         11   -1    0    0    0    0 -0.00000000000E+00 -0.00000000000E+00 -0.45593999997E+02  0.45594000000E+02  0.51100000000E-03 0.  1.
    9900012    2    1    2    0    0  0.37074153650E+02 -0.22574434331E+02 -0.12042237383E+02  0.46142318349E+02  0.10000005357E+02 0.  0.
         12    1    1    2    0    0 -0.37074153650E+02  0.22574434331E+02  0.12042237383E+02  0.45045681651E+02  0.00000000000E+00 0. -1.
         11    1    3    3    0    0  0.16951316141E+02 -0.10768694146E+02 -0.21718181153E+01  0.20199719967E+02  0.51100000000E-03 0.  1.
        -11    1    3    3    0    0  0.55298239800E+00 -0.20171146159E+01 -0.11558915550E+01  0.23896917070E+01  0.51100000000E-03 0. -1.
        -12    1    3    3    0    0  0.19569855111E+02 -0.97886255689E+01 -0.87145277125E+01  0.23552906675E+02  0.00000000000E+00 0.  1.
</event>
<event>
 7    1  0.1485408E-008  0.4614232E+02  0.7816164E-02  0.1320468E+00
        -11   -1    0    0    0    0  0.00000000000E+00  0.00000000000E+00  0.45593999997E+02  0.45594000000E+02  0.51100000000E-03 0.  1.
         11   -1    0    0    0    0 -0.00000000000E+00 -0.00000000000E+00 -0.45593999997E+02  0.45594000000E+02  0.51100000000E-03 0. -1.
    9900012    2    1    2    0    0 -0.31292637461E+02 -0.30603644275E+02  0.10644305820E+02  0.46142318203E+02  0.10000004032E+02 0.  0.
         12    1    1    2    0    0  0.31292637461E+02  0.30603644275E+02 -0.10644305820E+02  0.45045681797E+02  0.00000000000E+00 0. -1.
         11    1    3    3    0    0 -0.18434993627E+01 -0.49948102942E+01 -0.60189913535E+00  0.53580689250E+01  0.51100000000E-03 0. -1.
        -11    1    3    3    0    0 -0.88054617015E+01 -0.73938453882E+01  0.50856990935E+01  0.12572566999E+02  0.51100000000E-03 0.  1.
         12    1    3    3    0    0 -0.20643676396E+02 -0.18214988592E+02  0.61605058619E+01  0.28211682280E+02  0.00000000000E+00 0. -1.
</event>
<event>
 7    1  0.1485408E-008  0.4614232E+02  0.7816164E-02  0.1320468E+00
        -11   -1    0    0    0    0  0.00000000000E+00  0.00000000000E+00  0.45593999997E+02  0.45594000000E+02  0.51100000000E-03 0. -1.
         11   -1    0    0    0    0 -0.00000000000E+00 -0.00000000000E+00 -0.45593999997E+02  0.45594000000E+02  0.51100000000E-03 0.  1.
    9900012    2    1    2    0    0  0.22101412354E+02 -0.38351181034E+02 -0.83563143539E+01  0.46142317584E+02  0.99999983874E+01 0.  0.
         12    1    1    2    0    0 -0.22101412354E+02  0.38351181034E+02  0.83563143539E+01  0.45045682416E+02  0.00000000000E+00 0. -1.
         11    1    3    3    0    0  0.56279009632E+01 -0.77005561662E+01  0.33579762894E+00  0.95438249580E+01  0.51100000000E-03 0. -1.
        -11    1    3    3    0    0  0.51425908254E+01 -0.15932065788E+02 -0.20257140945E+01  0.16863584391E+02  0.51100000000E-03 0.  1.
         12    1    3    3    0    0  0.11330920565E+02 -0.14718559079E+02 -0.66663978883E+01  0.19734908235E+02  0.00000000000E+00 0. -1.
</event>
<event>
 7    1  0.1485408E-008  0.4614232E+02  0.7816164E-02  0.1320468E+00
        -11   -1    0    0    0    0  0.00000000000E+00  0.00000000000E+00  0.45593999997E+02  0.45594000000E+02  0.51100000000E-03 0.  1.
         11   -1    0    0    0    0 -0.00000000000E+00 -0.00000000000E+00 -0.45593999997E+02  0.45594000000E+02  0.51100000000E-03 0. -1.
    9900012    2    1    2    0    0 -0.34232289151E+01 -0.38209448161E+02 -0.23610017521E+02  0.46142319271E+02  0.10000013772E+02 0.  0.
         12    1    1    2    0    0  0.34232289151E+01  0.38209448161E+02  0.23610017521E+02  0.45045680729E+02  0.00000000000E+00 0. -1.
         11    1    3    3    0    0  0.21668414907E+00 -0.22378619948E+01 -0.39187066457E+01  0.45178800742E+01  0.51100000000E-03 0. -1.
        -11    1    3    3    0    0 -0.37393534479E+01 -0.26721753279E+02 -0.17361643656E+02  0.32085222973E+02  0.51100000000E-03 0.  1.
         12    1    3    3    0    0  0.99440383703E-01 -0.92498328863E+01 -0.23296672199E+01  0.95392162241E+01  0.00000000000E+00 0. -1.
</event>
<event>
 7    1  0.1485408E-008  0.4614232E+02  0.7816164E-02  0.1320468E+00
        -11   -1    0    0    0    0  0.00000000000E+00  0.00000000000E+00  0.45593999997E+02  0.45594000000E+02  0.51100000000E-03 0.  1.
         11   -1    0    0    0    0 -0.00000000000E+00 -0.00000000000E+00 -0.45593999997E+02  0.45594000000E+02  0.51100000000E-03 0. -1.
    9900012    2    1    2    0    0  0.44246349962E+02  0.57862667087E+01  0.61557325360E+01  0.46142318626E+02  0.10000007884E+02 0.  0.
         12    1    1    2    0    0 -0.44246349962E+02 -0.57862667087E+01 -0.61557325360E+01  0.45045681374E+02  0.00000000000E+00 0. -1.
         11    1    3    3    0    0  0.41121389834E+00  0.39362143736E+00  0.16082861591E+01  0.17060537321E+01  0.51100000000E-03 0. -1.
        -11    1    3    3    0    0  0.40472097568E+02  0.53665990404E+01  0.44913396609E+01  0.41072657560E+02  0.51100000000E-03 0.  1.
        -12    1    3    3    0    0  0.33630384963E+01  0.26046230996E-01  0.56106716008E-01  0.33636073340E+01  0.00000000000E+00 0.  1.
</event>
<event>
 7    1  0.1485408E-008  0.4614232E+02  0.7816164E-02  0.1320468E+00
        -11   -1    0    0    0    0  0.00000000000E+00  0.00000000000E+00  0.45593999997E+02  0.45594000000E+02  0.51100000000E-03 0. -1.
         11   -1    0    0    0    0 -0.00000000000E+00 -0.00000000000E+00 -0.45593999997E+02  0.45594000000E+02  0.51100000000E-03 0.  1.
    9900012    2    1    2    0    0  0.37094237560E+02  0.12023021118E+02 -0.22551672362E+02  0.46142318483E+02  0.10000006587E+02 0.  0.
         12    1    1    2    0    0 -0.37094237560E+02 -0.12023021118E+02  0.22551672362E+02  0.45045681517E+02  0.00000000000E+00 0. -1.
         11    1    3    3    0    0  0.96579595572E+01  0.50924925096E+01 -0.33571778790E+01  0.11422797658E+02  0.51100000000E-03 0. -1.
        -11    1    3    3    0    0  0.27047720631E+02  0.58149806819E+01 -0.17824533804E+02  0.32910593997E+02  0.51100000000E-03 0.  1.
        -12    1    3    3    0    0  0.38855737227E+00  0.11155479262E+01 -0.13699606791E+01  0.18089268281E+01  0.00000000000E+00 0.  1.
</event>
<event>
 7    1  0.1485408E-008  0.4614232E+02  0.7816164E-02  0.1320468E+00
        -11   -1    0    0    0    0  0.00000000000E+00  0.00000000000E+00  0.45593999997E+02  0.45594000000E+02  0.51100000000E-03 0.  1.
         11   -1    0    0    0    0 -0.00000000000E+00 -0.00000000000E+00 -0.45593999997E+02  0.45594000000E+02  0.51100000000E-03 0. -1.
    9900012    2    1    2    0    0 -0.14550772107E+02 -0.19559097521E+02  0.37879152297E+02  0.46142318259E+02  0.10000004540E+02 0.  0.
         12    1    1    2    0    0  0.14550772107E+02  0.19559097521E+02 -0.37879152297E+02  0.45045681741E+02  0.00000000000E+00 0. -1.
         11    1    3    3    0    0 -0.45007341724E+01 -0.67873789009E+01  0.61037907883E+01  0.10177493929E+02  0.51100000000E-03 0. -1.
        -11    1    3    3    0    0 -0.71860482838E+01 -0.73096992279E+01  0.15730806308E+02  0.18775762570E+02  0.51100000000E-03 0.  1.
         12    1    3    3    0    0 -0.28639896513E+01 -0.54620193918E+01  0.16044555201E+02  0.17189061759E+02  0.00000000000E+00 0. -1.
</event>
<event>
 7    1  0.1485408E-008  0.4614232E+02  0.7816164E-02  0.1320468E+00
        -11   -1    0    0    0    0  0.00000000000E+00  0.00000000000E+00  0.45593999997E+02  0.45594000000E+02  0.51100000000E-03 0.  1.
         11   -1    0    0    0    0 -0.00000000000E+00 -0.00000000000E+00 -0.45593999997E+02  0.45594000000E+02  0.51100000000E-03 0. -1.
    9900012    2    1    2    0    0  0.31090169409E+01 -0.44911291372E+02 -0.15567223380E+01  0.46142318037E+02  0.10000002519E+02 0.  0.
         12    1    1    2    0    0 -0.31090169409E+01  0.44911291372E+02  0.15567223380E+01  0.45045681963E+02  0.00000000000E+00 0. -1.
         11    1    3    3    0    0  0.16731118103E+01 -0.13591667998E+02  0.15507934362E+01  0.13781788805E+02  0.51100000000E-03 0. -1.
        -11    1    3    3    0    0  0.20552323238E+01 -0.25079797146E+02  0.41714024868E+00  0.25167324272E+02  0.51100000000E-03 0.  1.
         12    1    3    3    0    0 -0.61932719314E+00 -0.62398262277E+01 -0.35246560229E+01  0.71932049605E+01  0.00000000000E+00 0. -1.
</event>
<event>
 7    1  0.1485408E-008  0.4614232E+02  0.7816164E-02  0.1320468E+00
        -11   -1    0    0    0    0  0.00000000000E+00  0.00000000000E+00  0.45593999997E+02  0.45594000000E+02  0.51100000000E-03 0. -1.
         11   -1    0    0    0    0 -0.00000000000E+00 -0.00000000000E+00 -0.45593999997E+02  0.45594000000E+02  0.51100000000E-03 0.  1.
    9900012    2    1    2    0    0  0.52636206599E+00  0.32043836060E+02 -0.31654832401E+02  0.46142324283E+02  0.10000059475E+02 0.  0.
         12    1    1    2    0    0 -0.52636206599E+00 -0.32043836060E+02  0.31654832401E+02  0.45045675717E+02  0.00000000000E+00 0. -1.
         11    1    3    3    0    0  0.14641529519E+01  0.10265483528E+02 -0.50922260824E+01  0.11552257903E+02  0.51100000000E-03 0. -1.
        -11    1    3    3    0    0 -0.43332286558E-01  0.20903338726E+02 -0.24964292654E+02  0.32560211234E+02  0.51100000000E-03 0.  1.
         12    1    3    3    0    0 -0.89445859933E+00  0.87501380517E+00 -0.15983136645E+01  0.20298551463E+01  0.00000000000E+00 0. -1.
</event>
<event>
 7    1  0.1485408E-008  0.4614232E+02  0.7816164E-02  0.1320468E+00
        -11   -1    0    0    0    0  0.00000000000E+00  0.00000000000E+00  0.45593999997E+02  0.45594000000E+02  0.51100000000E-03 0.  1.
         11   -1    0    0    0    0 -0.00000000000E+00 -0.00000000000E+00 -0.45593999997E+02  0.45594000000E+02  0.51100000000E-03 0. -1.
    9900012    2    1    2    0    0 -0.20748684586E+02  0.39286384066E+02 -0.74287051269E+01  0.46142317134E+02  0.99999942792E+01 0.  0.
         12    1    1    2    0    0  0.20748684586E+02 -0.39286384066E+02  0.74287051269E+01  0.45045682866E+02  0.00000000000E+00 0. -1.
         11    1    3    3    0    0 -0.19165153754E+02  0.35065576157E+02 -0.82968027400E+01  0.40813413060E+02  0.51100000000E-03 0. -1.
        -11    1    3    3    0    0  0.17987441233E+00  0.26645116967E+01 -0.32737848056E+00  0.26905676570E+01  0.51100000000E-03 0.  1.
         12    1    3    3    0    0 -0.17634052451E+01  0.15562962117E+01  0.11954760937E+01  0.26383364167E+01  0.00000000000E+00 0. -1.
</event>
<event>
 7    1  0.1485408E-008  0.4614232E+02  0.7816164E-02  0.1320468E+00
        -11   -1    0    0    0    0  0.00000000000E+00  0.00000000000E+00  0.45593999997E+02  0.45594000000E+02  0.51100000000E-03 0.  1.
         11   -1    0    0    0    0 -0.00000000000E+00 -0.00000000000E+00 -0.45593999997E+02  0.45594000000E+02  0.51100000000E-03 0. -1.
    9900012    2    1    2    0    0 -0.22088297319E+02  0.28626574212E+02  0.26865216099E+02  0.46142318013E+02  0.10000002300E+02 0.  0.
         12    1    1    2    0    0  0.22088297319E+02 -0.28626574212E+02 -0.26865216099E+02  0.45045681987E+02  0.00000000000E+00 0. -1.
         11    1    3    3    0    0 -0.33165823663E+01  0.67292402374E+01  0.18424872020E+01  0.77250988418E+01  0.51100000000E-03 0. -1.
        -11    1    3    3    0    0 -0.16270450576E+01  0.23389060168E+01  0.43181084530E+01  0.51733758657E+01  0.51100000000E-03 0.  1.
         12    1    3    3    0    0 -0.17144669895E+02  0.19558427958E+02  0.20704620444E+02  0.33243843306E+02  0.00000000000E+00 0. -1.
</event>
<event>
 7    1  0.1485408E-008  0.4614232E+02  0.7816164E-02  0.1320468E+00
        -11   -1    0    0    0    0  0.00000000000E+00  0.00000000000E+00  0.45593999997E+02  0.45594000000E+02  0.51100000000E-03 0.  1.
         11   -1    0    0    0    0 -0.00000000000E+00 -0.00000000000E+00 -0.45593999997E+02  0.45594000000E+02  0.51100000000E-03 0. -1.
    9900012    2    1    2    0    0 -0.24587599343E+00  0.14135915244E+02  0.42769486679E+02  0.46142317126E+02  0.99999942075E+01 0.  0.
         12    1    1    2    0    0  0.24587599343E+00 -0.14135915244E+02 -0.42769486679E+02  0.45045682874E+02  0.00000000000E+00 0. -1.
         11    1    3    3    0    0 -0.30087613843E+01  0.60573092478E+01  0.24734167990E+02  0.25642205576E+02  0.51100000000E-03 0. -1.
        -11    1    3    3    0    0  0.10259105344E+01 -0.30384128916E+00  0.31748974967E+01  0.33503412258E+01  0.51100000000E-03 0.  1.
         12    1    3    3    0    0  0.17369748565E+01  0.83824472853E+01  0.14860421192E+02  0.17149770324E+02  0.00000000000E+00 0. -1.
</event>
<event>
 7    1  0.1485408E-008  0.4614231E+02  0.7816164E-02  0.1320468E+00
        -11   -1    0    0    0    0  0.00000000000E+00  0.00000000000E+00  0.45593999997E+02  0.45594000000E+02  0.51100000000E-03 0. -1.
         11   -1    0    0    0    0 -0.00000000000E+00 -0.00000000000E+00 -0.45593999997E+02  0.45594000000E+02  0.51100000000E-03 0.  1.
    9900012    2    1    2    0    0 -0.18519345252E+02  0.15312554097E+02 -0.38100837444E+02  0.46142309024E+02  0.99999203317E+01 0.  0.
         12    1    1    2    0    0  0.18519345252E+02 -0.15312554097E+02  0.38100837444E+02  0.45045690976E+02  0.00000000000E+00 0. -1.
         11    1    3    3    0    0 -0.41356624461E+01  0.73052813161E+01 -0.83482841833E+01  0.11839116861E+02  0.51100000000E-03 0. -1.
        -11    1    3    3    0    0 -0.77092050350E+01  0.42347782307E+01 -0.20360821292E+02  0.22179455198E+02  0.51100000000E-03 0.  1.
         12    1    3    3    0    0 -0.66744777705E+01  0.37724945502E+01 -0.93917319693E+01  0.12123736966E+02  0.00000000000E+00 0. -1.
</event>
<event>
 7    1  0.1485408E-008  0.4614232E+02  0.7816164E-02  0.1320468E+00
        -11   -1    0    0    0    0  0.00000000000E+00  0.00000000000E+00  0.45593999997E+02  0.45594000000E+02  0.51100000000E-03 0.  1.
         11   -1    0    0    0    0 -0.00000000000E+00 -0.00000000000E+00 -0.45593999997E+02  0.45594000000E+02  0.51100000000E-03 0. -1.
    9900012    2    1    2    0    0  0.22555495779E+02  0.32781303665E+02  0.21112773360E+02  0.46142318090E+02  0.10000002996E+02 0.  0.
         12    1    1    2    0    0 -0.22555495779E+02 -0.32781303665E+02 -0.21112773360E+02  0.45045681910E+02  0.00000000000E+00 0. -1.
         11    1    3    3    0    0  0.14929980200E+02  0.20149549672E+02  0.12599430930E+02  0.28065179864E+02  0.51100000000E-03 0. -1.
        -11    1    3    3    0    0  0.69192523791E+01  0.82155591717E+01  0.83446558073E+01  0.13601645003E+02  0.51100000000E-03 0.  1.
         12    1    3    3    0    0  0.70626320014E+00  0.44161948218E+01  0.16868662183E+00  0.44754932229E+01  0.00000000000E+00 0. -1.
</event>
<event>
 7    1  0.1485408E-008  0.4614233E+02  0.7816164E-02  0.1320468E+00
        -11   -1    0    0    0    0  0.00000000000E+00  0.00000000000E+00  0.45593999997E+02  0.45594000000E+02  0.51100000000E-03 0. -1.
         11   -1    0    0    0    0 -0.00000000000E+00 -0.00000000000E+00 -0.45593999997E+02  0.45594000000E+02  0.51100000000E-03 0.  1.
    9900012    2    1    2    0    0 -0.24704366348E+02  0.37055325041E+02  0.67609083206E+01  0.46142326380E+02  0.10000078597E+02 0.  0.
         12    1    1    2    0    0  0.24704366348E+02 -0.37055325041E+02 -0.67609083206E+01  0.45045673620E+02  0.00000000000E+00 0. -1.
         11    1    3    3    0    0 -0.35411476552E+00  0.41577470974E+01 -0.52575782151E+00  0.42057912146E+01  0.51100000000E-03 0. -1.
        -11    1    3    3    0    0 -0.22763623461E+02  0.27644345944E+02  0.63900190889E+01  0.36376156476E+02  0.51100000000E-03 0.  1.
        -12    1    3    3    0    0 -0.15866281212E+01  0.52532319999E+01  0.89664705330E+00  0.55603786901E+01  0.00000000000E+00 0.  1.
</event>
<event>
 7    1  0.1584375E-008  0.4614232E+02  0.7816164E-02  0.1320468E+00
        -11   -1    0    0    0    0  0.00000000000E+00  0.00000000000E+00  0.45593999997E+02  0.45594000000E+02  0.51100000000E-03 0. -1.
         11   -1    0    0    0    0 -0.00000000000E+00 -0.00000000000E+00 -0.45593999997E+02  0.45594000000E+02  0.51100000000E-03 0.  1.
    9900012    2    1    2    0    0  0.55655005020E+01  0.44516981509E+02 -0.40468571840E+01  0.46142317726E+02  0.99999996783E+01 0.  0.
         12    1    1    2    0    0 -0.55655005020E+01 -0.44516981509E+02  0.40468571840E+01  0.45045682274E+02  0.00000000000E+00 0. -1.
         11    1    3    3    0    0  0.10046777199E+01 -0.97817734038E-01 -0.33763059795E-01  0.10099929877E+01  0.51100000000E-03 0. -1.
        -11    1    3    3    0    0  0.49733816819E+01  0.39567778946E+02 -0.32504275680E+01  0.40011360084E+02  0.51100000000E-03 0.  1.
         12    1    3    3    0    0 -0.41255889971E+00  0.50470202964E+01 -0.76266655623E+00  0.51209646546E+01  0.00000000000E+00 0. -1.
</event>
<event>
 7    1  0.1485408E-008  0.4614232E+02  0.7816164E-02  0.1320468E+00
        -11   -1    0    0    0    0  0.00000000000E+00  0.00000000000E+00  0.45593999997E+02  0.45594000000E+02  0.51100000000E-03 0.  1.
         11   -1    0    0    0    0 -0.00000000000E+00 -0.00000000000E+00 -0.45593999997E+02  0.45594000000E+02  0.51100000000E-03 0. -1.
    9900012    2    1    2    0    0 -0.36021546341E+01 -0.16500773110E+02  0.41759578181E+02  0.46142318730E+02  0.10000008838E+02 0.  0.
         12    1    1    2    0    0  0.36021546341E+01  0.16500773110E+02 -0.41759578181E+02  0.45045681270E+02  0.00000000000E+00 0. -1.
         11    1    3    3    0    0 -0.11981453625E+01  0.69811247580E+00  0.81764079088E+00  0.16097981435E+01  0.51100000000E-03 0. -1.
        -11    1    3    3    0    0 -0.20534311166E+01 -0.11499174972E+02  0.29914052260E+02  0.32113830779E+02  0.51100000000E-03 0.  1.
         12    1    3    3    0    0 -0.35057815501E+00 -0.56997106139E+01  0.11027885129E+02  0.12418689808E+02  0.00000000000E+00 0. -1.
</event>
<event>
 7    1  0.1485408E-008  0.4614232E+02  0.7816164E-02  0.1320468E+00
        -11   -1    0    0    0    0  0.00000000000E+00  0.00000000000E+00  0.45593999997E+02  0.45594000000E+02  0.51100000000E-03 0.  1.
         11   -1    0    0    0    0 -0.00000000000E+00 -0.00000000000E+00 -0.45593999997E+02  0.45594000000E+02  0.51100000000E-03 0. -1.
    9900012    2    1    2    0    0  0.12166948969E+02  0.21268498636E+02  0.37798542882E+02  0.46142317350E+02  0.99999962512E+01 0.  0.
         12    1    1    2    0    0 -0.12166948969E+02 -0.21268498636E+02 -0.37798542882E+02  0.45045682650E+02  0.00000000000E+00 0. -1.
         11    1    3    3    0    0  0.28581629292E+01  0.13212442047E+02  0.22264327793E+02  0.26046842660E+02  0.51100000000E-03 0. -1.
        -11    1    3    3    0    0  0.70241755677E+01  0.40145827406E+01  0.10337390682E+02  0.13126978455E+02  0.51100000000E-03 0.  1.
         12    1    3    3    0    0  0.22846104718E+01  0.40414738483E+01  0.51968244065E+01  0.69684962357E+01  0.00000000000E+00 0. -1.
</event>
<event>
 7    1  0.1485408E-008  0.4614232E+02  0.7816164E-02  0.1320468E+00
        -11   -1    0    0    0    0  0.00000000000E+00  0.00000000000E+00  0.45593999997E+02  0.45594000000E+02  0.51100000000E-03 0.  1.
         11   -1    0    0    0    0 -0.00000000000E+00 -0.00000000000E+00 -0.45593999997E+02  0.45594000000E+02  0.51100000000E-03 0. -1.
    9900012    2    1    2    0    0 -0.50827121982E+01  0.28237191350E+02  0.34726655671E+02  0.46142317047E+02  0.99999934875E+01 0.  0.
         12    1    1    2    0    0  0.50827121982E+01 -0.28237191350E+02 -0.34726655671E+02  0.45045682953E+02  0.00000000000E+00 0. -1.
         11    1    3    3    0    0  0.10185045443E+00  0.17871909811E+01  0.42301930967E+01  0.45933603184E+01  0.51100000000E-03 0. -1.
        -11    1    3    3    0    0  0.65975895216E+00  0.11085825279E+02  0.16870261269E+02  0.20197438440E+02  0.51100000000E-03 0.  1.
        -12    1    3    3    0    0 -0.58443216048E+01  0.15364175090E+02  0.13626201305E+02  0.21351518288E+02  0.00000000000E+00 0.  1.
</event>
<event>
 7    1  0.1485408E-008  0.4614232E+02  0.7816164E-02  0.1320468E+00
        -11   -1    0    0    0    0  0.00000000000E+00  0.00000000000E+00  0.45593999997E+02  0.45594000000E+02  0.51100000000E-03 0.  1.
         11   -1    0    0    0    0 -0.00000000000E+00 -0.00000000000E+00 -0.45593999997E+02  0.45594000000E+02  0.51100000000E-03 0. -1.
    9900012    2    1    2    0    0  0.11377006415E+02 -0.30258373019E+02  0.31370498183E+02  0.46142316866E+02  0.99999918418E+01 0.  0.
         12    1    1    2    0    0 -0.11377006415E+02  0.30258373019E+02 -0.31370498183E+02  0.45045683134E+02  0.00000000000E+00 0. -1.
         11    1    3    3    0    0  0.19406951719E+01 -0.10796327066E+02  0.64061363397E+01  0.12702974413E+02  0.51100000000E-03 0. -1.
        -11    1    3    3    0    0  0.67592951229E+01 -0.88818575634E+01  0.14700873018E+02  0.18457820351E+02  0.51100000000E-03 0.  1.
        -12    1    3    3    0    0  0.26770161200E+01 -0.10580188390E+02  0.10263488825E+02  0.14981522103E+02  0.00000000000E+00 0.  1.
</event>
<event>
 7    1  0.1485408E-008  0.4614232E+02  0.7816164E-02  0.1320468E+00
        -11   -1    0    0    0    0  0.00000000000E+00  0.00000000000E+00  0.45593999997E+02  0.45594000000E+02  0.51100000000E-03 0.  1.
         11   -1    0    0    0    0 -0.00000000000E+00 -0.00000000000E+00 -0.45593999997E+02  0.45594000000E+02  0.51100000000E-03 0. -1.
    9900012    2    1    2    0    0 -0.27305170806E+02  0.28360016900E+02  0.21891789885E+02  0.46142319012E+02  0.10000011405E+02 0.  0.
         12    1    1    2    0    0  0.27305170806E+02 -0.28360016900E+02 -0.21891789885E+02  0.45045680988E+02  0.00000000000E+00 0. -1.
         11    1    3    3    0    0 -0.59294026532E+01  0.31715193792E+01  0.25059313553E+01  0.71760743596E+01  0.51100000000E-03 0. -1.
        -11    1    3    3    0    0 -0.11479294384E+02  0.10127576177E+02  0.12160094417E+02  0.19550189136E+02  0.51100000000E-03 0.  1.
        -12    1    3    3    0    0 -0.98964737690E+01  0.15060921344E+02  0.72257641126E+01  0.19416055516E+02  0.00000000000E+00 0.  1.
</event>
<event>
 7    1  0.1485408E-008  0.4614232E+02  0.7816164E-02  0.1320468E+00
        -11   -1    0    0    0    0  0.00000000000E+00  0.00000000000E+00  0.45593999997E+02  0.45594000000E+02  0.51100000000E-03 0.  1.
         11   -1    0    0    0    0 -0.00000000000E+00 -0.00000000000E+00 -0.45593999997E+02  0.45594000000E+02  0.51100000000E-03 0. -1.
    9900012    2    1    2    0    0  0.38685582337E+02 -0.61323194755E+01  0.22247108715E+02  0.46142317976E+02  0.10000001955E+02 0.  0.
         12    1    1    2    0    0 -0.38685582337E+02  0.61323194755E+01 -0.22247108715E+02  0.45045682024E+02  0.00000000000E+00 0. -1.
         11    1    3    3    0    0  0.22886508312E+02 -0.70636186939E+01  0.14277965775E+02  0.27884534759E+02  0.51100000000E-03 0.  1.
        -11    1    3    3    0    0  0.14957933073E+01  0.13043287806E+01  0.25019034137E+00  0.20003166385E+01  0.51100000000E-03 0. -1.
        -12    1    3    3    0    0  0.14303280717E+02 -0.37302956223E+00  0.77189525983E+01  0.16257466578E+02  0.00000000000E+00 0.  1.
</event>
<event>
 7    1  0.1485408E-008  0.4614232E+02  0.7816164E-02  0.1320468E+00
        -11   -1    0    0    0    0  0.00000000000E+00  0.00000000000E+00  0.45593999997E+02  0.45594000000E+02  0.51100000000E-03 0.  1.
         11   -1    0    0    0    0 -0.00000000000E+00 -0.00000000000E+00 -0.45593999997E+02  0.45594000000E+02  0.51100000000E-03 0. -1.
    9900012    2    1    2    0    0  0.29079404911E+02  0.89829867083E+01  0.33208548799E+02  0.46142317038E+02  0.99999934070E+01 0.  0.
         12    1    1    2    0    0 -0.29079404911E+02 -0.89829867083E+01 -0.33208548799E+02  0.45045682962E+02  0.00000000000E+00 0. -1.
         11    1    3    3    0    0 -0.64846020071E+00  0.24564973259E+00  0.52023210198E+00  0.86688299330E+00  0.51100000000E-03 0. -1.
        -11    1    3    3    0    0  0.18406301361E+02  0.46197462798E+01  0.16866687822E+02  0.25389350992E+02  0.51100000000E-03 0.  1.
        -12    1    3    3    0    0  0.11321563750E+02  0.41175906959E+01  0.15821628875E+02  0.19886083052E+02  0.00000000000E+00 0.  1.
</event>
<event>
 7    1  0.1485408E-008  0.4614232E+02  0.7816164E-02  0.1320468E+00
        -11   -1    0    0    0    0  0.00000000000E+00  0.00000000000E+00  0.45593999997E+02  0.45594000000E+02  0.51100000000E-03 0. -1.
         11   -1    0    0    0    0 -0.00000000000E+00 -0.00000000000E+00 -0.45593999997E+02  0.45594000000E+02  0.51100000000E-03 0.  1.
    9900012    2    1    2    0    0  0.11490656147E+02  0.38285653866E+02 -0.20767448339E+02  0.46142318951E+02  0.10000010853E+02 0.  0.
         12    1    1    2    0    0 -0.11490656147E+02 -0.38285653866E+02  0.20767448339E+02  0.45045681049E+02  0.00000000000E+00 0. -1.
         11    1    3    3    0    0 -0.98886271186E+00  0.22614253223E+01 -0.37947732084E+00  0.24971778570E+01  0.51100000000E-03 0. -1.
        -11    1    3    3    0    0  0.92384482798E+01  0.31650540158E+02 -0.18889719240E+02  0.37999040937E+02  0.51100000000E-03 0.  1.
        -12    1    3    3    0    0  0.32410705789E+01  0.43736883863E+01 -0.14982517773E+01  0.56461001573E+01  0.00000000000E+00 0.  1.
</event>
<event>
 7    1  0.1485408E-008  0.4614232E+02  0.7816164E-02  0.1320468E+00
        -11   -1    0    0    0    0  0.00000000000E+00  0.00000000000E+00  0.45593999997E+02  0.45594000000E+02  0.51100000000E-03 0.  1.
         11   -1    0    0    0    0 -0.00000000000E+00 -0.00000000000E+00 -0.45593999997E+02  0.45594000000E+02  0.51100000000E-03 0. -1.
    9900012    2    1    2    0    0 -0.28318548712E+02 -0.84496744157E+01  0.33996710368E+02  0.46142317468E+02  0.99999973284E+01 0.  0.
         12    1    1    2    0    0  0.28318548712E+02  0.84496744157E+01 -0.33996710368E+02  0.45045682532E+02  0.00000000000E+00 0. -1.
         11    1    3    3    0    0 -0.41096707585E+01 -0.28514183287E+00  0.77057888567E+00  0.41910012751E+01  0.51100000000E-03 0. -1.
        -11    1    3    3    0    0 -0.17915800797E+02 -0.68258880967E+01  0.25244703975E+02  0.31699585889E+02  0.51100000000E-03 0.  1.
        -12    1    3    3    0    0 -0.62930771565E+01 -0.13386444861E+01  0.79814275080E+01  0.10251730304E+02  0.00000000000E+00 0.  1.
</event>
<event>
 7    1  0.1485408E-008  0.4614231E+02  0.7816164E-02  0.1320468E+00
        -11   -1    0    0    0    0  0.00000000000E+00  0.00000000000E+00  0.45593999997E+02  0.45594000000E+02  0.51100000000E-03 0.  1.
         11   -1    0    0    0    0 -0.00000000000E+00 -0.00000000000E+00 -0.45593999997E+02  0.45594000000E+02  0.51100000000E-03 0. -1.
    9900012    2    1    2    0    0  0.33383092348E+02 -0.29401182293E+02 -0.70889684020E+01  0.46142313770E+02  0.99999636016E+01 0.  0.
         12    1    1    2    0    0 -0.33383092348E+02  0.29401182293E+02  0.70889684020E+01  0.45045686230E+02  0.00000000000E+00 0. -1.
         11    1    3    3    0    0  0.15073813142E+02 -0.94253440585E+01 -0.27266941507E+01  0.17985878197E+02  0.51100000000E-03 0. -1.
        -11    1    3    3    0    0  0.14791455081E+02 -0.19159630759E+02 -0.38367541558E+01  0.24507127064E+02  0.51100000000E-03 0.  1.
        -12    1    3    3    0    0  0.35178241257E+01 -0.81620747637E+00 -0.52552009541E+00  0.36493085091E+01  0.00000000000E+00 0.  1.
</event>
<event>
 7    1  0.1485408E-008  0.4614232E+02  0.7816164E-02  0.1320468E+00
        -11   -1    0    0    0    0  0.00000000000E+00  0.00000000000E+00  0.45593999997E+02  0.45594000000E+02  0.51100000000E-03 0. -1.
         11   -1    0    0    0    0 -0.00000000000E+00 -0.00000000000E+00 -0.45593999997E+02  0.45594000000E+02  0.51100000000E-03 0.  1.
    9900012    2    1    2    0    0 -0.18427500315E+02 -0.34149263194E+02  0.22877250472E+02  0.46142317258E+02  0.99999954098E+01 0.  0.
         12    1    1    2    0    0  0.18427500315E+02  0.34149263194E+02 -0.22877250472E+02  0.45045682742E+02  0.00000000000E+00 0. -1.
         11    1    3    3    0    0 -0.59075208951E+01 -0.20470125880E+02  0.11148594643E+02  0.24046122753E+02  0.51100000000E-03 0.  1.
        -11    1    3    3    0    0 -0.61960247928E+01 -0.48961581198E+01  0.52387251212E+01  0.94766728721E+01  0.51100000000E-03 0. -1.
        -12    1    3    3    0    0 -0.63239546266E+01 -0.87829791948E+01  0.64899307071E+01  0.12619521633E+02  0.00000000000E+00 0.  1.
</event>
<event>
 7    1  0.1485408E-008  0.4614232E+02  0.7816164E-02  0.1320468E+00
        -11   -1    0    0    0    0  0.00000000000E+00  0.00000000000E+00  0.45593999997E+02  0.45594000000E+02  0.51100000000E-03 0.  1.
         11   -1    0    0    0    0 -0.00000000000E+00 -0.00000000000E+00 -0.45593999997E+02  0.45594000000E+02  0.51100000000E-03 0. -1.
    9900012    2    1    2    0    0 -0.27987143744E+02 -0.35422598843E+01  0.35118166516E+02  0.46142318304E+02  0.10000004947E+02 0.  0.
         12    1    1    2    0    0  0.27987143744E+02  0.35422598843E+01 -0.35118166516E+02  0.45045681696E+02  0.00000000000E+00 0. -1.
         11    1    3    3    0    0 -0.16623517674E+02 -0.20508909422E+01  0.17410086063E+02  0.24159027102E+02  0.51100000000E-03 0. -1.
        -11    1    3    3    0    0 -0.17664077750E+01  0.15075507370E+00 -0.23553447950E-02  0.17728308799E+01  0.51100000000E-03 0.  1.
        -12    1    3    3    0    0 -0.95972182950E+01 -0.16421240158E+01  0.17710435798E+02  0.20210460322E+02  0.00000000000E+00 0.  1.
</event>
<event>
 7    1  0.1485408E-008  0.4614232E+02  0.7816164E-02  0.1320468E+00
        -11   -1    0    0    0    0  0.00000000000E+00  0.00000000000E+00  0.45593999997E+02  0.45594000000E+02  0.51100000000E-03 0.  1.
         11   -1    0    0    0    0 -0.00000000000E+00 -0.00000000000E+00 -0.45593999997E+02  0.45594000000E+02  0.51100000000E-03 0. -1.
    9900012    2    1    2    0    0 -0.15719317840E+02  0.32505212496E+02  0.26933764514E+02  0.46142318035E+02  0.10000002498E+02 0.  0.
         12    1    1    2    0    0  0.15719317840E+02 -0.32505212496E+02 -0.26933764514E+02  0.45045681965E+02  0.00000000000E+00 0. -1.
         11    1    3    3    0    0 -0.24777705094E+01  0.93937137709E+00  0.10595452744E+01  0.28538398222E+01  0.51100000000E-03 0. -1.
        -11    1    3    3    0    0 -0.84194535419E+01  0.18275611434E+02  0.11736014146E+02  0.23294188106E+02  0.51100000000E-03 0.  1.
         12    1    3    3    0    0 -0.48220937889E+01  0.13290229685E+02  0.14138205094E+02  0.19994290106E+02  0.00000000000E+00 0. -1.
</event>
<event>
 7    1  0.1485408E-008  0.4614232E+02  0.7816164E-02  0.1320468E+00
        -11   -1    0    0    0    0  0.00000000000E+00  0.00000000000E+00  0.45593999997E+02  0.45594000000E+02  0.51100000000E-03 0.  1.
         11   -1    0    0    0    0 -0.00000000000E+00 -0.00000000000E+00 -0.45593999997E+02  0.45594000000E+02  0.51100000000E-03 0. -1.
    9900012    2    1    2    0    0  0.22694963307E+02  0.22906945343E+02  0.31453519818E+02  0.46142318593E+02  0.10000007588E+02 0.  0.
         12    1    1    2    0    0 -0.22694963307E+02 -0.22906945343E+02 -0.31453519818E+02  0.45045681407E+02  0.00000000000E+00 0. -1.
         11    1    3    3    0    0  0.53272822816E+01  0.21343786971E+01  0.40573036859E+01  0.70283157578E+01  0.51100000000E-03 0. -1.
        -11    1    3    3    0    0  0.14178959478E+02  0.19544581296E+02  0.25819352710E+02  0.35350707554E+02  0.51100000000E-03 0.  1.
        -12    1    3    3    0    0  0.31887215471E+01  0.12279853493E+01  0.15768634224E+01  0.37632952815E+01  0.00000000000E+00 0.  1.
</event>
<event>
 7    1  0.1485408E-008  0.4614232E+02  0.7816164E-02  0.1320468E+00
        -11   -1    0    0    0    0  0.00000000000E+00  0.00000000000E+00  0.45593999997E+02  0.45594000000E+02  0.51100000000E-03 0.  1.
         11   -1    0    0    0    0 -0.00000000000E+00 -0.00000000000E+00 -0.45593999997E+02  0.45594000000E+02  0.51100000000E-03 0. -1.
    9900012    2    1    2    0    0  0.15879050833E+01 -0.40136486909E+02  0.20387604524E+02  0.46142318274E+02  0.10000004674E+02 0.  0.
         12    1    1    2    0    0 -0.15879050833E+01  0.40136486909E+02 -0.20387604524E+02  0.45045681726E+02  0.00000000000E+00 0. -1.
         11    1    3    3    0    0 -0.16035568774E+00 -0.51329829795E+01  0.67589587140E+01  0.84886248223E+01  0.51100000000E-03 0. -1.
        -11    1    3    3    0    0 -0.40826037714E+00 -0.67677124041E+01  0.28170902392E+01  0.73419755787E+01  0.51100000000E-03 0.  1.
         12    1    3    3    0    0  0.21565211481E+01 -0.28235791526E+02  0.10811555571E+02  0.30311717873E+02  0.00000000000E+00 0. -1.
</event>
<event>
 7    1  0.1485408E-008  0.4614232E+02  0.7816164E-02  0.1320468E+00
        -11   -1    0    0    0    0  0.00000000000E+00  0.00000000000E+00  0.45593999997E+02  0.45594000000E+02  0.51100000000E-03 0. -1.
         11   -1    0    0    0    0 -0.00000000000E+00 -0.00000000000E+00 -0.45593999997E+02  0.45594000000E+02  0.51100000000E-03 0.  1.
    9900012    2    1    2    0    0  0.38517174943E+02 -0.16212131526E+02 -0.16813906425E+02  0.46142318482E+02  0.10000006571E+02 0.  0.
         12    1    1    2    0    0 -0.38517174943E+02  0.16212131526E+02  0.16813906425E+02  0.45045681518E+02  0.00000000000E+00 0. -1.
         11    1    3    3    0    0  0.53122652660E+01 -0.56877397865E+01 -0.15894369522E+01  0.79433529584E+01  0.51100000000E-03 0. -1.
        -11    1    3    3    0    0  0.15503819219E+02 -0.33822109688E+01 -0.81811364785E+01  0.17853256167E+02  0.51100000000E-03 0.  1.
         12    1    3    3    0    0  0.17701090458E+02 -0.71421807708E+01 -0.70433329940E+01  0.20345709357E+02  0.00000000000E+00 0. -1.
</event>
<event>
 7    1  0.1485408E-008  0.4614232E+02  0.7816164E-02  0.1320468E+00
        -11   -1    0    0    0    0  0.00000000000E+00  0.00000000000E+00  0.45593999997E+02  0.45594000000E+02  0.51100000000E-03 0.  1.
         11   -1    0    0    0    0 -0.00000000000E+00 -0.00000000000E+00 -0.45593999997E+02  0.45594000000E+02  0.51100000000E-03 0. -1.
    9900012    2    1    2    0    0 -0.27138841844E+02 -0.31159634909E+02  0.17935269945E+02  0.46142317717E+02  0.99999996017E+01 0.  0.
         12    1    1    2    0    0  0.27138841844E+02  0.31159634909E+02 -0.17935269945E+02  0.45045682283E+02  0.00000000000E+00 0. -1.
         11    1    3    3    0    0 -0.24941192423E+01 -0.14851496927E+00  0.26528547099E+01  0.36442181417E+01  0.51100000000E-03 0. -1.
        -11    1    3    3    0    0 -0.71310631426E+01 -0.92778150723E+01  0.36310173455E+01  0.12252110075E+02  0.51100000000E-03 0.  1.
         12    1    3    3    0    0 -0.17513659459E+02 -0.21733304868E+02  0.11651397889E+02  0.30245989501E+02  0.00000000000E+00 0. -1.
</event>
<event>
 7    1  0.1485408E-008  0.4614232E+02  0.7816164E-02  0.1320468E+00
        -11   -1    0    0    0    0  0.00000000000E+00  0.00000000000E+00  0.45593999997E+02  0.45594000000E+02  0.51100000000E-03 0.  1.
         11   -1    0    0    0    0 -0.00000000000E+00 -0.00000000000E+00 -0.45593999997E+02  0.45594000000E+02  0.51100000000E-03 0. -1.
    9900012    2    1    2    0    0  0.13096567858E+02 -0.43097292140E+02  0.46566400065E+00  0.46142317384E+02  0.99999965572E+01 0.  0.
         12    1    1    2    0    0 -0.13096567858E+02  0.43097292140E+02 -0.46566400065E+00  0.45045682616E+02  0.00000000000E+00 0. -1.
         11    1    3    3    0    0  0.37088411974E+01 -0.89228307748E+01  0.13522719175E+01  0.97571026265E+01  0.51100000000E-03 0. -1.
        -11    1    3    3    0    0  0.10318744029E+02 -0.30826592098E+02  0.81081292037E+00  0.32517882412E+02  0.51100000000E-03 0.  1.
         12    1    3    3    0    0 -0.93101736852E+00 -0.33478692664E+01 -0.16974208372E+01  0.38673323446E+01  0.00000000000E+00 0. -1.
</event>
<event>
 7    1  0.1485408E-008  0.4614232E+02  0.7816164E-02  0.1320468E+00
        -11   -1    0    0    0    0  0.00000000000E+00  0.00000000000E+00  0.45593999997E+02  0.45594000000E+02  0.51100000000E-03 0.  1.
         11   -1    0    0    0    0 -0.00000000000E+00 -0.00000000000E+00 -0.45593999997E+02  0.45594000000E+02  0.51100000000E-03 0. -1.
    9900012    2    1    2    0    0 -0.11813309399E+02 -0.19265754362E+01  0.43426346978E+02  0.46142316703E+02  0.99999903486E+01 0.  0.
         12    1    1    2    0    0  0.11813309399E+02  0.19265754362E+01 -0.43426346978E+02  0.45045683297E+02  0.00000000000E+00 0. -1.
         11    1    3    3    0    0  0.93075880570E+00  0.47511622952E+00  0.55276396625E+01  0.56255531181E+01  0.51100000000E-03 0. -1.
        -11    1    3    3    0    0 -0.39533203882E+01  0.12950446088E+01  0.66381295369E+01  0.78339419605E+01  0.51100000000E-03 0.  1.
        -12    1    3    3    0    0 -0.87907478168E+01 -0.36967362745E+01  0.31260577779E+02  0.32682821624E+02  0.00000000000E+00 0.  1.
</event>
<event>
 7    1  0.1485408E-008  0.4614232E+02  0.7816164E-02  0.1320468E+00
        -11   -1    0    0    0    0  0.00000000000E+00  0.00000000000E+00  0.45593999997E+02  0.45594000000E+02  0.51100000000E-03 0.  1.
         11   -1    0    0    0    0 -0.00000000000E+00 -0.00000000000E+00 -0.45593999997E+02  0.45594000000E+02  0.51100000000E-03 0. -1.
    9900012    2    1    2    0    0 -0.34070148201E+02 -0.14286813297E+02  0.25772571597E+02  0.46142317862E+02  0.10000000916E+02 0.  0.
         12    1    1    2    0    0  0.34070148201E+02  0.14286813297E+02 -0.25772571597E+02  0.45045682138E+02  0.00000000000E+00 0. -1.
         11    1    3    3    0    0 -0.17537164512E+02 -0.62229862459E+01  0.11283474026E+02  0.21762226064E+02  0.51100000000E-03 0. -1.
        -11    1    3    3    0    0 -0.29027268499E+01  0.99209577727E+00  0.35717297185E+01  0.47082194766E+01  0.51100000000E-03 0.  1.
         12    1    3    3    0    0 -0.13630256839E+02 -0.90559228279E+01  0.10917367853E+02  0.19671872321E+02  0.00000000000E+00 0. -1.
</event>
<event>
 7    1  0.1485408E-008  0.4614232E+02  0.7816164E-02  0.1320468E+00
        -11   -1    0    0    0    0  0.00000000000E+00  0.00000000000E+00  0.45593999997E+02  0.45594000000E+02  0.51100000000E-03 0.  1.
         11   -1    0    0    0    0 -0.00000000000E+00 -0.00000000000E+00 -0.45593999997E+02  0.45594000000E+02  0.51100000000E-03 0. -1.
    9900012    2    1    2    0    0  0.20453401755E+01 -0.15315141625E+02  0.42312841956E+02  0.46142316813E+02  0.99999913526E+01 0.  0.
         12    1    1    2    0    0 -0.20453401755E+01  0.15315141625E+02 -0.42312841956E+02  0.45045683187E+02  0.00000000000E+00 0. -1.
         11    1    3    3    0    0 -0.73688690530E+00  0.22131155097E+00  0.43393068801E+01  0.44069905349E+01  0.51100000000E-03 0. -1.
        -11    1    3    3    0    0  0.29376734420E+01 -0.10996475075E+02  0.18354283535E+02  0.21597039466E+02  0.51100000000E-03 0.  1.
         12    1    3    3    0    0 -0.15544636118E+00 -0.45399781013E+01  0.19619251540E+02  0.20138286812E+02  0.00000000000E+00 0. -1.
</event>
<event>
 7    1  0.1485408E-008  0.4614232E+02  0.7816164E-02  0.1320468E+00
        -11   -1    0    0    0    0  0.00000000000E+00  0.00000000000E+00  0.45593999997E+02  0.45594000000E+02  0.51100000000E-03 0.  1.
         11   -1    0    0    0    0 -0.00000000000E+00 -0.00000000000E+00 -0.45593999997E+02  0.45594000000E+02  0.51100000000E-03 0. -1.
    9900012    2    1    2    0    0 -0.21907719059E+02  0.30844186870E+02  0.24449977538E+02  0.46142318524E+02  0.10000006959E+02 0.  0.
         12    1    1    2    0    0  0.21907719059E+02 -0.30844186870E+02 -0.24449977538E+02  0.45045681476E+02  0.00000000000E+00 0. -1.
         11    1    3    3    0    0 -0.96691535766E+01  0.80294442654E+01  0.10356219121E+02  0.16285446904E+02  0.51100000000E-03 0. -1.
        -11    1    3    3    0    0 -0.48682223153E+01  0.12784566989E+02  0.91819604498E+01  0.16475835019E+02  0.51100000000E-03 0.  1.
         12    1    3    3    0    0 -0.73703431667E+01  0.10030175616E+02  0.49117979664E+01  0.13381036602E+02  0.00000000000E+00 0. -1.
</event>
<event>
 7    1  0.1485408E-008  0.4614232E+02  0.7816164E-02  0.1320468E+00
        -11   -1    0    0    0    0  0.00000000000E+00  0.00000000000E+00  0.45593999997E+02  0.45594000000E+02  0.51100000000E-03 0. -1.
         11   -1    0    0    0    0 -0.00000000000E+00 -0.00000000000E+00 -0.45593999997E+02  0.45594000000E+02  0.51100000000E-03 0.  1.
    9900012    2    1    2    0    0  0.21377057254E+00  0.20241972374E+02 -0.40240903629E+02  0.46142317983E+02  0.10000002027E+02 0.  0.
         12    1    1    2    0    0 -0.21377057254E+00 -0.20241972374E+02  0.40240903629E+02  0.45045682017E+02  0.00000000000E+00 0. -1.
         11    1    3    3    0    0  0.72294683214E+00 -0.26634591575E+00  0.52701956291E-01  0.77224997653E+00  0.51100000000E-03 0. -1.
        -11    1    3    3    0    0 -0.13700985997E+01  0.19375321105E+02 -0.37824636303E+02  0.42520387461E+02  0.51100000000E-03 0.  1.
        -12    1    3    3    0    0  0.86092234012E+00  0.11329971840E+01 -0.24689692823E+01  0.28496805455E+01  0.00000000000E+00 0.  1.
</event>
<event>
 7    1  0.1485408E-008  0.4614232E+02  0.7816164E-02  0.1320468E+00
        -11   -1    0    0    0    0  0.00000000000E+00  0.00000000000E+00  0.45593999997E+02  0.45594000000E+02  0.51100000000E-03 0. -1.
         11   -1    0    0    0    0 -0.00000000000E+00 -0.00000000000E+00 -0.45593999997E+02  0.45594000000E+02  0.51100000000E-03 0.  1.
    9900012    2    1    2    0    0 -0.36041056954E+02  0.26314862234E+02 -0.61387070135E+01  0.46142317803E+02  0.10000000384E+02 0.  0.
         12    1    1    2    0    0  0.36041056954E+02 -0.26314862234E+02  0.61387070135E+01  0.45045682197E+02  0.00000000000E+00 0. -1.
         11    1    3    3    0    0 -0.74386075014E+01  0.10246908071E+01 -0.59887892271E+00  0.75326973280E+01  0.51100000000E-03 0. -1.
        -11    1    3    3    0    0 -0.12723650325E+02  0.10595552708E+02 -0.29818595937E+01  0.16824045342E+02  0.51100000000E-03 0.  1.
         12    1    3    3    0    0 -0.15878799128E+02  0.14694618719E+02 -0.25579684971E+01  0.21785575133E+02  0.00000000000E+00 0. -1.
</event>
<event>
 7    1  0.1485408E-008  0.4614232E+02  0.7816164E-02  0.1320468E+00
        -11   -1    0    0    0    0  0.00000000000E+00  0.00000000000E+00  0.45593999997E+02  0.45594000000E+02  0.51100000000E-03 0.  1.
         11   -1    0    0    0    0 -0.00000000000E+00 -0.00000000000E+00 -0.45593999997E+02  0.45594000000E+02  0.51100000000E-03 0. -1.
    9900012    2    1    2    0    0  0.22580521203E+02 -0.24039944596E+02  0.30680850826E+02  0.46142317839E+02  0.10000000709E+02 0.  0.
         12    1    1    2    0    0 -0.22580521203E+02  0.24039944596E+02 -0.30680850826E+02  0.45045682161E+02  0.00000000000E+00 0. -1.
         11    1    3    3    0    0  0.34169991655E+01 -0.35406249336E+01  0.53781254145E+00  0.49498637161E+01  0.51100000000E-03 0. -1.
        -11    1    3    3    0    0  0.17008068658E+02 -0.17949081594E+02  0.26218266556E+02  0.36039442712E+02  0.51100000000E-03 0.  1.
         12    1    3    3    0    0  0.21554533789E+01 -0.25502380684E+01  0.39247717287E+01  0.51530114105E+01  0.00000000000E+00 0. -1.
</event>
<event>
 7    1  0.1485408E-008  0.4614232E+02  0.7816164E-02  0.1320468E+00
        -11   -1    0    0    0    0  0.00000000000E+00  0.00000000000E+00  0.45593999997E+02  0.45594000000E+02  0.51100000000E-03 0. -1.
         11   -1    0    0    0    0 -0.00000000000E+00 -0.00000000000E+00 -0.45593999997E+02  0.45594000000E+02  0.51100000000E-03 0.  1.
    9900012    2    1    2    0    0 -0.21517602192E+02 -0.30735906078E+02 -0.24928108353E+02  0.46142315272E+02  0.99999773059E+01 0.  0.
         12    1    1    2    0    0  0.21517602192E+02  0.30735906078E+02  0.24928108353E+02  0.45045684728E+02  0.00000000000E+00 0. -1.
         11    1    3    3    0    0 -0.37448798267E+01 -0.10351515532E+02 -0.92722935109E+01  0.14392825502E+02  0.51100000000E-03 0. -1.
        -11    1    3    3    0    0 -0.13146390547E+02 -0.17887742316E+02 -0.11232197798E+02  0.24878930388E+02  0.51100000000E-03 0.  1.
        -12    1    3    3    0    0 -0.46263318183E+01 -0.24966482288E+01 -0.44236170438E+01  0.68705593820E+01  0.00000000000E+00 0.  1.
</event>
<event>
 7    1  0.1485408E-008  0.4614232E+02  0.7816164E-02  0.1320468E+00
        -11   -1    0    0    0    0  0.00000000000E+00  0.00000000000E+00  0.45593999997E+02  0.45594000000E+02  0.51100000000E-03 0.  1.
         11   -1    0    0    0    0 -0.00000000000E+00 -0.00000000000E+00 -0.45593999997E+02  0.45594000000E+02  0.51100000000E-03 0. -1.
    9900012    2    1    2    0    0 -0.84909973546E+01 -0.32175243177E+02  0.30360668603E+02  0.46142317548E+02  0.99999980578E+01 0.  0.
         12    1    1    2    0    0  0.84909973546E+01  0.32175243177E+02 -0.30360668603E+02  0.45045682452E+02  0.00000000000E+00 0. -1.
         11    1    3    3    0    0 -0.61606569672E+01 -0.14556170657E+02  0.15407263521E+02  0.22073050716E+02  0.51100000000E-03 0. -1.
        -11    1    3    3    0    0 -0.68488561216E+00 -0.11422057069E+02  0.13102665249E+02  0.17395755025E+02  0.51100000000E-03 0.  1.
        -12    1    3    3    0    0 -0.16454547752E+01 -0.61970154506E+01  0.18507398331E+01  0.66735118073E+01  0.00000000000E+00 0.  1.
</event>
<event>
 7    1  0.1485408E-008  0.4614232E+02  0.7816164E-02  0.1320468E+00
        -11   -1    0    0    0    0  0.00000000000E+00  0.00000000000E+00  0.45593999997E+02  0.45594000000E+02  0.51100000000E-03 0. -1.
         11   -1    0    0    0    0 -0.00000000000E+00 -0.00000000000E+00 -0.45593999997E+02  0.45594000000E+02  0.51100000000E-03 0.  1.
    9900012    2    1    2    0    0  0.43582663656E+02  0.81475066852E+01  0.79550504975E+01  0.46142320241E+02  0.10000022615E+02 0.  0.
         12    1    1    2    0    0 -0.43582663656E+02 -0.81475066852E+01 -0.79550504975E+01  0.45045679759E+02  0.00000000000E+00 0. -1.
         11    1    3    3    0    0  0.20332249903E+01 -0.84095972837E+00 -0.12419961976E+01  0.25266127408E+01  0.51100000000E-03 0. -1.
        -11    1    3    3    0    0  0.33912481441E+02  0.77467108840E+01  0.87278926003E+01  0.35864244541E+02  0.51100000000E-03 0.  1.
         12    1    3    3    0    0  0.76369572241E+01  0.12417555295E+01  0.46915409476E+00  0.77514629589E+01  0.00000000000E+00 0. -1.
</event>
<event>
 7    1  0.1485408E-008  0.4614233E+02  0.7816164E-02  0.1320468E+00
        -11   -1    0    0    0    0  0.00000000000E+00  0.00000000000E+00  0.45593999997E+02  0.45594000000E+02  0.51100000000E-03 0.  1.
         11   -1    0    0    0    0 -0.00000000000E+00 -0.00000000000E+00 -0.45593999997E+02  0.45594000000E+02  0.51100000000E-03 0. -1.
    9900012    2    1    2    0    0 -0.43320217589E+02 -0.10579640561E+02  0.63673205832E+01  0.46142325205E+02  0.10000067877E+02 0.  0.
         12    1    1    2    0    0  0.43320217589E+02  0.10579640561E+02 -0.63673205832E+01  0.45045674795E+02  0.00000000000E+00 0. -1.
         11    1    3    3    0    0 -0.17437159964E+01 -0.25575929219E+01  0.41578868142E+00  0.31232527145E+01  0.51100000000E-03 0. -1.
        -11    1    3    3    0    0 -0.36467320340E+02 -0.60547206632E+01  0.64367515178E+01  0.37522751305E+02  0.51100000000E-03 0.  1.
         12    1    3    3    0    0 -0.51091812522E+01 -0.19673269764E+01 -0.48521961599E+00  0.54963211856E+01  0.00000000000E+00 0. -1.
</event>
<event>
 7    1  0.1485408E-008  0.4614232E+02  0.7816164E-02  0.1320468E+00
        -11   -1    0    0    0    0  0.00000000000E+00  0.00000000000E+00  0.45593999997E+02  0.45594000000E+02  0.51100000000E-03 0.  1.
         11   -1    0    0    0    0 -0.00000000000E+00 -0.00000000000E+00 -0.45593999997E+02  0.45594000000E+02  0.51100000000E-03 0. -1.
    9900012    2    1    2    0    0  0.32335772750E+02 -0.17865587495E+02  0.25774639064E+02  0.46142318356E+02  0.10000005426E+02 0.  0.
         12    1    1    2    0    0 -0.32335772750E+02  0.17865587495E+02 -0.25774639064E+02  0.45045681644E+02  0.00000000000E+00 0. -1.
         11    1    3    3    0    0 -0.67181895355E+00 -0.55156618349E+00  0.56312011058E+00  0.10356980647E+01  0.51100000000E-03 0. -1.
        -11    1    3    3    0    0  0.18193121957E+02 -0.88069433482E+01  0.11958140152E+02  0.23485081516E+02  0.51100000000E-03 0.  1.
         12    1    3    3    0    0  0.14814469747E+02 -0.85070779632E+01  0.13253378801E+02  0.21621538775E+02  0.00000000000E+00 0. -1.
</event>
<event>
 7    1  0.1485408E-008  0.4614232E+02  0.7816164E-02  0.1320468E+00
        -11   -1    0    0    0    0  0.00000000000E+00  0.00000000000E+00  0.45593999997E+02  0.45594000000E+02  0.51100000000E-03 0.  1.
         11   -1    0    0    0    0 -0.00000000000E+00 -0.00000000000E+00 -0.45593999997E+02  0.45594000000E+02  0.51100000000E-03 0. -1.
    9900012    2    1    2    0    0  0.18484955201E+02 -0.36233554310E+02  0.19353280478E+02  0.46142317721E+02  0.99999996322E+01 0.  0.
         12    1    1    2    0    0 -0.18484955201E+02  0.36233554310E+02 -0.19353280478E+02  0.45045682279E+02  0.00000000000E+00 0. -1.
         11    1    3    3    0    0  0.18362064813E+01 -0.53810414573E+01  0.60910464032E+00  0.57182401254E+01  0.51100000000E-03 0. -1.
        -11    1    3    3    0    0  0.98038909722E+01 -0.10857277383E+02  0.65946796623E+01  0.16046387459E+02  0.51100000000E-03 0.  1.
        -12    1    3    3    0    0  0.68448577476E+01 -0.19995235470E+02  0.12149496175E+02  0.24377690137E+02  0.00000000000E+00 0.  1.
</event>
<event>
 7    1  0.1485408E-008  0.4614232E+02  0.7816164E-02  0.1320468E+00
        -11   -1    0    0    0    0  0.00000000000E+00  0.00000000000E+00  0.45593999997E+02  0.45594000000E+02  0.51100000000E-03 0.  1.
         11   -1    0    0    0    0 -0.00000000000E+00 -0.00000000000E+00 -0.45593999997E+02  0.45594000000E+02  0.51100000000E-03 0. -1.
    9900012    2    1    2    0    0 -0.46861722992E+01 -0.64071473321E+01  0.44340745488E+02  0.46142318096E+02  0.10000003058E+02 0.  0.
         12    1    1    2    0    0  0.46861722992E+01  0.64071473321E+01 -0.44340745488E+02  0.45045681904E+02  0.00000000000E+00 0. -1.
         11    1    3    3    0    0 -0.73836710269E+00 -0.29360340654E+00 -0.23036553268E-01  0.79493388566E+00  0.51100000000E-03 0. -1.
        -11    1    3    3    0    0  0.35671528704E+00  0.64011643655E+00  0.11442815885E+02  0.11466256167E+02  0.51100000000E-03 0.  1.
         12    1    3    3    0    0 -0.43045204836E+01 -0.67536603621E+01  0.32920966156E+02  0.33881128044E+02  0.00000000000E+00 0. -1.
</event>
<event>
 7    1  0.1485408E-008  0.4614232E+02  0.7816164E-02  0.1320468E+00
        -11   -1    0    0    0    0  0.00000000000E+00  0.00000000000E+00  0.45593999997E+02  0.45594000000E+02  0.51100000000E-03 0. -1.
         11   -1    0    0    0    0 -0.00000000000E+00 -0.00000000000E+00 -0.45593999997E+02  0.45594000000E+02  0.51100000000E-03 0.  1.
    9900012    2    1    2    0    0  0.12186481143E+02  0.29983842769E+02 -0.31330054845E+02  0.46142317782E+02  0.10000000195E+02 0.  0.
         12    1    1    2    0    0 -0.12186481143E+02 -0.29983842769E+02  0.31330054845E+02  0.45045682218E+02  0.00000000000E+00 0. -1.
         11    1    3    3    0    0  0.20700073130E+01  0.15382939524E+02 -0.13852137674E+02  0.20803881299E+02  0.51100000000E-03 0. -1.
        -11    1    3    3    0    0  0.68703711063E+01  0.12981677228E+02 -0.13417241660E+02  0.19893423959E+02  0.51100000000E-03 0.  1.
         12    1    3    3    0    0  0.32461027241E+01  0.16192260162E+01 -0.40606755114E+01  0.54450125248E+01  0.00000000000E+00 0. -1.
</event>
<event>
 7    1  0.1485408E-008  0.4614232E+02  0.7816164E-02  0.1320468E+00
        -11   -1    0    0    0    0  0.00000000000E+00  0.00000000000E+00  0.45593999997E+02  0.45594000000E+02  0.51100000000E-03 0.  1.
         11   -1    0    0    0    0 -0.00000000000E+00 -0.00000000000E+00 -0.45593999997E+02  0.45594000000E+02  0.51100000000E-03 0. -1.
    9900012    2    1    2    0    0  0.17482117891E+02 -0.18829254217E+02  0.36999299727E+02  0.46142318291E+02  0.10000004833E+02 0.  0.
         12    1    1    2    0    0 -0.17482117891E+02  0.18829254217E+02 -0.36999299727E+02  0.45045681709E+02  0.00000000000E+00 0. -1.
         11    1    3    3    0    0  0.34366802165E+01 -0.59925902185E+01  0.41540731857E+01  0.80609076865E+01  0.51100000000E-03 0. -1.
        -11    1    3    3    0    0  0.95931754655E+01 -0.67939446038E+01  0.20647996927E+02  0.23759765911E+02  0.51100000000E-03 0.  1.
        -12    1    3    3    0    0  0.44522622093E+01 -0.60427193945E+01  0.12197229614E+02  0.14321644694E+02  0.00000000000E+00 0.  1.
</event>
<event>
 7    1  0.1485408E-008  0.4614232E+02  0.7816164E-02  0.1320468E+00
        -11   -1    0    0    0    0  0.00000000000E+00  0.00000000000E+00  0.45593999997E+02  0.45594000000E+02  0.51100000000E-03 0. -1.
         11   -1    0    0    0    0 -0.00000000000E+00 -0.00000000000E+00 -0.45593999997E+02  0.45594000000E+02  0.51100000000E-03 0.  1.
    9900012    2    1    2    0    0 -0.42798123722E+02 -0.97286121742E+01 -0.10138451111E+02  0.46142317855E+02  0.10000000855E+02 0.  0.
         12    1    1    2    0    0  0.42798123722E+02  0.97286121742E+01  0.10138451111E+02  0.45045682145E+02  0.00000000000E+00 0. -1.
         11    1    3    3    0    0 -0.85245937356E+01 -0.13465332126E+00 -0.89449353879E-01  0.85261263961E+01  0.51100000000E-03 0. -1.
        -11    1    3    3    0    0 -0.18782173808E+02 -0.17419291168E+01 -0.46295062705E+01  0.19422582180E+02  0.51100000000E-03 0.  1.
        -12    1    3    3    0    0 -0.15491356179E+02 -0.78520297360E+01 -0.54194954867E+01  0.18193609278E+02  0.00000000000E+00 0.  1.
</event>
<event>
 7    1  0.1485408E-008  0.4614232E+02  0.7816164E-02  0.1320468E+00
        -11   -1    0    0    0    0  0.00000000000E+00  0.00000000000E+00  0.45593999997E+02  0.45594000000E+02  0.51100000000E-03 0.  1.
         11   -1    0    0    0    0 -0.00000000000E+00 -0.00000000000E+00 -0.45593999997E+02  0.45594000000E+02  0.51100000000E-03 0. -1.
    9900012    2    1    2    0    0  0.39867572648E+02  0.20396443372E+02  0.48657229779E+01  0.46142317508E+02  0.99999976914E+01 0.  0.
         12    1    1    2    0    0 -0.39867572648E+02 -0.20396443372E+02 -0.48657229779E+01  0.45045682492E+02  0.00000000000E+00 0. -1.
         11    1    3    3    0    0  0.30435687311E+02  0.12641723326E+02  0.27375631532E+01  0.33070205367E+02  0.51100000000E-03 0. -1.
        -11    1    3    3    0    0  0.78290173343E+01  0.50364022594E+01  0.78891116280E-01  0.93094083705E+01  0.51100000000E-03 0.  1.
         12    1    3    3    0    0  0.16028680026E+01  0.27183177868E+01  0.20492687084E+01  0.37627037703E+01  0.00000000000E+00 0. -1.
</event>
<event>
 7    1  0.1485408E-008  0.4614232E+02  0.7816164E-02  0.1320468E+00
        -11   -1    0    0    0    0  0.00000000000E+00  0.00000000000E+00  0.45593999997E+02  0.45594000000E+02  0.51100000000E-03 0.  1.
         11   -1    0    0    0    0 -0.00000000000E+00 -0.00000000000E+00 -0.45593999997E+02  0.45594000000E+02  0.51100000000E-03 0. -1.
    9900012    2    1    2    0    0  0.44237625294E+01 -0.31447713819E+01  0.44717495884E+02  0.46142315411E+02  0.99999785702E+01 0.  0.
         12    1    1    2    0    0 -0.44237625294E+01  0.31447713819E+01 -0.44717495884E+02  0.45045684589E+02  0.00000000000E+00 0. -1.
         11    1    3    3    0    0  0.22024657427E+01  0.22502740656E+01  0.19393354938E+02  0.19647310369E+02  0.51100000000E-03 0. -1.
        -11    1    3    3    0    0  0.55505158449E+00 -0.30816618787E+01  0.45332072868E+01  0.55095091217E+01  0.51100000000E-03 0.  1.
        -12    1    3    3    0    0  0.16662452023E+01 -0.23133835688E+01  0.20790933659E+02  0.20985495921E+02  0.00000000000E+00 0.  1.
</event>
<event>
 7    1  0.1485408E-008  0.4614232E+02  0.7816164E-02  0.1320468E+00
        -11   -1    0    0    0    0  0.00000000000E+00  0.00000000000E+00  0.45593999997E+02  0.45594000000E+02  0.51100000000E-03 0.  1.
         11   -1    0    0    0    0 -0.00000000000E+00 -0.00000000000E+00 -0.45593999997E+02  0.45594000000E+02  0.51100000000E-03 0. -1.
    9900012    2    1    2    0    0  0.13976676684E+02  0.23079234459E+02  0.36070969447E+02  0.46142318840E+02  0.10000009835E+02 0.  0.
         12    1    1    2    0    0 -0.13976676684E+02 -0.23079234459E+02 -0.36070969447E+02  0.45045681160E+02  0.00000000000E+00 0. -1.
         11    1    3    3    0    0  0.26026481243E+01  0.12104543006E+02  0.16810800110E+02  0.20878140224E+02  0.51100000000E-03 0. -1.
        -11    1    3    3    0    0  0.33734240992E+01  0.22312467829E+01  0.77569973499E+01  0.87481118252E+01  0.51100000000E-03 0.  1.
        -12    1    3    3    0    0  0.80006044609E+01  0.87434446701E+01  0.11503171987E+02  0.16516066790E+02  0.00000000000E+00 0.  1.
</event>
<event>
 7    1  0.1485408E-008  0.4614232E+02  0.7816164E-02  0.1320468E+00
        -11   -1    0    0    0    0  0.00000000000E+00  0.00000000000E+00  0.45593999997E+02  0.45594000000E+02  0.51100000000E-03 0.  1.
         11   -1    0    0    0    0 -0.00000000000E+00 -0.00000000000E+00 -0.45593999997E+02  0.45594000000E+02  0.51100000000E-03 0. -1.
    9900012    2    1    2    0    0  0.25620864519E+02 -0.36898153198E+02 -0.33482825466E+01  0.46142318696E+02  0.10000008525E+02 0.  0.
         12    1    1    2    0    0 -0.25620864519E+02  0.36898153198E+02  0.33482825466E+01  0.45045681304E+02  0.00000000000E+00 0. -1.
         11    1    3    3    0    0  0.69422312044E+01 -0.72519232578E+01 -0.35639949135E+01  0.10653028914E+02  0.51100000000E-03 0. -1.
        -11    1    3    3    0    0  0.97660003079E+01 -0.18813753969E+02  0.22430674009E+01  0.21315802872E+02  0.51100000000E-03 0.  1.
         12    1    3    3    0    0  0.89126330067E+01 -0.10832475971E+02 -0.20273550340E+01  0.14173486911E+02  0.00000000000E+00 0. -1.
</event>
<event>
 7    1  0.1485408E-008  0.4614232E+02  0.7816164E-02  0.1320468E+00
        -11   -1    0    0    0    0  0.00000000000E+00  0.00000000000E+00  0.45593999997E+02  0.45594000000E+02  0.51100000000E-03 0. -1.
         11   -1    0    0    0    0 -0.00000000000E+00 -0.00000000000E+00 -0.45593999997E+02  0.45594000000E+02  0.51100000000E-03 0.  1.
    9900012    2    1    2    0    0 -0.33748729267E+01  0.43337215611E+02 -0.11815644319E+02  0.46142317912E+02  0.10000001372E+02 0.  0.
         12    1    1    2    0    0  0.33748729267E+01 -0.43337215611E+02  0.11815644319E+02  0.45045682088E+02  0.00000000000E+00 0. -1.
         11    1    3    3    0    0 -0.45711708150E+01  0.14630433292E+02 -0.12771510063E+01  0.15381036892E+02  0.51100000000E-03 0. -1.
        -11    1    3    3    0    0  0.88149902701E+00  0.27793479582E+02 -0.96094770502E+01  0.29421023049E+02  0.51100000000E-03 0.  1.
         12    1    3    3    0    0  0.31479886127E+00  0.91330273703E+00 -0.92901626212E+00  0.13402579706E+01  0.00000000000E+00 0. -1.
</event>
<event>
 7    1  0.1485408E-008  0.4614232E+02  0.7816164E-02  0.1320468E+00
        -11   -1    0    0    0    0  0.00000000000E+00  0.00000000000E+00  0.45593999997E+02  0.45594000000E+02  0.51100000000E-03 0.  1.
         11   -1    0    0    0    0 -0.00000000000E+00 -0.00000000000E+00 -0.45593999997E+02  0.45594000000E+02  0.51100000000E-03 0. -1.
    9900012    2    1    2    0    0  0.32114240336E+02  0.21034828073E+02  0.23565335904E+02  0.46142317847E+02  0.10000000780E+02 0.  0.
         12    1    1    2    0    0 -0.32114240336E+02 -0.21034828073E+02 -0.23565335904E+02  0.45045682153E+02  0.00000000000E+00 0. -1.
         11    1    3    3    0    0  0.16219025880E+02  0.65915871696E+01  0.76922405831E+01  0.19122666848E+02  0.51100000000E-03 0. -1.
        -11    1    3    3    0    0  0.14407883253E+01  0.32501006014E+01  0.31116841808E+01  0.47245744379E+01  0.51100000000E-03 0.  1.
         12    1    3    3    0    0  0.14454426130E+02  0.11193140302E+02  0.12761411140E+02  0.22295076561E+02  0.00000000000E+00 0. -1.
</event>
<event>
 7    1  0.1485408E-008  0.4614232E+02  0.7816164E-02  0.1320468E+00
        -11   -1    0    0    0    0  0.00000000000E+00  0.00000000000E+00  0.45593999997E+02  0.45594000000E+02  0.51100000000E-03 0.  1.
         11   -1    0    0    0    0 -0.00000000000E+00 -0.00000000000E+00 -0.45593999997E+02  0.45594000000E+02  0.51100000000E-03 0. -1.
    9900012    2    1    2    0    0  0.37790004639E+02  0.19118723847E+02  0.15346120578E+02  0.46142317976E+02  0.10000001963E+02 0.  0.
         12    1    1    2    0    0 -0.37790004639E+02 -0.19118723847E+02 -0.15346120578E+02  0.45045682024E+02  0.00000000000E+00 0. -1.
         11    1    3    3    0    0  0.53589103801E+01  0.38176098954E+01 -0.31613383089E+00  0.65872609358E+01  0.51100000000E-03 0. -1.
        -11    1    3    3    0    0  0.31843257770E+02  0.15017250038E+02  0.16155935893E+02  0.38736612255E+02  0.51100000000E-03 0.  1.
        -12    1    3    3    0    0  0.58783648887E+00  0.28386391395E+00 -0.49368148453E+00  0.81844478583E+00  0.00000000000E+00 0.  1.
</event>
<event>
 7    1  0.1485408E-008  0.4614232E+02  0.7816164E-02  0.1320468E+00
        -11   -1    0    0    0    0  0.00000000000E+00  0.00000000000E+00  0.45593999997E+02  0.45594000000E+02  0.51100000000E-03 0. -1.
         11   -1    0    0    0    0 -0.00000000000E+00 -0.00000000000E+00 -0.45593999997E+02  0.45594000000E+02  0.51100000000E-03 0.  1.
    9900012    2    1    2    0    0  0.36545076923E+02 -0.26061059782E+02 -0.37936720637E+01  0.46142318387E+02  0.10000005706E+02 0.  0.
         12    1    1    2    0    0 -0.36545076923E+02  0.26061059782E+02  0.37936720637E+01  0.45045681613E+02  0.00000000000E+00 0. -1.
         11    1    3    3    0    0  0.14472148193E+02 -0.64394290885E+01 -0.32879877923E+01  0.16177768211E+02  0.51100000000E-03 0. -1.
        -11    1    3    3    0    0  0.10512012701E+02 -0.12305540142E+02  0.91221413807E+00  0.16209900188E+02  0.51100000000E-03 0.  1.
        -12    1    3    3    0    0  0.11560916029E+02 -0.73160905515E+01 -0.14178984095E+01  0.13754649988E+02  0.00000000000E+00 0.  1.
</event>
<event>
 7    1  0.1485408E-008  0.4614232E+02  0.7816164E-02  0.1320468E+00
        -11   -1    0    0    0    0  0.00000000000E+00  0.00000000000E+00  0.45593999997E+02  0.45594000000E+02  0.51100000000E-03 0.  1.
         11   -1    0    0    0    0 -0.00000000000E+00 -0.00000000000E+00 -0.45593999997E+02  0.45594000000E+02  0.51100000000E-03 0. -1.
    9900012    2    1    2    0    0  0.32927599089E+02 -0.30244855260E+02 -0.54895900358E+01  0.46142315965E+02  0.99999836184E+01 0.  0.
         12    1    1    2    0    0 -0.32927599089E+02  0.30244855260E+02  0.54895900358E+01  0.45045684035E+02  0.00000000000E+00 0. -1.
         11    1    3    3    0    0  0.67557218273E+01 -0.10464626458E+02 -0.30251380460E+01  0.12817942299E+02  0.51100000000E-03 0. -1.
        -11    1    3    3    0    0  0.15829362994E+02 -0.13398851902E+02  0.75452581064E+00  0.20752524534E+02  0.51100000000E-03 0.  1.
        -12    1    3    3    0    0  0.10342514267E+02 -0.63813769007E+01 -0.32189778004E+01  0.12571849132E+02  0.00000000000E+00 0.  1.
</event>
<event>
 7    1  0.1485408E-008  0.4614232E+02  0.7816164E-02  0.1320468E+00
        -11   -1    0    0    0    0  0.00000000000E+00  0.00000000000E+00  0.45593999997E+02  0.45594000000E+02  0.51100000000E-03 0.  1.
         11   -1    0    0    0    0 -0.00000000000E+00 -0.00000000000E+00 -0.45593999997E+02  0.45594000000E+02  0.51100000000E-03 0. -1.
    9900012    2    1    2    0    0  0.29609179411E+02  0.32428191414E+02  0.10041035557E+02  0.46142317645E+02  0.99999989410E+01 0.  0.
         12    1    1    2    0    0 -0.29609179411E+02 -0.32428191414E+02 -0.10041035557E+02  0.45045682355E+02  0.00000000000E+00 0. -1.
         11    1    3    3    0    0  0.14835039415E+02  0.12543902923E+02  0.54957125674E+00  0.19435275244E+02  0.51100000000E-03 0. -1.
        -11    1    3    3    0    0  0.12074013904E+02  0.15064173873E+02  0.84991773544E+01  0.21093770696E+02  0.51100000000E-03 0.  1.
         12    1    3    3    0    0  0.27001260914E+01  0.48201146186E+01  0.99228694563E+00  0.56132717045E+01  0.00000000000E+00 0. -1.
</event>
<event>
 7    1  0.1485408E-008  0.4614232E+02  0.7816164E-02  0.1320468E+00
        -11   -1    0    0    0    0  0.00000000000E+00  0.00000000000E+00  0.45593999997E+02  0.45594000000E+02  0.51100000000E-03 0.  1.
         11   -1    0    0    0    0 -0.00000000000E+00 -0.00000000000E+00 -0.45593999997E+02  0.45594000000E+02  0.51100000000E-03 0. -1.
    9900012    2    1    2    0    0  0.24482380842E+02  0.32725683577E+01  0.37669839795E+02  0.46142317571E+02  0.99999982625E+01 0.  0.
         12    1    1    2    0    0 -0.24482380842E+02 -0.32725683577E+01 -0.37669839795E+02  0.45045682429E+02  0.00000000000E+00 0. -1.
         11    1    3    3    0    0  0.22870737749E+00 -0.15584226878E+01  0.18219419529E+01  0.24084146402E+01  0.51100000000E-03 0. -1.
        -11    1    3    3    0    0  0.22847331534E+02  0.45004079161E+01  0.35059020961E+02  0.42087874509E+02  0.51100000000E-03 0.  1.
        -12    1    3    3    0    0  0.14063419309E+01  0.33058312951E+00  0.78887688069E+00  0.16460284217E+01  0.00000000000E+00 0.  1.
</event>
<event>
 7    1  0.1485408E-008  0.4614232E+02  0.7816164E-02  0.1320468E+00
        -11   -1    0    0    0    0  0.00000000000E+00  0.00000000000E+00  0.45593999997E+02  0.45594000000E+02  0.51100000000E-03 0. -1.
         11   -1    0    0    0    0 -0.00000000000E+00 -0.00000000000E+00 -0.45593999997E+02  0.45594000000E+02  0.51100000000E-03 0.  1.
    9900012    2    1    2    0    0 -0.32285815385E+02 -0.30063575600E+02 -0.91061014677E+01  0.46142317223E+02  0.99999950904E+01 0.  0.
         12    1    1    2    0    0  0.32285815385E+02  0.30063575600E+02  0.91061014677E+01  0.45045682777E+02  0.00000000000E+00 0. -1.
         11    1    3    3    0    0  0.43105367544E+00 -0.94780310729E+00  0.41498337738E+00  0.11208699594E+01  0.51100000000E-03 0. -1.
        -11    1    3    3    0    0 -0.10008968952E+02 -0.66118978239E+01 -0.34305402888E+01  0.12476588446E+02  0.51100000000E-03 0.  1.
         12    1    3    3    0    0 -0.22707900108E+02 -0.22503874669E+02 -0.60905445563E+01  0.32544858817E+02  0.00000000000E+00 0. -1.
</event>
<event>
 7    1  0.1485408E-008  0.4614232E+02  0.7816164E-02  0.1320468E+00
        -11   -1    0    0    0    0  0.00000000000E+00  0.00000000000E+00  0.45593999997E+02  0.45594000000E+02  0.51100000000E-03 0.  1.
         11   -1    0    0    0    0 -0.00000000000E+00 -0.00000000000E+00 -0.45593999997E+02  0.45594000000E+02  0.51100000000E-03 0. -1.
    9900012    2    1    2    0    0 -0.12410688816E+01  0.94324873091E+01  0.44029551357E+02  0.46142318059E+02  0.10000002716E+02 0.  0.
         12    1    1    2    0    0  0.12410688816E+01 -0.94324873091E+01 -0.44029551357E+02  0.45045681941E+02  0.00000000000E+00 0. -1.
         11    1    3    3    0    0  0.18981680238E+01  0.63673641593E+01  0.11355108616E+02  0.13156171941E+02  0.51100000000E-03 0. -1.
        -11    1    3    3    0    0 -0.30456881056E+01  0.29395643562E+01  0.32351576080E+02  0.32627315699E+02  0.51100000000E-03 0.  1.
         12    1    3    3    0    0 -0.93548799797E-01  0.12555879366E+00  0.32286666137E+00  0.35883041904E+00  0.00000000000E+00 0. -1.
</event>
<event>
 7    1  0.1485408E-008  0.4614232E+02  0.7816164E-02  0.1320468E+00
        -11   -1    0    0    0    0  0.00000000000E+00  0.00000000000E+00  0.45593999997E+02  0.45594000000E+02  0.51100000000E-03 0.  1.
         11   -1    0    0    0    0 -0.00000000000E+00 -0.00000000000E+00 -0.45593999997E+02  0.45594000000E+02  0.51100000000E-03 0. -1.
    9900012    2    1    2    0    0  0.29065657324E+02 -0.34337162611E+02 -0.22935415253E+01  0.46142317581E+02  0.99999983558E+01 0.  0.
         12    1    1    2    0    0 -0.29065657324E+02  0.34337162611E+02  0.22935415253E+01  0.45045682419E+02  0.00000000000E+00 0. -1.
         11    1    3    3    0    0  0.46089066768E+01 -0.89767074965E+01 -0.15679476120E+01  0.10211844016E+02  0.51100000000E-03 0. -1.
        -11    1    3    3    0    0  0.18237175479E+02 -0.19181431045E+02  0.25080997388E+01  0.26585944237E+02  0.51100000000E-03 0.  1.
        -12    1    3    3    0    0  0.62195751685E+01 -0.61790240697E+01 -0.32336936521E+01  0.93445293282E+01  0.00000000000E+00 0.  1.
</event>
<event>
 7    1  0.1485408E-008  0.4614232E+02  0.7816164E-02  0.1320468E+00
        -11   -1    0    0    0    0  0.00000000000E+00  0.00000000000E+00  0.45593999997E+02  0.45594000000E+02  0.51100000000E-03 0.  1.
         11   -1    0    0    0    0 -0.00000000000E+00 -0.00000000000E+00 -0.45593999997E+02  0.45594000000E+02  0.51100000000E-03 0. -1.
    9900012    2    1    2    0    0 -0.93418662639E+01 -0.11379151284E+02  0.42571797452E+02  0.46142317771E+02  0.10000000088E+02 0.  0.
         12    1    1    2    0    0  0.93418662639E+01  0.11379151284E+02 -0.42571797452E+02  0.45045682229E+02  0.00000000000E+00 0. -1.
         11    1    3    3    0    0 -0.35125316689E+01 -0.45776935268E+00  0.15149900097E+02  0.15558499436E+02  0.51100000000E-03 0. -1.
        -11    1    3    3    0    0 -0.50459211782E-02  0.87295422126E-01  0.44674550412E+01  0.44683107276E+01  0.51100000000E-03 0.  1.
         12    1    3    3    0    0 -0.58242886739E+01 -0.11008677354E+02  0.22954442314E+02  0.26115507607E+02  0.00000000000E+00 0. -1.
</event>
<event>
 7    1  0.1485408E-008  0.4614232E+02  0.7816164E-02  0.1320468E+00
        -11   -1    0    0    0    0  0.00000000000E+00  0.00000000000E+00  0.45593999997E+02  0.45594000000E+02  0.51100000000E-03 0. -1.
         11   -1    0    0    0    0 -0.00000000000E+00 -0.00000000000E+00 -0.45593999997E+02  0.45594000000E+02  0.51100000000E-03 0.  1.
    9900012    2    1    2    0    0 -0.90830463499E+01 -0.39512138771E+02 -0.19631672161E+02  0.46142318819E+02  0.10000009644E+02 0.  0.
         12    1    1    2    0    0  0.90830463499E+01  0.39512138771E+02  0.19631672161E+02  0.45045681181E+02  0.00000000000E+00 0. -1.
         11    1    3    3    0    0 -0.27617069970E+01 -0.65461774018E+01 -0.65111905516E+01  0.96371710980E+01  0.51100000000E-03 0. -1.
        -11    1    3    3    0    0 -0.73762879495E+01 -0.30570112441E+02 -0.12057446845E+02  0.33679718278E+02  0.51100000000E-03 0.  1.
        -12    1    3    3    0    0  0.10549485966E+01 -0.23958489278E+01 -0.10630347640E+01  0.28254294427E+01  0.00000000000E+00 0.  1.
</event>
<event>
 7    1  0.1485408E-008  0.4614232E+02  0.7816164E-02  0.1320468E+00
        -11   -1    0    0    0    0  0.00000000000E+00  0.00000000000E+00  0.45593999997E+02  0.45594000000E+02  0.51100000000E-03 0.  1.
         11   -1    0    0    0    0 -0.00000000000E+00 -0.00000000000E+00 -0.45593999997E+02  0.45594000000E+02  0.51100000000E-03 0. -1.
    9900012    2    1    2    0    0 -0.27672273407E+02  0.27139091080E+02  0.22952745721E+02  0.46142317451E+02  0.99999971707E+01 0.  0.
         12    1    1    2    0    0  0.27672273407E+02 -0.27139091080E+02 -0.22952745721E+02  0.45045682549E+02  0.00000000000E+00 0. -1.
         11    1    3    3    0    0 -0.19960019675E+02  0.17183132090E+02  0.11709582105E+02  0.28823197726E+02  0.51100000000E-03 0. -1.
        -11    1    3    3    0    0 -0.54126495360E+01  0.47461818103E+01  0.44854104441E+01  0.84818585162E+01  0.51100000000E-03 0.  1.
         12    1    3    3    0    0 -0.22996041964E+01  0.52097771793E+01  0.67577531727E+01  0.88372612082E+01  0.00000000000E+00 0. -1.
</event>
<event>
 7    1  0.1485408E-008  0.4614232E+02  0.7816164E-02  0.1320468E+00
        -11   -1    0    0    0    0  0.00000000000E+00  0.00000000000E+00  0.45593999997E+02  0.45594000000E+02  0.51100000000E-03 0. -1.
         11   -1    0    0    0    0 -0.00000000000E+00 -0.00000000000E+00 -0.45593999997E+02  0.45594000000E+02  0.51100000000E-03 0.  1.
    9900012    2    1    2    0    0  0.24067554811E+02  0.38072701094E+02 -0.57944592315E+00  0.46142317402E+02  0.99999967242E+01 0.  0.
         12    1    1    2    0    0 -0.24067554811E+02 -0.38072701094E+02  0.57944592315E+00  0.45045682598E+02  0.00000000000E+00 0. -1.
         11    1    3    3    0    0  0.27380870679E+01  0.14399715685E+01 -0.17261544637E+01  0.35426329761E+01  0.51100000000E-03 0. -1.
        -11    1    3    3    0    0  0.10382537546E+02  0.20726828791E+02  0.20302938602E+01  0.23270595417E+02  0.51100000000E-03 0.  1.
         12    1    3    3    0    0  0.10946930197E+02  0.15905900734E+02 -0.88358531969E+00  0.19329089009E+02  0.00000000000E+00 0. -1.
</event>
<event>
 7    1  0.1485408E-008  0.4614232E+02  0.7816164E-02  0.1320468E+00
        -11   -1    0    0    0    0  0.00000000000E+00  0.00000000000E+00  0.45593999997E+02  0.45594000000E+02  0.51100000000E-03 0.  1.
         11   -1    0    0    0    0 -0.00000000000E+00 -0.00000000000E+00 -0.45593999997E+02  0.45594000000E+02  0.51100000000E-03 0. -1.
    9900012    2    1    2    0    0 -0.21787658660E+01  0.43932018523E+02  0.97130923395E+01  0.46142318353E+02  0.10000005398E+02 0.  0.
         12    1    1    2    0    0  0.21787658660E+01 -0.43932018523E+02 -0.97130923395E+01  0.45045681647E+02  0.00000000000E+00 0. -1.
         11    1    3    3    0    0 -0.23226392700E+01  0.17117808164E+02  0.44780869448E+01  0.17845651360E+02  0.51100000000E-03 0. -1.
        -11    1    3    3    0    0 -0.25449342850E+01  0.22888326588E+02  0.39271848675E+01  0.23361827106E+02  0.51100000000E-03 0.  1.
         12    1    3    3    0    0  0.26888076890E+01  0.39258837721E+01  0.13078205273E+01  0.49348398872E+01  0.00000000000E+00 0. -1.
</event>
<event>
 7    1  0.1485408E-008  0.4614232E+02  0.7816164E-02  0.1320468E+00
        -11   -1    0    0    0    0  0.00000000000E+00  0.00000000000E+00  0.45593999997E+02  0.45594000000E+02  0.51100000000E-03 0.  1.
         11   -1    0    0    0    0 -0.00000000000E+00 -0.00000000000E+00 -0.45593999997E+02  0.45594000000E+02  0.51100000000E-03 0. -1.
    9900012    2    1    2    0    0 -0.75247321523E+01  0.22473319211E+02  0.38307203285E+02  0.46142317701E+02  0.99999994502E+01 0.  0.
         12    1    1    2    0    0  0.75247321523E+01 -0.22473319211E+02 -0.38307203285E+02  0.45045682299E+02  0.00000000000E+00 0. -1.
         11    1    3    3    0    0  0.82581377494E+00  0.80624809459E+01  0.84494838122E+01  0.11708088843E+02  0.51100000000E-03 0. -1.
        -11    1    3    3    0    0 -0.44148511454E+01  0.10980883577E+02  0.22344314817E+02  0.25285156113E+02  0.51100000000E-03 0.  1.
         12    1    3    3    0    0 -0.39356947818E+01  0.34299546875E+01  0.75134046558E+01  0.91490727451E+01  0.00000000000E+00 0. -1.
</event>
<event>
 7    1  0.1485408E-008  0.4614232E+02  0.7816164E-02  0.1320468E+00
        -11   -1    0    0    0    0  0.00000000000E+00  0.00000000000E+00  0.45593999997E+02  0.45594000000E+02  0.51100000000E-03 0.  1.
         11   -1    0    0    0    0 -0.00000000000E+00 -0.00000000000E+00 -0.45593999997E+02  0.45594000000E+02  0.51100000000E-03 0. -1.
    9900012    2    1    2    0    0  0.57409900484E+01 -0.44367849253E+02  0.52581813392E+01  0.46142317797E+02  0.10000000331E+02 0.  0.
         12    1    1    2    0    0 -0.57409900484E+01  0.44367849253E+02 -0.52581813392E+01  0.45045682203E+02  0.00000000000E+00 0. -1.
         11    1    3    3    0    0  0.32522310558E+01 -0.58658668719E+01 -0.12286255883E+01  0.68187185084E+01  0.51100000000E-03 0. -1.
        -11    1    3    3    0    0  0.14671323295E+01 -0.31791892078E+02  0.39164801023E+01  0.32065802591E+02  0.51100000000E-03 0.  1.
         12    1    3    3    0    0  0.10216266630E+01 -0.67100903039E+01  0.25703268251E+01  0.72577966982E+01  0.00000000000E+00 0. -1.
</event>
<event>
 7    1  0.1485408E-008  0.4614232E+02  0.7816164E-02  0.1320468E+00
        -11   -1    0    0    0    0  0.00000000000E+00  0.00000000000E+00  0.45593999997E+02  0.45594000000E+02  0.51100000000E-03 0.  1.
         11   -1    0    0    0    0 -0.00000000000E+00 -0.00000000000E+00 -0.45593999997E+02  0.45594000000E+02  0.51100000000E-03 0. -1.
    9900012    2    1    2    0    0 -0.32556351667E+02 -0.26143524050E+02  0.16903066306E+02  0.46142317253E+02  0.99999953693E+01 0.  0.
         12    1    1    2    0    0  0.32556351667E+02  0.26143524050E+02 -0.16903066306E+02  0.45045682747E+02  0.00000000000E+00 0. -1.
         11    1    3    3    0    0 -0.60584737040E+01 -0.59455502231E+01  0.72681842937E+01  0.11175024576E+02  0.51100000000E-03 0. -1.
        -11    1    3    3    0    0 -0.25769552297E+02 -0.19155374138E+02  0.10023724925E+02  0.33637378696E+02  0.51100000000E-03 0.  1.
        -12    1    3    3    0    0 -0.72832566624E+00 -0.10425996885E+01 -0.38884291304E+00  0.13299139813E+01  0.00000000000E+00 0.  1.
</event>
<event>
 7    1  0.1485408E-008  0.4614232E+02  0.7816164E-02  0.1320468E+00
        -11   -1    0    0    0    0  0.00000000000E+00  0.00000000000E+00  0.45593999997E+02  0.45594000000E+02  0.51100000000E-03 0. -1.
         11   -1    0    0    0    0 -0.00000000000E+00 -0.00000000000E+00 -0.45593999997E+02  0.45594000000E+02  0.51100000000E-03 0.  1.
    9900012    2    1    2    0    0 -0.43492960525E+02  0.88961278029E+01 -0.76377240057E+01  0.46142317265E+02  0.99999954720E+01 0.  0.
         12    1    1    2    0    0  0.43492960525E+02 -0.88961278029E+01  0.76377240057E+01  0.45045682735E+02  0.00000000000E+00 0. -1.
         11    1    3    3    0    0 -0.51350310245E+01  0.23091442654E+01  0.35717083406E+00  0.56416542013E+01  0.51100000000E-03 0. -1.
        -11    1    3    3    0    0 -0.11179173110E+02  0.55219846261E+01 -0.17206354946E+01  0.12586771325E+02  0.51100000000E-03 0.  1.
        -12    1    3    3    0    0 -0.27178756391E+02  0.10649989114E+01 -0.62742593451E+01  0.27913891738E+02  0.00000000000E+00 0.  1.
</event>
<event>
 7    1  0.1485408E-008  0.4614231E+02  0.7816164E-02  0.1320468E+00
        -11   -1    0    0    0    0  0.00000000000E+00  0.00000000000E+00  0.45593999997E+02  0.45594000000E+02  0.51100000000E-03 0.  1.
         11   -1    0    0    0    0 -0.00000000000E+00 -0.00000000000E+00 -0.45593999997E+02  0.45594000000E+02  0.51100000000E-03 0. -1.
    9900012    2    1    2    0    0 -0.30020930200E+02  0.33214200337E+02  0.49673859709E+01  0.46142309002E+02  0.99999201311E+01 0.  0.
         12    1    1    2    0    0  0.30020930200E+02 -0.33214200337E+02 -0.49673859709E+01  0.45045690998E+02  0.00000000000E+00 0. -1.
         11    1    3    3    0    0 -0.99070255486E+01  0.16299245287E+02  0.31526022280E+01  0.19332704240E+02  0.51100000000E-03 0. -1.
        -11    1    3    3    0    0 -0.11517894736E+02  0.64522559055E+01  0.63528867540E+00  0.13217302954E+02  0.51100000000E-03 0.  1.
        -12    1    3    3    0    0 -0.85960099150E+01  0.10462699144E+02  0.11794950676E+01  0.13592301809E+02  0.00000000000E+00 0.  1.
</event>
<event>
 7    1  0.1485408E-008  0.4614232E+02  0.7816164E-02  0.1320468E+00
        -11   -1    0    0    0    0  0.00000000000E+00  0.00000000000E+00  0.45593999997E+02  0.45594000000E+02  0.51100000000E-03 0. -1.
         11   -1    0    0    0    0 -0.00000000000E+00 -0.00000000000E+00 -0.45593999997E+02  0.45594000000E+02  0.51100000000E-03 0.  1.
    9900012    2    1    2    0    0 -0.34772486155E+02  0.26438950155E+02 -0.10998618218E+02  0.46142317839E+02  0.10000000708E+02 0.  0.
         12    1    1    2    0    0  0.34772486155E+02 -0.26438950155E+02  0.10998618218E+02  0.45045682161E+02  0.00000000000E+00 0. -1.
         11    1    3    3    0    0 -0.87206468307E+01  0.75829673229E+01 -0.48988662919E+00  0.11566808710E+02  0.51100000000E-03 0. -1.
        -11    1    3    3    0    0 -0.60496272571E+01  0.63837897575E+01 -0.58070003230E+01  0.10539070862E+02  0.51100000000E-03 0.  1.
        -12    1    3    3    0    0 -0.20002212067E+02  0.12472193074E+02 -0.47017312661E+01  0.24036438267E+02  0.00000000000E+00 0.  1.
</event>
<event>
 7    1  0.1485408E-008  0.4614232E+02  0.7816164E-02  0.1320468E+00
        -11   -1    0    0    0    0  0.00000000000E+00  0.00000000000E+00  0.45593999997E+02  0.45594000000E+02  0.51100000000E-03 0.  1.
         11   -1    0    0    0    0 -0.00000000000E+00 -0.00000000000E+00 -0.45593999997E+02  0.45594000000E+02  0.51100000000E-03 0. -1.
    9900012    2    1    2    0    0 -0.22660866831E+02  0.29589576972E+02  0.25299319917E+02  0.46142317197E+02  0.99999948591E+01 0.  0.
         12    1    1    2    0    0  0.22660866831E+02 -0.29589576972E+02 -0.25299319917E+02  0.45045682803E+02  0.00000000000E+00 0. -1.
         11    1    3    3    0    0 -0.16968168592E+02  0.15305705771E+02  0.14082779567E+02  0.26842281108E+02  0.51100000000E-03 0. -1.
        -11    1    3    3    0    0 -0.56586291058E+01  0.13071624916E+02  0.11143812174E+02  0.18085132328E+02  0.51100000000E-03 0.  1.
         12    1    3    3    0    0 -0.34069133777E-01  0.12122462849E+01  0.72728176172E-01  0.12149037611E+01  0.00000000000E+00 0. -1.
</event>
<event>
 7    1  0.1485408E-008  0.4614232E+02  0.7816164E-02  0.1320468E+00
        -11   -1    0    0    0    0  0.00000000000E+00  0.00000000000E+00  0.45593999997E+02  0.45594000000E+02  0.51100000000E-03 0.  1.
         11   -1    0    0    0    0 -0.00000000000E+00 -0.00000000000E+00 -0.45593999997E+02  0.45594000000E+02  0.51100000000E-03 0. -1.
    9900012    2    1    2    0    0 -0.25943392086E+02  0.36771953762E+02  0.19690848755E+01  0.46142317947E+02  0.10000001691E+02 0.  0.
         12    1    1    2    0    0  0.25943392086E+02 -0.36771953762E+02 -0.19690848755E+01  0.45045682053E+02  0.00000000000E+00 0. -1.
         11    1    3    3    0    0 -0.21641267356E+02  0.25507807182E+02  0.43246484962E+01  0.33729738583E+02  0.51100000000E-03 0. -1.
        -11    1    3    3    0    0 -0.61935383287E+00  0.72353592216E+00  0.16385533222E+00  0.96641204047E+00  0.51100000000E-03 0.  1.
         12    1    3    3    0    0 -0.36827708970E+01  0.10540610658E+02 -0.25194189529E+01  0.11446167323E+02  0.00000000000E+00 0. -1.
</event>
<event>
 7    1  0.1485408E-008  0.4614232E+02  0.7816164E-02  0.1320468E+00
        -11   -1    0    0    0    0  0.00000000000E+00  0.00000000000E+00  0.45593999997E+02  0.45594000000E+02  0.51100000000E-03 0. -1.
         11   -1    0    0    0    0 -0.00000000000E+00 -0.00000000000E+00 -0.45593999997E+02  0.45594000000E+02  0.51100000000E-03 0.  1.
    9900012    2    1    2    0    0 -0.10267690312E+02  0.30474201301E+02 -0.31543796674E+02  0.46142317433E+02  0.99999970108E+01 0.  0.
         12    1    1    2    0    0  0.10267690312E+02 -0.30474201301E+02  0.31543796674E+02  0.45045682567E+02  0.00000000000E+00 0. -1.
         11    1    3    3    0    0 -0.55099668393E+00  0.65067852315E+01 -0.26305185469E+01  0.70399914404E+01  0.51100000000E-03 0. -1.
        -11    1    3    3    0    0 -0.57648874269E+01  0.19421493711E+02 -0.23197447734E+02  0.30798537735E+02  0.51100000000E-03 0.  1.
        -12    1    3    3    0    0 -0.39518062008E+01  0.45459223590E+01 -0.57158303936E+01  0.83037882579E+01  0.00000000000E+00 0.  1.
</event>
<event>
 7    1  0.1485408E-008  0.4614232E+02  0.7816164E-02  0.1320468E+00
        -11   -1    0    0    0    0  0.00000000000E+00  0.00000000000E+00  0.45593999997E+02  0.45594000000E+02  0.51100000000E-03 0.  1.
         11   -1    0    0    0    0 -0.00000000000E+00 -0.00000000000E+00 -0.45593999997E+02  0.45594000000E+02  0.51100000000E-03 0. -1.
    9900012    2    1    2    0    0  0.80984773187E+01 -0.39624977518E+02  0.19834032165E+02  0.46142323069E+02  0.10000048406E+02 0.  0.
         12    1    1    2    0    0 -0.80984773187E+01  0.39624977518E+02 -0.19834032165E+02  0.45045676931E+02  0.00000000000E+00 0. -1.
         11    1    3    3    0    0  0.51919048202E+01 -0.15620868584E+02  0.69876237902E+01  0.17882793336E+02  0.51100000000E-03 0. -1.
        -11    1    3    3    0    0  0.90811131637E+00 -0.12594286229E+02  0.10541706820E+02  0.16448960293E+02  0.51100000000E-03 0.  1.
         12    1    3    3    0    0  0.19984611821E+01 -0.11409822705E+02  0.23047015543E+01  0.11810569440E+02  0.00000000000E+00 0. -1.
</event>
<event>
 7    1  0.1485408E-008  0.4614232E+02  0.7816164E-02  0.1320468E+00
        -11   -1    0    0    0    0  0.00000000000E+00  0.00000000000E+00  0.45593999997E+02  0.45594000000E+02  0.51100000000E-03 0. -1.
         11   -1    0    0    0    0 -0.00000000000E+00 -0.00000000000E+00 -0.45593999997E+02  0.45594000000E+02  0.51100000000E-03 0.  1.
    9900012    2    1    2    0    0 -0.35298399513E+01  0.43610606993E+02 -0.10713001930E+02  0.46142320710E+02  0.10000026887E+02 0.  0.
         12    1    1    2    0    0  0.35298399513E+01 -0.43610606993E+02  0.10713001930E+02  0.45045679290E+02  0.00000000000E+00 0. -1.
         11    1    3    3    0    0 -0.26445925145E+01  0.21454756894E+02 -0.20131930339E+01  0.21710675010E+02  0.51100000000E-03 0. -1.
        -11    1    3    3    0    0  0.94121720690E+00  0.40470353115E+01 -0.36825553302E+01  0.55520805708E+01  0.51100000000E-03 0.  1.
         12    1    3    3    0    0 -0.18264646438E+01  0.18108814787E+02 -0.50172535657E+01  0.18879565129E+02  0.00000000000E+00 0. -1.
</event>
<event>
 7    1  0.1485408E-008  0.4614232E+02  0.7816164E-02  0.1320468E+00
        -11   -1    0    0    0    0  0.00000000000E+00  0.00000000000E+00  0.45593999997E+02  0.45594000000E+02  0.51100000000E-03 0.  1.
         11   -1    0    0    0    0 -0.00000000000E+00 -0.00000000000E+00 -0.45593999997E+02  0.45594000000E+02  0.51100000000E-03 0. -1.
    9900012    2    1    2    0    0 -0.17914338021E+02  0.38619123671E+02  0.14722537510E+02  0.46142319512E+02  0.10000015969E+02 0.  0.
         12    1    1    2    0    0  0.17914338021E+02 -0.38619123671E+02 -0.14722537510E+02  0.45045680488E+02  0.00000000000E+00 0. -1.
         11    1    3    3    0    0  0.51188547302E+00  0.41153909621E+01  0.38933998146E+00  0.41653397689E+01  0.51100000000E-03 0. -1.
        -11    1    3    3    0    0 -0.86985392248E+01  0.13830556100E+02  0.35834332122E+01  0.16726920234E+02  0.51100000000E-03 0.  1.
        -12    1    3    3    0    0 -0.97276842697E+01  0.20673176609E+02  0.10749764317E+02  0.25250059509E+02  0.00000000000E+00 0.  1.
</event>
<event>
 7    1  0.1485408E-008  0.4614232E+02  0.7816164E-02  0.1320468E+00
        -11   -1    0    0    0    0  0.00000000000E+00  0.00000000000E+00  0.45593999997E+02  0.45594000000E+02  0.51100000000E-03 0.  1.
         11   -1    0    0    0    0 -0.00000000000E+00 -0.00000000000E+00 -0.45593999997E+02  0.45594000000E+02  0.51100000000E-03 0. -1.
    9900012    2    1    2    0    0  0.36912164809E+02  0.11016471640E+02  0.23350437125E+02  0.46142317940E+02  0.10000001635E+02 0.  0.
         12    1    1    2    0    0 -0.36912164809E+02 -0.11016471640E+02 -0.23350437125E+02  0.45045682060E+02  0.00000000000E+00 0. -1.
         11    1    3    3    0    0  0.14920351326E+02  0.38963449186E+01  0.64413101920E+01  0.16711937789E+02  0.51100000000E-03 0. -1.
        -11    1    3    3    0    0  0.96580485809E+01  0.17289235596E+00  0.90629642573E+01  0.13245569657E+02  0.51100000000E-03 0.  1.
         12    1    3    3    0    0  0.12333764901E+02  0.69472343659E+01  0.78461626760E+01  0.16184810494E+02  0.00000000000E+00 0. -1.
</event>
<event>
 7    1  0.1485408E-008  0.4614232E+02  0.7816164E-02  0.1320468E+00
        -11   -1    0    0    0    0  0.00000000000E+00  0.00000000000E+00  0.45593999997E+02  0.45594000000E+02  0.51100000000E-03 0.  1.
         11   -1    0    0    0    0 -0.00000000000E+00 -0.00000000000E+00 -0.45593999997E+02  0.45594000000E+02  0.51100000000E-03 0. -1.
    9900012    2    1    2    0    0 -0.24633314858E+01  0.44243353084E+02 -0.80976050586E+01  0.46142317611E+02  0.99999986353E+01 0.  0.
         12    1    1    2    0    0  0.24633314858E+01 -0.44243353084E+02  0.80976050586E+01  0.45045682389E+02  0.00000000000E+00 0. -1.
         11    1    3    3    0    0 -0.10813126096E+00 -0.17629206059E+00 -0.44583244282E+00  0.49146524640E+00  0.51100000000E-03 0. -1.
        -11    1    3    3    0    0  0.12840198844E-01  0.39732420566E+02 -0.72052808753E+01  0.40380459156E+02  0.51100000000E-03 0.  1.
        -12    1    3    3    0    0 -0.23680404237E+01  0.46872245790E+01 -0.44649174046E+00  0.52703932089E+01  0.00000000000E+00 0.  1.
</event>
<event>
 7    1  0.1485408E-008  0.4614232E+02  0.7816164E-02  0.1320468E+00
        -11   -1    0    0    0    0  0.00000000000E+00  0.00000000000E+00  0.45593999997E+02  0.45594000000E+02  0.51100000000E-03 0.  1.
         11   -1    0    0    0    0 -0.00000000000E+00 -0.00000000000E+00 -0.45593999997E+02  0.45594000000E+02  0.51100000000E-03 0. -1.
    9900012    2    1    2    0    0  0.16164407597E+01 -0.53755639678E+00  0.45013461791E+02  0.46142316633E+02  0.99999897115E+01 0.  0.
         12    1    1    2    0    0 -0.16164407597E+01  0.53755639678E+00 -0.45013461791E+02  0.45045683367E+02  0.00000000000E+00 0. -1.
         11    1    3    3    0    0 -0.21844089928E+01  0.12699600868E+00  0.24396763007E+01  0.32771620875E+01  0.51100000000E-03 0. -1.
        -11    1    3    3    0    0  0.12911273819E+01 -0.99622754990E+00  0.29704946281E+02  0.29749677529E+02  0.51100000000E-03 0.  1.
         12    1    3    3    0    0  0.25097223707E+01  0.33167514444E+00  0.12868839209E+02  0.13115477017E+02  0.00000000000E+00 0. -1.
</event>
<event>
 7    1  0.1485408E-008  0.4614232E+02  0.7816164E-02  0.1320468E+00
        -11   -1    0    0    0    0  0.00000000000E+00  0.00000000000E+00  0.45593999997E+02  0.45594000000E+02  0.51100000000E-03 0.  1.
         11   -1    0    0    0    0 -0.00000000000E+00 -0.00000000000E+00 -0.45593999997E+02  0.45594000000E+02  0.51100000000E-03 0. -1.
    9900012    2    1    2    0    0 -0.33630124763E+02  0.90029545847E+01  0.28584522403E+02  0.46142318700E+02  0.10000008558E+02 0.  0.
         12    1    1    2    0    0  0.33630124763E+02 -0.90029545847E+01 -0.28584522403E+02  0.45045681300E+02  0.00000000000E+00 0. -1.
         11    1    3    3    0    0 -0.26298019980E+02  0.52447410201E+01  0.25582106311E+02  0.37061264507E+02  0.51100000000E-03 0. -1.
        -11    1    3    3    0    0 -0.40465680612E+01  0.11508792013E+01  0.24004140885E+01  0.48436787742E+01  0.51100000000E-03 0.  1.
         12    1    3    3    0    0 -0.32855367210E+01  0.26073343633E+01  0.60200200360E+00  0.42373754187E+01  0.00000000000E+00 0. -1.
</event>
<event>
 7    1  0.1485408E-008  0.4614232E+02  0.7816164E-02  0.1320468E+00
        -11   -1    0    0    0    0  0.00000000000E+00  0.00000000000E+00  0.45593999997E+02  0.45594000000E+02  0.51100000000E-03 0. -1.
         11   -1    0    0    0    0 -0.00000000000E+00 -0.00000000000E+00 -0.45593999997E+02  0.45594000000E+02  0.51100000000E-03 0.  1.
    9900012    2    1    2    0    0 -0.26143384909E+02 -0.22071671379E+02 -0.29299798780E+02  0.46142318070E+02  0.10000002818E+02 0.  0.
         12    1    1    2    0    0  0.26143384909E+02  0.22071671379E+02  0.29299798780E+02  0.45045681930E+02  0.00000000000E+00 0. -1.
         11    1    3    3    0    0 -0.11886586623E+02 -0.10919760529E+02 -0.17053306080E+02  0.23480787041E+02  0.51100000000E-03 0. -1.
        -11    1    3    3    0    0 -0.11900638258E+02 -0.11642540494E+02 -0.10424107010E+02  0.19642707230E+02  0.51100000000E-03 0.  1.
         12    1    3    3    0    0 -0.23561600276E+01  0.49062964414E+00 -0.18223856900E+01  0.30188237985E+01  0.00000000000E+00 0. -1.
</event>
<event>
 7    1  0.1485408E-008  0.4614232E+02  0.7816164E-02  0.1320468E+00
        -11   -1    0    0    0    0  0.00000000000E+00  0.00000000000E+00  0.45593999997E+02  0.45594000000E+02  0.51100000000E-03 0.  1.
         11   -1    0    0    0    0 -0.00000000000E+00 -0.00000000000E+00 -0.45593999997E+02  0.45594000000E+02  0.51100000000E-03 0. -1.
    9900012    2    1    2    0    0  0.22621180876E+02  0.28228164304E+02  0.26843366108E+02  0.46142318872E+02  0.10000010134E+02 0.  0.
         12    1    1    2    0    0 -0.22621180876E+02 -0.28228164304E+02 -0.26843366108E+02  0.45045681128E+02  0.00000000000E+00 0. -1.
         11    1    3    3    0    0  0.48177416605E+00  0.21226437795E+01  0.30958347566E+01  0.37844307449E+01  0.51100000000E-03 0. -1.
        -11    1    3    3    0    0  0.10767600319E+02  0.71383193601E+01  0.77762142435E+01  0.15078671299E+02  0.51100000000E-03 0.  1.
        -12    1    3    3    0    0  0.11371806392E+02  0.18967201165E+02  0.15971317108E+02  0.27279216829E+02  0.00000000000E+00 0.  1.
</event>
<event>
 7    1  0.1485408E-008  0.4614232E+02  0.7816164E-02  0.1320468E+00
        -11   -1    0    0    0    0  0.00000000000E+00  0.00000000000E+00  0.45593999997E+02  0.45594000000E+02  0.51100000000E-03 0.  1.
         11   -1    0    0    0    0 -0.00000000000E+00 -0.00000000000E+00 -0.45593999997E+02  0.45594000000E+02  0.51100000000E-03 0. -1.
    9900012    2    1    2    0    0 -0.44269815459E+01 -0.43822981548E+02  0.94372404441E+01  0.46142318913E+02  0.10000010505E+02 0.  0.
         12    1    1    2    0    0  0.44269815459E+01  0.43822981548E+02 -0.94372404441E+01  0.45045681087E+02  0.00000000000E+00 0. -1.
         11    1    3    3    0    0 -0.17019727241E+01 -0.10481417906E+01  0.12278047811E+01  0.23458084338E+01  0.51100000000E-03 0. -1.
        -11    1    3    3    0    0 -0.22972028540E+00 -0.17348229107E+02  0.17087196624E+01  0.17433690020E+02  0.51100000000E-03 0.  1.
         12    1    3    3    0    0 -0.24952885364E+01 -0.25426610650E+02  0.65007160006E+01  0.26362820459E+02  0.00000000000E+00 0. -1.
</event>
<event>
 7    1  0.1485408E-008  0.4614232E+02  0.7816164E-02  0.1320468E+00
        -11   -1    0    0    0    0  0.00000000000E+00  0.00000000000E+00  0.45593999997E+02  0.45594000000E+02  0.51100000000E-03 0.  1.
         11   -1    0    0    0    0 -0.00000000000E+00 -0.00000000000E+00 -0.45593999997E+02  0.45594000000E+02  0.51100000000E-03 0. -1.
    9900012    2    1    2    0    0  0.44987841511E+02  0.20815039803E+01  0.93541875608E+00  0.46142317067E+02  0.99999936719E+01 0.  0.
         12    1    1    2    0    0 -0.44987841511E+02 -0.20815039803E+01 -0.93541875608E+00  0.45045682933E+02  0.00000000000E+00 0. -1.
         11    1    3    3    0    0  0.16418182480E+01 -0.15500949705E+00  0.19705406004E+01  0.25695574760E+01  0.51100000000E-03 0. -1.
        -11    1    3    3    0    0  0.27106839073E+02 -0.13928868045E+00 -0.15629658329E+01  0.27152218847E+02  0.51100000000E-03 0.  1.
         12    1    3    3    0    0  0.16239184190E+02  0.23758021578E+01  0.52784398863E+00  0.16420540744E+02  0.00000000000E+00 0. -1.
</event>
<event>
 7    1  0.1485408E-008  0.4614232E+02  0.7816164E-02  0.1320468E+00
        -11   -1    0    0    0    0  0.00000000000E+00  0.00000000000E+00  0.45593999997E+02  0.45594000000E+02  0.51100000000E-03 0. -1.
         11   -1    0    0    0    0 -0.00000000000E+00 -0.00000000000E+00 -0.45593999997E+02  0.45594000000E+02  0.51100000000E-03 0.  1.
    9900012    2    1    2    0    0 -0.10893031957E+02  0.33358079681E+02  0.28243474806E+02  0.46142317695E+02  0.99999993953E+01 0.  0.
         12    1    1    2    0    0  0.10893031957E+02 -0.33358079681E+02 -0.28243474806E+02  0.45045682305E+02  0.00000000000E+00 0. -1.
         11    1    3    3    0    0 -0.80020809520E+01  0.11314182509E+02  0.94141647062E+01  0.16753224250E+02  0.51100000000E-03 0. -1.
        -11    1    3    3    0    0 -0.21843288714E+01  0.14996702561E+02  0.10404590479E+02  0.18382814899E+02  0.51100000000E-03 0.  1.
        -12    1    3    3    0    0 -0.70662213396E+00  0.70471946116E+01  0.84247196208E+01  0.11006278546E+02  0.00000000000E+00 0.  1.
</event>
<event>
 7    1  0.1485408E-008  0.4614232E+02  0.7816164E-02  0.1320468E+00
        -11   -1    0    0    0    0  0.00000000000E+00  0.00000000000E+00  0.45593999997E+02  0.45594000000E+02  0.51100000000E-03 0.  1.
         11   -1    0    0    0    0 -0.00000000000E+00 -0.00000000000E+00 -0.45593999997E+02  0.45594000000E+02  0.51100000000E-03 0. -1.
    9900012    2    1    2    0    0 -0.35175064334E+01 -0.43351548418E+02  0.11721088605E+02  0.46142317412E+02  0.99999968122E+01 0.  0.
         12    1    1    2    0    0  0.35175064334E+01  0.43351548418E+02 -0.11721088605E+02  0.45045682588E+02  0.00000000000E+00 0. -1.
         11    1    3    3    0    0 -0.37764192149E+01 -0.16234069672E+02  0.80591519411E+01  0.18513678470E+02  0.51100000000E-03 0. -1.
        -11    1    3    3    0    0 -0.12233454173E+01 -0.12752171487E+02  0.30777987680E+01  0.13175253210E+02  0.51100000000E-03 0.  1.
         12    1    3    3    0    0  0.14822581989E+01 -0.14365307259E+02  0.58413789615E+00  0.14453385732E+02  0.00000000000E+00 0. -1.
</event>
<event>
 7    1  0.1485408E-008  0.4614232E+02  0.7816164E-02  0.1320468E+00
        -11   -1    0    0    0    0  0.00000000000E+00  0.00000000000E+00  0.45593999997E+02  0.45594000000E+02  0.51100000000E-03 0. -1.
         11   -1    0    0    0    0 -0.00000000000E+00 -0.00000000000E+00 -0.45593999997E+02  0.45594000000E+02  0.51100000000E-03 0.  1.
    9900012    2    1    2    0    0 -0.59407680796E+01 -0.21507275860E+02 -0.39131290324E+02  0.46142317380E+02  0.99999965234E+01 0.  0.
         12    1    1    2    0    0  0.59407680796E+01  0.21507275860E+02  0.39131290324E+02  0.45045682620E+02  0.00000000000E+00 0. -1.
         11    1    3    3    0    0 -0.98103436220E+00 -0.76543225686E-01 -0.54327025869E+01  0.55210999759E+01  0.51100000000E-03 0. -1.
        -11    1    3    3    0    0 -0.26328083580E+01 -0.16199357251E+02 -0.28500032118E+02  0.32887728505E+02  0.51100000000E-03 0.  1.
        -12    1    3    3    0    0 -0.23269253594E+01 -0.52313753840E+01 -0.51985556184E+01  0.77334888992E+01  0.00000000000E+00 0.  1.
</event>
<event>
 7    1  0.1485408E-008  0.4614231E+02  0.7816164E-02  0.1320468E+00
        -11   -1    0    0    0    0  0.00000000000E+00  0.00000000000E+00  0.45593999997E+02  0.45594000000E+02  0.51100000000E-03 0.  1.
         11   -1    0    0    0    0 -0.00000000000E+00 -0.00000000000E+00 -0.45593999997E+02  0.45594000000E+02  0.51100000000E-03 0. -1.
    9900012    2    1    2    0    0 -0.83525141645E+00 -0.41467425502E+02  0.17574682098E+02  0.46142306826E+02  0.99999002828E+01 0.  0.
         12    1    1    2    0    0  0.83525141645E+00  0.41467425502E+02 -0.17574682098E+02  0.45045693174E+02  0.00000000000E+00 0. -1.
         11    1    3    3    0    0  0.25749505852E+01 -0.71590654428E+01  0.51476901640E+00  0.76254557852E+01  0.51100000000E-03 0. -1.
        -11    1    3    3    0    0 -0.33439053636E+01 -0.31196260187E+02  0.14937626166E+02  0.34749403282E+02  0.51100000000E-03 0.  1.
         12    1    3    3    0    0 -0.66296638032E-01 -0.31120998720E+01  0.21222869163E+01  0.37674477584E+01  0.00000000000E+00 0. -1.
</event>
<event>
 7    1  0.1485408E-008  0.4614232E+02  0.7816164E-02  0.1320468E+00
        -11   -1    0    0    0    0  0.00000000000E+00  0.00000000000E+00  0.45593999997E+02  0.45594000000E+02  0.51100000000E-03 0. -1.
         11   -1    0    0    0    0 -0.00000000000E+00 -0.00000000000E+00 -0.45593999997E+02  0.45594000000E+02  0.51100000000E-03 0.  1.
    9900012    2    1    2    0    0 -0.38571270800E+02  0.34005447538E+01 -0.23017535643E+02  0.46142316713E+02  0.99999904388E+01 0.  0.
         12    1    1    2    0    0  0.38571270800E+02 -0.34005447538E+01  0.23017535643E+02  0.45045683287E+02  0.00000000000E+00 0. -1.
         11    1    3    3    0    0 -0.53148206342E+01 -0.23289429798E+01 -0.33469153049E+01  0.66987413815E+01  0.51100000000E-03 0. -1.
        -11    1    3    3    0    0 -0.13611224452E+02  0.27985904295E+00 -0.58761128059E+01  0.14828096780E+02  0.51100000000E-03 0.  1.
         12    1    3    3    0    0 -0.19645225714E+02  0.54496286906E+01 -0.13794507532E+02  0.24615478551E+02  0.00000000000E+00 0. -1.
</event>
<event>
 7    1  0.1485408E-008  0.4614232E+02  0.7816164E-02  0.1320468E+00
        -11   -1    0    0    0    0  0.00000000000E+00  0.00000000000E+00  0.45593999997E+02  0.45594000000E+02  0.51100000000E-03 0.  1.
         11   -1    0    0    0    0 -0.00000000000E+00 -0.00000000000E+00 -0.45593999997E+02  0.45594000000E+02  0.51100000000E-03 0. -1.
    9900012    2    1    2    0    0  0.22321534924E+02  0.16034639069E+02  0.35689673331E+02  0.46142319253E+02  0.10000013606E+02 0.  0.
         12    1    1    2    0    0 -0.22321534924E+02 -0.16034639069E+02 -0.35689673331E+02  0.45045680747E+02  0.00000000000E+00 0. -1.
         11    1    3    3    0    0  0.49373468664E+01  0.66704227331E+01  0.76417753834E+01  0.11281341445E+02  0.51100000000E-03 0. -1.
        -11    1    3    3    0    0  0.15063070214E+02  0.58086265729E+01  0.24430542006E+02  0.29282889371E+02  0.51100000000E-03 0.  1.
        -12    1    3    3    0    0  0.23211178430E+01  0.35555897634E+01  0.36173559424E+01  0.55780884379E+01  0.00000000000E+00 0.  1.
</event>
<event>
 7    1  0.1485408E-008  0.4614232E+02  0.7816164E-02  0.1320468E+00
        -11   -1    0    0    0    0  0.00000000000E+00  0.00000000000E+00  0.45593999997E+02  0.45594000000E+02  0.51100000000E-03 0. -1.
         11   -1    0    0    0    0 -0.00000000000E+00 -0.00000000000E+00 -0.45593999997E+02  0.45594000000E+02  0.51100000000E-03 0.  1.
    9900012    2    1    2    0    0 -0.42512026167E+01  0.43511989648E+02  0.10851153980E+02  0.46142317527E+02  0.99999978646E+01 0.  0.
         12    1    1    2    0    0  0.42512026167E+01 -0.43511989648E+02 -0.10851153980E+02  0.45045682473E+02  0.00000000000E+00 0. -1.
         11    1    3    3    0    0  0.10743895046E+01  0.94699277531E+01  0.50530240108E+01  0.10787348904E+02  0.51100000000E-03 0. -1.
        -11    1    3    3    0    0 -0.24656670053E+01  0.18734259189E+02  0.58551935551E+01  0.19782195858E+02  0.51100000000E-03 0.  1.
        -12    1    3    3    0    0 -0.28599251160E+01  0.15307802706E+02 -0.57063586304E-01  0.15572772765E+02  0.00000000000E+00 0.  1.
</event>
<event>
 7    1  0.1485408E-008  0.4614232E+02  0.7816164E-02  0.1320468E+00
        -11   -1    0    0    0    0  0.00000000000E+00  0.00000000000E+00  0.45593999997E+02  0.45594000000E+02  0.51100000000E-03 0.  1.
         11   -1    0    0    0    0 -0.00000000000E+00 -0.00000000000E+00 -0.45593999997E+02  0.45594000000E+02  0.51100000000E-03 0. -1.
    9900012    2    1    2    0    0  0.42864408714E+01  0.19862908639E+02  0.40202049450E+02  0.46142317688E+02  0.99999993366E+01 0.  0.
         12    1    1    2    0    0 -0.42864408714E+01 -0.19862908639E+02 -0.40202049450E+02  0.45045682312E+02  0.00000000000E+00 0. -1.
         11    1    3    3    0    0 -0.92732827347E+00  0.84193219770E+01  0.17851924065E+02  0.19759456303E+02  0.51100000000E-03 0. -1.
        -11    1    3    3    0    0  0.46600084026E+01  0.71114788328E+01  0.19198970535E+02  0.20997363629E+02  0.51100000000E-03 0.  1.
         12    1    3    3    0    0  0.55376074223E+00  0.43321078291E+01  0.31511548499E+01  0.53854977570E+01  0.00000000000E+00 0. -1.
</event>
<event>
 7    1  0.1485408E-008  0.4614232E+02  0.7816164E-02  0.1320468E+00
        -11   -1    0    0    0    0  0.00000000000E+00  0.00000000000E+00  0.45593999997E+02  0.45594000000E+02  0.51100000000E-03 0.  1.
         11   -1    0    0    0    0 -0.00000000000E+00 -0.00000000000E+00 -0.45593999997E+02  0.45594000000E+02  0.51100000000E-03 0. -1.
    9900012    2    1    2    0    0 -0.11840336545E+02 -0.71074743211E+01  0.42876610559E+02  0.46142317702E+02  0.99999994582E+01 0.  0.
         12    1    1    2    0    0  0.11840336545E+02  0.71074743211E+01 -0.42876610559E+02  0.45045682298E+02  0.00000000000E+00 0. -1.
         11    1    3    3    0    0 -0.89363394812E+00 -0.22421798614E+01  0.15623641760E+01  0.28752276856E+01  0.51100000000E-03 0. -1.
        -11    1    3    3    0    0 -0.35395555895E+01 -0.39710475499E+01  0.19481698698E+02  0.20194906705E+02  0.51100000000E-03 0.  1.
         12    1    3    3    0    0 -0.74071470078E+01 -0.89424690967E+00  0.21832547685E+02  0.23072183311E+02  0.00000000000E+00 0. -1.
</event>
<event>
 7    1  0.1485408E-008  0.4614232E+02  0.7816164E-02  0.1320468E+00
        -11   -1    0    0    0    0  0.00000000000E+00  0.00000000000E+00  0.45593999997E+02  0.45594000000E+02  0.51100000000E-03 0.  1.
         11   -1    0    0    0    0 -0.00000000000E+00 -0.00000000000E+00 -0.45593999997E+02  0.45594000000E+02  0.51100000000E-03 0. -1.
    9900012    2    1    2    0    0 -0.54398816963E+01  0.13876021595E+02  0.42508554639E+02  0.46142317569E+02  0.99999982507E+01 0.  0.
         12    1    1    2    0    0  0.54398816963E+01 -0.13876021595E+02 -0.42508554639E+02  0.45045682431E+02  0.00000000000E+00 0. -1.
         11    1    3    3    0    0 -0.74161644660E+00  0.26482985918E+01  0.16776926767E+02  0.17000845638E+02  0.51100000000E-03 0. -1.
        -11    1    3    3    0    0 -0.37651213309E+01  0.88220818430E+01  0.24442231215E+02  0.26256959719E+02  0.51100000000E-03 0.  1.
         12    1    3    3    0    0 -0.93314391873E+00  0.24056411600E+01  0.12893966567E+01  0.28845122121E+01  0.00000000000E+00 0. -1.
</event>
<event>
 7    1  0.1485408E-008  0.4614232E+02  0.7816164E-02  0.1320468E+00
        -11   -1    0    0    0    0  0.00000000000E+00  0.00000000000E+00  0.45593999997E+02  0.45594000000E+02  0.51100000000E-03 0.  1.
         11   -1    0    0    0    0 -0.00000000000E+00 -0.00000000000E+00 -0.45593999997E+02  0.45594000000E+02  0.51100000000E-03 0. -1.
    9900012    2    1    2    0    0  0.13964337022E+02  0.13495780517E+01  0.42805247824E+02  0.46142319734E+02  0.10000017989E+02 0.  0.
         12    1    1    2    0    0 -0.13964337022E+02 -0.13495780517E+01 -0.42805247824E+02  0.45045680266E+02  0.00000000000E+00 0. -1.
         11    1    3    3    0    0  0.67495944146E+01  0.54329189269E+00  0.19446044713E+02  0.20591280827E+02  0.51100000000E-03 0. -1.
        -11    1    3    3    0    0  0.68056218063E+01  0.90283765489E+00  0.96907342566E+01  0.11876107725E+02  0.51100000000E-03 0.  1.
         12    1    3    3    0    0  0.40912080127E+00 -0.96551495855E-01  0.13668468854E+02  0.13674931182E+02  0.00000000000E+00 0. -1.
</event>
<event>
 7    1  0.1485408E-008  0.4614232E+02  0.7816164E-02  0.1320468E+00
        -11   -1    0    0    0    0  0.00000000000E+00  0.00000000000E+00  0.45593999997E+02  0.45594000000E+02  0.51100000000E-03 0.  1.
         11   -1    0    0    0    0 -0.00000000000E+00 -0.00000000000E+00 -0.45593999997E+02  0.45594000000E+02  0.51100000000E-03 0. -1.
    9900012    2    1    2    0    0  0.67547547449E+01 -0.32041173731E+02  0.30932991816E+02  0.46142317539E+02  0.99999979732E+01 0.  0.
         12    1    1    2    0    0 -0.67547547449E+01  0.32041173731E+02 -0.30932991816E+02  0.45045682461E+02  0.00000000000E+00 0. -1.
         11    1    3    3    0    0  0.76335464501E+01 -0.26046956165E+02  0.29063184552E+02  0.39766614810E+02  0.51100000000E-03 0.  1.
        -11    1    3    3    0    0 -0.21738092341E+00 -0.23065371781E+01  0.39926142116E+00  0.23509100713E+01  0.51100000000E-03 0. -1.
        -12    1    3    3    0    0 -0.66141078181E+00 -0.36876803873E+01  0.14705458431E+01  0.40247926577E+01  0.00000000000E+00 0.  1.
</event>
<event>
 7    1  0.1485408E-008  0.4614232E+02  0.7816164E-02  0.1320468E+00
        -11   -1    0    0    0    0  0.00000000000E+00  0.00000000000E+00  0.45593999997E+02  0.45594000000E+02  0.51100000000E-03 0.  1.
         11   -1    0    0    0    0 -0.00000000000E+00 -0.00000000000E+00 -0.45593999997E+02  0.45594000000E+02  0.51100000000E-03 0. -1.
    9900012    2    1    2    0    0  0.18855375652E+02  0.57123841460E+01  0.40508727151E+02  0.46142317643E+02  0.99999989272E+01 0.  0.
         12    1    1    2    0    0 -0.18855375652E+02 -0.57123841460E+01 -0.40508727151E+02  0.45045682357E+02  0.00000000000E+00 0. -1.
         11    1    3    3    0    0  0.14311255485E+02  0.50134716301E+01  0.23062628662E+02  0.27601300194E+02  0.51100000000E-03 0. -1.
        -11    1    3    3    0    0  0.19970716692E+01  0.89761115988E+00  0.22793716924E+01  0.31606228214E+01  0.51100000000E-03 0.  1.
         12    1    3    3    0    0  0.25470484977E+01 -0.19869864396E+00  0.15166726796E+02  0.15380394628E+02  0.00000000000E+00 0. -1.
</event>
<event>
 7    1  0.1485408E-008  0.4614232E+02  0.7816164E-02  0.1320468E+00
        -11   -1    0    0    0    0  0.00000000000E+00  0.00000000000E+00  0.45593999997E+02  0.45594000000E+02  0.51100000000E-03 0.  1.
         11   -1    0    0    0    0 -0.00000000000E+00 -0.00000000000E+00 -0.45593999997E+02  0.45594000000E+02  0.51100000000E-03 0. -1.
    9900012    2    1    2    0    0 -0.40039035435E+01  0.21952582257E+02  0.39130122931E+02  0.46142316167E+02  0.99999854637E+01 0.  0.
         12    1    1    2    0    0  0.40039035435E+01 -0.21952582257E+02 -0.39130122931E+02  0.45045683833E+02  0.00000000000E+00 0. -1.
         11    1    3    3    0    0  0.30464133260E+00  0.26901316341E+01  0.21441562163E+01  0.34535518950E+01  0.51100000000E-03 0. -1.
        -11    1    3    3    0    0  0.17681487309E+01  0.93594895695E+01  0.19385443924E+02  0.21599116448E+02  0.51100000000E-03 0.  1.
        -12    1    3    3    0    0 -0.60766936070E+01  0.99029610537E+01  0.17600522791E+02  0.21089647824E+02  0.00000000000E+00 0.  1.
</event>
<event>
 7    1  0.2126664E-008  0.4614232E+02  0.7816164E-02  0.1320468E+00
        -11   -1    0    0    0    0  0.00000000000E+00  0.00000000000E+00  0.45593999997E+02  0.45594000000E+02  0.51100000000E-03 0. -1.
         11   -1    0    0    0    0 -0.00000000000E+00 -0.00000000000E+00 -0.45593999997E+02  0.45594000000E+02  0.51100000000E-03 0.  1.
    9900012    2    1    2    0    0  0.31564519694E+02  0.26443947701E+02 -0.18262308112E+02  0.46142321283E+02  0.10000032114E+02 0.  0.
         12    1    1    2    0    0 -0.31564519694E+02 -0.26443947701E+02  0.18262308112E+02  0.45045678717E+02  0.00000000000E+00 0. -1.
         11    1    3    3    0    0  0.19597515448E+01  0.37909329332E+01  0.42507468639E+00  0.42886463332E+01  0.51100000000E-03 0. -1.
        -11    1    3    3    0    0  0.18918902130E+02  0.14408826077E+02 -0.99681680240E+01  0.25785722808E+02  0.51100000000E-03 0.  1.
         12    1    3    3    0    0  0.10685866019E+02  0.82441886909E+01 -0.87192147740E+01  0.16067952142E+02  0.00000000000E+00 0. -1.
</event>
<event>
 7    1  0.1485408E-008  0.4614232E+02  0.7816164E-02  0.1320468E+00
        -11   -1    0    0    0    0  0.00000000000E+00  0.00000000000E+00  0.45593999997E+02  0.45594000000E+02  0.51100000000E-03 0.  1.
         11   -1    0    0    0    0 -0.00000000000E+00 -0.00000000000E+00 -0.45593999997E+02  0.45594000000E+02  0.51100000000E-03 0. -1.
    9900012    2    1    2    0    0 -0.15774145381E+02 -0.39208803511E+02  0.15587159618E+02  0.46142317852E+02  0.10000000825E+02 0.  0.
         12    1    1    2    0    0  0.15774145381E+02  0.39208803511E+02 -0.15587159618E+02  0.45045682148E+02  0.00000000000E+00 0. -1.
         11    1    3    3    0    0 -0.22088202415E+01 -0.11875560315E+02  0.78680345751E+01  0.14415747916E+02  0.51100000000E-03 0. -1.
        -11    1    3    3    0    0 -0.48918241408E+01 -0.59924415459E+01  0.20799470960E+01  0.80103357788E+01  0.51100000000E-03 0.  1.
         12    1    3    3    0    0 -0.86735009991E+01 -0.21340801650E+02  0.56391779468E+01  0.23716234157E+02  0.00000000000E+00 0. -1.
</event>
<event>
 7    1  0.1485408E-008  0.4614232E+02  0.7816164E-02  0.1320468E+00
        -11   -1    0    0    0    0  0.00000000000E+00  0.00000000000E+00  0.45593999997E+02  0.45594000000E+02  0.51100000000E-03 0. -1.
         11   -1    0    0    0    0 -0.00000000000E+00 -0.00000000000E+00 -0.45593999997E+02  0.45594000000E+02  0.51100000000E-03 0.  1.
    9900012    2    1    2    0    0  0.24353108580E+02 -0.37667245931E+02  0.41494899594E+01  0.46142316739E+02  0.99999906786E+01 0.  0.
         12    1    1    2    0    0 -0.24353108580E+02  0.37667245931E+02 -0.41494899594E+01  0.45045683261E+02  0.00000000000E+00 0. -1.
         11    1    3    3    0    0  0.51257974234E+01 -0.15397429283E+02  0.21076497428E+01  0.16364498632E+02  0.51100000000E-03 0. -1.
        -11    1    3    3    0    0  0.14233481201E+02 -0.17843205655E+02  0.90274312431E-01  0.22824989044E+02  0.51100000000E-03 0.  1.
         12    1    3    3    0    0  0.49938299556E+01 -0.44266109925E+01  0.19515659042E+01  0.69528290632E+01  0.00000000000E+00 0. -1.
</event>
<event>
 7    1  0.1485408E-008  0.4614232E+02  0.7816164E-02  0.1320468E+00
        -11   -1    0    0    0    0  0.00000000000E+00  0.00000000000E+00  0.45593999997E+02  0.45594000000E+02  0.51100000000E-03 0. -1.
         11   -1    0    0    0    0 -0.00000000000E+00 -0.00000000000E+00 -0.45593999997E+02  0.45594000000E+02  0.51100000000E-03 0.  1.
    9900012    2    1    2    0    0 -0.11587671179E+02 -0.12835218367E+02 -0.41594431181E+02  0.46142315865E+02  0.99999827097E+01 0.  0.
         12    1    1    2    0    0  0.11587671179E+02  0.12835218367E+02  0.41594431181E+02  0.45045684135E+02  0.00000000000E+00 0. -1.
         11    1    3    3    0    0  0.22781117382E+00 -0.93920368889E+00 -0.96923717622E+00  0.13687302382E+01  0.51100000000E-03 0. -1.
        -11    1    3    3    0    0 -0.11915661901E+02 -0.12362575014E+02 -0.40799711888E+02  0.44265480342E+02  0.51100000000E-03 0.  1.
        -12    1    3    3    0    0  0.10017954820E+00  0.46656033528E+00  0.17451788330E+00  0.50810528429E+00  0.00000000000E+00 0.  1.
</event>
<event>
 7    1  0.1485408E-008  0.4614232E+02  0.7816164E-02  0.1320468E+00
        -11   -1    0    0    0    0  0.00000000000E+00  0.00000000000E+00  0.45593999997E+02  0.45594000000E+02  0.51100000000E-03 0. -1.
         11   -1    0    0    0    0 -0.00000000000E+00 -0.00000000000E+00 -0.45593999997E+02  0.45594000000E+02  0.51100000000E-03 0.  1.
    9900012    2    1    2    0    0  0.10740267721E+02 -0.43475320488E+02 -0.48638131513E+01  0.46142317403E+02  0.99999967371E+01 0.  0.
         12    1    1    2    0    0 -0.10740267721E+02  0.43475320488E+02  0.48638131513E+01  0.45045682597E+02  0.00000000000E+00 0. -1.
         11    1    3    3    0    0  0.18023267275E+01 -0.12474534364E+02  0.25322051353E+01  0.12855911183E+02  0.51100000000E-03 0. -1.
        -11    1    3    3    0    0  0.91884856719E+01 -0.29145276110E+02 -0.72549429914E+01  0.31408750159E+02  0.51100000000E-03 0.  1.
        -12    1    3    3    0    0 -0.25054467840E+00 -0.18555100132E+01 -0.14107529519E+00  0.18776560611E+01  0.00000000000E+00 0.  1.
</event>
<event>
 7    1  0.1485408E-008  0.4614232E+02  0.7816164E-02  0.1320468E+00
        -11   -1    0    0    0    0  0.00000000000E+00  0.00000000000E+00  0.45593999997E+02  0.45594000000E+02  0.51100000000E-03 0.  1.
         11   -1    0    0    0    0 -0.00000000000E+00 -0.00000000000E+00 -0.45593999997E+02  0.45594000000E+02  0.51100000000E-03 0. -1.
    9900012    2    1    2    0    0 -0.10934502361E+02  0.41412515710E+02  0.13948251641E+02  0.46142317375E+02  0.99999964781E+01 0.  0.
         12    1    1    2    0    0  0.10934502361E+02 -0.41412515710E+02 -0.13948251641E+02  0.45045682625E+02  0.00000000000E+00 0. -1.
         11    1    3    3    0    0  0.14925013932E+01  0.97870927081E+01  0.42024433383E+01  0.10755244040E+02  0.51100000000E-03 0. -1.
        -11    1    3    3    0    0 -0.32598436094E+01  0.10376449850E+02  0.31453173773E+01  0.11322116124E+02  0.51100000000E-03 0.  1.
         12    1    3    3    0    0 -0.91671601449E+01  0.21248973152E+02  0.66004909249E+01  0.24064957211E+02  0.00000000000E+00 0. -1.
</event>
<event>
 7    1  0.1485408E-008  0.4614232E+02  0.7816164E-02  0.1320468E+00
        -11   -1    0    0    0    0  0.00000000000E+00  0.00000000000E+00  0.45593999997E+02  0.45594000000E+02  0.51100000000E-03 0.  1.
         11   -1    0    0    0    0 -0.00000000000E+00 -0.00000000000E+00 -0.45593999997E+02  0.45594000000E+02  0.51100000000E-03 0. -1.
    9900012    2    1    2    0    0  0.33086998363E+02  0.14314633685E+02  0.27008430618E+02  0.46142317381E+02  0.99999965316E+01 0.  0.
         12    1    1    2    0    0 -0.33086998363E+02 -0.14314633685E+02 -0.27008430618E+02  0.45045682619E+02  0.00000000000E+00 0. -1.
         11    1    3    3    0    0  0.17188416907E+02  0.78792683224E+01  0.12040551629E+02  0.22416499032E+02  0.51100000000E-03 0. -1.
        -11    1    3    3    0    0  0.10957717836E+02  0.56930899641E+01  0.13943896193E+02  0.18625656896E+02  0.51100000000E-03 0.  1.
        -12    1    3    3    0    0  0.49408636198E+01  0.74227539898E+00  0.10239827963E+01  0.51001614528E+01  0.00000000000E+00 0.  1.
</event>
<event>
 7    1  0.1485408E-008  0.4614232E+02  0.7816164E-02  0.1320468E+00
        -11   -1    0    0    0    0  0.00000000000E+00  0.00000000000E+00  0.45593999997E+02  0.45594000000E+02  0.51100000000E-03 0.  1.
         11   -1    0    0    0    0 -0.00000000000E+00 -0.00000000000E+00 -0.45593999997E+02  0.45594000000E+02  0.51100000000E-03 0. -1.
    9900012    2    1    2    0    0 -0.14467561186E+02 -0.52257411191E+01  0.42337864876E+02  0.46142317641E+02  0.99999989056E+01 0.  0.
         12    1    1    2    0    0  0.14467561186E+02  0.52257411191E+01 -0.42337864876E+02  0.45045682359E+02  0.00000000000E+00 0. -1.
         11    1    3    3    0    0  0.35898151877E+00 -0.15474309529E+00  0.57178863923E+00  0.69264396729E+00  0.51100000000E-03 0. -1.
        -11    1    3    3    0    0 -0.13902881302E+02 -0.69667436670E+01  0.33740598407E+02  0.37151764520E+02  0.51100000000E-03 0.  1.
        -12    1    3    3    0    0 -0.92366140321E+00  0.18957456432E+01  0.80254778292E+01  0.82979091535E+01  0.00000000000E+00 0.  1.
</event>
<event>
 7    1  0.1485408E-008  0.4614232E+02  0.7816164E-02  0.1320468E+00
        -11   -1    0    0    0    0  0.00000000000E+00  0.00000000000E+00  0.45593999997E+02  0.45594000000E+02  0.51100000000E-03 0. -1.
         11   -1    0    0    0    0 -0.00000000000E+00 -0.00000000000E+00 -0.45593999997E+02  0.45594000000E+02  0.51100000000E-03 0.  1.
    9900012    2    1    2    0    0  0.70557114660E+01  0.10250322995E+02 -0.43292738956E+02  0.46142318385E+02  0.10000005691E+02 0.  0.
         12    1    1    2    0    0 -0.70557114660E+01 -0.10250322995E+02  0.43292738956E+02  0.45045681615E+02  0.00000000000E+00 0. -1.
         11    1    3    3    0    0  0.97383929335E+00  0.70837309554E+00 -0.29846927085E+00  0.12406609442E+01  0.51100000000E-03 0. -1.
        -11    1    3    3    0    0  0.31386110203E+01  0.71693098638E+01 -0.36970895992E+02  0.37790171126E+02  0.51100000000E-03 0.  1.
        -12    1    3    3    0    0  0.29432611523E+01  0.23726400354E+01 -0.60233736937E+01  0.71114863146E+01  0.00000000000E+00 0.  1.
</event>
<event>
 7    1  0.1485408E-008  0.4614233E+02  0.7816164E-02  0.1320468E+00
        -11   -1    0    0    0    0  0.00000000000E+00  0.00000000000E+00  0.45593999997E+02  0.45594000000E+02  0.51100000000E-03 0.  1.
         11   -1    0    0    0    0 -0.00000000000E+00 -0.00000000000E+00 -0.45593999997E+02  0.45594000000E+02  0.51100000000E-03 0. -1.
    9900012    2    1    2    0    0  0.29560521083E+02 -0.11156597764E+02  0.32106365481E+02  0.46142325571E+02  0.10000071215E+02 0.  0.
         12    1    1    2    0    0 -0.29560521083E+02  0.11156597764E+02 -0.32106365481E+02  0.45045674429E+02  0.00000000000E+00 0. -1.
         11    1    3    3    0    0  0.82515028303E+01 -0.60128789213E+01  0.10109589705E+02  0.14368222442E+02  0.51100000000E-03 0. -1.
        -11    1    3    3    0    0  0.19400241864E+02 -0.24447504136E+01  0.17896225977E+02  0.26507000838E+02  0.51100000000E-03 0.  1.
        -12    1    3    3    0    0  0.19087763889E+01 -0.26989684289E+01  0.41005497991E+01  0.52671022905E+01  0.00000000000E+00 0.  1.
</event>
<event>
 7    1  0.1485408E-008  0.4614232E+02  0.7816164E-02  0.1320468E+00
        -11   -1    0    0    0    0  0.00000000000E+00  0.00000000000E+00  0.45593999997E+02  0.45594000000E+02  0.51100000000E-03 0. -1.
         11   -1    0    0    0    0 -0.00000000000E+00 -0.00000000000E+00 -0.45593999997E+02  0.45594000000E+02  0.51100000000E-03 0.  1.
    9900012    2    1    2    0    0  0.36636493437E+02  0.94081304585E+01 -0.24461560935E+02  0.46142317261E+02  0.99999954382E+01 0.  0.
         12    1    1    2    0    0 -0.36636493437E+02 -0.94081304585E+01  0.24461560935E+02  0.45045682739E+02  0.00000000000E+00 0. -1.
         11    1    3    3    0    0  0.22789155050E+02  0.25713393894E+01 -0.16063561415E+02  0.27999917495E+02  0.51100000000E-03 0.  1.
        -11    1    3    3    0    0  0.18579558109E+01 -0.57064700282E+00 -0.14796832762E+01  0.24427649613E+01  0.51100000000E-03 0. -1.
         12    1    3    3    0    0  0.11989382576E+02  0.74074380719E+01 -0.69183162434E+01  0.15699634804E+02  0.00000000000E+00 0. -1.
</event>
<event>
 7    1  0.1485408E-008  0.4614232E+02  0.7816164E-02  0.1320468E+00
        -11   -1    0    0    0    0  0.00000000000E+00  0.00000000000E+00  0.45593999997E+02  0.45594000000E+02  0.51100000000E-03 0.  1.
         11   -1    0    0    0    0 -0.00000000000E+00 -0.00000000000E+00 -0.45593999997E+02  0.45594000000E+02  0.51100000000E-03 0. -1.
    9900012    2    1    2    0    0 -0.18087567503E+02 -0.18160817580E+02  0.37042382723E+02  0.46142317508E+02  0.99999976924E+01 0.  0.
         12    1    1    2    0    0  0.18087567503E+02  0.18160817580E+02 -0.37042382723E+02  0.45045682492E+02  0.00000000000E+00 0. -1.
         11    1    3    3    0    0 -0.27272599128E+01 -0.67492714528E+01  0.55034128876E+01  0.91256871220E+01  0.51100000000E-03 0. -1.
        -11    1    3    3    0    0 -0.53967949289E+01 -0.26289474759E+01  0.81909793666E+01  0.10155240203E+02  0.51100000000E-03 0.  1.
         12    1    3    3    0    0 -0.99635126617E+01 -0.87825986510E+01  0.23347990469E+02  0.26861390183E+02  0.00000000000E+00 0. -1.
</event>
<event>
 7    1  0.1485408E-008  0.4614232E+02  0.7816164E-02  0.1320468E+00
        -11   -1    0    0    0    0  0.00000000000E+00  0.00000000000E+00  0.45593999997E+02  0.45594000000E+02  0.51100000000E-03 0.  1.
         11   -1    0    0    0    0 -0.00000000000E+00 -0.00000000000E+00 -0.45593999997E+02  0.45594000000E+02  0.51100000000E-03 0. -1.
    9900012    2    1    2    0    0 -0.37004145650E+02  0.24432056574E+02  0.79297715924E+01  0.46142318062E+02  0.10000002748E+02 0.  0.
         12    1    1    2    0    0  0.37004145650E+02 -0.24432056574E+02 -0.79297715924E+01  0.45045681938E+02  0.00000000000E+00 0. -1.
         11    1    3    3    0    0 -0.40097170934E+01 -0.42413519223E-01 -0.10707259661E+00  0.40113706981E+01  0.51100000000E-03 0.  1.
        -11    1    3    3    0    0 -0.27589810383E+02  0.21417733599E+02  0.83583047031E+01  0.35913482249E+02  0.51100000000E-03 0. -1.
        -12    1    3    3    0    0 -0.54046181735E+01  0.30567364942E+01 -0.32146051404E+00  0.62174651152E+01  0.00000000000E+00 0.  1.
</event>
<event>
 7    1  0.1485408E-008  0.4614232E+02  0.7816164E-02  0.1320468E+00
        -11   -1    0    0    0    0  0.00000000000E+00  0.00000000000E+00  0.45593999997E+02  0.45594000000E+02  0.51100000000E-03 0.  1.
         11   -1    0    0    0    0 -0.00000000000E+00 -0.00000000000E+00 -0.45593999997E+02  0.45594000000E+02  0.51100000000E-03 0. -1.
    9900012    2    1    2    0    0 -0.40404836327E+01 -0.30791772098E+02  0.32629047438E+02  0.46142317924E+02  0.10000001490E+02 0.  0.
         12    1    1    2    0    0  0.40404836327E+01  0.30791772098E+02 -0.32629047438E+02  0.45045682076E+02  0.00000000000E+00 0. -1.
         11    1    3    3    0    0  0.22314452293E+01 -0.89382143939E+01  0.65072472499E+01  0.11278975636E+02  0.51100000000E-03 0. -1.
        -11    1    3    3    0    0 -0.34191935484E+01 -0.70366497036E+01  0.11025089409E+02  0.13518798774E+02  0.51100000000E-03 0.  1.
        -12    1    3    3    0    0 -0.28527353136E+01 -0.14816908001E+02  0.15096710779E+02  0.21344543514E+02  0.00000000000E+00 0.  1.
</event>
<event>
 7    1  0.1485408E-008  0.4614232E+02  0.7816164E-02  0.1320468E+00
        -11   -1    0    0    0    0  0.00000000000E+00  0.00000000000E+00  0.45593999997E+02  0.45594000000E+02  0.51100000000E-03 0.  1.
         11   -1    0    0    0    0 -0.00000000000E+00 -0.00000000000E+00 -0.45593999997E+02  0.45594000000E+02  0.51100000000E-03 0. -1.
    9900012    2    1    2    0    0  0.28569703138E+01 -0.25346240107E+02  0.37128415753E+02  0.46142318484E+02  0.10000006592E+02 0.  0.
         12    1    1    2    0    0 -0.28569703138E+01  0.25346240107E+02 -0.37128415753E+02  0.45045681516E+02  0.00000000000E+00 0. -1.
         11    1    3    3    0    0 -0.13895154542E+01 -0.35067879012E+01  0.15450668596E+01  0.40762171732E+01  0.51100000000E-03 0. -1.
        -11    1    3    3    0    0  0.28468150272E+01 -0.77069388056E+01  0.12223539852E+02  0.14728074834E+02  0.51100000000E-03 0.  1.
        -12    1    3    3    0    0  0.13996707408E+01 -0.14132513400E+02  0.23359809041E+02  0.27338026476E+02  0.00000000000E+00 0.  1.
</event>
<event>
 7    1  0.1485408E-008  0.4614232E+02  0.7816164E-02  0.1320468E+00
        -11   -1    0    0    0    0  0.00000000000E+00  0.00000000000E+00  0.45593999997E+02  0.45594000000E+02  0.51100000000E-03 0. -1.
         11   -1    0    0    0    0 -0.00000000000E+00 -0.00000000000E+00 -0.45593999997E+02  0.45594000000E+02  0.51100000000E-03 0.  1.
    9900012    2    1    2    0    0  0.32302817651E+02 -0.25389413575E+02  0.18466699368E+02  0.46142319459E+02  0.10000015479E+02 0.  0.
         12    1    1    2    0    0 -0.32302817651E+02  0.25389413575E+02 -0.18466699368E+02  0.45045680541E+02  0.00000000000E+00 0. -1.
         11    1    3    3    0    0  0.31914565998E+01 -0.54383066135E+01  0.40441685666E+00  0.63185542101E+01  0.51100000000E-03 0. -1.
        -11    1    3    3    0    0  0.13650386959E+02 -0.71396203553E+01  0.82620307976E+01  0.17480514755E+02  0.51100000000E-03 0.  1.
         12    1    3    3    0    0  0.15460974093E+02 -0.12811486606E+02  0.98002517140E+01  0.22343250493E+02  0.00000000000E+00 0. -1.
</event>
<event>
 7    1  0.1485408E-008  0.4614232E+02  0.7816164E-02  0.1320468E+00
        -11   -1    0    0    0    0  0.00000000000E+00  0.00000000000E+00  0.45593999997E+02  0.45594000000E+02  0.51100000000E-03 0. -1.
         11   -1    0    0    0    0 -0.00000000000E+00 -0.00000000000E+00 -0.45593999997E+02  0.45594000000E+02  0.51100000000E-03 0.  1.
    9900012    2    1    2    0    0  0.72123299914E+01 -0.34648186219E+02 -0.27867525572E+02  0.46142317702E+02  0.99999994580E+01 0.  0.
         12    1    1    2    0    0 -0.72123299914E+01  0.34648186219E+02  0.27867525572E+02  0.45045682298E+02  0.00000000000E+00 0. -1.
         11    1    3    3    0    0  0.20720441770E+01 -0.60627492018E+01 -0.11193623521E+01  0.65040961933E+01  0.51100000000E-03 0. -1.
        -11    1    3    3    0    0  0.32769419431E+01 -0.10986463589E+02 -0.12056820834E+02  0.16637537666E+02  0.51100000000E-03 0.  1.
         12    1    3    3    0    0  0.18633438713E+01 -0.17598973429E+02 -0.14691342386E+02  0.23000683843E+02  0.00000000000E+00 0. -1.
</event>
<event>
 7    1  0.1485408E-008  0.4614232E+02  0.7816164E-02  0.1320468E+00
        -11   -1    0    0    0    0  0.00000000000E+00  0.00000000000E+00  0.45593999997E+02  0.45594000000E+02  0.51100000000E-03 0. -1.
         11   -1    0    0    0    0 -0.00000000000E+00 -0.00000000000E+00 -0.45593999997E+02  0.45594000000E+02  0.51100000000E-03 0.  1.
    9900012    2    1    2    0    0 -0.32194996178E+02 -0.25066180146E+02 -0.19086181619E+02  0.46142317690E+02  0.99999993478E+01 0.  0.
         12    1    1    2    0    0  0.32194996178E+02  0.25066180146E+02  0.19086181619E+02  0.45045682310E+02  0.00000000000E+00 0. -1.
         11    1    3    3    0    0 -0.94091894382E+00  0.62202509353E+00 -0.45026113893E-01  0.11288362538E+01  0.51100000000E-03 0. -1.
        -11    1    3    3    0    0 -0.23997879478E+02 -0.20527052133E+02 -0.17053568191E+02  0.35889863152E+02  0.51100000000E-03 0.  1.
        -12    1    3    3    0    0 -0.72561977566E+01 -0.51611531060E+01 -0.19875873134E+01  0.91236182841E+01  0.00000000000E+00 0.  1.
</event>
<event>
 7    1  0.1485408E-008  0.4614232E+02  0.7816164E-02  0.1320468E+00
        -11   -1    0    0    0    0  0.00000000000E+00  0.00000000000E+00  0.45593999997E+02  0.45594000000E+02  0.51100000000E-03 0. -1.
         11   -1    0    0    0    0 -0.00000000000E+00 -0.00000000000E+00 -0.45593999997E+02  0.45594000000E+02  0.51100000000E-03 0.  1.
    9900012    2    1    2    0    0 -0.11730510881E+01  0.42499942906E+02 -0.14882614786E+02  0.46142318534E+02  0.10000007048E+02 0.  0.
         12    1    1    2    0    0  0.11730510881E+01 -0.42499942906E+02  0.14882614786E+02  0.45045681466E+02  0.00000000000E+00 0. -1.
         11    1    3    3    0    0  0.15499621815E+01  0.68018714285E+01 -0.42925766738E+01  0.81910959252E+01  0.51100000000E-03 0. -1.
        -11    1    3    3    0    0  0.20886133233E+01  0.11206181757E+02 -0.21303814881E+01  0.11596522786E+02  0.51100000000E-03 0.  1.
        -12    1    3    3    0    0 -0.48116265928E+01  0.24491889720E+02 -0.84596566244E+01  0.26354699823E+02  0.00000000000E+00 0.  1.
</event>
<event>
 7    1  0.1485408E-008  0.4614232E+02  0.7816164E-02  0.1320468E+00
        -11   -1    0    0    0    0  0.00000000000E+00  0.00000000000E+00  0.45593999997E+02  0.45594000000E+02  0.51100000000E-03 0. -1.
         11   -1    0    0    0    0 -0.00000000000E+00 -0.00000000000E+00 -0.45593999997E+02  0.45594000000E+02  0.51100000000E-03 0.  1.
    9900012    2    1    2    0    0 -0.13081343032E+02  0.41046275827E+02 -0.13160367894E+02  0.46142316767E+02  0.99999909372E+01 0.  0.
         12    1    1    2    0    0  0.13081343032E+02 -0.41046275827E+02  0.13160367894E+02  0.45045683233E+02  0.00000000000E+00 0. -1.
         11    1    3    3    0    0 -0.51016761791E+01  0.12382600753E+02 -0.11068722293E+01  0.13438045529E+02  0.51100000000E-03 0. -1.
        -11    1    3    3    0    0 -0.55907203320E-01  0.10808266142E+02 -0.52754991886E+01  0.12027162365E+02  0.51100000000E-03 0.  1.
         12    1    3    3    0    0 -0.79237596491E+01  0.17855408933E+02 -0.67779964758E+01  0.20677108873E+02  0.00000000000E+00 0. -1.
</event>
<event>
 7    1  0.1485408E-008  0.4614232E+02  0.7816164E-02  0.1320468E+00
        -11   -1    0    0    0    0  0.00000000000E+00  0.00000000000E+00  0.45593999997E+02  0.45594000000E+02  0.51100000000E-03 0.  1.
         11   -1    0    0    0    0 -0.00000000000E+00 -0.00000000000E+00 -0.45593999997E+02  0.45594000000E+02  0.51100000000E-03 0. -1.
    9900012    2    1    2    0    0 -0.24290685400E+02 -0.34097439644E+02  0.16626506623E+02  0.46142317521E+02  0.99999978101E+01 0.  0.
         12    1    1    2    0    0  0.24290685400E+02  0.34097439644E+02 -0.16626506623E+02  0.45045682479E+02  0.00000000000E+00 0. -1.
         11    1    3    3    0    0 -0.61595644613E+00 -0.50017604153E+00 -0.10002179706E+01  0.12767202771E+01  0.51100000000E-03 0. -1.
        -11    1    3    3    0    0 -0.49597915722E+01 -0.93773115303E+01  0.36633786070E+01  0.11222916157E+02  0.51100000000E-03 0.  1.
         12    1    3    3    0    0 -0.18714937382E+02 -0.24219952073E+02  0.13963345987E+02  0.33642681087E+02  0.00000000000E+00 0. -1.
</event>
<event>
 7    1  0.1485408E-008  0.4614232E+02  0.7816164E-02  0.1320468E+00
        -11   -1    0    0    0    0  0.00000000000E+00  0.00000000000E+00  0.45593999997E+02  0.45594000000E+02  0.51100000000E-03 0.  1.
         11   -1    0    0    0    0 -0.00000000000E+00 -0.00000000000E+00 -0.45593999997E+02  0.45594000000E+02  0.51100000000E-03 0. -1.
    9900012    2    1    2    0    0 -0.30612048366E+02 -0.31523115139E+02  0.99151074080E+01  0.46142315988E+02  0.99999838288E+01 0.  0.
         12    1    1    2    0    0  0.30612048366E+02  0.31523115139E+02 -0.99151074080E+01  0.45045684012E+02  0.00000000000E+00 0. -1.
         11    1    3    3    0    0 -0.80693799991E+01 -0.10823569689E+02 -0.12643260985E+01  0.13559611909E+02  0.51100000000E-03 0. -1.
        -11    1    3    3    0    0 -0.63670122021E+01 -0.58017283252E+01  0.31783945484E+01  0.91815624001E+01  0.51100000000E-03 0.  1.
         12    1    3    3    0    0 -0.16175656165E+02 -0.14897817124E+02  0.80010389581E+01  0.23401141678E+02  0.00000000000E+00 0. -1.
</event>
<event>
 7    1  0.1485408E-008  0.4614232E+02  0.7816164E-02  0.1320468E+00
        -11   -1    0    0    0    0  0.00000000000E+00  0.00000000000E+00  0.45593999997E+02  0.45594000000E+02  0.51100000000E-03 0.  1.
         11   -1    0    0    0    0 -0.00000000000E+00 -0.00000000000E+00 -0.45593999997E+02  0.45594000000E+02  0.51100000000E-03 0. -1.
    9900012    2    1    2    0    0 -0.98485940757E+01 -0.42481643614E+01  0.43750105699E+02  0.46142318139E+02  0.10000003443E+02 0.  0.
         12    1    1    2    0    0  0.98485940757E+01  0.42481643614E+01 -0.43750105699E+02  0.45045681861E+02  0.00000000000E+00 0. -1.
         11    1    3    3    0    0  0.11130568202E+01 -0.12645354825E+00  0.24509937873E+01  0.26948574715E+01  0.51100000000E-03 0. -1.
        -11    1    3    3    0    0 -0.46959401706E+01  0.10017669434E+01  0.22035645981E+02  0.22552717911E+02  0.51100000000E-03 0.  1.
        -12    1    3    3    0    0 -0.62657107253E+01 -0.51234777565E+01  0.19263465930E+02  0.20894742757E+02  0.00000000000E+00 0.  1.
</event>
<event>
 7    1  0.1485408E-008  0.4614232E+02  0.7816164E-02  0.1320468E+00
        -11   -1    0    0    0    0  0.00000000000E+00  0.00000000000E+00  0.45593999997E+02  0.45594000000E+02  0.51100000000E-03 0. -1.
         11   -1    0    0    0    0 -0.00000000000E+00 -0.00000000000E+00 -0.45593999997E+02  0.45594000000E+02  0.51100000000E-03 0.  1.
    9900012    2    1    2    0    0 -0.93166874365E+01  0.30792854640E+02  0.31529558407E+02  0.46142316356E+02  0.99999871851E+01 0.  0.
         12    1    1    2    0    0  0.93166874365E+01 -0.30792854640E+02 -0.31529558407E+02  0.45045683644E+02  0.00000000000E+00 0. -1.
         11    1    3    3    0    0 -0.59859705421E+01  0.10302600791E+02  0.87236875003E+01  0.14767469325E+02  0.51100000000E-03 0. -1.
        -11    1    3    3    0    0 -0.18927321495E+01  0.14979704590E+02  0.12506501100E+02  0.19605778603E+02  0.51100000000E-03 0.  1.
         12    1    3    3    0    0 -0.14379847450E+01  0.55105492583E+01  0.10299369807E+02  0.11769068428E+02  0.00000000000E+00 0. -1.
</event>
<event>
 7    1  0.1485408E-008  0.4614232E+02  0.7816164E-02  0.1320468E+00
        -11   -1    0    0    0    0  0.00000000000E+00  0.00000000000E+00  0.45593999997E+02  0.45594000000E+02  0.51100000000E-03 0.  1.
         11   -1    0    0    0    0 -0.00000000000E+00 -0.00000000000E+00 -0.45593999997E+02  0.45594000000E+02  0.51100000000E-03 0. -1.
    9900012    2    1    2    0    0  0.20772084321E+02 -0.66786963931E-01  0.39970357948E+02  0.46142318054E+02  0.10000002669E+02 0.  0.
         12    1    1    2    0    0 -0.20772084321E+02  0.66786963931E-01 -0.39970357948E+02  0.45045681946E+02  0.00000000000E+00 0. -1.
         11    1    3    3    0    0  0.39250365014E+01  0.23299903377E+01  0.61548196651E+01  0.76626739381E+01  0.51100000000E-03 0. -1.
        -11    1    3    3    0    0  0.12663007881E+02  0.13989438816E+00  0.18640614086E+02  0.22535390673E+02  0.51100000000E-03 0.  1.
        -12    1    3    3    0    0  0.41840399387E+01 -0.25366716898E+01  0.15174924196E+02  0.15944253442E+02  0.00000000000E+00 0.  1.
</event>
<event>
 7    1  0.1485408E-008  0.4614232E+02  0.7816164E-02  0.1320468E+00
        -11   -1    0    0    0    0  0.00000000000E+00  0.00000000000E+00  0.45593999997E+02  0.45594000000E+02  0.51100000000E-03 0. -1.
         11   -1    0    0    0    0 -0.00000000000E+00 -0.00000000000E+00 -0.45593999997E+02  0.45594000000E+02  0.51100000000E-03 0.  1.
    9900012    2    1    2    0    0 -0.20160319976E+02  0.36369034000E+02 -0.17319592125E+02  0.46142318665E+02  0.10000008239E+02 0.  0.
         12    1    1    2    0    0  0.20160319976E+02 -0.36369034000E+02  0.17319592125E+02  0.45045681335E+02  0.00000000000E+00 0. -1.
         11    1    3    3    0    0 -0.13367680346E+01  0.21372917617E+01 -0.58178573707E+00  0.25871682895E+01  0.51100000000E-03 0. -1.
        -11    1    3    3    0    0 -0.87881620373E+01  0.19428395361E+02 -0.42513571359E+01  0.21743237479E+02  0.51100000000E-03 0.  1.
        -12    1    3    3    0    0 -0.10035389904E+02  0.14803346877E+02 -0.12486449252E+02  0.21811912896E+02  0.00000000000E+00 0.  1.
</event>
<event>
 7    1  0.1485408E-008  0.4614232E+02  0.7816164E-02  0.1320468E+00
        -11   -1    0    0    0    0  0.00000000000E+00  0.00000000000E+00  0.45593999997E+02  0.45594000000E+02  0.51100000000E-03 0. -1.
         11   -1    0    0    0    0 -0.00000000000E+00 -0.00000000000E+00 -0.45593999997E+02  0.45594000000E+02  0.51100000000E-03 0.  1.
    9900012    2    1    2    0    0  0.13837053136E+02 -0.40759628290E+02 -0.13277881086E+02  0.46142318032E+02  0.10000002473E+02 0.  0.
         12    1    1    2    0    0 -0.13837053136E+02  0.40759628290E+02  0.13277881086E+02  0.45045681968E+02  0.00000000000E+00 0. -1.
         11    1    3    3    0    0  0.29334591328E+01 -0.17830597067E+01 -0.45600314086E+00  0.34630078727E+01  0.51100000000E-03 0. -1.
        -11    1    3    3    0    0  0.15400062575E+01 -0.10056831805E+02 -0.17246266812E+01  0.10319196804E+02  0.51100000000E-03 0.  1.
         12    1    3    3    0    0  0.93635877458E+01 -0.28919736778E+02 -0.11097251264E+02  0.32360113356E+02  0.00000000000E+00 0. -1.
</event>
<event>
 7    1  0.1485408E-008  0.4614232E+02  0.7816164E-02  0.1320468E+00
        -11   -1    0    0    0    0  0.00000000000E+00  0.00000000000E+00  0.45593999997E+02  0.45594000000E+02  0.51100000000E-03 0.  1.
         11   -1    0    0    0    0 -0.00000000000E+00 -0.00000000000E+00 -0.45593999997E+02  0.45594000000E+02  0.51100000000E-03 0. -1.
    9900012    2    1    2    0    0 -0.29843404013E+02 -0.20399653389E+02  0.26876363145E+02  0.46142317439E+02  0.99999970668E+01 0.  0.
         12    1    1    2    0    0  0.29843404013E+02  0.20399653389E+02 -0.26876363145E+02  0.45045682561E+02  0.00000000000E+00 0. -1.
         11    1    3    3    0    0 -0.44937147910E+01 -0.40598259311E-01  0.50381602964E+01  0.67511614019E+01  0.51100000000E-03 0. -1.
        -11    1    3    3    0    0 -0.12528234562E+02 -0.12520980217E+02  0.12823338302E+02  0.21867089708E+02  0.51100000000E-03 0.  1.
         12    1    3    3    0    0 -0.12821454660E+02 -0.78380749130E+01  0.90148645460E+01  0.17524066329E+02  0.00000000000E+00 0. -1.
</event>
<event>
 7    1  0.1485408E-008  0.4614232E+02  0.7816164E-02  0.1320468E+00
        -11   -1    0    0    0    0  0.00000000000E+00  0.00000000000E+00  0.45593999997E+02  0.45594000000E+02  0.51100000000E-03 0.  1.
         11   -1    0    0    0    0 -0.00000000000E+00 -0.00000000000E+00 -0.45593999997E+02  0.45594000000E+02  0.51100000000E-03 0. -1.
    9900012    2    1    2    0    0 -0.37177483824E+02  0.14224583057E+02  0.21085763584E+02  0.46142317714E+02  0.99999995744E+01 0.  0.
         12    1    1    2    0    0  0.37177483824E+02 -0.14224583057E+02 -0.21085763584E+02  0.45045682286E+02  0.00000000000E+00 0. -1.
         11    1    3    3    0    0 -0.20392348889E+01  0.34998893056E+01  0.35720723868E+01  0.54006856492E+01  0.51100000000E-03 0. -1.
        -11    1    3    3    0    0 -0.12801823065E+02  0.45589621521E+01  0.71881740211E+01  0.15373374896E+02  0.51100000000E-03 0.  1.
         12    1    3    3    0    0 -0.22336425871E+02  0.61657315992E+01  0.10325517176E+02  0.25368257169E+02  0.00000000000E+00 0. -1.
</event>
<event>
 7    1  0.1485408E-008  0.4614232E+02  0.7816164E-02  0.1320468E+00
        -11   -1    0    0    0    0  0.00000000000E+00  0.00000000000E+00  0.45593999997E+02  0.45594000000E+02  0.51100000000E-03 0. -1.
         11   -1    0    0    0    0 -0.00000000000E+00 -0.00000000000E+00 -0.45593999997E+02  0.45594000000E+02  0.51100000000E-03 0.  1.
    9900012    2    1    2    0    0  0.37115416357E+02 -0.10715053696E+02 -0.23167801352E+02  0.46142317338E+02  0.99999961374E+01 0.  0.
         12    1    1    2    0    0 -0.37115416357E+02  0.10715053696E+02  0.23167801352E+02  0.45045682662E+02  0.00000000000E+00 0. -1.
         11    1    3    3    0    0  0.10128236898E+02  0.11643485662E+01 -0.80353351334E+01  0.12980889847E+02  0.51100000000E-03 0. -1.
        -11    1    3    3    0    0  0.19342699839E+02 -0.90620471602E+01 -0.10982939073E+02  0.24018444720E+02  0.51100000000E-03 0.  1.
         12    1    3    3    0    0  0.76444796190E+01 -0.28173551019E+01 -0.41495271457E+01  0.91429827709E+01  0.00000000000E+00 0. -1.
</event>
<event>
 7    1  0.1485408E-008  0.4614232E+02  0.7816164E-02  0.1320468E+00
        -11   -1    0    0    0    0  0.00000000000E+00  0.00000000000E+00  0.45593999997E+02  0.45594000000E+02  0.51100000000E-03 0. -1.
         11   -1    0    0    0    0 -0.00000000000E+00 -0.00000000000E+00 -0.45593999997E+02  0.45594000000E+02  0.51100000000E-03 0.  1.
    9900012    2    1    2    0    0  0.41519723420E+02 -0.17340562821E+01 -0.17384445535E+02  0.46142319512E+02  0.10000015963E+02 0.  0.
         12    1    1    2    0    0 -0.41519723420E+02  0.17340562821E+01  0.17384445535E+02  0.45045680488E+02  0.00000000000E+00 0. -1.
         11    1    3    3    0    0 -0.16100784010E+00 -0.66024551016E+00 -0.11917214279E+01  0.13718775022E+01  0.51100000000E-03 0. -1.
        -11    1    3    3    0    0  0.27458032752E+02 -0.28960352626E+00 -0.11535185282E+02  0.29784021431E+02  0.51100000000E-03 0.  1.
         12    1    3    3    0    0  0.14222698508E+02 -0.78420724570E+00 -0.46575388248E+01  0.14986420579E+02  0.00000000000E+00 0. -1.
</event>
<event>
 7    1  0.1485408E-008  0.4614232E+02  0.7816164E-02  0.1320468E+00
        -11   -1    0    0    0    0  0.00000000000E+00  0.00000000000E+00  0.45593999997E+02  0.45594000000E+02  0.51100000000E-03 0.  1.
         11   -1    0    0    0    0 -0.00000000000E+00 -0.00000000000E+00 -0.45593999997E+02  0.45594000000E+02  0.51100000000E-03 0. -1.
    9900012    2    1    2    0    0 -0.16866273823E+02 -0.38989939055E+02  0.14980893294E+02  0.46142315367E+02  0.99999781695E+01 0.  0.
         12    1    1    2    0    0  0.16866273823E+02  0.38989939055E+02 -0.14980893294E+02  0.45045684633E+02  0.00000000000E+00 0. -1.
         11    1    3    3    0    0 -0.69146217131E+01 -0.12979678976E+02  0.82227663908E+01  0.16849271413E+02  0.51100000000E-03 0. -1.
        -11    1    3    3    0    0 -0.30153159847E+01 -0.15432521090E+02  0.51273993143E+01  0.16539197734E+02  0.51100000000E-03 0.  1.
         12    1    3    3    0    0 -0.69363361255E+01 -0.10577738988E+02  0.16307275884E+01  0.12753846220E+02  0.00000000000E+00 0. -1.
</event>
<event>
 7    1  0.1485408E-008  0.4614232E+02  0.7816164E-02  0.1320468E+00
        -11   -1    0    0    0    0  0.00000000000E+00  0.00000000000E+00  0.45593999997E+02  0.45594000000E+02  0.51100000000E-03 0. -1.
         11   -1    0    0    0    0 -0.00000000000E+00 -0.00000000000E+00 -0.45593999997E+02  0.45594000000E+02  0.51100000000E-03 0.  1.
    9900012    2    1    2    0    0 -0.15860913549E+02 -0.35658215747E+02 -0.22495254821E+02  0.46142318539E+02  0.10000007092E+02 0.  0.
         12    1    1    2    0    0  0.15860913549E+02  0.35658215747E+02  0.22495254821E+02  0.45045681461E+02  0.00000000000E+00 0. -1.
         11    1    3    3    0    0 -0.64330746553E+01 -0.80503559281E+01 -0.40649028101E+01  0.11077730598E+02  0.51100000000E-03 0. -1.
        -11    1    3    3    0    0  0.14127905232E-01 -0.86621210382E+01 -0.53547376585E+01  0.10183602316E+02  0.51100000000E-03 0.  1.
         12    1    3    3    0    0 -0.94419667986E+01 -0.18945738781E+02 -0.13075614352E+02  0.24880985625E+02  0.00000000000E+00 0. -1.
</event>
<event>
 7    1  0.1485408E-008  0.4614232E+02  0.7816164E-02  0.1320468E+00
        -11   -1    0    0    0    0  0.00000000000E+00  0.00000000000E+00  0.45593999997E+02  0.45594000000E+02  0.51100000000E-03 0. -1.
         11   -1    0    0    0    0 -0.00000000000E+00 -0.00000000000E+00 -0.45593999997E+02  0.45594000000E+02  0.51100000000E-03 0.  1.
    9900012    2    1    2    0    0  0.20055406382E+02 -0.33184662333E+02 -0.22927547924E+02  0.46142316598E+02  0.99999893970E+01 0.  0.
         12    1    1    2    0    0 -0.20055406382E+02  0.33184662333E+02  0.22927547924E+02  0.45045683402E+02  0.00000000000E+00 0. -1.
         11    1    3    3    0    0  0.73383602156E+00 -0.67335183290E+01 -0.33981663024E+01  0.75780154970E+01  0.51100000000E-03 0. -1.
        -11    1    3    3    0    0  0.11153730118E+02 -0.10621604811E+02 -0.81261057665E+01  0.17414298134E+02  0.51100000000E-03 0.  1.
        -12    1    3    3    0    0  0.81678402428E+01 -0.15829539194E+02 -0.11403275855E+02  0.21150002968E+02  0.00000000000E+00 0.  1.
</event>
<event>
 7    1  0.1485408E-008  0.4614232E+02  0.7816164E-02  0.1320468E+00
        -11   -1    0    0    0    0  0.00000000000E+00  0.00000000000E+00  0.45593999997E+02  0.45594000000E+02  0.51100000000E-03 0.  1.
         11   -1    0    0    0    0 -0.00000000000E+00 -0.00000000000E+00 -0.45593999997E+02  0.45594000000E+02  0.51100000000E-03 0. -1.
    9900012    2    1    2    0    0 -0.17525503507E+02 -0.15179935838E+02  0.38620457349E+02  0.46142318175E+02  0.10000003772E+02 0.  0.
         12    1    1    2    0    0  0.17525503507E+02  0.15179935838E+02 -0.38620457349E+02  0.45045681825E+02  0.00000000000E+00 0. -1.
         11    1    3    3    0    0 -0.39586623585E+01 -0.33066808361E+01  0.26671363967E+01  0.58067859131E+01  0.51100000000E-03 0. -1.
        -11    1    3    3    0    0 -0.76888878545E+01 -0.60212570223E+01  0.16269428309E+02  0.18975479713E+02  0.51100000000E-03 0.  1.
         12    1    3    3    0    0 -0.58779532943E+01 -0.58519979797E+01  0.19683892643E+02  0.21360052549E+02  0.00000000000E+00 0. -1.
</event>
<event>
 7    1  0.1485408E-008  0.4614232E+02  0.7816164E-02  0.1320468E+00
        -11   -1    0    0    0    0  0.00000000000E+00  0.00000000000E+00  0.45593999997E+02  0.45594000000E+02  0.51100000000E-03 0.  1.
         11   -1    0    0    0    0 -0.00000000000E+00 -0.00000000000E+00 -0.45593999997E+02  0.45594000000E+02  0.51100000000E-03 0. -1.
    9900012    2    1    2    0    0  0.71476521123E+01  0.43877658114E+02 -0.72646818920E+01  0.46142318573E+02  0.10000007400E+02 0.  0.
         12    1    1    2    0    0 -0.71476521123E+01 -0.43877658114E+02  0.72646818920E+01  0.45045681427E+02  0.00000000000E+00 0. -1.
         11    1    3    3    0    0  0.64296369098E+01  0.32398995804E+02 -0.20477545136E+01  0.33094236035E+02  0.51100000000E-03 0. -1.
        -11    1    3    3    0    0 -0.93074674800E+00  0.11077550513E+01 -0.44666374331E+00  0.15142389254E+01  0.51100000000E-03 0.  1.
         12    1    3    3    0    0  0.16487619504E+01  0.10370907258E+02 -0.47702636351E+01  0.11533843612E+02  0.00000000000E+00 0. -1.
</event>
<event>
 7    1  0.1485408E-008  0.4614232E+02  0.7816164E-02  0.1320468E+00
        -11   -1    0    0    0    0  0.00000000000E+00  0.00000000000E+00  0.45593999997E+02  0.45594000000E+02  0.51100000000E-03 0. -1.
         11   -1    0    0    0    0 -0.00000000000E+00 -0.00000000000E+00 -0.45593999997E+02  0.45594000000E+02  0.51100000000E-03 0.  1.
    9900012    2    1    2    0    0 -0.26319719834E+01  0.92760926007E+01 -0.44001593759E+02  0.46142318477E+02  0.10000006532E+02 0.  0.
         12    1    1    2    0    0  0.26319719834E+01 -0.92760926007E+01  0.44001593759E+02  0.45045681523E+02  0.00000000000E+00 0. -1.
         11    1    3    3    0    0 -0.11831928232E+01  0.30939685800E+01 -0.28877668500E+02  0.29067031584E+02  0.51100000000E-03 0. -1.
        -11    1    3    3    0    0  0.17058724048E+01  0.29628980205E+01 -0.66239356935E+01  0.74542128809E+01  0.51100000000E-03 0.  1.
         12    1    3    3    0    0 -0.31546515650E+01  0.32192260003E+01 -0.84999895657E+01  0.96210740125E+01  0.00000000000E+00 0. -1.
</event>
<event>
 7    1  0.1485408E-008  0.4614232E+02  0.7816164E-02  0.1320468E+00
        -11   -1    0    0    0    0  0.00000000000E+00  0.00000000000E+00  0.45593999997E+02  0.45594000000E+02  0.51100000000E-03 0. -1.
         11   -1    0    0    0    0 -0.00000000000E+00 -0.00000000000E+00 -0.45593999997E+02  0.45594000000E+02  0.51100000000E-03 0.  1.
    9900012    2    1    2    0    0 -0.11063118982E+01  0.10990893220E+02 -0.43670240367E+02  0.46142317039E+02  0.99999934115E+01 0.  0.
         12    1    1    2    0    0  0.11063118982E+01 -0.10990893220E+02  0.43670240367E+02  0.45045682961E+02  0.00000000000E+00 0. -1.
         11    1    3    3    0    0  0.17835684804E+01  0.29530101187E+01 -0.14437075216E+02  0.14843534833E+02  0.51100000000E-03 0. -1.
        -11    1    3    3    0    0 -0.38977802514E+01  0.61924059266E+01 -0.12898755974E+02  0.14829581518E+02  0.51100000000E-03 0.  1.
        -12    1    3    3    0    0  0.10078998728E+01  0.18454771747E+01 -0.16334409176E+02  0.16469200688E+02  0.00000000000E+00 0.  1.
</event>
<event>
 7    1  0.1485408E-008  0.4614232E+02  0.7816164E-02  0.1320468E+00
        -11   -1    0    0    0    0  0.00000000000E+00  0.00000000000E+00  0.45593999997E+02  0.45594000000E+02  0.51100000000E-03 0. -1.
         11   -1    0    0    0    0 -0.00000000000E+00 -0.00000000000E+00 -0.45593999997E+02  0.45594000000E+02  0.51100000000E-03 0.  1.
    9900012    2    1    2    0    0  0.36423944402E+02  0.26501407189E+02  0.29193805445E+00  0.46142317226E+02  0.99999951194E+01 0.  0.
         12    1    1    2    0    0 -0.36423944402E+02 -0.26501407189E+02 -0.29193805445E+00  0.45045682774E+02  0.00000000000E+00 0. -1.
         11    1    3    3    0    0  0.18795784697E+00  0.15203080680E+01  0.58305893907E+00  0.16390920540E+01  0.51100000000E-03 0. -1.
        -11    1    3    3    0    0  0.33243912721E+02  0.21487815361E+02  0.13842582311E+01  0.39608081412E+02  0.51100000000E-03 0.  1.
        -12    1    3    3    0    0  0.29920738335E+01  0.34932837601E+01 -0.16753791158E+01  0.48951437604E+01  0.00000000000E+00 0.  1.
</event>
<event>
 7    1  0.1485408E-008  0.4614232E+02  0.7816164E-02  0.1320468E+00
        -11   -1    0    0    0    0  0.00000000000E+00  0.00000000000E+00  0.45593999997E+02  0.45594000000E+02  0.51100000000E-03 0.  1.
         11   -1    0    0    0    0 -0.00000000000E+00 -0.00000000000E+00 -0.45593999997E+02  0.45594000000E+02  0.51100000000E-03 0. -1.
    9900012    2    1    2    0    0  0.14937539848E+02  0.41396435674E+02  0.96082406605E+01  0.46142320165E+02  0.10000021920E+02 0.  0.
         12    1    1    2    0    0 -0.14937539848E+02 -0.41396435674E+02 -0.96082406605E+01  0.45045679835E+02  0.00000000000E+00 0. -1.
         11    1    3    3    0    0  0.42516076420E+01  0.18672413940E+02  0.45342971222E+01  0.19679813529E+02  0.51100000000E-03 0. -1.
        -11    1    3    3    0    0  0.10561046809E+02  0.16034558008E+02  0.28411384038E+01  0.19409142895E+02  0.51100000000E-03 0.  1.
        -12    1    3    3    0    0  0.12488539782E+00  0.66894637253E+01  0.22328051344E+01  0.70533637410E+01  0.00000000000E+00 0.  1.
</event>
<event>
 7    1  0.1485408E-008  0.4614232E+02  0.7816164E-02  0.1320468E+00
        -11   -1    0    0    0    0  0.00000000000E+00  0.00000000000E+00  0.45593999997E+02  0.45594000000E+02  0.51100000000E-03 0.  1.
         11   -1    0    0    0    0 -0.00000000000E+00 -0.00000000000E+00 -0.45593999997E+02  0.45594000000E+02  0.51100000000E-03 0. -1.
    9900012    2    1    2    0    0  0.37998571009E+02  0.24172566270E+02  0.95349260939E+00  0.46142317554E+02  0.99999981138E+01 0.  0.
         12    1    1    2    0    0 -0.37998571009E+02 -0.24172566270E+02 -0.95349260939E+00  0.45045682446E+02  0.00000000000E+00 0. -1.
         11    1    3    3    0    0  0.69973156677E+01  0.66462904772E+01 -0.30145519038E+01  0.10110545341E+02  0.51100000000E-03 0. -1.
        -11    1    3    3    0    0  0.13724692735E+02  0.73365219956E+01  0.35866284488E+01  0.15970461783E+02  0.51100000000E-03 0.  1.
         12    1    3    3    0    0  0.17276562607E+02  0.10189753797E+02  0.38141606440E+00  0.20061310430E+02  0.00000000000E+00 0. -1.
</event>
<event>
 7    1  0.1485408E-008  0.4614232E+02  0.7816164E-02  0.1320468E+00
        -11   -1    0    0    0    0  0.00000000000E+00  0.00000000000E+00  0.45593999997E+02  0.45594000000E+02  0.51100000000E-03 0.  1.
         11   -1    0    0    0    0 -0.00000000000E+00 -0.00000000000E+00 -0.45593999997E+02  0.45594000000E+02  0.51100000000E-03 0. -1.
    9900012    2    1    2    0    0 -0.39659656700E+02  0.12492118142E+02  0.17325479543E+02  0.46142316227E+02  0.99999860099E+01 0.  0.
         12    1    1    2    0    0  0.39659656700E+02 -0.12492118142E+02 -0.17325479543E+02  0.45045683773E+02  0.00000000000E+00 0. -1.
         11    1    3    3    0    0 -0.50312043347E+01  0.12122632928E+01  0.41033928398E+01  0.66045766259E+01  0.51100000000E-03 0. -1.
        -11    1    3    3    0    0 -0.13319502387E+00  0.11875303505E+01  0.10514324269E+01  0.15916908171E+01  0.51100000000E-03 0.  1.
        -12    1    3    3    0    0 -0.34495257341E+02  0.10092324498E+02  0.12170654276E+02  0.37946048784E+02  0.00000000000E+00 0.  1.
</event>
<event>
 7    1  0.1485408E-008  0.4614232E+02  0.7816164E-02  0.1320468E+00
        -11   -1    0    0    0    0  0.00000000000E+00  0.00000000000E+00  0.45593999997E+02  0.45594000000E+02  0.51100000000E-03 0.  1.
         11   -1    0    0    0    0 -0.00000000000E+00 -0.00000000000E+00 -0.45593999997E+02  0.45594000000E+02  0.51100000000E-03 0. -1.
    9900012    2    1    2    0    0 -0.21912278410E+01  0.34822430556E+02 -0.28490530636E+02  0.46142317796E+02  0.10000000322E+02 0.  0.
         12    1    1    2    0    0  0.21912278410E+01 -0.34822430556E+02  0.28490530636E+02  0.45045682204E+02  0.00000000000E+00 0. -1.
         11    1    3    3    0    0  0.28078641526E+01  0.42095437518E+01 -0.34475988790E+01  0.61229321399E+01  0.51100000000E-03 0. -1.
        -11    1    3    3    0    0 -0.88130759719E-01  0.89707199002E+01 -0.61819225812E+01  0.10894849683E+02  0.51100000000E-03 0.  1.
         12    1    3    3    0    0 -0.49109612339E+01  0.21642166904E+02 -0.18861009176E+02  0.29124535973E+02  0.00000000000E+00 0. -1.
</event>
<event>
 7    1  0.1485408E-008  0.4614232E+02  0.7816164E-02  0.1320468E+00
        -11   -1    0    0    0    0  0.00000000000E+00  0.00000000000E+00  0.45593999997E+02  0.45594000000E+02  0.51100000000E-03 0.  1.
         11   -1    0    0    0    0 -0.00000000000E+00 -0.00000000000E+00 -0.45593999997E+02  0.45594000000E+02  0.51100000000E-03 0. -1.
    9900012    2    1    2    0    0  0.18816925224E+02  0.40673942145E+02 -0.45461020998E+01  0.46142319976E+02  0.10000020200E+02 0.  0.
         12    1    1    2    0    0 -0.18816925224E+02 -0.40673942145E+02  0.45461020998E+01  0.45045680024E+02  0.00000000000E+00 0. -1.
         11    1    3    3    0    0  0.38043528932E+01  0.31103372735E+01  0.11127446385E+01  0.50384025030E+01  0.51100000000E-03 0. -1.
        -11    1    3    3    0    0  0.10019614838E+02  0.26392084664E+02 -0.60085919906E+01  0.28862397551E+02  0.51100000000E-03 0.  1.
         12    1    3    3    0    0  0.49929574925E+01  0.11171520207E+02  0.34974525230E+00  0.12241519922E+02  0.00000000000E+00 0. -1.
</event>
<event>
 7    1  0.1485408E-008  0.4614232E+02  0.7816164E-02  0.1320468E+00
        -11   -1    0    0    0    0  0.00000000000E+00  0.00000000000E+00  0.45593999997E+02  0.45594000000E+02  0.51100000000E-03 0.  1.
         11   -1    0    0    0    0 -0.00000000000E+00 -0.00000000000E+00 -0.45593999997E+02  0.45594000000E+02  0.51100000000E-03 0. -1.
    9900012    2    1    2    0    0  0.43431534999E+02 -0.54687554315E+01  0.10625818321E+02  0.46142317262E+02  0.99999954523E+01 0.  0.
         12    1    1    2    0    0 -0.43431534999E+02  0.54687554315E+01 -0.10625818321E+02  0.45045682738E+02  0.00000000000E+00 0. -1.
         11    1    3    3    0    0  0.16994109419E+02 -0.34877448658E+01  0.20787964954E+00  0.17349562917E+02  0.51100000000E-03 0. -1.
        -11    1    3    3    0    0  0.16289468900E+02 -0.11403063392E+00  0.82061862625E+01  0.18240101241E+02  0.51100000000E-03 0.  1.
        -12    1    3    3    0    0  0.10147956679E+02 -0.18669799318E+01  0.22117524088E+01  0.10552653105E+02  0.00000000000E+00 0.  1.
</event>
<event>
 7    1  0.1485408E-008  0.4614232E+02  0.7816164E-02  0.1320468E+00
        -11   -1    0    0    0    0  0.00000000000E+00  0.00000000000E+00  0.45593999997E+02  0.45594000000E+02  0.51100000000E-03 0. -1.
         11   -1    0    0    0    0 -0.00000000000E+00 -0.00000000000E+00 -0.45593999997E+02  0.45594000000E+02  0.51100000000E-03 0.  1.
    9900012    2    1    2    0    0 -0.34636076906E+02  0.28661486395E+02 -0.28239750951E+01  0.46142318064E+02  0.10000002760E+02 0.  0.
         12    1    1    2    0    0  0.34636076906E+02 -0.28661486395E+02  0.28239750951E+01  0.45045681936E+02  0.00000000000E+00 0. -1.
         11    1    3    3    0    0 -0.33929627285E+01  0.55369664545E+01  0.19819801591E+01  0.67895831394E+01  0.51100000000E-03 0. -1.
        -11    1    3    3    0    0 -0.22759519334E+02  0.18787029102E+02 -0.41480477340E+01  0.29801920795E+02  0.51100000000E-03 0.  1.
        -12    1    3    3    0    0 -0.84835948431E+01  0.43374908386E+01 -0.65790752026E+00  0.95508141298E+01  0.00000000000E+00 0.  1.
</event>
<event>
 7    1  0.1485408E-008  0.4614232E+02  0.7816164E-02  0.1320468E+00
        -11   -1    0    0    0    0  0.00000000000E+00  0.00000000000E+00  0.45593999997E+02  0.45594000000E+02  0.51100000000E-03 0.  1.
         11   -1    0    0    0    0 -0.00000000000E+00 -0.00000000000E+00 -0.45593999997E+02  0.45594000000E+02  0.51100000000E-03 0. -1.
    9900012    2    1    2    0    0 -0.86743242132E+01 -0.39868051938E+02 -0.19089480452E+02  0.46142315081E+02  0.99999755630E+01 0.  0.
         12    1    1    2    0    0  0.86743242132E+01  0.39868051938E+02  0.19089480452E+02  0.45045684919E+02  0.00000000000E+00 0. -1.
         11    1    3    3    0    0 -0.73527519161E+00 -0.77210428427E+01 -0.38585532861E+00  0.77655660954E+01  0.51100000000E-03 0. -1.
        -11    1    3    3    0    0 -0.83533706835E+00 -0.11587251734E+02 -0.82096903786E+01  0.14225371951E+02  0.51100000000E-03 0.  1.
        -12    1    3    3    0    0 -0.71037119532E+01 -0.20559757361E+02 -0.10493934745E+02  0.24151377035E+02  0.00000000000E+00 0.  1.
</event>
<event>
 7    1  0.1485408E-008  0.4614232E+02  0.7816164E-02  0.1320468E+00
        -11   -1    0    0    0    0  0.00000000000E+00  0.00000000000E+00  0.45593999997E+02  0.45594000000E+02  0.51100000000E-03 0. -1.
         11   -1    0    0    0    0 -0.00000000000E+00 -0.00000000000E+00 -0.45593999997E+02  0.45594000000E+02  0.51100000000E-03 0.  1.
    9900012    2    1    2    0    0  0.25150231344E+02 -0.25159652721E+02 -0.27632792986E+02  0.46142317522E+02  0.99999978209E+01 0.  0.
         12    1    1    2    0    0 -0.25150231344E+02  0.25159652721E+02  0.27632792986E+02  0.45045682478E+02  0.00000000000E+00 0. -1.
         11    1    3    3    0    0  0.29645331143E+01 -0.30166489726E+01  0.15192095600E-01  0.42295222745E+01  0.51100000000E-03 0. -1.
        -11    1    3    3    0    0  0.15465907554E+02 -0.13440406042E+02 -0.17365418162E+02  0.26858826468E+02  0.51100000000E-03 0.  1.
         12    1    3    3    0    0  0.67197906765E+01 -0.87025977062E+01 -0.10282566920E+02  0.15053968780E+02  0.00000000000E+00 0. -1.
</event>
<event>
 7    1  0.1485408E-008  0.4614232E+02  0.7816164E-02  0.1320468E+00
        -11   -1    0    0    0    0  0.00000000000E+00  0.00000000000E+00  0.45593999997E+02  0.45594000000E+02  0.51100000000E-03 0.  1.
         11   -1    0    0    0    0 -0.00000000000E+00 -0.00000000000E+00 -0.45593999997E+02  0.45594000000E+02  0.51100000000E-03 0. -1.
    9900012    2    1    2    0    0  0.50234106162E+00 -0.31185131454E+02  0.32501518269E+02  0.46142318074E+02  0.10000002853E+02 0.  0.
         12    1    1    2    0    0 -0.50234106162E+00  0.31185131454E+02 -0.32501518269E+02  0.45045681926E+02  0.00000000000E+00 0. -1.
         11    1    3    3    0    0  0.11291216967E+01 -0.36032078393E+01  0.78364595532E+01  0.86987425027E+01  0.51100000000E-03 0. -1.
        -11    1    3    3    0    0 -0.47630043380E+00 -0.11727894718E+02  0.68297439151E+01  0.13579977129E+02  0.51100000000E-03 0.  1.
        -12    1    3    3    0    0 -0.15048020127E+00 -0.15854028897E+02  0.17835314801E+02  0.23863598443E+02  0.00000000000E+00 0.  1.
</event>
<event>
 7    1  0.1485408E-008  0.4614232E+02  0.7816164E-02  0.1320468E+00
        -11   -1    0    0    0    0  0.00000000000E+00  0.00000000000E+00  0.45593999997E+02  0.45594000000E+02  0.51100000000E-03 0. -1.
         11   -1    0    0    0    0 -0.00000000000E+00 -0.00000000000E+00 -0.45593999997E+02  0.45594000000E+02  0.51100000000E-03 0.  1.
    9900012    2    1    2    0    0 -0.35849097495E+02 -0.16717128188E+02 -0.21552108115E+02  0.46142317296E+02  0.99999957572E+01 0.  0.
         12    1    1    2    0    0  0.35849097495E+02  0.16717128188E+02  0.21552108115E+02  0.45045682704E+02  0.00000000000E+00 0. -1.
         11    1    3    3    0    0 -0.11587591576E+02 -0.78349676413E+01 -0.56909228748E+01  0.15101178759E+02  0.51100000000E-03 0. -1.
        -11    1    3    3    0    0 -0.39095302707E+00 -0.14355341190E+01 -0.18639439085E+01  0.23849296911E+01  0.51100000000E-03 0.  1.
        -12    1    3    3    0    0 -0.23870552892E+02 -0.74466264281E+01 -0.13997241332E+02  0.28656208846E+02  0.00000000000E+00 0.  1.
</event>
<event>
 7    1  0.1485408E-008  0.4614232E+02  0.7816164E-02  0.1320468E+00
        -11   -1    0    0    0    0  0.00000000000E+00  0.00000000000E+00  0.45593999997E+02  0.45594000000E+02  0.51100000000E-03 0.  1.
         11   -1    0    0    0    0 -0.00000000000E+00 -0.00000000000E+00 -0.45593999997E+02  0.45594000000E+02  0.51100000000E-03 0. -1.
    9900012    2    1    2    0    0 -0.43849010667E+01  0.33519023021E+02  0.29771818395E+02  0.46142318385E+02  0.10000005689E+02 0.  0.
         12    1    1    2    0    0  0.43849010667E+01 -0.33519023021E+02 -0.29771818395E+02  0.45045681615E+02  0.00000000000E+00 0. -1.
         11    1    3    3    0    0  0.20747778002E+01  0.15056671010E+01  0.17505628785E+01  0.31042240563E+01  0.51100000000E-03 0. -1.
        -11    1    3    3    0    0 -0.41330153753E+01  0.21365741810E+02  0.19045430525E+02  0.28918941255E+02  0.51100000000E-03 0.  1.
         12    1    3    3    0    0 -0.23266634916E+01  0.10647614110E+02  0.89758249913E+01  0.14119153074E+02  0.00000000000E+00 0. -1.
</event>
<event>
 7    1  0.1485408E-008  0.4614232E+02  0.7816164E-02  0.1320468E+00
        -11   -1    0    0    0    0  0.00000000000E+00  0.00000000000E+00  0.45593999997E+02  0.45594000000E+02  0.51100000000E-03 0.  1.
         11   -1    0    0    0    0 -0.00000000000E+00 -0.00000000000E+00 -0.45593999997E+02  0.45594000000E+02  0.51100000000E-03 0. -1.
    9900012    2    1    2    0    0 -0.40795462527E+02  0.11064539544E+02 -0.15569834808E+02  0.46142317031E+02  0.99999933446E+01 0.  0.
         12    1    1    2    0    0  0.40795462527E+02 -0.11064539544E+02  0.15569834808E+02  0.45045682969E+02  0.00000000000E+00 0. -1.
         11    1    3    3    0    0 -0.21337293147E+02  0.47850306372E+01 -0.12185601379E+02  0.25033287404E+02  0.51100000000E-03 0. -1.
        -11    1    3    3    0    0 -0.17171149450E+02  0.43775965129E+01 -0.20152285913E+01  0.17834597590E+02  0.51100000000E-03 0.  1.
         12    1    3    3    0    0 -0.22870199312E+01  0.19019123944E+01 -0.13690048384E+01  0.32744320377E+01  0.00000000000E+00 0. -1.
</event>
<event>
 7    1  0.1485408E-008  0.4614232E+02  0.7816164E-02  0.1320468E+00
        -11   -1    0    0    0    0  0.00000000000E+00  0.00000000000E+00  0.45593999997E+02  0.45594000000E+02  0.51100000000E-03 0.  1.
         11   -1    0    0    0    0 -0.00000000000E+00 -0.00000000000E+00 -0.45593999997E+02  0.45594000000E+02  0.51100000000E-03 0. -1.
    9900012    2    1    2    0    0  0.40041649800E+02 -0.28259905038E+01  0.20440001015E+02  0.46142316716E+02  0.99999904660E+01 0.  0.
         12    1    1    2    0    0 -0.40041649800E+02  0.28259905038E+01 -0.20440001015E+02  0.45045683284E+02  0.00000000000E+00 0. -1.
         11    1    3    3    0    0  0.60317523992E+01 -0.25797304849E+01  0.23160931423E+01  0.69571067323E+01  0.51100000000E-03 0. -1.
        -11    1    3    3    0    0  0.24902017814E+02  0.26726552606E+00  0.95675660466E+01  0.26678085433E+02  0.51100000000E-03 0.  1.
        -12    1    3    3    0    0  0.91078795870E+01 -0.51352554499E+00  0.85563418263E+01  0.12507124550E+02  0.00000000000E+00 0.  1.
</event>
<event>
 7    1  0.1485408E-008  0.4614232E+02  0.7816164E-02  0.1320468E+00
        -11   -1    0    0    0    0  0.00000000000E+00  0.00000000000E+00  0.45593999997E+02  0.45594000000E+02  0.51100000000E-03 0. -1.
         11   -1    0    0    0    0 -0.00000000000E+00 -0.00000000000E+00 -0.45593999997E+02  0.45594000000E+02  0.51100000000E-03 0.  1.
    9900012    2    1    2    0    0 -0.14758240473E+02  0.41332040778E+02 -0.10147422410E+02  0.46142318317E+02  0.10000005071E+02 0.  0.
         12    1    1    2    0    0  0.14758240473E+02 -0.41332040778E+02  0.10147422410E+02  0.45045681683E+02  0.00000000000E+00 0. -1.
         11    1    3    3    0    0 -0.72115322878E+01  0.15549671056E+02 -0.21879322580E+01  0.17279627187E+02  0.51100000000E-03 0. -1.
        -11    1    3    3    0    0 -0.80792434230E+01  0.25737605665E+02 -0.71755470134E+01  0.27913921166E+02  0.51100000000E-03 0.  1.
        -12    1    3    3    0    0  0.53253523759E+00  0.44764055974E-01 -0.78394313859E+00  0.94876996397E+00  0.00000000000E+00 0.  1.
</event>
<event>
 7    1  0.1485408E-008  0.4614232E+02  0.7816164E-02  0.1320468E+00
        -11   -1    0    0    0    0  0.00000000000E+00  0.00000000000E+00  0.45593999997E+02  0.45594000000E+02  0.51100000000E-03 0.  1.
         11   -1    0    0    0    0 -0.00000000000E+00 -0.00000000000E+00 -0.45593999997E+02  0.45594000000E+02  0.51100000000E-03 0. -1.
    9900012    2    1    2    0    0 -0.40442857325E+02  0.91545772118E+01  0.17597799703E+02  0.46142317111E+02  0.99999940700E+01 0.  0.
         12    1    1    2    0    0  0.40442857325E+02 -0.91545772118E+01 -0.17597799703E+02  0.45045682889E+02  0.00000000000E+00 0. -1.
         11    1    3    3    0    0  0.23686920953E-01  0.69941921395E+00  0.17808022060E-02  0.69982264856E+00  0.51100000000E-03 0. -1.
        -11    1    3    3    0    0 -0.37101133108E+02  0.88688644408E+01  0.14373050593E+02  0.40764389091E+02  0.51100000000E-03 0.  1.
         12    1    3    3    0    0 -0.33654111383E+01 -0.41370644302E+00  0.32229683073E+01  0.46781053709E+01  0.00000000000E+00 0. -1.
</event>
<event>
 7    1  0.1485408E-008  0.4614232E+02  0.7816164E-02  0.1320468E+00
        -11   -1    0    0    0    0  0.00000000000E+00  0.00000000000E+00  0.45593999997E+02  0.45594000000E+02  0.51100000000E-03 0.  1.
         11   -1    0    0    0    0 -0.00000000000E+00 -0.00000000000E+00 -0.45593999997E+02  0.45594000000E+02  0.51100000000E-03 0. -1.
    9900012    2    1    2    0    0 -0.34591831084E+02 -0.28002579077E+02  0.69551623195E+01  0.46142317681E+02  0.99999992671E+01 0.  0.
         12    1    1    2    0    0  0.34591831084E+02  0.28002579077E+02 -0.69551623195E+01  0.45045682319E+02  0.00000000000E+00 0. -1.
         11    1    3    3    0    0 -0.17783759707E+02 -0.10382484504E+02  0.46031764609E+01  0.21100884521E+02  0.51100000000E-03 0. -1.
        -11    1    3    3    0    0 -0.47790292759E+01 -0.30640825450E+01  0.23865646630E+01  0.61581989099E+01  0.51100000000E-03 0.  1.
         12    1    3    3    0    0 -0.12029042102E+02 -0.14556012028E+02 -0.34578804343E-01  0.18883234250E+02  0.00000000000E+00 0. -1.
</event>
<event>
 7    1  0.1485408E-008  0.4614232E+02  0.7816164E-02  0.1320468E+00
        -11   -1    0    0    0    0  0.00000000000E+00  0.00000000000E+00  0.45593999997E+02  0.45594000000E+02  0.51100000000E-03 0.  1.
         11   -1    0    0    0    0 -0.00000000000E+00 -0.00000000000E+00 -0.45593999997E+02  0.45594000000E+02  0.51100000000E-03 0. -1.
    9900012    2    1    2    0    0  0.33354014123E+01 -0.18856170510E+01  0.44882435596E+02  0.46142317862E+02  0.10000000918E+02 0.  0.
         12    1    1    2    0    0 -0.33354014123E+01  0.18856170510E+01 -0.44882435596E+02  0.45045682138E+02  0.00000000000E+00 0. -1.
         11    1    3    3    0    0  0.42672210243E+01 -0.42431690565E+01  0.26159888306E+02  0.26843126036E+02  0.51100000000E-03 0. -1.
        -11    1    3    3    0    0 -0.20813929835E+01  0.83768349703E+00  0.54999815215E+01  0.59400090397E+01  0.51100000000E-03 0.  1.
         12    1    3    3    0    0  0.11495733715E+01  0.15198685085E+01  0.13222565768E+02  0.13359182786E+02  0.00000000000E+00 0. -1.
</event>
<event>
 7    1  0.1485408E-008  0.4614232E+02  0.7816164E-02  0.1320468E+00
        -11   -1    0    0    0    0  0.00000000000E+00  0.00000000000E+00  0.45593999997E+02  0.45594000000E+02  0.51100000000E-03 0.  1.
         11   -1    0    0    0    0 -0.00000000000E+00 -0.00000000000E+00 -0.45593999997E+02  0.45594000000E+02  0.51100000000E-03 0. -1.
    9900012    2    1    2    0    0 -0.31311060951E+02  0.27769664429E+02  0.16660631179E+02  0.46142318391E+02  0.10000005739E+02 0.  0.
         12    1    1    2    0    0  0.31311060951E+02 -0.27769664429E+02 -0.16660631179E+02  0.45045681609E+02  0.00000000000E+00 0. -1.
         11    1    3    3    0    0 -0.44174964659E+01  0.44746803849E+01  0.53230914640E+01  0.82384672463E+01  0.51100000000E-03 0. -1.
        -11    1    3    3    0    0 -0.15693035765E+02  0.11815573044E+02  0.93083913334E+01  0.21737646776E+02  0.51100000000E-03 0.  1.
         12    1    3    3    0    0 -0.11200528721E+02  0.11479411000E+02  0.20291483817E+01  0.16166204369E+02  0.00000000000E+00 0. -1.
</event>
<event>
 7    1  0.1485408E-008  0.4614232E+02  0.7816164E-02  0.1320468E+00
        -11   -1    0    0    0    0  0.00000000000E+00  0.00000000000E+00  0.45593999997E+02  0.45594000000E+02  0.51100000000E-03 0. -1.
         11   -1    0    0    0    0 -0.00000000000E+00 -0.00000000000E+00 -0.45593999997E+02  0.45594000000E+02  0.51100000000E-03 0.  1.
    9900012    2    1    2    0    0 -0.43786555719E+02  0.10424630759E+02 -0.17827092536E+01  0.46142318293E+02  0.10000004848E+02 0.  0.
         12    1    1    2    0    0  0.43786555719E+02 -0.10424630759E+02  0.17827092536E+01  0.45045681707E+02  0.00000000000E+00 0. -1.
         11    1    3    3    0    0 -0.26831891565E+02  0.73199061845E+01  0.22722220071E+01  0.27905096750E+02  0.51100000000E-03 0. -1.
        -11    1    3    3    0    0 -0.28219339363E+01 -0.11107613565E+01 -0.69939334134E+00  0.31122746086E+01  0.51100000000E-03 0.  1.
        -12    1    3    3    0    0 -0.14132730218E+02  0.42154859309E+01 -0.33555379194E+01  0.15124946934E+02  0.00000000000E+00 0.  1.
</event>
<event>
 7    1  0.1485408E-008  0.4614232E+02  0.7816164E-02  0.1320468E+00
        -11   -1    0    0    0    0  0.00000000000E+00  0.00000000000E+00  0.45593999997E+02  0.45594000000E+02  0.51100000000E-03 0.  1.
         11   -1    0    0    0    0 -0.00000000000E+00 -0.00000000000E+00 -0.45593999997E+02  0.45594000000E+02  0.51100000000E-03 0. -1.
    9900012    2    1    2    0    0 -0.13483580045E+02  0.30057961508E+02  0.30721743484E+02  0.46142317593E+02  0.99999984641E+01 0.  0.
         12    1    1    2    0    0  0.13483580045E+02 -0.30057961508E+02 -0.30721743484E+02  0.45045682407E+02  0.00000000000E+00 0. -1.
         11    1    3    3    0    0 -0.89798295043E+00  0.91669858055E+01  0.54426028013E+01  0.10698688128E+02  0.51100000000E-03 0. -1.
        -11    1    3    3    0    0 -0.10434966597E+02  0.19461127405E+02  0.23804716648E+02  0.32469809711E+02  0.51100000000E-03 0.  1.
         12    1    3    3    0    0 -0.21506304982E+01  0.14298482976E+01  0.14744240347E+01  0.29738197537E+01  0.00000000000E+00 0. -1.
</event>
<event>
 7    1  0.1485408E-008  0.4614232E+02  0.7816164E-02  0.1320468E+00
        -11   -1    0    0    0    0  0.00000000000E+00  0.00000000000E+00  0.45593999997E+02  0.45594000000E+02  0.51100000000E-03 0.  1.
         11   -1    0    0    0    0 -0.00000000000E+00 -0.00000000000E+00 -0.45593999997E+02  0.45594000000E+02  0.51100000000E-03 0. -1.
    9900012    2    1    2    0    0  0.32407914317E+02 -0.17286136089E+02  0.26077386147E+02  0.46142317860E+02  0.10000000900E+02 0.  0.
         12    1    1    2    0    0 -0.32407914317E+02  0.17286136089E+02 -0.26077386147E+02  0.45045682140E+02  0.00000000000E+00 0. -1.
         11    1    3    3    0    0  0.14774336167E+02 -0.84918329918E+01  0.64507997988E+01  0.18221005873E+02  0.51100000000E-03 0. -1.
        -11    1    3    3    0    0  0.11350637692E+02 -0.52285907741E+01  0.13985638884E+02  0.18755618698E+02  0.51100000000E-03 0.  1.
         12    1    3    3    0    0  0.62829404578E+01 -0.35657123227E+01  0.56409474637E+01  0.91656932881E+01  0.00000000000E+00 0. -1.
</event>
<event>
 7    1  0.1485408E-008  0.4614232E+02  0.7816164E-02  0.1320468E+00
        -11   -1    0    0    0    0  0.00000000000E+00  0.00000000000E+00  0.45593999997E+02  0.45594000000E+02  0.51100000000E-03 0.  1.
         11   -1    0    0    0    0 -0.00000000000E+00 -0.00000000000E+00 -0.45593999997E+02  0.45594000000E+02  0.51100000000E-03 0. -1.
    9900012    2    1    2    0    0  0.18013452461E+02 -0.37745169333E+02  0.16731132171E+02  0.46142322502E+02  0.10000043231E+02 0.  0.
         12    1    1    2    0    0 -0.18013452461E+02  0.37745169333E+02 -0.16731132171E+02  0.45045677498E+02  0.00000000000E+00 0. -1.
         11    1    3    3    0    0  0.66486794015E+01 -0.10160740535E+02  0.14418732569E+01  0.12228024565E+02  0.51100000000E-03 0. -1.
        -11    1    3    3    0    0  0.44638696357E+01 -0.13963236299E+02  0.10038811804E+02  0.17767268860E+02  0.51100000000E-03 0.  1.
        -12    1    3    3    0    0  0.69009034239E+01 -0.13621192499E+02  0.52504471107E+01  0.16147029077E+02  0.00000000000E+00 0.  1.
</event>
<event>
 7    1  0.1485408E-008  0.4614232E+02  0.7816164E-02  0.1320468E+00
        -11   -1    0    0    0    0  0.00000000000E+00  0.00000000000E+00  0.45593999997E+02  0.45594000000E+02  0.51100000000E-03 0. -1.
         11   -1    0    0    0    0 -0.00000000000E+00 -0.00000000000E+00 -0.45593999997E+02  0.45594000000E+02  0.51100000000E-03 0.  1.
    9900012    2    1    2    0    0 -0.26936384431E+02  0.25318934142E+02 -0.25739001892E+02  0.46142318179E+02  0.10000003811E+02 0.  0.
         12    1    1    2    0    0  0.26936384431E+02 -0.25318934142E+02  0.25739001892E+02  0.45045681821E+02  0.00000000000E+00 0. -1.
         11    1    3    3    0    0 -0.79134195259E+01  0.38348682763E+01 -0.34804380920E+01  0.94573713506E+01  0.51100000000E-03 0. -1.
        -11    1    3    3    0    0 -0.10773288600E+02  0.83927768412E+01 -0.11269559103E+02  0.17706084067E+02  0.51100000000E-03 0.  1.
        -12    1    3    3    0    0 -0.82496763049E+01  0.13091289025E+02 -0.10989004697E+02  0.18978862761E+02  0.00000000000E+00 0.  1.
</event>
<event>
 7    1  0.1485408E-008  0.4614232E+02  0.7816164E-02  0.1320468E+00
        -11   -1    0    0    0    0  0.00000000000E+00  0.00000000000E+00  0.45593999997E+02  0.45594000000E+02  0.51100000000E-03 0. -1.
         11   -1    0    0    0    0 -0.00000000000E+00 -0.00000000000E+00 -0.45593999997E+02  0.45594000000E+02  0.51100000000E-03 0.  1.
    9900012    2    1    2    0    0  0.11458302992E+01  0.14094124967E+01 -0.45009045152E+02  0.46142317453E+02  0.99999971864E+01 0.  0.
         12    1    1    2    0    0 -0.11458302992E+01 -0.14094124967E+01  0.45009045152E+02  0.45045682547E+02  0.00000000000E+00 0. -1.
         11    1    3    3    0    0  0.30742022457E+01  0.36488546507E+01 -0.15883907292E+02  0.16585034545E+02  0.51100000000E-03 0. -1.
        -11    1    3    3    0    0  0.76997402852E+00  0.42498617740E+00 -0.11250315136E+02  0.11284638415E+02  0.51100000000E-03 0.  1.
         12    1    3    3    0    0 -0.26983459751E+01 -0.26644283314E+01 -0.17874822724E+02  0.18272644493E+02  0.00000000000E+00 0. -1.
</event>
<event>
 7    1  0.1485408E-008  0.4614232E+02  0.7816164E-02  0.1320468E+00
        -11   -1    0    0    0    0  0.00000000000E+00  0.00000000000E+00  0.45593999997E+02  0.45594000000E+02  0.51100000000E-03 0.  1.
         11   -1    0    0    0    0 -0.00000000000E+00 -0.00000000000E+00 -0.45593999997E+02  0.45594000000E+02  0.51100000000E-03 0. -1.
    9900012    2    1    2    0    0  0.32052101818E+02  0.25496356534E+02  0.18753989361E+02  0.46142317139E+02  0.99999943281E+01 0.  0.
         12    1    1    2    0    0 -0.32052101818E+02 -0.25496356534E+02 -0.18753989361E+02  0.45045682861E+02  0.00000000000E+00 0. -1.
         11    1    3    3    0    0  0.34972185484E+01  0.51163385709E+01  0.58867215300E+00  0.62252705252E+01  0.51100000000E-03 0. -1.
        -11    1    3    3    0    0  0.35536198417E+01  0.51411779698E+01  0.27588268225E+01  0.68316213738E+01  0.51100000000E-03 0.  1.
        -12    1    3    3    0    0  0.25001263428E+02  0.15238839994E+02  0.15406490385E+02  0.33085425240E+02  0.00000000000E+00 0.  1.
</event>
<event>
 7    1  0.1485408E-008  0.4614232E+02  0.7816164E-02  0.1320468E+00
        -11   -1    0    0    0    0  0.00000000000E+00  0.00000000000E+00  0.45593999997E+02  0.45594000000E+02  0.51100000000E-03 0.  1.
         11   -1    0    0    0    0 -0.00000000000E+00 -0.00000000000E+00 -0.45593999997E+02  0.45594000000E+02  0.51100000000E-03 0. -1.
    9900012    2    1    2    0    0  0.41009687790E+02 -0.76902568026E+01  0.16975836033E+02  0.46142317062E+02  0.99999936289E+01 0.  0.
         12    1    1    2    0    0 -0.41009687790E+02  0.76902568026E+01 -0.16975836033E+02  0.45045682938E+02  0.00000000000E+00 0. -1.
         11    1    3    3    0    0  0.25821644704E+01 -0.94948253385E+00  0.23771646360E+01  0.36359321229E+01  0.51100000000E-03 0. -1.
        -11    1    3    3    0    0  0.26453222686E+02 -0.75465618883E+01  0.12907971812E+02  0.30386499032E+02  0.51100000000E-03 0.  1.
        -12    1    3    3    0    0  0.11974300633E+02  0.80578761957E+00  0.16906995843E+01  0.12119885908E+02  0.00000000000E+00 0.  1.
</event>
<event>
 7    1  0.1485408E-008  0.4614232E+02  0.7816164E-02  0.1320468E+00
        -11   -1    0    0    0    0  0.00000000000E+00  0.00000000000E+00  0.45593999997E+02  0.45594000000E+02  0.51100000000E-03 0.  1.
         11   -1    0    0    0    0 -0.00000000000E+00 -0.00000000000E+00 -0.45593999997E+02  0.45594000000E+02  0.51100000000E-03 0. -1.
    9900012    2    1    2    0    0 -0.31578362104E+02  0.24052113889E+02  0.21293576030E+02  0.46142317456E+02  0.99999972200E+01 0.  0.
         12    1    1    2    0    0  0.31578362104E+02 -0.24052113889E+02 -0.21293576030E+02  0.45045682544E+02  0.00000000000E+00 0. -1.
         11    1    3    3    0    0 -0.91215783178E+01  0.10791973751E+02  0.45929849213E+01  0.14858176173E+02  0.51100000000E-03 0. -1.
        -11    1    3    3    0    0 -0.21285256205E+02  0.11214513733E+02  0.15665911332E+02  0.28709723582E+02  0.51100000000E-03 0.  1.
        -12    1    3    3    0    0 -0.11715275806E+01  0.20456264054E+01  0.10346797759E+01  0.25744177014E+01  0.00000000000E+00 0.  1.
</event>
<event>
 7    1  0.1485408E-008  0.4614232E+02  0.7816164E-02  0.1320468E+00
        -11   -1    0    0    0    0  0.00000000000E+00  0.00000000000E+00  0.45593999997E+02  0.45594000000E+02  0.51100000000E-03 0. -1.
         11   -1    0    0    0    0 -0.00000000000E+00 -0.00000000000E+00 -0.45593999997E+02  0.45594000000E+02  0.51100000000E-03 0.  1.
    9900012    2    1    2    0    0 -0.15749124929E+02  0.42044492849E+02  0.36522876574E+01  0.46142317409E+02  0.99999967892E+01 0.  0.
         12    1    1    2    0    0  0.15749124929E+02 -0.42044492849E+02 -0.36522876574E+01  0.45045682591E+02  0.00000000000E+00 0. -1.
         11    1    3    3    0    0 -0.61289212570E+00  0.92582543478E+01  0.21099843948E+01  0.95154056526E+01  0.51100000000E-03 0. -1.
        -11    1    3    3    0    0 -0.46857006015E+01  0.10676322931E+02 -0.22642084202E+01  0.11877133555E+02  0.51100000000E-03 0.  1.
         12    1    3    3    0    0 -0.10450532202E+02  0.22109915570E+02  0.38065116827E+01  0.24749778201E+02  0.00000000000E+00 0. -1.
</event>
<event>
 7    1  0.1485408E-008  0.4614231E+02  0.7816164E-02  0.1320468E+00
        -11   -1    0    0    0    0  0.00000000000E+00  0.00000000000E+00  0.45593999997E+02  0.45594000000E+02  0.51100000000E-03 0. -1.
         11   -1    0    0    0    0 -0.00000000000E+00 -0.00000000000E+00 -0.45593999997E+02  0.45594000000E+02  0.51100000000E-03 0.  1.
    9900012    2    1    2    0    0 -0.24715922586E+02  0.64400715373E+00 -0.37653980258E+02  0.46142314260E+02  0.99999680766E+01 0.  0.
         12    1    1    2    0    0  0.24715922586E+02 -0.64400715373E+00  0.37653980258E+02  0.45045685740E+02  0.00000000000E+00 0. -1.
         11    1    3    3    0    0 -0.98912251020E+01 -0.32142932510E+01 -0.20510794945E+02  0.22996972076E+02  0.51100000000E-03 0. -1.
        -11    1    3    3    0    0 -0.89182847275E+01  0.10652192130E+01 -0.10687520853E+02  0.13960429675E+02  0.51100000000E-03 0.  1.
         12    1    3    3    0    0 -0.59064127568E+01  0.27930811917E+01 -0.64556644597E+01  0.91849125099E+01  0.00000000000E+00 0. -1.
</event>
<event>
 7    1  0.1485408E-008  0.4614232E+02  0.7816164E-02  0.1320468E+00
        -11   -1    0    0    0    0  0.00000000000E+00  0.00000000000E+00  0.45593999997E+02  0.45594000000E+02  0.51100000000E-03 0.  1.
         11   -1    0    0    0    0 -0.00000000000E+00 -0.00000000000E+00 -0.45593999997E+02  0.45594000000E+02  0.51100000000E-03 0. -1.
    9900012    2    1    2    0    0 -0.37704134414E+02 -0.24583066309E+02 -0.17844878646E+01  0.46142319875E+02  0.10000019272E+02 0.  0.
         12    1    1    2    0    0  0.37704134414E+02  0.24583066309E+02  0.17844878646E+01  0.45045680125E+02  0.00000000000E+00 0. -1.
         11    1    3    3    0    0 -0.18619570279E+02 -0.95875707904E+01  0.27291103462E+01  0.21120084151E+02  0.51100000000E-03 0. -1.
        -11    1    3    3    0    0 -0.23873230657E+01 -0.30299867630E+01 -0.19457390780E+01  0.43204203528E+01  0.51100000000E-03 0.  1.
         12    1    3    3    0    0 -0.16697241069E+02 -0.11965508755E+02 -0.25678591328E+01  0.20701815370E+02  0.00000000000E+00 0. -1.
</event>
<event>
 7    1  0.1485408E-008  0.4614232E+02  0.7816164E-02  0.1320468E+00
        -11   -1    0    0    0    0  0.00000000000E+00  0.00000000000E+00  0.45593999997E+02  0.45594000000E+02  0.51100000000E-03 0. -1.
         11   -1    0    0    0    0 -0.00000000000E+00 -0.00000000000E+00 -0.45593999997E+02  0.45594000000E+02  0.51100000000E-03 0.  1.
    9900012    2    1    2    0    0  0.18559343439E+02  0.17554875369E+02 -0.37101087013E+02  0.46142317237E+02  0.99999952196E+01 0.  0.
         12    1    1    2    0    0 -0.18559343439E+02 -0.17554875369E+02  0.37101087013E+02  0.45045682763E+02  0.00000000000E+00 0. -1.
         11    1    3    3    0    0  0.86895036664E+00  0.40626549420E+01 -0.36086070790E+01  0.55029342381E+01  0.51100000000E-03 0. -1.
        -11    1    3    3    0    0  0.15481269569E+02  0.13551770671E+02 -0.28233565374E+02  0.34935002644E+02  0.51100000000E-03 0.  1.
        -12    1    3    3    0    0  0.22091235030E+01 -0.59550243609E-01 -0.52589145599E+01  0.57043803547E+01  0.00000000000E+00 0.  1.
</event>
<event>
 7    1  0.1485408E-008  0.4614232E+02  0.7816164E-02  0.1320468E+00
        -11   -1    0    0    0    0  0.00000000000E+00  0.00000000000E+00  0.45593999997E+02  0.45594000000E+02  0.51100000000E-03 0.  1.
         11   -1    0    0    0    0 -0.00000000000E+00 -0.00000000000E+00 -0.45593999997E+02  0.45594000000E+02  0.51100000000E-03 0. -1.
    9900012    2    1    2    0    0 -0.44076305048E+02 -0.84389536682E+01  0.38957548597E+01  0.46142317503E+02  0.99999976493E+01 0.  0.
         12    1    1    2    0    0  0.44076305048E+02  0.84389536682E+01 -0.38957548597E+01  0.45045682497E+02  0.00000000000E+00 0. -1.
         11    1    3    3    0    0 -0.26646693748E+02 -0.70266443194E+01 -0.10599099368E+01  0.27577951835E+02  0.51100000000E-03 0. -1.
        -11    1    3    3    0    0 -0.14911276080E+02 -0.25324964723E+01  0.39695877311E+01  0.15637049585E+02  0.51100000000E-03 0.  1.
        -12    1    3    3    0    0 -0.25183352197E+01  0.11201871234E+01  0.98607706538E+00  0.29273160829E+01  0.00000000000E+00 0.  1.
</event>
<event>
 7    1  0.1485408E-008  0.4614232E+02  0.7816164E-02  0.1320468E+00
        -11   -1    0    0    0    0  0.00000000000E+00  0.00000000000E+00  0.45593999997E+02  0.45594000000E+02  0.51100000000E-03 0. -1.
         11   -1    0    0    0    0 -0.00000000000E+00 -0.00000000000E+00 -0.45593999997E+02  0.45594000000E+02  0.51100000000E-03 0.  1.
    9900012    2    1    2    0    0  0.42018343727E+02 -0.94444675885E+01 -0.13205085730E+02  0.46142318002E+02  0.10000002192E+02 0.  0.
         12    1    1    2    0    0 -0.42018343727E+02  0.94444675885E+01  0.13205085730E+02  0.45045681998E+02  0.00000000000E+00 0. -1.
         11    1    3    3    0    0  0.14136933410E+02 -0.65731071344E+01 -0.54265306046E+01  0.16507751461E+02  0.51100000000E-03 0.  1.
        -11    1    3    3    0    0  0.17500788619E+02  0.88988256782E+00 -0.54424187783E+01  0.18349098498E+02  0.51100000000E-03 0. -1.
         12    1    3    3    0    0  0.10380621697E+02 -0.37612430220E+01 -0.23361363475E+01  0.11285468042E+02  0.00000000000E+00 0. -1.
</event>
<event>
 7    1  0.1485408E-008  0.4614232E+02  0.7816164E-02  0.1320468E+00
        -11   -1    0    0    0    0  0.00000000000E+00  0.00000000000E+00  0.45593999997E+02  0.45594000000E+02  0.51100000000E-03 0.  1.
         11   -1    0    0    0    0 -0.00000000000E+00 -0.00000000000E+00 -0.45593999997E+02  0.45594000000E+02  0.51100000000E-03 0. -1.
    9900012    2    1    2    0    0 -0.40291693391E+02 -0.18563364007E+02  0.78162961926E+01  0.46142317346E+02  0.99999962142E+01 0.  0.
         12    1    1    2    0    0  0.40291693391E+02  0.18563364007E+02 -0.78162961926E+01  0.45045682654E+02  0.00000000000E+00 0. -1.
         11    1    3    3    0    0 -0.17082445609E+01 -0.87134180238E+00 -0.61772989976E+00  0.20146777674E+01  0.51100000000E-03 0. -1.
        -11    1    3    3    0    0 -0.40339615181E+01 -0.12470196996E+00 -0.11587954930E+01  0.41989526512E+01  0.51100000000E-03 0.  1.
        -12    1    3    3    0    0 -0.34549487312E+02 -0.17567320235E+02  0.95928215854E+01  0.39928686927E+02  0.00000000000E+00 0.  1.
</event>
<event>
 7    1  0.1485408E-008  0.4614232E+02  0.7816164E-02  0.1320468E+00
        -11   -1    0    0    0    0  0.00000000000E+00  0.00000000000E+00  0.45593999997E+02  0.45594000000E+02  0.51100000000E-03 0.  1.
         11   -1    0    0    0    0 -0.00000000000E+00 -0.00000000000E+00 -0.45593999997E+02  0.45594000000E+02  0.51100000000E-03 0. -1.
    9900012    2    1    2    0    0  0.27917121768E+02 -0.28102415560E+01  0.35239899223E+02  0.46142316048E+02  0.99999843829E+01 0.  0.
         12    1    1    2    0    0 -0.27917121768E+02  0.28102415560E+01 -0.35239899223E+02  0.45045683952E+02  0.00000000000E+00 0. -1.
         11    1    3    3    0    0  0.12527199059E+02  0.61618447462E+00  0.98059871810E+01  0.15920671607E+02  0.51100000000E-03 0. -1.
        -11    1    3    3    0    0  0.15077076134E+02 -0.40344710345E+01  0.23934742503E+02  0.28573888084E+02  0.51100000000E-03 0.  1.
        -12    1    3    3    0    0  0.31284657464E+00  0.60804500381E+00  0.14991695391E+01  0.16477563572E+01  0.00000000000E+00 0.  1.
</event>
<event>
 7    1  0.1485408E-008  0.4614232E+02  0.7816164E-02  0.1320468E+00
        -11   -1    0    0    0    0  0.00000000000E+00  0.00000000000E+00  0.45593999997E+02  0.45594000000E+02  0.51100000000E-03 0. -1.
         11   -1    0    0    0    0 -0.00000000000E+00 -0.00000000000E+00 -0.45593999997E+02  0.45594000000E+02  0.51100000000E-03 0.  1.
    9900012    2    1    2    0    0  0.35953781678E+02 -0.21432286735E+02  0.16646207011E+02  0.46142317194E+02  0.99999948256E+01 0.  0.
         12    1    1    2    0    0 -0.35953781678E+02  0.21432286735E+02 -0.16646207011E+02  0.45045682806E+02  0.00000000000E+00 0. -1.
         11    1    3    3    0    0  0.31546163455E+02 -0.21004830920E+02  0.16954317167E+02  0.41518817680E+02  0.51100000000E-03 0.  1.
        -11    1    3    3    0    0  0.23259353483E+01  0.41563936030E+00 -0.26010357319E+00  0.23770539439E+01  0.51100000000E-03 0. -1.
        -12    1    3    3    0    0  0.20816828744E+01 -0.84309517608E+00 -0.48006582840E-01  0.22464455697E+01  0.00000000000E+00 0.  1.
</event>
<event>
 7    1  0.1485408E-008  0.4614232E+02  0.7816164E-02  0.1320468E+00
        -11   -1    0    0    0    0  0.00000000000E+00  0.00000000000E+00  0.45593999997E+02  0.45594000000E+02  0.51100000000E-03 0.  1.
         11   -1    0    0    0    0 -0.00000000000E+00 -0.00000000000E+00 -0.45593999997E+02  0.45594000000E+02  0.51100000000E-03 0. -1.
    9900012    2    1    2    0    0  0.12020671073E+02 -0.43400273651E+02  0.10164847393E+01  0.46142317330E+02  0.99999960648E+01 0.  0.
         12    1    1    2    0    0 -0.12020671073E+02  0.43400273651E+02 -0.10164847393E+01  0.45045682670E+02  0.00000000000E+00 0. -1.
         11    1    3    3    0    0  0.13242516564E+01 -0.42432616662E+00 -0.84623983827E+00  0.16278259336E+01  0.51100000000E-03 0. -1.
        -11    1    3    3    0    0  0.48379524644E+01 -0.15333602762E+02 -0.10226880212E+01  0.16111208792E+02  0.51100000000E-03 0.  1.
         12    1    3    3    0    0  0.58584669526E+01 -0.27642344722E+02  0.28854125988E+01  0.28403282603E+02  0.00000000000E+00 0. -1.
</event>
<event>
 7    1  0.1485408E-008  0.4614232E+02  0.7816164E-02  0.1320468E+00
        -11   -1    0    0    0    0  0.00000000000E+00  0.00000000000E+00  0.45593999997E+02  0.45594000000E+02  0.51100000000E-03 0.  1.
         11   -1    0    0    0    0 -0.00000000000E+00 -0.00000000000E+00 -0.45593999997E+02  0.45594000000E+02  0.51100000000E-03 0. -1.
    9900012    2    1    2    0    0 -0.13319697811E+02  0.25006214498E+02  0.35019829417E+02  0.46142316903E+02  0.99999921736E+01 0.  0.
         12    1    1    2    0    0  0.13319697811E+02 -0.25006214498E+02 -0.35019829417E+02  0.45045683097E+02  0.00000000000E+00 0. -1.
         11    1    3    3    0    0 -0.58331868607E+01  0.89054705285E+01  0.86956420465E+01  0.13745823553E+02  0.51100000000E-03 0. -1.
        -11    1    3    3    0    0  0.40289344751E-01  0.54269495821E+01  0.49372054131E+01  0.73368523598E+01  0.51100000000E-03 0.  1.
        -12    1    3    3    0    0 -0.75268002956E+01  0.10673794387E+02  0.21386981957E+02  0.25059640990E+02  0.00000000000E+00 0.  1.
</event>
<event>
 7    1  0.1485408E-008  0.4614232E+02  0.7816164E-02  0.1320468E+00
        -11   -1    0    0    0    0  0.00000000000E+00  0.00000000000E+00  0.45593999997E+02  0.45594000000E+02  0.51100000000E-03 0.  1.
         11   -1    0    0    0    0 -0.00000000000E+00 -0.00000000000E+00 -0.45593999997E+02  0.45594000000E+02  0.51100000000E-03 0. -1.
    9900012    2    1    2    0    0  0.44188626620E+01 -0.44460605531E+02  0.57307667426E+01  0.46142317866E+02  0.10000000960E+02 0.  0.
         12    1    1    2    0    0 -0.44188626620E+01  0.44460605531E+02 -0.57307667426E+01  0.45045682134E+02  0.00000000000E+00 0. -1.
         11    1    3    3    0    0  0.23458549346E+01 -0.16976407316E+02 -0.11176893264E+01  0.17174127938E+02  0.51100000000E-03 0. -1.
        -11    1    3    3    0    0 -0.18350860768E+01 -0.13476632956E+02  0.30816427316E+01  0.13945741247E+02  0.51100000000E-03 0.  1.
         12    1    3    3    0    0  0.39080938042E+01 -0.14007565259E+02  0.37668133375E+01  0.15022448681E+02  0.00000000000E+00 0. -1.
</event>
<event>
 7    1  0.1485408E-008  0.4614232E+02  0.7816164E-02  0.1320468E+00
        -11   -1    0    0    0    0  0.00000000000E+00  0.00000000000E+00  0.45593999997E+02  0.45594000000E+02  0.51100000000E-03 0. -1.
         11   -1    0    0    0    0 -0.00000000000E+00 -0.00000000000E+00 -0.45593999997E+02  0.45594000000E+02  0.51100000000E-03 0.  1.
    9900012    2    1    2    0    0 -0.40915991713E+02  0.11686160178E+02 -0.14779338969E+02  0.46142316767E+02  0.99999909387E+01 0.  0.
         12    1    1    2    0    0  0.40915991713E+02 -0.11686160178E+02  0.14779338969E+02  0.45045683233E+02  0.00000000000E+00 0. -1.
         11    1    3    3    0    0 -0.29525877741E+02  0.88721122532E+01 -0.89581344807E+01  0.32105139867E+02  0.51100000000E-03 0. -1.
        -11    1    3    3    0    0 -0.11184412150E+02  0.17499083080E+01 -0.41741839526E+01  0.12065532154E+02  0.51100000000E-03 0.  1.
         12    1    3    3    0    0 -0.20570182157E+00  0.10641396167E+01 -0.16470205356E+01  0.19716447469E+01  0.00000000000E+00 0. -1.
</event>
<event>
 7    1  0.1485408E-008  0.4614231E+02  0.7816164E-02  0.1320468E+00
        -11   -1    0    0    0    0  0.00000000000E+00  0.00000000000E+00  0.45593999997E+02  0.45594000000E+02  0.51100000000E-03 0.  1.
         11   -1    0    0    0    0 -0.00000000000E+00 -0.00000000000E+00 -0.45593999997E+02  0.45594000000E+02  0.51100000000E-03 0. -1.
    9900012    2    1    2    0    0 -0.89530182546E+01 -0.23650873795E+02  0.37277255307E+02  0.46142310635E+02  0.99999350184E+01 0.  0.
         12    1    1    2    0    0  0.89530182546E+01  0.23650873795E+02 -0.37277255307E+02  0.45045689365E+02  0.00000000000E+00 0. -1.
         11    1    3    3    0    0 -0.30086081265E+01 -0.10469421227E+02  0.87855862077E+01  0.13994535682E+02  0.51100000000E-03 0. -1.
        -11    1    3    3    0    0 -0.52597804348E+01 -0.85133614855E+01  0.21478132847E+02  0.23694995354E+02  0.51100000000E-03 0.  1.
        -12    1    3    3    0    0 -0.68462969337E+00 -0.46680910822E+01  0.70135362532E+01  0.84527795987E+01  0.00000000000E+00 0.  1.
</event>
<event>
 7    1  0.1485408E-008  0.4614232E+02  0.7816164E-02  0.1320468E+00
        -11   -1    0    0    0    0  0.00000000000E+00  0.00000000000E+00  0.45593999997E+02  0.45594000000E+02  0.51100000000E-03 0.  1.
         11   -1    0    0    0    0 -0.00000000000E+00 -0.00000000000E+00 -0.45593999997E+02  0.45594000000E+02  0.51100000000E-03 0. -1.
    9900012    2    1    2    0    0 -0.23762101848E+02 -0.16065616274E+02  0.34732868894E+02  0.46142315500E+02  0.99999793785E+01 0.  0.
         12    1    1    2    0    0  0.23762101848E+02  0.16065616274E+02 -0.34732868894E+02  0.45045684500E+02  0.00000000000E+00 0. -1.
         11    1    3    3    0    0 -0.90609239354E+01 -0.94746495722E+01  0.95644855610E+01  0.16228022412E+02  0.51100000000E-03 0. -1.
        -11    1    3    3    0    0 -0.12049393776E+02 -0.51933256598E+01  0.21354904382E+02  0.25063728039E+02  0.51100000000E-03 0.  1.
         12    1    3    3    0    0 -0.26517841364E+01 -0.13976410423E+01  0.38134789508E+01  0.48505650493E+01  0.00000000000E+00 0. -1.
</event>
<event>
 7    1  0.1485408E-008  0.4614232E+02  0.7816164E-02  0.1320468E+00
        -11   -1    0    0    0    0  0.00000000000E+00  0.00000000000E+00  0.45593999997E+02  0.45594000000E+02  0.51100000000E-03 0.  1.
         11   -1    0    0    0    0 -0.00000000000E+00 -0.00000000000E+00 -0.45593999997E+02  0.45594000000E+02  0.51100000000E-03 0. -1.
    9900012    2    1    2    0    0  0.16517382318E+02 -0.41833957839E+02  0.24919037389E+01  0.46142317283E+02  0.99999956445E+01 0.  0.
         12    1    1    2    0    0 -0.16517382318E+02  0.41833957839E+02 -0.24919037389E+01  0.45045682717E+02  0.00000000000E+00 0. -1.
         11    1    3    3    0    0  0.53267209299E+00 -0.98284867245E+01  0.13610783944E+01  0.99365701079E+01  0.51100000000E-03 0. -1.
        -11    1    3    3    0    0  0.87798515037E+01 -0.23012299205E+02  0.15061315445E+01  0.24676307253E+02  0.51100000000E-03 0.  1.
         12    1    3    3    0    0  0.72048587213E+01 -0.89931719098E+01 -0.37530619993E+00  0.11529439923E+02  0.00000000000E+00 0. -1.
</event>
<event>
 7    1  0.1485408E-008  0.4614232E+02  0.7816164E-02  0.1320468E+00
        -11   -1    0    0    0    0  0.00000000000E+00  0.00000000000E+00  0.45593999997E+02  0.45594000000E+02  0.51100000000E-03 0.  1.
         11   -1    0    0    0    0 -0.00000000000E+00 -0.00000000000E+00 -0.45593999997E+02  0.45594000000E+02  0.51100000000E-03 0. -1.
    9900012    2    1    2    0    0 -0.72934541534E+01  0.28451315938E+02  0.34153209907E+02  0.46142316533E+02  0.99999888019E+01 0.  0.
         12    1    1    2    0    0  0.72934541534E+01 -0.28451315938E+02 -0.34153209907E+02  0.45045683467E+02  0.00000000000E+00 0. -1.
         11    1    3    3    0    0 -0.15006108967E+01  0.11156824905E+01  0.32294228286E+01  0.37317224642E+01  0.51100000000E-03 0. -1.
        -11    1    3    3    0    0 -0.34595123755E+01  0.21834163450E+02  0.28229885108E+02  0.35855617871E+02  0.51100000000E-03 0.  1.
        -12    1    3    3    0    0 -0.23333308813E+01  0.55014699973E+01  0.26939019702E+01  0.65549761981E+01  0.00000000000E+00 0.  1.
</event>
<event>
 7    1  0.1485408E-008  0.4614232E+02  0.7816164E-02  0.1320468E+00
        -11   -1    0    0    0    0  0.00000000000E+00  0.00000000000E+00  0.45593999997E+02  0.45594000000E+02  0.51100000000E-03 0.  1.
         11   -1    0    0    0    0 -0.00000000000E+00 -0.00000000000E+00 -0.45593999997E+02  0.45594000000E+02  0.51100000000E-03 0. -1.
    9900012    2    1    2    0    0  0.41454996432E+02  0.35943137919E+01  0.17253340508E+02  0.46142316750E+02  0.99999907795E+01 0.  0.
         12    1    1    2    0    0 -0.41454996432E+02 -0.35943137919E+01 -0.17253340508E+02  0.45045683250E+02  0.00000000000E+00 0. -1.
         11    1    3    3    0    0  0.10749509346E+02  0.43516374148E+01  0.32847808954E+01  0.12053152499E+02  0.51100000000E-03 0. -1.
        -11    1    3    3    0    0  0.22697801097E+02  0.14663252740E+01  0.94564945149E+01  0.24632611985E+02  0.51100000000E-03 0.  1.
         12    1    3    3    0    0  0.80076859882E+01 -0.22236488969E+01  0.45120650978E+01  0.94565522654E+01  0.00000000000E+00 0. -1.
</event>
<event>
 7    1  0.1485408E-008  0.4614231E+02  0.7816164E-02  0.1320468E+00
        -11   -1    0    0    0    0  0.00000000000E+00  0.00000000000E+00  0.45593999997E+02  0.45594000000E+02  0.51100000000E-03 0.  1.
         11   -1    0    0    0    0 -0.00000000000E+00 -0.00000000000E+00 -0.45593999997E+02  0.45594000000E+02  0.51100000000E-03 0. -1.
    9900012    2    1    2    0    0 -0.14802397738E+01  0.35483708356E+02  0.27709740776E+02  0.46142307616E+02  0.99999074879E+01 0.  0.
         12    1    1    2    0    0  0.14802397738E+01 -0.35483708356E+02 -0.27709740776E+02  0.45045692384E+02  0.00000000000E+00 0. -1.
         11    1    3    3    0    0  0.22299148786E+01  0.12612742499E+02  0.13288780712E+02  0.18456583833E+02  0.51100000000E-03 0. -1.
        -11    1    3    3    0    0  0.42013297592E+00  0.99971519555E+01  0.48406666583E+01  0.11115377317E+02  0.51100000000E-03 0.  1.
         12    1    3    3    0    0 -0.41302876283E+01  0.12873813902E+02  0.95802934050E+01  0.16570346466E+02  0.00000000000E+00 0. -1.
</event>
<event>
 7    1  0.1485408E-008  0.4614232E+02  0.7816164E-02  0.1320468E+00
        -11   -1    0    0    0    0  0.00000000000E+00  0.00000000000E+00  0.45593999997E+02  0.45594000000E+02  0.51100000000E-03 0. -1.
         11   -1    0    0    0    0 -0.00000000000E+00 -0.00000000000E+00 -0.45593999997E+02  0.45594000000E+02  0.51100000000E-03 0.  1.
    9900012    2    1    2    0    0  0.32570049211E+02 -0.27625953446E+02  0.14321736657E+02  0.46142317074E+02  0.99999937299E+01 0.  0.
         12    1    1    2    0    0 -0.32570049211E+02  0.27625953446E+02 -0.14321736657E+02  0.45045682926E+02  0.00000000000E+00 0. -1.
         11    1    3    3    0    0  0.26292164547E+02 -0.20861907234E+02  0.15115716176E+02  0.36810079676E+02  0.51100000000E-03 0.  1.
        -11    1    3    3    0    0  0.59061844198E+01 -0.58561072075E+01 -0.71967690882E+00  0.83483496058E+01  0.51100000000E-03 0. -1.
        -12    1    3    3    0    0  0.37170024486E+00 -0.90793900521E+00 -0.74302610046E-01  0.98388779191E+00  0.00000000000E+00 0.  1.
</event>
<event>
 7    1  0.1485408E-008  0.4614232E+02  0.7816164E-02  0.1320468E+00
        -11   -1    0    0    0    0  0.00000000000E+00  0.00000000000E+00  0.45593999997E+02  0.45594000000E+02  0.51100000000E-03 0.  1.
         11   -1    0    0    0    0 -0.00000000000E+00 -0.00000000000E+00 -0.45593999997E+02  0.45594000000E+02  0.51100000000E-03 0. -1.
    9900012    2    1    2    0    0 -0.34987751097E+02 -0.19363757613E+02  0.20736817637E+02  0.46142318282E+02  0.10000004749E+02 0.  0.
         12    1    1    2    0    0  0.34987751097E+02  0.19363757613E+02 -0.20736817637E+02  0.45045681718E+02  0.00000000000E+00 0. -1.
         11    1    3    3    0    0 -0.11899614656E+02 -0.59502394301E+01  0.33545335851E+01  0.13720753408E+02  0.51100000000E-03 0. -1.
        -11    1    3    3    0    0 -0.15215826192E+02 -0.11953805097E+02  0.12725364904E+02  0.23159225704E+02  0.51100000000E-03 0.  1.
        -12    1    3    3    0    0 -0.78723102496E+01 -0.14597130856E+01  0.46569191475E+01  0.92623391703E+01  0.00000000000E+00 0.  1.
</event>
<event>
 7    1  0.1485408E-008  0.4614232E+02  0.7816164E-02  0.1320468E+00
        -11   -1    0    0    0    0  0.00000000000E+00  0.00000000000E+00  0.45593999997E+02  0.45594000000E+02  0.51100000000E-03 0.  1.
         11   -1    0    0    0    0 -0.00000000000E+00 -0.00000000000E+00 -0.45593999997E+02  0.45594000000E+02  0.51100000000E-03 0. -1.
    9900012    2    1    2    0    0  0.20226986551E+02  0.39228721092E+02  0.90049904690E+01  0.46142318778E+02  0.10000009268E+02 0.  0.
         12    1    1    2    0    0 -0.20226986551E+02 -0.39228721092E+02 -0.90049904690E+01  0.45045681222E+02  0.00000000000E+00 0. -1.
         11    1    3    3    0    0  0.43492765766E+00  0.15093671672E+00  0.10828921135E+01  0.11766900826E+01  0.51100000000E-03 0. -1.
        -11    1    3    3    0    0  0.18016186941E+02  0.30067158976E+02  0.56413039659E+01  0.35502694989E+02  0.51100000000E-03 0.  1.
        -12    1    3    3    0    0  0.17758719527E+01  0.90106253995E+01  0.22807943897E+01  0.94629337063E+01  0.00000000000E+00 0.  1.
</event>
<event>
 7    1  0.1485408E-008  0.4614232E+02  0.7816164E-02  0.1320468E+00
        -11   -1    0    0    0    0  0.00000000000E+00  0.00000000000E+00  0.45593999997E+02  0.45594000000E+02  0.51100000000E-03 0.  1.
         11   -1    0    0    0    0 -0.00000000000E+00 -0.00000000000E+00 -0.45593999997E+02  0.45594000000E+02  0.51100000000E-03 0. -1.
    9900012    2    1    2    0    0 -0.42580182224E+01  0.68975549751E+01  0.44310342140E+02  0.46142318693E+02  0.10000008501E+02 0.  0.
         12    1    1    2    0    0  0.42580182224E+01 -0.68975549751E+01 -0.44310342140E+02  0.45045681307E+02  0.00000000000E+00 0. -1.
         11    1    3    3    0    0 -0.55063955144E+00  0.22673499637E+00  0.21607409635E+02  0.21615613895E+02  0.51100000000E-03 0. -1.
        -11    1    3    3    0    0  0.27877128029E+00  0.48760279241E+01  0.11071409400E+02  0.12100804441E+02  0.51100000000E-03 0.  1.
        -12    1    3    3    0    0 -0.39861499512E+01  0.17947920546E+01  0.11631523105E+02  0.12425900357E+02  0.00000000000E+00 0.  1.
</event>
<event>
 7    1  0.1485408E-008  0.4614232E+02  0.7816164E-02  0.1320468E+00
        -11   -1    0    0    0    0  0.00000000000E+00  0.00000000000E+00  0.45593999997E+02  0.45594000000E+02  0.51100000000E-03 0.  1.
         11   -1    0    0    0    0 -0.00000000000E+00 -0.00000000000E+00 -0.45593999997E+02  0.45594000000E+02  0.51100000000E-03 0. -1.
    9900012    2    1    2    0    0 -0.38941146365E+02 -0.11964763482E+02 -0.19223554438E+02  0.46142317736E+02  0.99999997748E+01 0.  0.
         12    1    1    2    0    0  0.38941146365E+02  0.11964763482E+02  0.19223554438E+02  0.45045682264E+02  0.00000000000E+00 0. -1.
         11    1    3    3    0    0 -0.16305821289E+02 -0.90859919549E+01 -0.11237661598E+02  0.21788072337E+02  0.51100000000E-03 0. -1.
        -11    1    3    3    0    0 -0.18088464338E+02 -0.13805214779E+01 -0.54799050995E+01  0.18950666000E+02  0.51100000000E-03 0.  1.
        -12    1    3    3    0    0 -0.45468607377E+01 -0.14982500489E+01 -0.25059877403E+01  0.54035793999E+01  0.00000000000E+00 0.  1.
</event>
<event>
 7    1  0.1485408E-008  0.4614232E+02  0.7816164E-02  0.1320468E+00
        -11   -1    0    0    0    0  0.00000000000E+00  0.00000000000E+00  0.45593999997E+02  0.45594000000E+02  0.51100000000E-03 0.  1.
         11   -1    0    0    0    0 -0.00000000000E+00 -0.00000000000E+00 -0.45593999997E+02  0.45594000000E+02  0.51100000000E-03 0. -1.
    9900012    2    1    2    0    0  0.17968023554E+01 -0.22934520332E+02  0.38728445094E+02  0.46142321173E+02  0.10000031112E+02 0.  0.
         12    1    1    2    0    0 -0.17968023554E+01  0.22934520332E+02 -0.38728445094E+02  0.45045678827E+02  0.00000000000E+00 0. -1.
         11    1    3    3    0    0  0.15923700308E+01 -0.23250663812E-01  0.16305399522E+01  0.22792199773E+01  0.51100000000E-03 0. -1.
        -11    1    3    3    0    0  0.23372508968E+01 -0.10813350812E+02  0.16071519439E+02  0.19511151552E+02  0.51100000000E-03 0.  1.
         12    1    3    3    0    0 -0.21328185721E+01 -0.12097918856E+02  0.21026385704E+02  0.24351949644E+02  0.00000000000E+00 0. -1.
</event>
<event>
 7    1  0.1485408E-008  0.4614232E+02  0.7816164E-02  0.1320468E+00
        -11   -1    0    0    0    0  0.00000000000E+00  0.00000000000E+00  0.45593999997E+02  0.45594000000E+02  0.51100000000E-03 0.  1.
         11   -1    0    0    0    0 -0.00000000000E+00 -0.00000000000E+00 -0.45593999997E+02  0.45594000000E+02  0.51100000000E-03 0. -1.
    9900012    2    1    2    0    0 -0.21292965299E+02 -0.37798392982E+01  0.39515011647E+02  0.46142315392E+02  0.99999784005E+01 0.  0.
         12    1    1    2    0    0  0.21292965299E+02  0.37798392982E+01 -0.39515011647E+02  0.45045684608E+02  0.00000000000E+00 0. -1.
         11    1    3    3    0    0 -0.68558030108E+00  0.16133542287E+00  0.71480731518E+01  0.71826874853E+01  0.51100000000E-03 0. -1.
        -11    1    3    3    0    0 -0.19467698984E+02 -0.46718622114E+01  0.28242825167E+02  0.34618994410E+02  0.51100000000E-03 0.  1.
        -12    1    3    3    0    0 -0.11396860134E+01  0.73068749027E+00  0.41241133281E+01  0.43406334976E+01  0.00000000000E+00 0.  1.
</event>
<event>
 7    1  0.1485408E-008  0.4614232E+02  0.7816164E-02  0.1320468E+00
        -11   -1    0    0    0    0  0.00000000000E+00  0.00000000000E+00  0.45593999997E+02  0.45594000000E+02  0.51100000000E-03 0.  1.
         11   -1    0    0    0    0 -0.00000000000E+00 -0.00000000000E+00 -0.45593999997E+02  0.45594000000E+02  0.51100000000E-03 0. -1.
    9900012    2    1    2    0    0  0.74399294167E+01  0.90271498694E+01  0.43500246672E+02  0.46142318242E+02  0.10000004387E+02 0.  0.
         12    1    1    2    0    0 -0.74399294167E+01 -0.90271498694E+01 -0.43500246672E+02  0.45045681758E+02  0.00000000000E+00 0. -1.
         11    1    3    3    0    0 -0.65991783934E+00  0.84812150831E+00  0.14788094587E+01  0.18280260730E+01  0.51100000000E-03 0. -1.
        -11    1    3    3    0    0 -0.10211198407E+01  0.29109531176E+01  0.14970529795E+02  0.15285061216E+02  0.51100000000E-03 0.  1.
        -12    1    3    3    0    0  0.91209670968E+01  0.52680752435E+01  0.27050907419E+02  0.29029230953E+02  0.00000000000E+00 0.  1.
</event>
<event>
 7    1  0.1485408E-008  0.4614232E+02  0.7816164E-02  0.1320468E+00
        -11   -1    0    0    0    0  0.00000000000E+00  0.00000000000E+00  0.45593999997E+02  0.45594000000E+02  0.51100000000E-03 0.  1.
         11   -1    0    0    0    0 -0.00000000000E+00 -0.00000000000E+00 -0.45593999997E+02  0.45594000000E+02  0.51100000000E-03 0. -1.
    9900012    2    1    2    0    0  0.11480718488E+02 -0.26832157668E+02  0.34312417871E+02  0.46142316497E+02  0.99999884704E+01 0.  0.
         12    1    1    2    0    0 -0.11480718488E+02  0.26832157668E+02 -0.34312417871E+02  0.45045683503E+02  0.00000000000E+00 0. -1.
         11    1    3    3    0    0  0.93530258449E+00 -0.76965637517E+01  0.13430095025E+02  0.15507396208E+02  0.51100000000E-03 0. -1.
        -11    1    3    3    0    0  0.75828116911E+01 -0.16362335892E+02  0.18882653069E+02  0.26110910673E+02  0.51100000000E-03 0.  1.
         12    1    3    3    0    0  0.29626042123E+01 -0.27732580235E+01  0.19996697773E+01  0.45240096156E+01  0.00000000000E+00 0. -1.
</event>
<event>
 7    1  0.1485408E-008  0.4614231E+02  0.7816164E-02  0.1320468E+00
        -11   -1    0    0    0    0  0.00000000000E+00  0.00000000000E+00  0.45593999997E+02  0.45594000000E+02  0.51100000000E-03 0. -1.
         11   -1    0    0    0    0 -0.00000000000E+00 -0.00000000000E+00 -0.45593999997E+02  0.45594000000E+02  0.51100000000E-03 0.  1.
    9900012    2    1    2    0    0  0.33680625774E+02 -0.26598233681E+02  0.13684431628E+02  0.46142309235E+02  0.99999222548E+01 0.  0.
         12    1    1    2    0    0 -0.33680625774E+02  0.26598233681E+02 -0.13684431628E+02  0.45045690765E+02  0.00000000000E+00 0. -1.
         11    1    3    3    0    0  0.35181710670E+01 -0.55724389396E+01  0.22130357947E+01  0.69517717944E+01  0.51100000000E-03 0. -1.
        -11    1    3    3    0    0  0.21058107520E+02 -0.11745138119E+02  0.10012126291E+02  0.26108137331E+02  0.51100000000E-03 0.  1.
         12    1    3    3    0    0  0.91043471870E+01 -0.92806566218E+01  0.14592695429E+01  0.13082400110E+02  0.00000000000E+00 0. -1.
</event>
<event>
 7    1  0.1485408E-008  0.4614232E+02  0.7816164E-02  0.1320468E+00
        -11   -1    0    0    0    0  0.00000000000E+00  0.00000000000E+00  0.45593999997E+02  0.45594000000E+02  0.51100000000E-03 0. -1.
         11   -1    0    0    0    0 -0.00000000000E+00 -0.00000000000E+00 -0.45593999997E+02  0.45594000000E+02  0.51100000000E-03 0.  1.
    9900012    2    1    2    0    0 -0.31714806473E+02 -0.17727466997E+02 -0.26627457783E+02  0.46142317146E+02  0.99999943951E+01 0.  0.
         12    1    1    2    0    0  0.31714806473E+02  0.17727466997E+02  0.26627457783E+02  0.45045682854E+02  0.00000000000E+00 0. -1.
         11    1    3    3    0    0 -0.71785121060E+01 -0.58611623108E+01 -0.26869497957E+01  0.96490392866E+01  0.51100000000E-03 0.  1.
        -11    1    3    3    0    0 -0.50939417135E+01 -0.20594580741E+01 -0.70304911477E+01  0.89228591706E+01  0.51100000000E-03 0. -1.
        -12    1    3    3    0    0 -0.19442352654E+02 -0.98068466117E+01 -0.16910016840E+02  0.27570418689E+02  0.00000000000E+00 0.  1.
</event>
<event>
 7    1  0.1485408E-008  0.4614232E+02  0.7816164E-02  0.1320468E+00
        -11   -1    0    0    0    0  0.00000000000E+00  0.00000000000E+00  0.45593999997E+02  0.45594000000E+02  0.51100000000E-03 0.  1.
         11   -1    0    0    0    0 -0.00000000000E+00 -0.00000000000E+00 -0.45593999997E+02  0.45594000000E+02  0.51100000000E-03 0. -1.
    9900012    2    1    2    0    0 -0.31857321341E+02  0.17365687016E+02  0.26695645188E+02  0.46142317848E+02  0.10000000789E+02 0.  0.
         12    1    1    2    0    0  0.31857321341E+02 -0.17365687016E+02 -0.26695645188E+02  0.45045682152E+02  0.00000000000E+00 0. -1.
         11    1    3    3    0    0 -0.73482645400E+01 -0.18261497778E+00  0.41896898790E+01  0.84607234633E+01  0.51100000000E-03 0. -1.
        -11    1    3    3    0    0 -0.17434629809E+02  0.13667673945E+02  0.16484896999E+02  0.27613827279E+02  0.51100000000E-03 0.  1.
         12    1    3    3    0    0 -0.70744269915E+01  0.38806280486E+01  0.60210583110E+01  0.10067767106E+02  0.00000000000E+00 0. -1.
</event>
<event>
 7    1  0.1485408E-008  0.4614232E+02  0.7816164E-02  0.1320468E+00
        -11   -1    0    0    0    0  0.00000000000E+00  0.00000000000E+00  0.45593999997E+02  0.45594000000E+02  0.51100000000E-03 0.  1.
         11   -1    0    0    0    0 -0.00000000000E+00 -0.00000000000E+00 -0.45593999997E+02  0.45594000000E+02  0.51100000000E-03 0. -1.
    9900012    2    1    2    0    0  0.29937444217E+02 -0.29990254585E+02  0.15278990375E+02  0.46142317819E+02  0.10000000526E+02 0.  0.
         12    1    1    2    0    0 -0.29937444217E+02  0.29990254585E+02 -0.15278990375E+02  0.45045682181E+02  0.00000000000E+00 0. -1.
         11    1    3    3    0    0  0.72830582030E+01 -0.43826694352E+01  0.43284837979E+01  0.95386844175E+01  0.51100000000E-03 0. -1.
        -11    1    3    3    0    0  0.22801550006E+02 -0.24827705500E+02  0.11523606680E+02  0.35624698655E+02  0.51100000000E-03 0.  1.
        -12    1    3    3    0    0 -0.14716399275E+00 -0.77987965003E+00 -0.57310010327E+00  0.97893474637E+00  0.00000000000E+00 0.  1.
</event>
<event>
 7    1  0.1485408E-008  0.4614232E+02  0.7816164E-02  0.1320468E+00
        -11   -1    0    0    0    0  0.00000000000E+00  0.00000000000E+00  0.45593999997E+02  0.45594000000E+02  0.51100000000E-03 0.  1.
         11   -1    0    0    0    0 -0.00000000000E+00 -0.00000000000E+00 -0.45593999997E+02  0.45594000000E+02  0.51100000000E-03 0. -1.
    9900012    2    1    2    0    0  0.18099638946E+02  0.22620277449E+02  0.34494051452E+02  0.46142317994E+02  0.10000002120E+02 0.  0.
         12    1    1    2    0    0 -0.18099638946E+02 -0.22620277449E+02 -0.34494051452E+02  0.45045682006E+02  0.00000000000E+00 0. -1.
         11    1    3    3    0    0  0.27358531045E+01  0.38797438495E+01  0.19753281566E+01  0.51419088027E+01  0.51100000000E-03 0. -1.
        -11    1    3    3    0    0  0.69049111151E+01  0.98010037304E+01  0.11323853756E+02  0.16491426129E+02  0.51100000000E-03 0.  1.
        -12    1    3    3    0    0  0.84588747261E+01  0.89395298687E+01  0.21194869540E+02  0.24508983062E+02  0.00000000000E+00 0.  1.
</event>
<event>
 7    1  0.1485408E-008  0.4614232E+02  0.7816164E-02  0.1320468E+00
        -11   -1    0    0    0    0  0.00000000000E+00  0.00000000000E+00  0.45593999997E+02  0.45594000000E+02  0.51100000000E-03 0. -1.
         11   -1    0    0    0    0 -0.00000000000E+00 -0.00000000000E+00 -0.45593999997E+02  0.45594000000E+02  0.51100000000E-03 0.  1.
    9900012    2    1    2    0    0 -0.24206832223E+02  0.25092211241E+02 -0.28522337928E+02  0.46142317053E+02  0.99999935463E+01 0.  0.
         12    1    1    2    0    0  0.24206832223E+02 -0.25092211241E+02  0.28522337928E+02  0.45045682947E+02  0.00000000000E+00 0. -1.
         11    1    3    3    0    0 -0.13001330681E+02  0.13721814107E+02 -0.12630800544E+02  0.22734553097E+02  0.51100000000E-03 0. -1.
        -11    1    3    3    0    0 -0.17322914858E+01 -0.46520823200E+00 -0.64245104829E+00  0.19052548652E+01  0.51100000000E-03 0.  1.
         12    1    3    3    0    0 -0.94732100560E+01  0.11835605366E+02 -0.15249086336E+02  0.21502509091E+02  0.00000000000E+00 0. -1.
</event>
<event>
 7    1  0.1485408E-008  0.4614232E+02  0.7816164E-02  0.1320468E+00
        -11   -1    0    0    0    0  0.00000000000E+00  0.00000000000E+00  0.45593999997E+02  0.45594000000E+02  0.51100000000E-03 0.  1.
         11   -1    0    0    0    0 -0.00000000000E+00 -0.00000000000E+00 -0.45593999997E+02  0.45594000000E+02  0.51100000000E-03 0. -1.
    9900012    2    1    2    0    0 -0.38063460804E+02  0.23222372644E+02  0.64037371123E+01  0.46142317758E+02  0.99999999726E+01 0.  0.
         12    1    1    2    0    0  0.38063460804E+02 -0.23222372644E+02 -0.64037371123E+01  0.45045682242E+02  0.00000000000E+00 0. -1.
         11    1    3    3    0    0 -0.26681799475E+02  0.18320738855E+02  0.30707188617E+01  0.32511493506E+02  0.51100000000E-03 0. -1.
        -11    1    3    3    0    0 -0.93132600102E+01  0.20296930675E+01  0.15135745227E+01  0.96512887255E+01  0.51100000000E-03 0.  1.
         12    1    3    3    0    0 -0.20684013189E+01  0.28719407217E+01  0.18194437279E+01  0.39795355262E+01  0.00000000000E+00 0. -1.
</event>
<event>
 7    1  0.1485408E-008  0.4614232E+02  0.7816164E-02  0.1320468E+00
        -11   -1    0    0    0    0  0.00000000000E+00  0.00000000000E+00  0.45593999997E+02  0.45594000000E+02  0.51100000000E-03 0. -1.
         11   -1    0    0    0    0 -0.00000000000E+00 -0.00000000000E+00 -0.45593999997E+02  0.45594000000E+02  0.51100000000E-03 0.  1.
    9900012    2    1    2    0    0  0.47168120305E+01  0.22035125008E+02 -0.39004083423E+02  0.46142316816E+02  0.99999913801E+01 0.  0.
         12    1    1    2    0    0 -0.47168120305E+01 -0.22035125008E+02  0.39004083423E+02  0.45045683184E+02  0.00000000000E+00 0. -1.
         11    1    3    3    0    0  0.10796642053E+01  0.29133724668E+01 -0.12299555588E+02  0.12685916673E+02  0.51100000000E-03 0. -1.
        -11    1    3    3    0    0  0.34546524194E+01  0.15331260111E+02 -0.24379524013E+02  0.29005919246E+02  0.51100000000E-03 0.  1.
        -12    1    3    3    0    0  0.18249540582E+00  0.37904924305E+01 -0.23250038222E+01  0.44504808967E+01  0.00000000000E+00 0.  1.
</event>
<event>
 7    1  0.1485408E-008  0.4614232E+02  0.7816164E-02  0.1320468E+00
        -11   -1    0    0    0    0  0.00000000000E+00  0.00000000000E+00  0.45593999997E+02  0.45594000000E+02  0.51100000000E-03 0.  1.
         11   -1    0    0    0    0 -0.00000000000E+00 -0.00000000000E+00 -0.45593999997E+02  0.45594000000E+02  0.51100000000E-03 0. -1.
    9900012    2    1    2    0    0  0.60461508652E+01 -0.44624657043E+02  0.10943607993E+01  0.46142316721E+02  0.99999905191E+01 0.  0.
         12    1    1    2    0    0 -0.60461508652E+01  0.44624657043E+02 -0.10943607993E+01  0.45045683279E+02  0.00000000000E+00 0. -1.
         11    1    3    3    0    0  0.13424234019E+01 -0.77617327209E+01 -0.12940324715E+01  0.79825507026E+01  0.51100000000E-03 0.  1.
        -11    1    3    3    0    0  0.23000217798E+01 -0.20575493067E+02 -0.28128874581E+01  0.20893859176E+02  0.51100000000E-03 0. -1.
        -12    1    3    3    0    0  0.24037056835E+01 -0.16287431255E+02  0.52012807289E+01  0.17265906843E+02  0.00000000000E+00 0.  1.
</event>
<event>
 7    1  0.1485408E-008  0.4614232E+02  0.7816164E-02  0.1320468E+00
        -11   -1    0    0    0    0  0.00000000000E+00  0.00000000000E+00  0.45593999997E+02  0.45594000000E+02  0.51100000000E-03 0. -1.
         11   -1    0    0    0    0 -0.00000000000E+00 -0.00000000000E+00 -0.45593999997E+02  0.45594000000E+02  0.51100000000E-03 0.  1.
    9900012    2    1    2    0    0 -0.31503011430E+02  0.20496674625E+02 -0.24830627736E+02  0.46142317925E+02  0.10000001496E+02 0.  0.
         12    1    1    2    0    0  0.31503011430E+02 -0.20496674625E+02  0.24830627736E+02  0.45045682075E+02  0.00000000000E+00 0. -1.
         11    1    3    3    0    0 -0.13020559567E+02  0.11701498966E+02 -0.75018610274E+01  0.19045681102E+02  0.51100000000E-03 0.  1.
        -11    1    3    3    0    0 -0.10376509701E+02  0.44497442899E+01 -0.11959069681E+02  0.16446626576E+02  0.51100000000E-03 0. -1.
         12    1    3    3    0    0 -0.81059421616E+01  0.43454313699E+01 -0.53696970269E+01  0.10650010248E+02  0.00000000000E+00 0. -1.
</event>
<event>
 7    1  0.1485408E-008  0.4614232E+02  0.7816164E-02  0.1320468E+00
        -11   -1    0    0    0    0  0.00000000000E+00  0.00000000000E+00  0.45593999997E+02  0.45594000000E+02  0.51100000000E-03 0.  1.
         11   -1    0    0    0    0 -0.00000000000E+00 -0.00000000000E+00 -0.45593999997E+02  0.45594000000E+02  0.51100000000E-03 0. -1.
    9900012    2    1    2    0    0 -0.24783291103E+02 -0.21983393548E+02  0.30522652329E+02  0.46142318576E+02  0.10000007428E+02 0.  0.
         12    1    1    2    0    0  0.24783291103E+02  0.21983393548E+02 -0.30522652329E+02  0.45045681424E+02  0.00000000000E+00 0. -1.
         11    1    3    3    0    0 -0.64527637384E+01 -0.69264152101E+01  0.50523303861E+01  0.10730304288E+02  0.51100000000E-03 0. -1.
        -11    1    3    3    0    0 -0.12253426163E+02 -0.59225475691E+01  0.13366320067E+02  0.19075679145E+02  0.51100000000E-03 0.  1.
        -12    1    3    3    0    0 -0.60771012016E+01 -0.91344307685E+01  0.12104001876E+02  0.16336335142E+02  0.00000000000E+00 0.  1.
</event>
<event>
 7    1  0.1485408E-008  0.4614232E+02  0.7816164E-02  0.1320468E+00
        -11   -1    0    0    0    0  0.00000000000E+00  0.00000000000E+00  0.45593999997E+02  0.45594000000E+02  0.51100000000E-03 0.  1.
         11   -1    0    0    0    0 -0.00000000000E+00 -0.00000000000E+00 -0.45593999997E+02  0.45594000000E+02  0.51100000000E-03 0. -1.
    9900012    2    1    2    0    0  0.90047943734E+01 -0.21529408517E+02  0.38529362329E+02  0.46142317474E+02  0.99999973803E+01 0.  0.
         12    1    1    2    0    0 -0.90047943734E+01  0.21529408517E+02 -0.38529362329E+02  0.45045682526E+02  0.00000000000E+00 0. -1.
         11    1    3    3    0    0  0.18769982473E+01 -0.23674609063E+01  0.22548452688E+01  0.37699232102E+01  0.51100000000E-03 0. -1.
        -11    1    3    3    0    0  0.16126354756E+01 -0.59000654563E+01  0.47981887821E+01  0.77739295993E+01  0.51100000000E-03 0.  1.
        -12    1    3    3    0    0  0.55151606505E+01 -0.13261882154E+02  0.31476328278E+02  0.34598464664E+02  0.00000000000E+00 0.  1.
</event>
<event>
 7    1  0.1485408E-008  0.4614232E+02  0.7816164E-02  0.1320468E+00
        -11   -1    0    0    0    0  0.00000000000E+00  0.00000000000E+00  0.45593999997E+02  0.45594000000E+02  0.51100000000E-03 0.  1.
         11   -1    0    0    0    0 -0.00000000000E+00 -0.00000000000E+00 -0.45593999997E+02  0.45594000000E+02  0.51100000000E-03 0. -1.
    9900012    2    1    2    0    0  0.41646967136E+02  0.95786414183E+01  0.14244059357E+02  0.46142317965E+02  0.10000001859E+02 0.  0.
         12    1    1    2    0    0 -0.41646967136E+02 -0.95786414183E+01 -0.14244059357E+02  0.45045682035E+02  0.00000000000E+00 0. -1.
         11    1    3    3    0    0  0.16107252848E+02  0.25538431306E+01  0.80093071650E+01  0.18169059155E+02  0.51100000000E-03 0.  1.
        -11    1    3    3    0    0  0.10122995434E+02  0.54389411212E+01  0.68687769397E+00  0.11512120495E+02  0.51100000000E-03 0. -1.
        -12    1    3    3    0    0  0.15416718854E+02  0.15858571666E+01  0.55478744985E+01  0.16461138315E+02  0.00000000000E+00 0.  1.
</event>
<event>
 7    1  0.1485408E-008  0.4614232E+02  0.7816164E-02  0.1320468E+00
        -11   -1    0    0    0    0  0.00000000000E+00  0.00000000000E+00  0.45593999997E+02  0.45594000000E+02  0.51100000000E-03 0.  1.
         11   -1    0    0    0    0 -0.00000000000E+00 -0.00000000000E+00 -0.45593999997E+02  0.45594000000E+02  0.51100000000E-03 0. -1.
    9900012    2    1    2    0    0  0.38163535156E+02  0.19564194100E+02  0.13780424251E+02  0.46142320974E+02  0.10000029298E+02 0.  0.
         12    1    1    2    0    0 -0.38163535156E+02 -0.19564194100E+02 -0.13780424251E+02  0.45045679026E+02  0.00000000000E+00 0. -1.
         11    1    3    3    0    0  0.15950614924E+02  0.11669477033E+02  0.41314649553E+01  0.20190785364E+02  0.51100000000E-03 0. -1.
        -11    1    3    3    0    0  0.13122220518E+02  0.29789678972E+01  0.34166364122E+01  0.13883094960E+02  0.51100000000E-03 0.  1.
         12    1    3    3    0    0  0.90906997141E+01  0.49157491703E+01  0.62323228832E+01  0.12068440650E+02  0.00000000000E+00 0. -1.
</event>
<event>
 7    1  0.1485408E-008  0.4614232E+02  0.7816164E-02  0.1320468E+00
        -11   -1    0    0    0    0  0.00000000000E+00  0.00000000000E+00  0.45593999997E+02  0.45594000000E+02  0.51100000000E-03 0.  1.
         11   -1    0    0    0    0 -0.00000000000E+00 -0.00000000000E+00 -0.45593999997E+02  0.45594000000E+02  0.51100000000E-03 0. -1.
    9900012    2    1    2    0    0 -0.17705920758E+02  0.12147251243E+01  0.41402149212E+02  0.46142321557E+02  0.10000034614E+02 0.  0.
         12    1    1    2    0    0  0.17705920758E+02 -0.12147251243E+01 -0.41402149212E+02  0.45045678443E+02  0.00000000000E+00 0. -1.
         11    1    3    3    0    0 -0.21326808638E+00 -0.22409705791E+00  0.28810698415E-01  0.31069773976E+00  0.51100000000E-03 0. -1.
        -11    1    3    3    0    0 -0.60179585111E+00  0.18894035570E+01  0.10027830893E+02  0.10222005514E+02  0.51100000000E-03 0.  1.
        -12    1    3    3    0    0 -0.16890856820E+02 -0.45058137487E+00  0.31345507620E+02  0.35609618303E+02  0.00000000000E+00 0.  1.
</event>
<event>
 7    1  0.1485408E-008  0.4614231E+02  0.7816164E-02  0.1320468E+00
        -11   -1    0    0    0    0  0.00000000000E+00  0.00000000000E+00  0.45593999997E+02  0.45594000000E+02  0.51100000000E-03 0.  1.
         11   -1    0    0    0    0 -0.00000000000E+00 -0.00000000000E+00 -0.45593999997E+02  0.45594000000E+02  0.51100000000E-03 0. -1.
    9900012    2    1    2    0    0 -0.31207331110E+02 -0.95071125149E+01  0.31061739186E+02  0.46142308257E+02  0.99999133330E+01 0.  0.
         12    1    1    2    0    0  0.31207331110E+02  0.95071125149E+01 -0.31061739186E+02  0.45045691743E+02  0.00000000000E+00 0. -1.
         11    1    3    3    0    0 -0.20274435459E+01 -0.13218762308E+01  0.62862052704E+01  0.67360419434E+01  0.51100000000E-03 0. -1.
        -11    1    3    3    0    0 -0.16429269996E+02 -0.47557858737E+01  0.16833266893E+02  0.23997860038E+02  0.51100000000E-03 0.  1.
         12    1    3    3    0    0 -0.12750617568E+02 -0.34294504105E+01  0.79422670227E+01  0.15408406275E+02  0.00000000000E+00 0. -1.
</event>
<event>
 7    1  0.1485408E-008  0.4614231E+02  0.7816164E-02  0.1320468E+00
        -11   -1    0    0    0    0  0.00000000000E+00  0.00000000000E+00  0.45593999997E+02  0.45594000000E+02  0.51100000000E-03 0.  1.
         11   -1    0    0    0    0 -0.00000000000E+00 -0.00000000000E+00 -0.45593999997E+02  0.45594000000E+02  0.51100000000E-03 0. -1.
    9900012    2    1    2    0    0 -0.89661237903E+01 -0.41950840534E+02  0.13742246893E+02  0.46142314890E+02  0.99999738179E+01 0.  0.
         12    1    1    2    0    0  0.89661237903E+01  0.41950840534E+02 -0.13742246893E+02  0.45045685110E+02  0.00000000000E+00 0. -1.
         11    1    3    3    0    0 -0.18261457603E+01 -0.93091273423E+00  0.46486256990E+00  0.21017859850E+01  0.51100000000E-03 0. -1.
        -11    1    3    3    0    0 -0.75926014237E+01 -0.38578288763E+02  0.11431697221E+02  0.40946497553E+02  0.51100000000E-03 0.  1.
        -12    1    3    3    0    0  0.45262339369E+00 -0.24416390368E+01  0.18456871029E+01  0.30940313515E+01  0.00000000000E+00 0.  1.
</event>
<event>
 7    1  0.1485408E-008  0.4614232E+02  0.7816164E-02  0.1320468E+00
        -11   -1    0    0    0    0  0.00000000000E+00  0.00000000000E+00  0.45593999997E+02  0.45594000000E+02  0.51100000000E-03 0.  1.
         11   -1    0    0    0    0 -0.00000000000E+00 -0.00000000000E+00 -0.45593999997E+02  0.45594000000E+02  0.51100000000E-03 0. -1.
    9900012    2    1    2    0    0  0.34172987324E+02 -0.63821735022E+01  0.28645912314E+02  0.46142317704E+02  0.99999994777E+01 0.  0.
         12    1    1    2    0    0 -0.34172987324E+02  0.63821735022E+01 -0.28645912314E+02  0.45045682296E+02  0.00000000000E+00 0. -1.
         11    1    3    3    0    0  0.20895764113E+02 -0.64523685366E+00  0.15343589282E+02  0.25932123337E+02  0.51100000000E-03 0. -1.
        -11    1    3    3    0    0  0.51105981663E+01 -0.32444438698E+01  0.27854779031E+01  0.66635964052E+01  0.51100000000E-03 0.  1.
        -12    1    3    3    0    0  0.81666250450E+01 -0.24924927788E+01  0.10516845129E+02  0.13546597962E+02  0.00000000000E+00 0.  1.
</event>
<event>
 7    1  0.1485408E-008  0.4614232E+02  0.7816164E-02  0.1320468E+00
        -11   -1    0    0    0    0  0.00000000000E+00  0.00000000000E+00  0.45593999997E+02  0.45594000000E+02  0.51100000000E-03 0.  1.
         11   -1    0    0    0    0 -0.00000000000E+00 -0.00000000000E+00 -0.45593999997E+02  0.45594000000E+02  0.51100000000E-03 0. -1.
    9900012    2    1    2    0    0  0.25119142770E+02 -0.93737132270E+01  0.36197730337E+02  0.46142317469E+02  0.99999973339E+01 0.  0.
         12    1    1    2    0    0 -0.25119142770E+02  0.93737132270E+01 -0.36197730337E+02  0.45045682531E+02  0.00000000000E+00 0. -1.
         11    1    3    3    0    0  0.18647346152E+02 -0.88850917895E+01  0.23162313251E+02  0.31034837361E+02  0.51100000000E-03 0. -1.
        -11    1    3    3    0    0  0.48635783802E+01  0.10967262427E+01  0.64933846955E+01  0.81866506080E+01  0.51100000000E-03 0.  1.
         12    1    3    3    0    0  0.16082182374E+01 -0.15853476802E+01  0.65420323903E+01  0.69208294996E+01  0.00000000000E+00 0. -1.
</event>
<event>
 7    1  0.1485408E-008  0.4614232E+02  0.7816164E-02  0.1320468E+00
        -11   -1    0    0    0    0  0.00000000000E+00  0.00000000000E+00  0.45593999997E+02  0.45594000000E+02  0.51100000000E-03 0.  1.
         11   -1    0    0    0    0 -0.00000000000E+00 -0.00000000000E+00 -0.45593999997E+02  0.45594000000E+02  0.51100000000E-03 0. -1.
    9900012    2    1    2    0    0 -0.39656303578E+02 -0.21126860824E+02  0.31854146412E+01  0.46142317319E+02  0.99999959700E+01 0.  0.
         12    1    1    2    0    0  0.39656303578E+02  0.21126860824E+02 -0.31854146412E+01  0.45045682681E+02  0.00000000000E+00 0. -1.
         11    1    3    3    0    0 -0.92466009125E+01 -0.36564047706E+01  0.38664183237E+01  0.10668557316E+02  0.51100000000E-03 0. -1.
        -11    1    3    3    0    0 -0.27088109929E+02 -0.15488388335E+02  0.10835428674E+01  0.31222266704E+02  0.51100000000E-03 0.  1.
         12    1    3    3    0    0 -0.33215927363E+01 -0.19820677182E+01 -0.17645465499E+01  0.42514932991E+01  0.00000000000E+00 0. -1.
</event>
<event>
 7    1  0.1485408E-008  0.4614232E+02  0.7816164E-02  0.1320468E+00
        -11   -1    0    0    0    0  0.00000000000E+00  0.00000000000E+00  0.45593999997E+02  0.45594000000E+02  0.51100000000E-03 0.  1.
         11   -1    0    0    0    0 -0.00000000000E+00 -0.00000000000E+00 -0.45593999997E+02  0.45594000000E+02  0.51100000000E-03 0. -1.
    9900012    2    1    2    0    0  0.74974607114E+01  0.15228168750E+02  0.41725346162E+02  0.46142317045E+02  0.99999934667E+01 0.  0.
         12    1    1    2    0    0 -0.74974607114E+01 -0.15228168750E+02 -0.41725346162E+02  0.45045682955E+02  0.00000000000E+00 0. -1.
         11    1    3    3    0    0  0.64132268385E+01  0.10605320122E+02  0.27409126718E+02  0.30080932849E+02  0.51100000000E-03 0.  1.
        -11    1    3    3    0    0  0.42004104969E+00  0.62477138761E-01 -0.43447747150E+00  0.60754325826E+00  0.51100000000E-03 0. -1.
         12    1    3    3    0    0  0.66419282324E+00  0.45603714884E+01  0.14750696915E+02  0.15453840937E+02  0.00000000000E+00 0. -1.
</event>
<event>
 7    1  0.1485408E-008  0.4614232E+02  0.7816164E-02  0.1320468E+00
        -11   -1    0    0    0    0  0.00000000000E+00  0.00000000000E+00  0.45593999997E+02  0.45594000000E+02  0.51100000000E-03 0.  1.
         11   -1    0    0    0    0 -0.00000000000E+00 -0.00000000000E+00 -0.45593999997E+02  0.45594000000E+02  0.51100000000E-03 0. -1.
    9900012    2    1    2    0    0  0.92600440726E+00  0.32237513496E+02  0.31448350886E+02  0.46142317254E+02  0.99999953740E+01 0.  0.
         12    1    1    2    0    0 -0.92600440726E+00 -0.32237513496E+02 -0.31448350886E+02  0.45045682746E+02  0.00000000000E+00 0. -1.
         11    1    3    3    0    0  0.72280582960E+00  0.46782715722E+01  0.98795851382E+01  0.10955130119E+02  0.51100000000E-03 0. -1.
        -11    1    3    3    0    0 -0.14218584092E+00  0.20907703199E+02  0.14313563079E+02  0.25338317982E+02  0.51100000000E-03 0.  1.
        -12    1    3    3    0    0  0.34538441857E+00  0.66515387248E+01  0.72552026693E+01  0.98488691521E+01  0.00000000000E+00 0.  1.
</event>
<event>
 7    1  0.1485408E-008  0.4614232E+02  0.7816164E-02  0.1320468E+00
        -11   -1    0    0    0    0  0.00000000000E+00  0.00000000000E+00  0.45593999997E+02  0.45594000000E+02  0.51100000000E-03 0.  1.
         11   -1    0    0    0    0 -0.00000000000E+00 -0.00000000000E+00 -0.45593999997E+02  0.45594000000E+02  0.51100000000E-03 0. -1.
    9900012    2    1    2    0    0 -0.30748095000E+02  0.58136897709E+01  0.32401685366E+02  0.46142317084E+02  0.99999938222E+01 0.  0.
         12    1    1    2    0    0  0.30748095000E+02 -0.58136897709E+01 -0.32401685366E+02  0.45045682916E+02  0.00000000000E+00 0. -1.
         11    1    3    3    0    0 -0.18788967818E+02  0.74122709681E+01  0.17671344234E+02  0.26837352326E+02  0.51100000000E-03 0.  1.
        -11    1    3    3    0    0 -0.26746129377E+01 -0.17342989235E+01  0.35352579507E+01  0.47601886687E+01  0.51100000000E-03 0. -1.
         12    1    3    3    0    0 -0.92845142437E+01  0.13571772634E+00  0.11195083181E+02  0.14544776089E+02  0.00000000000E+00 0. -1.
</event>
<event>
 7    1  0.1485408E-008  0.4614232E+02  0.7816164E-02  0.1320468E+00
        -11   -1    0    0    0    0  0.00000000000E+00  0.00000000000E+00  0.45593999997E+02  0.45594000000E+02  0.51100000000E-03 0.  1.
         11   -1    0    0    0    0 -0.00000000000E+00 -0.00000000000E+00 -0.45593999997E+02  0.45594000000E+02  0.51100000000E-03 0. -1.
    9900012    2    1    2    0    0 -0.18156838563E+02 -0.41168359595E+02  0.21468369662E+01  0.46142317329E+02  0.99999960600E+01 0.  0.
         12    1    1    2    0    0  0.18156838563E+02  0.41168359595E+02 -0.21468369662E+01  0.45045682671E+02  0.00000000000E+00 0. -1.
         11    1    3    3    0    0 -0.12076207720E+02 -0.19933231761E+02  0.47124633791E+01  0.23777633034E+02  0.51100000000E-03 0. -1.
        -11    1    3    3    0    0 -0.30561650815E+01 -0.74281323183E+01 -0.16550857191E+01  0.82010123608E+01  0.51100000000E-03 0.  1.
         12    1    3    3    0    0 -0.30244657615E+01 -0.13806995516E+02 -0.91054069377E+00  0.14163671934E+02  0.00000000000E+00 0. -1.
</event>
<event>
 7    1  0.1485408E-008  0.4614232E+02  0.7816164E-02  0.1320468E+00
        -11   -1    0    0    0    0  0.00000000000E+00  0.00000000000E+00  0.45593999997E+02  0.45594000000E+02  0.51100000000E-03 0.  1.
         11   -1    0    0    0    0 -0.00000000000E+00 -0.00000000000E+00 -0.45593999997E+02  0.45594000000E+02  0.51100000000E-03 0. -1.
    9900012    2    1    2    0    0 -0.29115682172E+02  0.33288004455E+02 -0.85614702369E+01  0.46142323609E+02  0.10000053323E+02 0.  0.
         12    1    1    2    0    0  0.29115682172E+02 -0.33288004455E+02  0.85614702369E+01  0.45045676391E+02  0.00000000000E+00 0. -1.
         11    1    3    3    0    0 -0.26174026520E+01  0.57398765840E+01 -0.82299657372E+00  0.63619417998E+01  0.51100000000E-03 0. -1.
        -11    1    3    3    0    0  0.54451751211E-01  0.25542174782E+01 -0.50546397077E+00  0.26043206420E+01  0.51100000000E-03 0.  1.
        -12    1    3    3    0    0 -0.26552731271E+02  0.24993910393E+02 -0.72330096924E+01  0.37176061167E+02  0.00000000000E+00 0.  1.
</event>
<event>
 7    1  0.1485408E-008  0.4614232E+02  0.7816164E-02  0.1320468E+00
        -11   -1    0    0    0    0  0.00000000000E+00  0.00000000000E+00  0.45593999997E+02  0.45594000000E+02  0.51100000000E-03 0. -1.
         11   -1    0    0    0    0 -0.00000000000E+00 -0.00000000000E+00 -0.45593999997E+02  0.45594000000E+02  0.51100000000E-03 0.  1.
    9900012    2    1    2    0    0 -0.44756603791E+02 -0.27192876229E+01  0.43087570446E+01  0.46142317683E+02  0.99999992918E+01 0.  0.
         12    1    1    2    0    0  0.44756603791E+02  0.27192876229E+01 -0.43087570446E+01  0.45045682317E+02  0.00000000000E+00 0. -1.
         11    1    3    3    0    0 -0.16611608546E+02  0.13008799440E+01  0.40899874406E+01  0.17157092546E+02  0.51100000000E-03 0. -1.
        -11    1    3    3    0    0 -0.19051433387E+02 -0.24467918013E-01  0.86346976915E-01  0.19051644781E+02  0.51100000000E-03 0.  1.
        -12    1    3    3    0    0 -0.90935618579E+01 -0.39956996489E+01  0.13242262716E+00  0.99335803565E+01  0.00000000000E+00 0.  1.
</event>
<event>
 7    1  0.1485408E-008  0.4614232E+02  0.7816164E-02  0.1320468E+00
        -11   -1    0    0    0    0  0.00000000000E+00  0.00000000000E+00  0.45593999997E+02  0.45594000000E+02  0.51100000000E-03 0.  1.
         11   -1    0    0    0    0 -0.00000000000E+00 -0.00000000000E+00 -0.45593999997E+02  0.45594000000E+02  0.51100000000E-03 0. -1.
    9900012    2    1    2    0    0  0.14247635153E+02  0.42622413677E+02  0.30737742481E+01  0.46142319373E+02  0.10000014695E+02 0.  0.
         12    1    1    2    0    0 -0.14247635153E+02 -0.42622413677E+02 -0.30737742481E+01  0.45045680627E+02  0.00000000000E+00 0. -1.
         11    1    3    3    0    0  0.79943967833E+01  0.13202097497E+02  0.39305335140E+01  0.15926545520E+02  0.51100000000E-03 0. -1.
        -11    1    3    3    0    0  0.39995397734E+01  0.19346753174E+02 -0.18670343643E+01  0.19843865409E+02  0.51100000000E-03 0.  1.
        -12    1    3    3    0    0  0.22536985961E+01  0.10073563005E+02  0.10102750985E+01  0.10371908443E+02  0.00000000000E+00 0.  1.
</event>
<event>
 7    1  0.1485408E-008  0.4614232E+02  0.7816164E-02  0.1320468E+00
        -11   -1    0    0    0    0  0.00000000000E+00  0.00000000000E+00  0.45593999997E+02  0.45594000000E+02  0.51100000000E-03 0.  1.
         11   -1    0    0    0    0 -0.00000000000E+00 -0.00000000000E+00 -0.45593999997E+02  0.45594000000E+02  0.51100000000E-03 0. -1.
    9900012    2    1    2    0    0  0.40617754320E+02  0.17754774642E+02  0.80049723813E+01  0.46142316839E+02  0.99999915921E+01 0.  0.
         12    1    1    2    0    0 -0.40617754320E+02 -0.17754774642E+02 -0.80049723813E+01  0.45045683161E+02  0.00000000000E+00 0. -1.
         11    1    3    3    0    0  0.14908027272E+02  0.85152492268E+01 -0.86732122702E+00  0.17190433180E+02  0.51100000000E-03 0. -1.
        -11    1    3    3    0    0  0.92484054134E+01  0.50332957552E+01  0.41494519393E+01  0.11317465286E+02  0.51100000000E-03 0.  1.
         12    1    3    3    0    0  0.16461321635E+02  0.42062296596E+01  0.47228416690E+01  0.17634418373E+02  0.00000000000E+00 0. -1.
</event>
<event>
 7    1  0.1485408E-008  0.4614232E+02  0.7816164E-02  0.1320468E+00
        -11   -1    0    0    0    0  0.00000000000E+00  0.00000000000E+00  0.45593999997E+02  0.45594000000E+02  0.51100000000E-03 0.  1.
         11   -1    0    0    0    0 -0.00000000000E+00 -0.00000000000E+00 -0.45593999997E+02  0.45594000000E+02  0.51100000000E-03 0. -1.
    9900012    2    1    2    0    0 -0.14915987748E+02 -0.66931735894E+01  0.41974136952E+02  0.46142318342E+02  0.10000005299E+02 0.  0.
         12    1    1    2    0    0  0.14915987748E+02  0.66931735894E+01 -0.41974136952E+02  0.45045681658E+02  0.00000000000E+00 0. -1.
         11    1    3    3    0    0 -0.20892236621E+01  0.10443581403E+01  0.78457752927E+01  0.81860692423E+01  0.51100000000E-03 0. -1.
        -11    1    3    3    0    0 -0.78103732093E+01 -0.51621675702E+01  0.28461993919E+02  0.29962226249E+02  0.51100000000E-03 0.  1.
        -12    1    3    3    0    0 -0.50163908763E+01 -0.25753641594E+01  0.56663677399E+01  0.79940228510E+01  0.00000000000E+00 0.  1.
</event>
<event>
 7    1  0.1485408E-008  0.4614232E+02  0.7816164E-02  0.1320468E+00
        -11   -1    0    0    0    0  0.00000000000E+00  0.00000000000E+00  0.45593999997E+02  0.45594000000E+02  0.51100000000E-03 0.  1.
         11   -1    0    0    0    0 -0.00000000000E+00 -0.00000000000E+00 -0.45593999997E+02  0.45594000000E+02  0.51100000000E-03 0. -1.
    9900012    2    1    2    0    0  0.55438180994E+01  0.42158562431E+02  0.14867250696E+02  0.46142318203E+02  0.10000004027E+02 0.  0.
         12    1    1    2    0    0 -0.55438180994E+01 -0.42158562431E+02 -0.14867250696E+02  0.45045681797E+02  0.00000000000E+00 0. -1.
         11    1    3    3    0    0  0.28122565489E+01  0.52547737871E+01  0.27330756085E+01  0.65567626915E+01  0.51100000000E-03 0. -1.
        -11    1    3    3    0    0 -0.16519459066E+01  0.54693799104E+01  0.34740027293E+01  0.66866835656E+01  0.51100000000E-03 0.  1.
        -12    1    3    3    0    0  0.43835074572E+01  0.31434408733E+02  0.86601723578E+01  0.32898871946E+02  0.00000000000E+00 0.  1.
</event>
<event>
 7    1  0.1485408E-008  0.4614232E+02  0.7816164E-02  0.1320468E+00
        -11   -1    0    0    0    0  0.00000000000E+00  0.00000000000E+00  0.45593999997E+02  0.45594000000E+02  0.51100000000E-03 0.  1.
         11   -1    0    0    0    0 -0.00000000000E+00 -0.00000000000E+00 -0.45593999997E+02  0.45594000000E+02  0.51100000000E-03 0. -1.
    9900012    2    1    2    0    0 -0.44184233362E+02  0.73946397626E+01 -0.47102405550E+01  0.46142317176E+02  0.99999946648E+01 0.  0.
         12    1    1    2    0    0  0.44184233362E+02 -0.73946397626E+01  0.47102405550E+01  0.45045682824E+02  0.00000000000E+00 0. -1.
         11    1    3    3    0    0 -0.13856680402E+02  0.72618907601E+00  0.15046173332E+01  0.13957034640E+02  0.51100000000E-03 0. -1.
        -11    1    3    3    0    0 -0.23325477921E+02  0.54483591262E+01 -0.22810559314E+01  0.24061707209E+02  0.51100000000E-03 0.  1.
        -12    1    3    3    0    0 -0.70020750386E+01  0.12200915605E+01 -0.39338019567E+01  0.81235753272E+01  0.00000000000E+00 0.  1.
</event>
<event>
 7    1  0.1485408E-008  0.4614232E+02  0.7816164E-02  0.1320468E+00
        -11   -1    0    0    0    0  0.00000000000E+00  0.00000000000E+00  0.45593999997E+02  0.45594000000E+02  0.51100000000E-03 0.  1.
         11   -1    0    0    0    0 -0.00000000000E+00 -0.00000000000E+00 -0.45593999997E+02  0.45594000000E+02  0.51100000000E-03 0. -1.
    9900012    2    1    2    0    0 -0.34949395850E+02 -0.27248830358E+02 -0.80718309654E+01  0.46142317839E+02  0.10000000713E+02 0.  0.
         12    1    1    2    0    0  0.34949395850E+02  0.27248830358E+02  0.80718309654E+01  0.45045682161E+02  0.00000000000E+00 0. -1.
         11    1    3    3    0    0 -0.24559292956E+01  0.43071496066E-01 -0.45780554409E+00  0.24986056184E+01  0.51100000000E-03 0. -1.
        -11    1    3    3    0    0 -0.16224028452E+02 -0.16577598939E+02 -0.15768141263E+01  0.23249133937E+02  0.51100000000E-03 0.  1.
        -12    1    3    3    0    0 -0.16269438103E+02 -0.10714302915E+02 -0.60372112950E+01  0.20394578284E+02  0.00000000000E+00 0.  1.
</event>
<event>
 7    1  0.1485408E-008  0.4614232E+02  0.7816164E-02  0.1320468E+00
        -11   -1    0    0    0    0  0.00000000000E+00  0.00000000000E+00  0.45593999997E+02  0.45594000000E+02  0.51100000000E-03 0. -1.
         11   -1    0    0    0    0 -0.00000000000E+00 -0.00000000000E+00 -0.45593999997E+02  0.45594000000E+02  0.51100000000E-03 0.  1.
    9900012    2    1    2    0    0 -0.15745511879E+02  0.41408332695E+02 -0.81573545617E+01  0.46142316585E+02  0.99999892735E+01 0.  0.
         12    1    1    2    0    0  0.15745511879E+02 -0.41408332695E+02  0.81573545617E+01  0.45045683415E+02  0.00000000000E+00 0. -1.
         11    1    3    3    0    0 -0.44446788860E+01  0.62167468983E+01  0.15581822743E+01  0.77994259185E+01  0.51100000000E-03 0. -1.
        -11    1    3    3    0    0 -0.59167112698E+01  0.18667868135E+02 -0.67446521531E+01  0.20712003908E+02  0.51100000000E-03 0.  1.
         12    1    3    3    0    0 -0.53841217235E+01  0.16523717661E+02 -0.29708846829E+01  0.17630886758E+02  0.00000000000E+00 0. -1.
</event>
<event>
 7    1  0.1485408E-008  0.4614232E+02  0.7816164E-02  0.1320468E+00
        -11   -1    0    0    0    0  0.00000000000E+00  0.00000000000E+00  0.45593999997E+02  0.45594000000E+02  0.51100000000E-03 0.  1.
         11   -1    0    0    0    0 -0.00000000000E+00 -0.00000000000E+00 -0.45593999997E+02  0.45594000000E+02  0.51100000000E-03 0. -1.
    9900012    2    1    2    0    0 -0.32105334123E+02 -0.19715199321E+01  0.31535282884E+02  0.46142318336E+02  0.10000005243E+02 0.  0.
         12    1    1    2    0    0  0.32105334123E+02  0.19715199321E+01 -0.31535282884E+02  0.45045681664E+02  0.00000000000E+00 0. -1.
         11    1    3    3    0    0 -0.18107714124E+01 -0.29469659238E+00  0.36794393125E+01  0.41114490274E+01  0.51100000000E-03 0. -1.
        -11    1    3    3    0    0 -0.30374117608E+02 -0.17001505883E+01  0.25561335117E+02  0.39734863605E+02  0.51100000000E-03 0.  1.
        -12    1    3    3    0    0  0.79554897640E-01  0.23327248561E-01  0.22945084549E+01  0.22960057038E+01  0.00000000000E+00 0.  1.
</event>
<event>
 7    1  0.1485408E-008  0.4614232E+02  0.7816164E-02  0.1320468E+00
        -11   -1    0    0    0    0  0.00000000000E+00  0.00000000000E+00  0.45593999997E+02  0.45594000000E+02  0.51100000000E-03 0.  1.
         11   -1    0    0    0    0 -0.00000000000E+00 -0.00000000000E+00 -0.45593999997E+02  0.45594000000E+02  0.51100000000E-03 0. -1.
    9900012    2    1    2    0    0 -0.43335036676E+02 -0.36864336455E+01  0.11730212356E+02  0.46142322309E+02  0.10000041469E+02 0.  0.
         12    1    1    2    0    0  0.43335036676E+02  0.36864336455E+01 -0.11730212356E+02  0.45045677691E+02  0.00000000000E+00 0. -1.
         11    1    3    3    0    0 -0.17542021344E+02  0.44993775857E+00  0.25610455083E+01  0.17733694234E+02  0.51100000000E-03 0. -1.
        -11    1    3    3    0    0 -0.20017955582E+02 -0.28996625459E+01  0.41282519869E+01  0.20643862363E+02  0.51100000000E-03 0.  1.
        -12    1    3    3    0    0 -0.57750597500E+01 -0.12367088582E+01  0.50409148606E+01  0.77647657111E+01  0.00000000000E+00 0.  1.
</event>
<event>
 7    1  0.1616215E-008  0.4614232E+02  0.7816164E-02  0.1320468E+00
        -11   -1    0    0    0    0  0.00000000000E+00  0.00000000000E+00  0.45593999997E+02  0.45594000000E+02  0.51100000000E-03 0. -1.
         11   -1    0    0    0    0 -0.00000000000E+00 -0.00000000000E+00 -0.45593999997E+02  0.45594000000E+02  0.51100000000E-03 0.  1.
    9900012    2    1    2    0    0 -0.19481629916E+02 -0.15586877360E+02 -0.37505050653E+02  0.46142317915E+02  0.10000001406E+02 0.  0.
         12    1    1    2    0    0  0.19481629916E+02  0.15586877360E+02  0.37505050653E+02  0.45045682085E+02  0.00000000000E+00 0. -1.
         11    1    3    3    0    0 -0.39348541096E+01 -0.52593165025E+01 -0.44403225564E+01  0.79284268051E+01  0.51100000000E-03 0. -1.
        -11    1    3    3    0    0 -0.10947989910E+02 -0.52017185804E+01 -0.18714235179E+02  0.22296613147E+02  0.51100000000E-03 0.  1.
         12    1    3    3    0    0 -0.45987858965E+01 -0.51258422774E+01 -0.14350492917E+02  0.15917277963E+02  0.00000000000E+00 0. -1.
</event>
<event>
 7    1  0.1485408E-008  0.4614232E+02  0.7816164E-02  0.1320468E+00
        -11   -1    0    0    0    0  0.00000000000E+00  0.00000000000E+00  0.45593999997E+02  0.45594000000E+02  0.51100000000E-03 0.  1.
         11   -1    0    0    0    0 -0.00000000000E+00 -0.00000000000E+00 -0.45593999997E+02  0.45594000000E+02  0.51100000000E-03 0. -1.
    9900012    2    1    2    0    0  0.17219627974E+02  0.55836426240E+01  0.41248282220E+02  0.46142318313E+02  0.10000005033E+02 0.  0.
         12    1    1    2    0    0 -0.17219627974E+02 -0.55836426240E+01 -0.41248282220E+02  0.45045681687E+02  0.00000000000E+00 0. -1.
         11    1    3    3    0    0  0.81719796448E+01 -0.14965914620E+01  0.17960211818E+02  0.19788639319E+02  0.51100000000E-03 0. -1.
        -11    1    3    3    0    0  0.22666207994E+01  0.28178767115E+01  0.11854672227E+02  0.12394000681E+02  0.51100000000E-03 0.  1.
         12    1    3    3    0    0  0.67810275299E+01  0.42623573744E+01  0.11433398175E+02  0.13959678312E+02  0.00000000000E+00 0. -1.
</event>
<event>
 7    1  0.1485408E-008  0.4614232E+02  0.7816164E-02  0.1320468E+00
        -11   -1    0    0    0    0  0.00000000000E+00  0.00000000000E+00  0.45593999997E+02  0.45594000000E+02  0.51100000000E-03 0.  1.
         11   -1    0    0    0    0 -0.00000000000E+00 -0.00000000000E+00 -0.45593999997E+02  0.45594000000E+02  0.51100000000E-03 0. -1.
    9900012    2    1    2    0    0 -0.43553740533E+01 -0.30986980427E+02  0.32402951182E+02  0.46142317805E+02  0.10000000402E+02 0.  0.
         12    1    1    2    0    0  0.43553740533E+01  0.30986980427E+02 -0.32402951182E+02  0.45045682195E+02  0.00000000000E+00 0. -1.
         11    1    3    3    0    0  0.10157073203E+01 -0.93186526304E+01  0.54924654006E+01  0.10864443135E+02  0.51100000000E-03 0. -1.
        -11    1    3    3    0    0 -0.57734933615E+01 -0.21012496738E+02  0.24706453141E+02  0.32943391930E+02  0.51100000000E-03 0.  1.
         12    1    3    3    0    0  0.40241198788E+00 -0.65583105817E+00  0.22040326397E+01  0.23344827396E+01  0.00000000000E+00 0. -1.
</event>
<event>
 7    1  0.1485408E-008  0.4614232E+02  0.7816164E-02  0.1320468E+00
        -11   -1    0    0    0    0  0.00000000000E+00  0.00000000000E+00  0.45593999997E+02  0.45594000000E+02  0.51100000000E-03 0.  1.
         11   -1    0    0    0    0 -0.00000000000E+00 -0.00000000000E+00 -0.45593999997E+02  0.45594000000E+02  0.51100000000E-03 0. -1.
    9900012    2    1    2    0    0 -0.21592244034E+02 -0.33265706325E+02  0.21360740660E+02  0.46142318062E+02  0.10000002742E+02 0.  0.
         12    1    1    2    0    0  0.21592244034E+02  0.33265706325E+02 -0.21360740660E+02  0.45045681938E+02  0.00000000000E+00 0. -1.
         11    1    3    3    0    0 -0.29755171785E+01 -0.73689014602E+01  0.77936045201E+00  0.79850995100E+01  0.51100000000E-03 0. -1.
        -11    1    3    3    0    0 -0.14115542699E+01 -0.33001644137E+01  0.12478115272E+01  0.38000795364E+01  0.51100000000E-03 0.  1.
         12    1    3    3    0    0 -0.17205172586E+02 -0.22596640451E+02  0.19333568681E+02  0.34357139015E+02  0.00000000000E+00 0. -1.
</event>
<event>
 7    1  0.1485408E-008  0.4614232E+02  0.7816164E-02  0.1320468E+00
        -11   -1    0    0    0    0  0.00000000000E+00  0.00000000000E+00  0.45593999997E+02  0.45594000000E+02  0.51100000000E-03 0.  1.
         11   -1    0    0    0    0 -0.00000000000E+00 -0.00000000000E+00 -0.45593999997E+02  0.45594000000E+02  0.51100000000E-03 0. -1.
    9900012    2    1    2    0    0 -0.17345939201E+02  0.25130770293E+02  0.33116103633E+02  0.46142317165E+02  0.99999945604E+01 0.  0.
         12    1    1    2    0    0  0.17345939201E+02 -0.25130770293E+02 -0.33116103633E+02  0.45045682835E+02  0.00000000000E+00 0. -1.
         11    1    3    3    0    0 -0.71157693688E+01  0.52015423807E+01  0.92643354500E+01  0.12787420711E+02  0.51100000000E-03 0. -1.
        -11    1    3    3    0    0 -0.84175647680E+01  0.19316695076E+02  0.23183272768E+02  0.31328170099E+02  0.51100000000E-03 0.  1.
         12    1    3    3    0    0 -0.18126050646E+01  0.61253283615E+00  0.66849541512E+00  0.20267263544E+01  0.00000000000E+00 0. -1.
</event>
<event>
 7    1  0.1485408E-008  0.4614232E+02  0.7816164E-02  0.1320468E+00
        -11   -1    0    0    0    0  0.00000000000E+00  0.00000000000E+00  0.45593999997E+02  0.45594000000E+02  0.51100000000E-03 0. -1.
         11   -1    0    0    0    0 -0.00000000000E+00 -0.00000000000E+00 -0.45593999997E+02  0.45594000000E+02  0.51100000000E-03 0.  1.
    9900012    2    1    2    0    0 -0.19114062180E+02  0.36942330646E+02 -0.17292492052E+02  0.46142318210E+02  0.10000004093E+02 0.  0.
         12    1    1    2    0    0  0.19114062180E+02 -0.36942330646E+02  0.17292492052E+02  0.45045681790E+02  0.00000000000E+00 0. -1.
         11    1    3    3    0    0 -0.82103943300E+01  0.10970450533E+02 -0.40691468180E+01  0.14294030783E+02  0.51100000000E-03 0. -1.
        -11    1    3    3    0    0 -0.52121573757E+01  0.18622766301E+02 -0.65961716316E+01  0.20432412723E+02  0.51100000000E-03 0.  1.
        -12    1    3    3    0    0 -0.56915104745E+01  0.73491138114E+01 -0.66271736020E+01  0.11415874703E+02  0.00000000000E+00 0.  1.
</event>
<event>
 7    1  0.1485408E-008  0.4614232E+02  0.7816164E-02  0.1320468E+00
        -11   -1    0    0    0    0  0.00000000000E+00  0.00000000000E+00  0.45593999997E+02  0.45594000000E+02  0.51100000000E-03 0.  1.
         11   -1    0    0    0    0 -0.00000000000E+00 -0.00000000000E+00 -0.45593999997E+02  0.45594000000E+02  0.51100000000E-03 0. -1.
    9900012    2    1    2    0    0 -0.25631789030E+02 -0.30113081062E+02  0.21571444960E+02  0.46142317659E+02  0.99999990653E+01 0.  0.
         12    1    1    2    0    0  0.25631789030E+02  0.30113081062E+02 -0.21571444960E+02  0.45045682341E+02  0.00000000000E+00 0. -1.
         11    1    3    3    0    0 -0.13077835876E+02 -0.95626724932E+01  0.53700336385E+01  0.17067857450E+02  0.51100000000E-03 0. -1.
        -11    1    3    3    0    0 -0.10868351059E+02 -0.17920512364E+02  0.14758711115E+02  0.25633676525E+02  0.51100000000E-03 0.  1.
         12    1    3    3    0    0 -0.16856020952E+01 -0.26298962047E+01  0.14427002066E+01  0.34407836836E+01  0.00000000000E+00 0. -1.
</event>
<event>
 7    1  0.1485408E-008  0.4614232E+02  0.7816164E-02  0.1320468E+00
        -11   -1    0    0    0    0  0.00000000000E+00  0.00000000000E+00  0.45593999997E+02  0.45594000000E+02  0.51100000000E-03 0.  1.
         11   -1    0    0    0    0 -0.00000000000E+00 -0.00000000000E+00 -0.45593999997E+02  0.45594000000E+02  0.51100000000E-03 0. -1.
    9900012    2    1    2    0    0  0.31580605597E+02 -0.95729709236E+01  0.30661654453E+02  0.46142317899E+02  0.10000001259E+02 0.  0.
         12    1    1    2    0    0 -0.31580605597E+02  0.95729709236E+01 -0.30661654453E+02  0.45045682101E+02  0.00000000000E+00 0. -1.
         11    1    3    3    0    0  0.13833149893E+00 -0.22475437898E+00 -0.10429368452E+00  0.28377379763E+00  0.51100000000E-03 0. -1.
        -11    1    3    3    0    0  0.26529361505E+02 -0.67540241361E+01  0.20553165158E+02  0.34232389080E+02  0.51100000000E-03 0.  1.
        -12    1    3    3    0    0  0.49129125932E+01 -0.25941924085E+01  0.10212782979E+02  0.11626155021E+02  0.00000000000E+00 0.  1.
</event>
<event>
 7    1  0.1485408E-008  0.4614232E+02  0.7816164E-02  0.1320468E+00
        -11   -1    0    0    0    0  0.00000000000E+00  0.00000000000E+00  0.45593999997E+02  0.45594000000E+02  0.51100000000E-03 0.  1.
         11   -1    0    0    0    0 -0.00000000000E+00 -0.00000000000E+00 -0.45593999997E+02  0.45594000000E+02  0.51100000000E-03 0. -1.
    9900012    2    1    2    0    0  0.24732526645E+02 -0.28607956734E+02  0.24474486154E+02  0.46142317241E+02  0.99999952553E+01 0.  0.
         12    1    1    2    0    0 -0.24732526645E+02  0.28607956734E+02 -0.24474486154E+02  0.45045682759E+02  0.00000000000E+00 0. -1.
         11    1    3    3    0    0  0.45173455731E+01 -0.69740965433E+01  0.10075285294E+02  0.13059701668E+02  0.51100000000E-03 0. -1.
        -11    1    3    3    0    0  0.16079916078E+02 -0.16363679399E+02  0.12467483325E+02  0.26110761101E+02  0.51100000000E-03 0.  1.
        -12    1    3    3    0    0  0.41352649939E+01 -0.52701807917E+01  0.19317175341E+01  0.69718544719E+01  0.00000000000E+00 0.  1.
</event>
<event>
 7    1  0.1485408E-008  0.4614232E+02  0.7816164E-02  0.1320468E+00
        -11   -1    0    0    0    0  0.00000000000E+00  0.00000000000E+00  0.45593999997E+02  0.45594000000E+02  0.51100000000E-03 0.  1.
         11   -1    0    0    0    0 -0.00000000000E+00 -0.00000000000E+00 -0.45593999997E+02  0.45594000000E+02  0.51100000000E-03 0. -1.
    9900012    2    1    2    0    0  0.19012332078E+02 -0.32214216689E+02  0.25097591331E+02  0.46142316316E+02  0.99999868249E+01 0.  0.
         12    1    1    2    0    0 -0.19012332078E+02  0.32214216689E+02 -0.25097591331E+02  0.45045683684E+02  0.00000000000E+00 0. -1.
         11    1    3    3    0    0  0.28830619370E+01 -0.13254411244E+02  0.10958497860E+02  0.17437893771E+02  0.51100000000E-03 0. -1.
        -11    1    3    3    0    0  0.11193491407E+02 -0.14557333365E+02  0.10185024767E+02  0.20998688872E+02  0.51100000000E-03 0.  1.
         12    1    3    3    0    0  0.49357787346E+01 -0.44024720791E+01  0.39540687036E+01  0.77057336729E+01  0.00000000000E+00 0. -1.
</event>
<event>
 7    1  0.1485408E-008  0.4614232E+02  0.7816164E-02  0.1320468E+00
        -11   -1    0    0    0    0  0.00000000000E+00  0.00000000000E+00  0.45593999997E+02  0.45594000000E+02  0.51100000000E-03 0.  1.
         11   -1    0    0    0    0 -0.00000000000E+00 -0.00000000000E+00 -0.45593999997E+02  0.45594000000E+02  0.51100000000E-03 0. -1.
    9900012    2    1    2    0    0 -0.57051736627E+01  0.20707346446E+02  0.39595081166E+02  0.46142315901E+02  0.99999830393E+01 0.  0.
         12    1    1    2    0    0  0.57051736627E+01 -0.20707346446E+02 -0.39595081166E+02  0.45045684099E+02  0.00000000000E+00 0. -1.
         11    1    3    3    0    0  0.10385995188E+01 -0.49200007850E+00  0.74838976089E+00  0.13714373967E+01  0.51100000000E-03 0. -1.
        -11    1    3    3    0    0 -0.36936317211E+01  0.10549929539E+02  0.19760074649E+02  0.22702521424E+02  0.51100000000E-03 0.  1.
         12    1    3    3    0    0 -0.30501414604E+01  0.10649416985E+02  0.19086616756E+02  0.22068357081E+02  0.00000000000E+00 0. -1.
</event>
<event>
 7    1  0.1485408E-008  0.4614232E+02  0.7816164E-02  0.1320468E+00
        -11   -1    0    0    0    0  0.00000000000E+00  0.00000000000E+00  0.45593999997E+02  0.45594000000E+02  0.51100000000E-03 0.  1.
         11   -1    0    0    0    0 -0.00000000000E+00 -0.00000000000E+00 -0.45593999997E+02  0.45594000000E+02  0.51100000000E-03 0. -1.
    9900012    2    1    2    0    0 -0.27947692039E+02 -0.79687457778E+01  0.34417131199E+02  0.46142319635E+02  0.10000017084E+02 0.  0.
         12    1    1    2    0    0  0.27947692039E+02  0.79687457778E+01 -0.34417131199E+02  0.45045680365E+02  0.00000000000E+00 0. -1.
         11    1    3    3    0    0 -0.69395991792E+01 -0.10917767458E+01  0.71278290647E+01  0.10007794995E+02  0.51100000000E-03 0. -1.
        -11    1    3    3    0    0 -0.38007078033E+01  0.11981159155E+01  0.18906420059E+01  0.44108263408E+01  0.51100000000E-03 0.  1.
        -12    1    3    3    0    0 -0.17207385057E+02 -0.80750849475E+01  0.25398660129E+02  0.31723698298E+02  0.00000000000E+00 0.  1.
</event>
<event>
 7    1  0.1485408E-008  0.4614232E+02  0.7816164E-02  0.1320468E+00
        -11   -1    0    0    0    0  0.00000000000E+00  0.00000000000E+00  0.45593999997E+02  0.45594000000E+02  0.51100000000E-03 0.  1.
         11   -1    0    0    0    0 -0.00000000000E+00 -0.00000000000E+00 -0.45593999997E+02  0.45594000000E+02  0.51100000000E-03 0. -1.
    9900012    2    1    2    0    0  0.14488475318E+02 -0.16714392697E+02  0.39240624899E+02  0.46142317823E+02  0.10000000568E+02 0.  0.
         12    1    1    2    0    0 -0.14488475318E+02  0.16714392697E+02 -0.39240624899E+02  0.45045682177E+02  0.00000000000E+00 0. -1.
         11    1    3    3    0    0  0.11197816945E+02 -0.10021159088E+02  0.22994227199E+02  0.27469059295E+02  0.51100000000E-03 0. -1.
        -11    1    3    3    0    0  0.42609427866E+01 -0.58330497469E+01  0.15668840592E+02  0.17253772589E+02  0.51100000000E-03 0.  1.
         12    1    3    3    0    0 -0.97028441362E+00 -0.86018386193E+00  0.57755710767E+00  0.14194859394E+01  0.00000000000E+00 0. -1.
</event>
<event>
 7    1  0.1485408E-008  0.4614232E+02  0.7816164E-02  0.1320468E+00
        -11   -1    0    0    0    0  0.00000000000E+00  0.00000000000E+00  0.45593999997E+02  0.45594000000E+02  0.51100000000E-03 0.  1.
         11   -1    0    0    0    0 -0.00000000000E+00 -0.00000000000E+00 -0.45593999997E+02  0.45594000000E+02  0.51100000000E-03 0. -1.
    9900012    2    1    2    0    0 -0.38359097756E+02 -0.23474568490E+02 -0.25764267893E+01  0.46142315174E+02  0.99999764115E+01 0.  0.
         12    1    1    2    0    0  0.38359097756E+02  0.23474568490E+02  0.25764267893E+01  0.45045684826E+02  0.00000000000E+00 0. -1.
         11    1    3    3    0    0  0.45982367546E-01 -0.95229645687E+00 -0.10198692818E+01  0.13961076366E+01  0.51100000000E-03 0. -1.
        -11    1    3    3    0    0 -0.35543552528E+02 -0.21680340891E+02 -0.22105468616E+01  0.41692539203E+02  0.51100000000E-03 0.  1.
         12    1    3    3    0    0 -0.28615275952E+01 -0.84193114155E+00  0.65398935403E+00  0.30536683350E+01  0.00000000000E+00 0. -1.
</event>
<event>
 7    1  0.1485408E-008  0.4614232E+02  0.7816164E-02  0.1320468E+00
        -11   -1    0    0    0    0  0.00000000000E+00  0.00000000000E+00  0.45593999997E+02  0.45594000000E+02  0.51100000000E-03 0.  1.
         11   -1    0    0    0    0 -0.00000000000E+00 -0.00000000000E+00 -0.45593999997E+02  0.45594000000E+02  0.51100000000E-03 0. -1.
    9900012    2    1    2    0    0  0.26917145490E+02  0.20703856686E+02  0.29596133322E+02  0.46142317514E+02  0.99999977462E+01 0.  0.
         12    1    1    2    0    0 -0.26917145490E+02 -0.20703856686E+02 -0.29596133322E+02  0.45045682486E+02  0.00000000000E+00 0. -1.
         11    1    3    3    0    0  0.15582387542E+01  0.25949926009E+01  0.26649362614E+01  0.40328625258E+01  0.51100000000E-03 0. -1.
        -11    1    3    3    0    0  0.20621027273E+02  0.98800515426E+01  0.19513696250E+02  0.30060381333E+02  0.51100000000E-03 0.  1.
        -12    1    3    3    0    0  0.47378794621E+01  0.82288125430E+01  0.74175008105E+01  0.12049073655E+02  0.00000000000E+00 0.  1.
</event>
<event>
 7    1  0.1485408E-008  0.4614232E+02  0.7816164E-02  0.1320468E+00
        -11   -1    0    0    0    0  0.00000000000E+00  0.00000000000E+00  0.45593999997E+02  0.45594000000E+02  0.51100000000E-03 0.  1.
         11   -1    0    0    0    0 -0.00000000000E+00 -0.00000000000E+00 -0.45593999997E+02  0.45594000000E+02  0.51100000000E-03 0. -1.
    9900012    2    1    2    0    0  0.39884963463E+02 -0.59562461022E+01  0.20070531607E+02  0.46142318552E+02  0.10000007216E+02 0.  0.
         12    1    1    2    0    0 -0.39884963463E+02  0.59562461022E+01 -0.20070531607E+02  0.45045681448E+02  0.00000000000E+00 0. -1.
         11    1    3    3    0    0  0.20661822129E+02  0.95226579517E+00  0.12214274031E+02  0.24020953233E+02  0.51100000000E-03 0. -1.
        -11    1    3    3    0    0  0.11022121671E+01 -0.13107973669E+01  0.70691956636E+00  0.18527808647E+01  0.51100000000E-03 0.  1.
         12    1    3    3    0    0  0.18120929167E+02 -0.55977145305E+01  0.71493380098E+01  0.20268584455E+02  0.00000000000E+00 0. -1.
</event>
<event>
 7    1  0.1485408E-008  0.4614232E+02  0.7816164E-02  0.1320468E+00
        -11   -1    0    0    0    0  0.00000000000E+00  0.00000000000E+00  0.45593999997E+02  0.45594000000E+02  0.51100000000E-03 0.  1.
         11   -1    0    0    0    0 -0.00000000000E+00 -0.00000000000E+00 -0.45593999997E+02  0.45594000000E+02  0.51100000000E-03 0. -1.
    9900012    2    1    2    0    0  0.14088569360E+02  0.39524580859E+02  0.16383934068E+02  0.46142316807E+02  0.99999913038E+01 0.  0.
         12    1    1    2    0    0 -0.14088569360E+02 -0.39524580859E+02 -0.16383934068E+02  0.45045683193E+02  0.00000000000E+00 0. -1.
         11    1    3    3    0    0  0.48951382817E+01  0.38518735343E+01  0.24992024388E+01  0.67115811559E+01  0.51100000000E-03 0. -1.
        -11    1    3    3    0    0  0.56385106031E+00  0.51430884460E+01  0.21853177965E+01  0.56164847471E+01  0.51100000000E-03 0.  1.
         12    1    3    3    0    0  0.86295800184E+01  0.30529618879E+02  0.11699413833E+02  0.33814250904E+02  0.00000000000E+00 0. -1.
</event>
<event>
 7    1  0.1485408E-008  0.4614232E+02  0.7816164E-02  0.1320468E+00
        -11   -1    0    0    0    0  0.00000000000E+00  0.00000000000E+00  0.45593999997E+02  0.45594000000E+02  0.51100000000E-03 0. -1.
         11   -1    0    0    0    0 -0.00000000000E+00 -0.00000000000E+00 -0.45593999997E+02  0.45594000000E+02  0.51100000000E-03 0.  1.
    9900012    2    1    2    0    0 -0.29188997784E+02  0.34098810113E+02  0.37930093540E+01  0.46142319156E+02  0.10000012716E+02 0.  0.
         12    1    1    2    0    0  0.29188997784E+02 -0.34098810113E+02 -0.37930093540E+01  0.45045680844E+02  0.00000000000E+00 0. -1.
         11    1    3    3    0    0 -0.21847198178E+02  0.24563780840E+02  0.62578106815E+01  0.33464004426E+02  0.51100000000E-03 0.  1.
        -11    1    3    3    0    0 -0.36007877763E+01  0.67239699677E+01 -0.63487925584E+00  0.76537909997E+01  0.51100000000E-03 0. -1.
         12    1    3    3    0    0 -0.37410118298E+01  0.28110593049E+01 -0.18299220717E+01  0.50245237302E+01  0.00000000000E+00 0. -1.
</event>
<event>
 7    1  0.1485408E-008  0.4614232E+02  0.7816164E-02  0.1320468E+00
        -11   -1    0    0    0    0  0.00000000000E+00  0.00000000000E+00  0.45593999997E+02  0.45594000000E+02  0.51100000000E-03 0.  1.
         11   -1    0    0    0    0 -0.00000000000E+00 -0.00000000000E+00 -0.45593999997E+02  0.45594000000E+02  0.51100000000E-03 0. -1.
    9900012    2    1    2    0    0  0.20109303984E+02  0.79999032014E+00  0.40299992541E+02  0.46142317742E+02  0.99999998298E+01 0.  0.
         12    1    1    2    0    0 -0.20109303984E+02 -0.79999032014E+00 -0.40299992541E+02  0.45045682258E+02  0.00000000000E+00 0. -1.
         11    1    3    3    0    0  0.82202136479E+01  0.36041050526E+00  0.20106693547E+02  0.21725122181E+02  0.51100000000E-03 0. -1.
        -11    1    3    3    0    0  0.10088627131E+02  0.28216080311E+01  0.17500926657E+02  0.20396673831E+02  0.51100000000E-03 0.  1.
         12    1    3    3    0    0  0.18004632050E+01 -0.23820282163E+01  0.26923723373E+01  0.40205217296E+01  0.00000000000E+00 0. -1.
</event>
<event>
 7    1  0.1485408E-008  0.4614232E+02  0.7816164E-02  0.1320468E+00
        -11   -1    0    0    0    0  0.00000000000E+00  0.00000000000E+00  0.45593999997E+02  0.45594000000E+02  0.51100000000E-03 0. -1.
         11   -1    0    0    0    0 -0.00000000000E+00 -0.00000000000E+00 -0.45593999997E+02  0.45594000000E+02  0.51100000000E-03 0.  1.
    9900012    2    1    2    0    0  0.35673362731E+02 -0.12528710252E+02 -0.24485832590E+02  0.46142318889E+02  0.10000010284E+02 0.  0.
         12    1    1    2    0    0 -0.35673362731E+02  0.12528710252E+02  0.24485832590E+02  0.45045681111E+02  0.00000000000E+00 0. -1.
         11    1    3    3    0    0  0.89700503252E+01 -0.76522688312E+00 -0.37008205619E+01  0.97336246132E+01  0.51100000000E-03 0. -1.
        -11    1    3    3    0    0  0.20615357642E+02 -0.59944647385E+01 -0.14127900123E+02  0.25700664201E+02  0.51100000000E-03 0.  1.
         12    1    3    3    0    0  0.60879547634E+01 -0.57690186304E+01 -0.66571119055E+01  0.10708030075E+02  0.00000000000E+00 0. -1.
</event>
<event>
 7    1  0.1485408E-008  0.4614232E+02  0.7816164E-02  0.1320468E+00
        -11   -1    0    0    0    0  0.00000000000E+00  0.00000000000E+00  0.45593999997E+02  0.45594000000E+02  0.51100000000E-03 0. -1.
         11   -1    0    0    0    0 -0.00000000000E+00 -0.00000000000E+00 -0.45593999997E+02  0.45594000000E+02  0.51100000000E-03 0.  1.
    9900012    2    1    2    0    0  0.20414315182E+02  0.34944251229E+02 -0.19780509557E+02  0.46142317447E+02  0.99999971355E+01 0.  0.
         12    1    1    2    0    0 -0.20414315182E+02 -0.34944251229E+02  0.19780509557E+02  0.45045682553E+02  0.00000000000E+00 0. -1.
         11    1    3    3    0    0  0.94815440845E+01  0.12724301513E+02 -0.34808811992E+01  0.16245739792E+02  0.51100000000E-03 0. -1.
        -11    1    3    3    0    0  0.18190274718E+01  0.67712484249E+01 -0.33287560437E+01  0.77613969899E+01  0.51100000000E-03 0.  1.
         12    1    3    3    0    0  0.91137436259E+01  0.15448701292E+02 -0.12970872314E+02  0.22135180665E+02  0.00000000000E+00 0. -1.
</event>
<event>
 7    1  0.1485408E-008  0.4614232E+02  0.7816164E-02  0.1320468E+00
        -11   -1    0    0    0    0  0.00000000000E+00  0.00000000000E+00  0.45593999997E+02  0.45594000000E+02  0.51100000000E-03 0.  1.
         11   -1    0    0    0    0 -0.00000000000E+00 -0.00000000000E+00 -0.45593999997E+02  0.45594000000E+02  0.51100000000E-03 0. -1.
    9900012    2    1    2    0    0  0.35055707719E+00 -0.25391050963E+02  0.37205982636E+02  0.46142317597E+02  0.99999985007E+01 0.  0.
         12    1    1    2    0    0 -0.35055707719E+00  0.25391050963E+02 -0.37205982636E+02  0.45045682403E+02  0.00000000000E+00 0. -1.
         11    1    3    3    0    0 -0.21154572470E+01 -0.26112711306E+01  0.43106203857E+01  0.54658343052E+01  0.51100000000E-03 0. -1.
        -11    1    3    3    0    0  0.26417445620E-01 -0.10562341954E+02  0.20717897195E+02  0.23255000105E+02  0.51100000000E-03 0.  1.
         12    1    3    3    0    0  0.24395968785E+01 -0.12217437879E+02  0.12177465055E+02  0.17421483187E+02  0.00000000000E+00 0. -1.
</event>
<event>
 7    1  0.1611603E-008  0.4614232E+02  0.7816164E-02  0.1320468E+00
        -11   -1    0    0    0    0  0.00000000000E+00  0.00000000000E+00  0.45593999997E+02  0.45594000000E+02  0.51100000000E-03 0. -1.
         11   -1    0    0    0    0 -0.00000000000E+00 -0.00000000000E+00 -0.45593999997E+02  0.45594000000E+02  0.51100000000E-03 0.  1.
    9900012    2    1    2    0    0 -0.19501896367E+02 -0.14812311636E+02 -0.37807207142E+02  0.46142318189E+02  0.10000003903E+02 0.  0.
         12    1    1    2    0    0  0.19501896367E+02  0.14812311636E+02  0.37807207142E+02  0.45045681811E+02  0.00000000000E+00 0. -1.
         11    1    3    3    0    0 -0.12488994270E+00 -0.16543122369E+01 -0.81166285808E+01  0.82844436298E+01  0.51100000000E-03 0. -1.
        -11    1    3    3    0    0 -0.15527682165E+02 -0.99125127291E+01 -0.24096594640E+02  0.30331711055E+02  0.51100000000E-03 0.  1.
         12    1    3    3    0    0 -0.38493242594E+01 -0.32454866701E+01 -0.55939839216E+01  0.75261635044E+01  0.00000000000E+00 0. -1.
</event>
<event>
 7    1  0.1485408E-008  0.4614232E+02  0.7816164E-02  0.1320468E+00
        -11   -1    0    0    0    0  0.00000000000E+00  0.00000000000E+00  0.45593999997E+02  0.45594000000E+02  0.51100000000E-03 0.  1.
         11   -1    0    0    0    0 -0.00000000000E+00 -0.00000000000E+00 -0.45593999997E+02  0.45594000000E+02  0.51100000000E-03 0. -1.
    9900012    2    1    2    0    0 -0.14904960233E+02  0.17283493662E+01  0.42473150127E+02  0.46142317490E+02  0.99999975277E+01 0.  0.
         12    1    1    2    0    0  0.14904960233E+02 -0.17283493662E+01 -0.42473150127E+02  0.45045682510E+02  0.00000000000E+00 0. -1.
         11    1    3    3    0    0  0.68131842076E+00  0.10506198077E+01  0.10282362614E+01  0.16202675215E+01  0.51100000000E-03 0. -1.
        -11    1    3    3    0    0 -0.78611535232E+01 -0.37562954564E+00  0.14833329971E+02  0.16791858461E+02  0.51100000000E-03 0.  1.
         12    1    3    3    0    0 -0.77251251309E+01  0.10533591042E+01  0.26611583895E+02  0.27730191508E+02  0.00000000000E+00 0. -1.
</event>
<event>
 7    1  0.1485408E-008  0.4614232E+02  0.7816164E-02  0.1320468E+00
        -11   -1    0    0    0    0  0.00000000000E+00  0.00000000000E+00  0.45593999997E+02  0.45594000000E+02  0.51100000000E-03 0. -1.
         11   -1    0    0    0    0 -0.00000000000E+00 -0.00000000000E+00 -0.45593999997E+02  0.45594000000E+02  0.51100000000E-03 0.  1.
    9900012    2    1    2    0    0  0.34436888225E+02  0.28655456174E+02 -0.46988219046E+01  0.46142319114E+02  0.10000012336E+02 0.  0.
         12    1    1    2    0    0 -0.34436888225E+02 -0.28655456174E+02  0.46988219046E+01  0.45045680886E+02  0.00000000000E+00 0. -1.
         11    1    3    3    0    0  0.18846909968E+02  0.16486311692E+02 -0.71237100509E+00  0.25050188847E+02  0.51100000000E-03 0. -1.
        -11    1    3    3    0    0  0.56605091475E+01  0.82132192329E+01 -0.26464046511E+01  0.10319970534E+02  0.51100000000E-03 0.  1.
        -12    1    3    3    0    0  0.99294691095E+01  0.39559252498E+01 -0.13400462484E+01  0.10772159734E+02  0.00000000000E+00 0.  1.
</event>
<event>
 7    1  0.1485408E-008  0.4614232E+02  0.7816164E-02  0.1320468E+00
        -11   -1    0    0    0    0  0.00000000000E+00  0.00000000000E+00  0.45593999997E+02  0.45594000000E+02  0.51100000000E-03 0. -1.
         11   -1    0    0    0    0 -0.00000000000E+00 -0.00000000000E+00 -0.45593999997E+02  0.45594000000E+02  0.51100000000E-03 0.  1.
    9900012    2    1    2    0    0  0.27019477244E+02 -0.18624505778E+02 -0.30857562111E+02  0.46142317571E+02  0.99999982702E+01 0.  0.
         12    1    1    2    0    0 -0.27019477244E+02  0.18624505778E+02  0.30857562111E+02  0.45045682429E+02  0.00000000000E+00 0. -1.
         11    1    3    3    0    0  0.85942278197E+01 -0.75178567383E+01 -0.14990131469E+02  0.18843645175E+02  0.51100000000E-03 0. -1.
        -11    1    3    3    0    0  0.15991988615E+02 -0.11154116572E+02 -0.12562271358E+02  0.23194151812E+02  0.51100000000E-03 0.  1.
         12    1    3    3    0    0  0.24332608092E+01  0.47467532033E-01 -0.33051592842E+01  0.41045205842E+01  0.00000000000E+00 0. -1.
</event>
<event>
 7    1  0.1485408E-008  0.4614232E+02  0.7816164E-02  0.1320468E+00
        -11   -1    0    0    0    0  0.00000000000E+00  0.00000000000E+00  0.45593999997E+02  0.45594000000E+02  0.51100000000E-03 0.  1.
         11   -1    0    0    0    0 -0.00000000000E+00 -0.00000000000E+00 -0.45593999997E+02  0.45594000000E+02  0.51100000000E-03 0. -1.
    9900012    2    1    2    0    0  0.19069726345E+02  0.15010890975E+02  0.37949072804E+02  0.46142318326E+02  0.10000005153E+02 0.  0.
         12    1    1    2    0    0 -0.19069726345E+02 -0.15010890975E+02 -0.37949072804E+02  0.45045681674E+02  0.00000000000E+00 0. -1.
         11    1    3    3    0    0  0.37994539254E+01  0.46411485415E+01  0.10461932426E+02  0.12059359032E+02  0.51100000000E-03 0. -1.
        -11    1    3    3    0    0  0.15225816497E+02  0.10488094303E+02  0.22621660015E+02  0.29215836667E+02  0.51100000000E-03 0.  1.
        -12    1    3    3    0    0  0.44455922814E-01 -0.11835186891E+00  0.48654803637E+01  0.48671226267E+01  0.00000000000E+00 0.  1.
</event>
<event>
 7    1  0.1485408E-008  0.4614232E+02  0.7816164E-02  0.1320468E+00
        -11   -1    0    0    0    0  0.00000000000E+00  0.00000000000E+00  0.45593999997E+02  0.45594000000E+02  0.51100000000E-03 0. -1.
         11   -1    0    0    0    0 -0.00000000000E+00 -0.00000000000E+00 -0.45593999997E+02  0.45594000000E+02  0.51100000000E-03 0.  1.
    9900012    2    1    2    0    0 -0.42770578660E+02 -0.70995748709E+00 -0.14116904870E+02  0.46142318280E+02  0.10000004729E+02 0.  0.
         12    1    1    2    0    0  0.42770578660E+02  0.70995748709E+00  0.14116904870E+02  0.45045681720E+02  0.00000000000E+00 0. -1.
         11    1    3    3    0    0 -0.12675869105E+02 -0.30728862363E+01 -0.57497321860E+01  0.14254111963E+02  0.51100000000E-03 0. -1.
        -11    1    3    3    0    0 -0.25410557432E+02  0.12978783140E+01 -0.91140560326E+01  0.27026781805E+02  0.51100000000E-03 0.  1.
         12    1    3    3    0    0 -0.46841521232E+01  0.10650504353E+01  0.74688334882E+00  0.48614245114E+01  0.00000000000E+00 0. -1.
</event>
<event>
 7    1  0.1485408E-008  0.4614232E+02  0.7816164E-02  0.1320468E+00
        -11   -1    0    0    0    0  0.00000000000E+00  0.00000000000E+00  0.45593999997E+02  0.45594000000E+02  0.51100000000E-03 0. -1.
         11   -1    0    0    0    0 -0.00000000000E+00 -0.00000000000E+00 -0.45593999997E+02  0.45594000000E+02  0.51100000000E-03 0.  1.
    9900012    2    1    2    0    0 -0.11768666438E+01 -0.44937740146E+02 -0.28858281730E+01  0.46142317535E+02  0.99999979390E+01 0.  0.
         12    1    1    2    0    0  0.11768666438E+01  0.44937740146E+02  0.28858281730E+01  0.45045682465E+02  0.00000000000E+00 0. -1.
         11    1    3    3    0    0 -0.22434728452E+01 -0.30468802532E+01  0.52744609462E+00  0.38203205792E+01  0.51100000000E-03 0. -1.
        -11    1    3    3    0    0 -0.19295379212E+01 -0.18664354679E+02 -0.16865232948E+01  0.18839469559E+02  0.51100000000E-03 0.  1.
        -12    1    3    3    0    0  0.29961441226E+01 -0.23226505213E+02 -0.17267509728E+01  0.23482527397E+02  0.00000000000E+00 0.  1.
</event>
<event>
 7    1  0.1485408E-008  0.4614231E+02  0.7816164E-02  0.1320468E+00
        -11   -1    0    0    0    0  0.00000000000E+00  0.00000000000E+00  0.45593999997E+02  0.45594000000E+02  0.51100000000E-03 0.  1.
         11   -1    0    0    0    0 -0.00000000000E+00 -0.00000000000E+00 -0.45593999997E+02  0.45594000000E+02  0.51100000000E-03 0. -1.
    9900012    2    1    2    0    0  0.68042241973E+01  0.36976641406E+02  0.24810165093E+02  0.46142314651E+02  0.99999716410E+01 0.  0.
         12    1    1    2    0    0 -0.68042241973E+01 -0.36976641406E+02 -0.24810165093E+02  0.45045685349E+02  0.00000000000E+00 0. -1.
         11    1    3    3    0    0  0.44323909174E+01  0.23542761859E+02  0.13386008214E+02  0.27442538902E+02  0.51100000000E-03 0. -1.
        -11    1    3    3    0    0  0.29436258390E+01  0.13789728391E+02  0.10629279427E+02  0.17657947887E+02  0.51100000000E-03 0.  1.
         12    1    3    3    0    0 -0.57179255911E+00 -0.35584884448E+00  0.79487745249E+00  0.10418278626E+01  0.00000000000E+00 0. -1.
</event>
<event>
 7    1  0.1485408E-008  0.4614232E+02  0.7816164E-02  0.1320468E+00
        -11   -1    0    0    0    0  0.00000000000E+00  0.00000000000E+00  0.45593999997E+02  0.45594000000E+02  0.51100000000E-03 0.  1.
         11   -1    0    0    0    0 -0.00000000000E+00 -0.00000000000E+00 -0.45593999997E+02  0.45594000000E+02  0.51100000000E-03 0. -1.
    9900012    2    1    2    0    0  0.27518329793E+02  0.52617431511E+01  0.35272783441E+02  0.46142315775E+02  0.99999818930E+01 0.  0.
         12    1    1    2    0    0 -0.27518329793E+02 -0.52617431511E+01 -0.35272783441E+02  0.45045684225E+02  0.00000000000E+00 0. -1.
         11    1    3    3    0    0  0.14720251211E+02  0.15179553956E+00  0.17024269809E+02  0.22506323564E+02  0.51100000000E-03 0. -1.
        -11    1    3    3    0    0  0.68109308905E+01  0.20545518431E+01  0.13944590861E+02  0.15654442737E+02  0.51100000000E-03 0.  1.
         12    1    3    3    0    0  0.59871476917E+01  0.30553957685E+01  0.43039227711E+01  0.79815494738E+01  0.00000000000E+00 0. -1.
</event>
<event>
 7    1  0.1485408E-008  0.4614232E+02  0.7816164E-02  0.1320468E+00
        -11   -1    0    0    0    0  0.00000000000E+00  0.00000000000E+00  0.45593999997E+02  0.45594000000E+02  0.51100000000E-03 0.  1.
         11   -1    0    0    0    0 -0.00000000000E+00 -0.00000000000E+00 -0.45593999997E+02  0.45594000000E+02  0.51100000000E-03 0. -1.
    9900012    2    1    2    0    0  0.38206755159E+02 -0.21578617216E+02 -0.10184333805E+02  0.46142317457E+02  0.99999972258E+01 0.  0.
         12    1    1    2    0    0 -0.38206755159E+02  0.21578617216E+02  0.10184333805E+02  0.45045682543E+02  0.00000000000E+00 0. -1.
         11    1    3    3    0    0  0.16041173512E+02 -0.45564108983E+01 -0.64799680991E+01  0.17890503480E+02  0.51100000000E-03 0. -1.
        -11    1    3    3    0    0  0.13062345922E+02 -0.10061545977E+02 -0.12729525354E+01  0.16537230628E+02  0.51100000000E-03 0.  1.
         12    1    3    3    0    0  0.91032357245E+01 -0.69606603409E+01 -0.24314131704E+01  0.11714583349E+02  0.00000000000E+00 0. -1.
</event>
<event>
 7    1  0.1485408E-008  0.4614232E+02  0.7816164E-02  0.1320468E+00
        -11   -1    0    0    0    0  0.00000000000E+00  0.00000000000E+00  0.45593999997E+02  0.45594000000E+02  0.51100000000E-03 0.  1.
         11   -1    0    0    0    0 -0.00000000000E+00 -0.00000000000E+00 -0.45593999997E+02  0.45594000000E+02  0.51100000000E-03 0. -1.
    9900012    2    1    2    0    0 -0.41768798018E+02  0.39152992622E+01  0.16405835930E+02  0.46142317534E+02  0.99999979328E+01 0.  0.
         12    1    1    2    0    0  0.41768798018E+02 -0.39152992622E+01 -0.16405835930E+02  0.45045682466E+02  0.00000000000E+00 0. -1.
         11    1    3    3    0    0 -0.19385494128E+01  0.76898685745E+00  0.35387357057E+01  0.41075497889E+01  0.51100000000E-03 0. -1.
        -11    1    3    3    0    0 -0.24457088816E+02  0.29512281887E+01  0.83329888106E+01  0.26005723292E+02  0.51100000000E-03 0.  1.
         12    1    3    3    0    0 -0.15373159790E+02  0.19508421612E+00  0.45341114142E+01  0.16029044453E+02  0.00000000000E+00 0. -1.
</event>
<event>
 7    1  0.1485408E-008  0.4614232E+02  0.7816164E-02  0.1320468E+00
        -11   -1    0    0    0    0  0.00000000000E+00  0.00000000000E+00  0.45593999997E+02  0.45594000000E+02  0.51100000000E-03 0. -1.
         11   -1    0    0    0    0 -0.00000000000E+00 -0.00000000000E+00 -0.45593999997E+02  0.45594000000E+02  0.51100000000E-03 0.  1.
    9900012    2    1    2    0    0 -0.36984037897E+02 -0.24793543422E+02  0.68245605108E+01  0.46142317845E+02  0.10000000768E+02 0.  0.
         12    1    1    2    0    0  0.36984037897E+02  0.24793543422E+02 -0.68245605108E+01  0.45045682155E+02  0.00000000000E+00 0. -1.
         11    1    3    3    0    0 -0.22841329228E+02 -0.15394424821E+02  0.89322725154E+01  0.28956866699E+02  0.51100000000E-03 0. -1.
        -11    1    3    3    0    0 -0.79441515141E+01 -0.54448601484E+01 -0.19772287998E+01  0.98318604192E+01  0.51100000000E-03 0.  1.
         12    1    3    3    0    0 -0.61985571548E+01 -0.39542584523E+01 -0.13048320481E+00  0.73535907267E+01  0.00000000000E+00 0. -1.
</event>
<event>
 7    1  0.1485408E-008  0.4614232E+02  0.7816164E-02  0.1320468E+00
        -11   -1    0    0    0    0  0.00000000000E+00  0.00000000000E+00  0.45593999997E+02  0.45594000000E+02  0.51100000000E-03 0.  1.
         11   -1    0    0    0    0 -0.00000000000E+00 -0.00000000000E+00 -0.45593999997E+02  0.45594000000E+02  0.51100000000E-03 0. -1.
    9900012    2    1    2    0    0  0.13903527383E+02 -0.67191155975E+01  0.42316177689E+02  0.46142317829E+02  0.10000000618E+02 0.  0.
         12    1    1    2    0    0 -0.13903527383E+02  0.67191155975E+01 -0.42316177689E+02  0.45045682171E+02  0.00000000000E+00 0. -1.
         11    1    3    3    0    0  0.84193878687E+01 -0.55977230951E+01  0.16746516624E+02  0.19561861242E+02  0.51100000000E-03 0. -1.
        -11    1    3    3    0    0  0.43410056429E+01  0.37416271483E+00  0.22918419195E+02  0.23328914813E+02  0.51100000000E-03 0.  1.
        -12    1    3    3    0    0  0.11431338709E+01 -0.14955552173E+01  0.26512418695E+01  0.32515417735E+01  0.00000000000E+00 0.  1.
</event>
<event>
 7    1  0.1485408E-008  0.4614232E+02  0.7816164E-02  0.1320468E+00
        -11   -1    0    0    0    0  0.00000000000E+00  0.00000000000E+00  0.45593999997E+02  0.45594000000E+02  0.51100000000E-03 0. -1.
         11   -1    0    0    0    0 -0.00000000000E+00 -0.00000000000E+00 -0.45593999997E+02  0.45594000000E+02  0.51100000000E-03 0.  1.
    9900012    2    1    2    0    0  0.85334038845E+01 -0.43298359850E+02 -0.90303127695E+01  0.46142317674E+02  0.99999992015E+01 0.  0.
         12    1    1    2    0    0 -0.85334038845E+01  0.43298359850E+02  0.90303127695E+01  0.45045682326E+02  0.00000000000E+00 0. -1.
         11    1    3    3    0    0  0.12197301863E+01 -0.49127100923E+01  0.15094011269E+01  0.52821164510E+01  0.51100000000E-03 0. -1.
        -11    1    3    3    0    0  0.42271741559E+01 -0.32686840723E+02 -0.94610426268E+01  0.34290084364E+02  0.51100000000E-03 0.  1.
        -12    1    3    3    0    0  0.30864995423E+01 -0.56988090341E+01 -0.10786712696E+01  0.65701168589E+01  0.00000000000E+00 0.  1.
</event>
<event>
 7    1  0.1485408E-008  0.4614232E+02  0.7816164E-02  0.1320468E+00
        -11   -1    0    0    0    0  0.00000000000E+00  0.00000000000E+00  0.45593999997E+02  0.45594000000E+02  0.51100000000E-03 0.  1.
         11   -1    0    0    0    0 -0.00000000000E+00 -0.00000000000E+00 -0.45593999997E+02  0.45594000000E+02  0.51100000000E-03 0. -1.
    9900012    2    1    2    0    0 -0.83580121066E+01  0.55232100753E+01  0.43917549421E+02  0.46142319152E+02  0.10000012682E+02 0.  0.
         12    1    1    2    0    0  0.83580121066E+01 -0.55232100753E+01 -0.43917549421E+02  0.45045680848E+02  0.00000000000E+00 0. -1.
         11    1    3    3    0    0  0.45208672872E+00 -0.10054111303E+01  0.61421895525E+00  0.12619426046E+01  0.51100000000E-03 0. -1.
        -11    1    3    3    0    0 -0.63341379122E+01  0.68102200701E+01  0.34283286765E+02  0.35522445752E+02  0.51100000000E-03 0.  1.
         12    1    3    3    0    0 -0.24759609231E+01 -0.28159886456E+00  0.90200437009E+01  0.93579307958E+01  0.00000000000E+00 0. -1.
</event>
<event>
 7    1  0.1485408E-008  0.4614232E+02  0.7816164E-02  0.1320468E+00
        -11   -1    0    0    0    0  0.00000000000E+00  0.00000000000E+00  0.45593999997E+02  0.45594000000E+02  0.51100000000E-03 0.  1.
         11   -1    0    0    0    0 -0.00000000000E+00 -0.00000000000E+00 -0.45593999997E+02  0.45594000000E+02  0.51100000000E-03 0. -1.
    9900012    2    1    2    0    0 -0.38611901506E+02 -0.14820349732E+02 -0.17849139051E+02  0.46142317977E+02  0.10000001965E+02 0.  0.
         12    1    1    2    0    0  0.38611901506E+02  0.14820349732E+02  0.17849139051E+02  0.45045682023E+02  0.00000000000E+00 0. -1.
         11    1    3    3    0    0 -0.13304112067E+02 -0.57466128798E+01 -0.10775264220E+02  0.18059049719E+02  0.51100000000E-03 0. -1.
        -11    1    3    3    0    0 -0.17162442505E+02 -0.80502765892E+01 -0.53127715265E+01  0.19687100535E+02  0.51100000000E-03 0.  1.
         12    1    3    3    0    0 -0.81453469335E+01 -0.10234602632E+01 -0.17611033042E+01  0.83961677225E+01  0.00000000000E+00 0. -1.
</event>
<event>
 7    1  0.1485408E-008  0.4614232E+02  0.7816164E-02  0.1320468E+00
        -11   -1    0    0    0    0  0.00000000000E+00  0.00000000000E+00  0.45593999997E+02  0.45594000000E+02  0.51100000000E-03 0.  1.
         11   -1    0    0    0    0 -0.00000000000E+00 -0.00000000000E+00 -0.45593999997E+02  0.45594000000E+02  0.51100000000E-03 0. -1.
    9900012    2    1    2    0    0 -0.11415196694E+02 -0.31712814911E+02  0.29884847198E+02  0.46142318329E+02  0.10000005183E+02 0.  0.
         12    1    1    2    0    0  0.11415196694E+02  0.31712814911E+02 -0.29884847198E+02  0.45045681671E+02  0.00000000000E+00 0. -1.
         11    1    3    3    0    0 -0.10810563356E+01 -0.80522793581E+01  0.83145903973E+01  0.11624985996E+02  0.51100000000E-03 0. -1.
        -11    1    3    3    0    0 -0.46158962255E+01 -0.29945781648E+01  0.46095662387E+01  0.71778894893E+01  0.51100000000E-03 0.  1.
        -12    1    3    3    0    0 -0.57182441326E+01 -0.20665957388E+02  0.16960690561E+02  0.27339442845E+02  0.00000000000E+00 0.  1.
</event>
<event>
 7    1  0.1485408E-008  0.4614232E+02  0.7816164E-02  0.1320468E+00
        -11   -1    0    0    0    0  0.00000000000E+00  0.00000000000E+00  0.45593999997E+02  0.45594000000E+02  0.51100000000E-03 0.  1.
         11   -1    0    0    0    0 -0.00000000000E+00 -0.00000000000E+00 -0.45593999997E+02  0.45594000000E+02  0.51100000000E-03 0. -1.
    9900012    2    1    2    0    0 -0.43059086539E+02  0.11973110471E+01  0.13175546343E+02  0.46142317534E+02  0.99999979322E+01 0.  0.
         12    1    1    2    0    0  0.43059086539E+02 -0.11973110471E+01 -0.13175546343E+02  0.45045682466E+02  0.00000000000E+00 0. -1.
         11    1    3    3    0    0 -0.33262142813E+02  0.30016214013E+01  0.11366443757E+02  0.35278547582E+02  0.51100000000E-03 0. -1.
        -11    1    3    3    0    0 -0.98735448496E+01 -0.11730321713E+01  0.21034515112E+01  0.10163040927E+02  0.51100000000E-03 0.  1.
         12    1    3    3    0    0  0.76601123574E-01 -0.63127818292E+00 -0.29434892488E+00  0.70072902462E+00  0.00000000000E+00 0. -1.
</event>
<event>
 7    1  0.1485408E-008  0.4614231E+02  0.7816164E-02  0.1320468E+00
        -11   -1    0    0    0    0  0.00000000000E+00  0.00000000000E+00  0.45593999997E+02  0.45594000000E+02  0.51100000000E-03 0.  1.
         11   -1    0    0    0    0 -0.00000000000E+00 -0.00000000000E+00 -0.45593999997E+02  0.45594000000E+02  0.51100000000E-03 0. -1.
    9900012    2    1    2    0    0  0.25110336828E+02  0.27432463674E+02  0.25417420145E+02  0.46142308468E+02  0.99999152535E+01 0.  0.
         12    1    1    2    0    0 -0.25110336828E+02 -0.27432463674E+02 -0.25417420145E+02  0.45045691532E+02  0.00000000000E+00 0. -1.
         11    1    3    3    0    0  0.83085094248E+01  0.74515374816E+01  0.51206182755E+01  0.12279147832E+02  0.51100000000E-03 0. -1.
        -11    1    3    3    0    0  0.12390621847E+02  0.18556710525E+02  0.18110902673E+02  0.28738194292E+02  0.51100000000E-03 0.  1.
        -12    1    3    3    0    0  0.44112055565E+01  0.14242156675E+01  0.21858991959E+01  0.51249663437E+01  0.00000000000E+00 0.  1.
</event>
<event>
 7    1  0.1485408E-008  0.4614232E+02  0.7816164E-02  0.1320468E+00
        -11   -1    0    0    0    0  0.00000000000E+00  0.00000000000E+00  0.45593999997E+02  0.45594000000E+02  0.51100000000E-03 0. -1.
         11   -1    0    0    0    0 -0.00000000000E+00 -0.00000000000E+00 -0.45593999997E+02  0.45594000000E+02  0.51100000000E-03 0.  1.
    9900012    2    1    2    0    0 -0.40039271323E+02  0.88260052317E+01 -0.18656681417E+02  0.46142318987E+02  0.10000011181E+02 0.  0.
         12    1    1    2    0    0  0.40039271323E+02 -0.88260052317E+01  0.18656681417E+02  0.45045681013E+02  0.00000000000E+00 0. -1.
         11    1    3    3    0    0 -0.21815816516E+02  0.93125707041E+01 -0.10639402216E+02  0.25997128748E+02  0.51100000000E-03 0. -1.
        -11    1    3    3    0    0 -0.30507852799E+01  0.94175084380E+00 -0.19557248443E+01  0.37442015709E+01  0.51100000000E-03 0.  1.
         12    1    3    3    0    0 -0.15172669527E+02 -0.14283163162E+01 -0.60615543572E+01  0.16400988668E+02  0.00000000000E+00 0. -1.
</event>
<event>
 7    1  0.1485408E-008  0.4614232E+02  0.7816164E-02  0.1320468E+00
        -11   -1    0    0    0    0  0.00000000000E+00  0.00000000000E+00  0.45593999997E+02  0.45594000000E+02  0.51100000000E-03 0.  1.
         11   -1    0    0    0    0 -0.00000000000E+00 -0.00000000000E+00 -0.45593999997E+02  0.45594000000E+02  0.51100000000E-03 0. -1.
    9900012    2    1    2    0    0  0.16362708001E+02 -0.27889704768E+02  0.31361435807E+02  0.46142317620E+02  0.99999987117E+01 0.  0.
         12    1    1    2    0    0 -0.16362708001E+02  0.27889704768E+02 -0.31361435807E+02  0.45045682380E+02  0.00000000000E+00 0. -1.
         11    1    3    3    0    0  0.34892079848E+01 -0.19985504118E+01  0.51499637469E+01  0.65338275891E+01  0.51100000000E-03 0. -1.
        -11    1    3    3    0    0  0.12475947532E+02 -0.24809696470E+02  0.26537480594E+02  0.38411042452E+02  0.51100000000E-03 0.  1.
         12    1    3    3    0    0  0.39755248400E+00 -0.10814578870E+01 -0.32600853346E+00  0.11974475783E+01  0.00000000000E+00 0. -1.
</event>
<event>
 7    1  0.1485408E-008  0.4614232E+02  0.7816164E-02  0.1320468E+00
        -11   -1    0    0    0    0  0.00000000000E+00  0.00000000000E+00  0.45593999997E+02  0.45594000000E+02  0.51100000000E-03 0.  1.
         11   -1    0    0    0    0 -0.00000000000E+00 -0.00000000000E+00 -0.45593999997E+02  0.45594000000E+02  0.51100000000E-03 0. -1.
    9900012    2    1    2    0    0 -0.25583250015E+02 -0.25596180433E+02  0.26822498322E+02  0.46142317074E+02  0.99999937314E+01 0.  0.
         12    1    1    2    0    0  0.25583250015E+02  0.25596180433E+02 -0.26822498322E+02  0.45045682926E+02  0.00000000000E+00 0. -1.
         11    1    3    3    0    0  0.32350190006E+00 -0.24859424637E+01  0.16154945822E+01  0.29823457913E+01  0.51100000000E-03 0. -1.
        -11    1    3    3    0    0 -0.99763215393E+01 -0.92729937097E+01  0.71253920868E+01  0.15371617236E+02  0.51100000000E-03 0.  1.
        -12    1    3    3    0    0 -0.15930430375E+02 -0.13837244259E+02  0.18081611653E+02  0.27788354046E+02  0.00000000000E+00 0.  1.
</event>
<event>
 7    1  0.1485408E-008  0.4614232E+02  0.7816164E-02  0.1320468E+00
        -11   -1    0    0    0    0  0.00000000000E+00  0.00000000000E+00  0.45593999997E+02  0.45594000000E+02  0.51100000000E-03 0.  1.
         11   -1    0    0    0    0 -0.00000000000E+00 -0.00000000000E+00 -0.45593999997E+02  0.45594000000E+02  0.51100000000E-03 0. -1.
    9900012    2    1    2    0    0 -0.27668595944E+02  0.96308977577E+01  0.34217073544E+02  0.46142317465E+02  0.99999972977E+01 0.  0.
         12    1    1    2    0    0  0.27668595944E+02 -0.96308977577E+01 -0.34217073544E+02  0.45045682535E+02  0.00000000000E+00 0. -1.
         11    1    3    3    0    0 -0.44744861412E+01  0.43275613494E+01  0.11142280504E+02  0.12763198210E+02  0.51100000000E-03 0. -1.
        -11    1    3    3    0    0 -0.19872431318E+02  0.58068368199E+01  0.19026349004E+02  0.28118229621E+02  0.51100000000E-03 0.  1.
         12    1    3    3    0    0 -0.33216784844E+01 -0.50350041169E+00  0.40484440373E+01  0.52608896340E+01  0.00000000000E+00 0. -1.
</event>
<event>
 7    1  0.1485408E-008  0.4614232E+02  0.7816164E-02  0.1320468E+00
        -11   -1    0    0    0    0  0.00000000000E+00  0.00000000000E+00  0.45593999997E+02  0.45594000000E+02  0.51100000000E-03 0.  1.
         11   -1    0    0    0    0 -0.00000000000E+00 -0.00000000000E+00 -0.45593999997E+02  0.45594000000E+02  0.51100000000E-03 0. -1.
    9900012    2    1    2    0    0 -0.27685282769E+02 -0.14740463663E+02  0.32331985614E+02  0.46142318245E+02  0.10000004416E+02 0.  0.
         12    1    1    2    0    0  0.27685282769E+02  0.14740463663E+02 -0.32331985614E+02  0.45045681755E+02  0.00000000000E+00 0. -1.
         11    1    3    3    0    0 -0.19862074587E+02 -0.60414467700E+01  0.18762863098E+02  0.27982961206E+02  0.51100000000E-03 0. -1.
        -11    1    3    3    0    0 -0.37284102881E+01 -0.20444153896E+01  0.46051849904E+01  0.62680464755E+01  0.51100000000E-03 0.  1.
         12    1    3    3    0    0 -0.40947978936E+01 -0.66546015034E+01  0.89639375256E+01  0.11891310564E+02  0.00000000000E+00 0. -1.
</event>
<event>
 7    1  0.1485408E-008  0.4614232E+02  0.7816164E-02  0.1320468E+00
        -11   -1    0    0    0    0  0.00000000000E+00  0.00000000000E+00  0.45593999997E+02  0.45594000000E+02  0.51100000000E-03 0.  1.
         11   -1    0    0    0    0 -0.00000000000E+00 -0.00000000000E+00 -0.45593999997E+02  0.45594000000E+02  0.51100000000E-03 0. -1.
    9900012    2    1    2    0    0  0.17969185985E+02  0.32989213285E+02  0.24858271464E+02  0.46142317651E+02  0.99999989916E+01 0.  0.
         12    1    1    2    0    0 -0.17969185985E+02 -0.32989213285E+02 -0.24858271464E+02  0.45045682349E+02  0.00000000000E+00 0. -1.
         11    1    3    3    0    0  0.90961014057E+00 -0.32560824123E+00  0.34132306265E+00  0.10246526381E+01  0.51100000000E-03 0. -1.
        -11    1    3    3    0    0  0.15297835923E+02  0.24484855673E+02  0.18635751471E+02  0.34363107752E+02  0.51100000000E-03 0.  1.
        -12    1    3    3    0    0  0.17617399219E+01  0.88299658538E+01  0.58811969302E+01  0.10754557260E+02  0.00000000000E+00 0.  1.
</event>
<event>
 7    1  0.1485408E-008  0.4614231E+02  0.7816164E-02  0.1320468E+00
        -11   -1    0    0    0    0  0.00000000000E+00  0.00000000000E+00  0.45593999997E+02  0.45594000000E+02  0.51100000000E-03 0.  1.
         11   -1    0    0    0    0 -0.00000000000E+00 -0.00000000000E+00 -0.45593999997E+02  0.45594000000E+02  0.51100000000E-03 0. -1.
    9900012    2    1    2    0    0 -0.37998076620E+02  0.15587454364E+02  0.18501115908E+02  0.46142313744E+02  0.99999633725E+01 0.  0.
         12    1    1    2    0    0  0.37998076620E+02 -0.15587454364E+02 -0.18501115908E+02  0.45045686256E+02  0.00000000000E+00 0. -1.
         11    1    3    3    0    0 -0.32255310656E+01  0.13557501148E+01 -0.24491317462E-01  0.34989582899E+01  0.51100000000E-03 0. -1.
        -11    1    3    3    0    0 -0.12672973622E+02  0.11591782940E+01  0.57647448931E+01  0.13970692134E+02  0.51100000000E-03 0.  1.
        -12    1    3    3    0    0 -0.22099571932E+02  0.13072525955E+02  0.12760862333E+02  0.28672663321E+02  0.00000000000E+00 0.  1.
</event>
<event>
 7    1  0.1485408E-008  0.4614232E+02  0.7816164E-02  0.1320468E+00
        -11   -1    0    0    0    0  0.00000000000E+00  0.00000000000E+00  0.45593999997E+02  0.45594000000E+02  0.51100000000E-03 0.  1.
         11   -1    0    0    0    0 -0.00000000000E+00 -0.00000000000E+00 -0.45593999997E+02  0.45594000000E+02  0.51100000000E-03 0. -1.
    9900012    2    1    2    0    0 -0.10807005350E+02 -0.16636233501E+02  0.40442030510E+02  0.46142318059E+02  0.10000002721E+02 0.  0.
         12    1    1    2    0    0  0.10807005350E+02  0.16636233501E+02 -0.40442030510E+02  0.45045681941E+02  0.00000000000E+00 0. -1.
         11    1    3    3    0    0 -0.23387904782E+01 -0.55031523890E+01  0.15997519663E+02  0.17078502942E+02  0.51100000000E-03 0.  1.
        -11    1    3    3    0    0 -0.43224887942E+01 -0.10826255599E+01  0.44087855700E+01  0.62684430237E+01  0.51100000000E-03 0. -1.
         12    1    3    3    0    0 -0.41457260781E+01 -0.10050455552E+02  0.20035725277E+02  0.22795372094E+02  0.00000000000E+00 0. -1.
</event>
<event>
 7    1  0.1485408E-008  0.4614232E+02  0.7816164E-02  0.1320468E+00
        -11   -1    0    0    0    0  0.00000000000E+00  0.00000000000E+00  0.45593999997E+02  0.45594000000E+02  0.51100000000E-03 0.  1.
         11   -1    0    0    0    0 -0.00000000000E+00 -0.00000000000E+00 -0.45593999997E+02  0.45594000000E+02  0.51100000000E-03 0. -1.
    9900012    2    1    2    0    0  0.32156675062E+02 -0.30733929974E+02  0.71054467371E+01  0.46142316788E+02  0.99999911280E+01 0.  0.
         12    1    1    2    0    0 -0.32156675062E+02  0.30733929974E+02 -0.71054467371E+01  0.45045683212E+02  0.00000000000E+00 0. -1.
         11    1    3    3    0    0  0.14387774000E+01  0.62047648121E+00  0.77042473912E+00  0.17460315032E+01  0.51100000000E-03 0. -1.
        -11    1    3    3    0    0  0.20315337867E+02 -0.20166739780E+02  0.32272337368E+01  0.28806689915E+02  0.51100000000E-03 0.  1.
         12    1    3    3    0    0  0.10402559795E+02 -0.11187666675E+02  0.31077882611E+01  0.15589595370E+02  0.00000000000E+00 0. -1.
</event>
<event>
 7    1  0.1485408E-008  0.4614232E+02  0.7816164E-02  0.1320468E+00
        -11   -1    0    0    0    0  0.00000000000E+00  0.00000000000E+00  0.45593999997E+02  0.45594000000E+02  0.51100000000E-03 0.  1.
         11   -1    0    0    0    0 -0.00000000000E+00 -0.00000000000E+00 -0.45593999997E+02  0.45594000000E+02  0.51100000000E-03 0. -1.
    9900012    2    1    2    0    0 -0.88678160037E+01 -0.26989372957E+02  0.34957818816E+02  0.46142317524E+02  0.99999978420E+01 0.  0.
         12    1    1    2    0    0  0.88678160037E+01  0.26989372957E+02 -0.34957818816E+02  0.45045682476E+02  0.00000000000E+00 0. -1.
         11    1    3    3    0    0 -0.58537298574E+01 -0.19902958413E+02  0.24371350523E+02  0.32005571912E+02  0.51100000000E-03 0. -1.
        -11    1    3    3    0    0 -0.39726671971E+01 -0.58723206599E+01  0.10388472383E+02  0.12577225183E+02  0.51100000000E-03 0.  1.
         12    1    3    3    0    0  0.95858105084E+00 -0.12140938842E+01  0.19799591091E+00  0.15595204299E+01  0.00000000000E+00 0. -1.
</event>
<event>
 7    1  0.1485408E-008  0.4614232E+02  0.7816164E-02  0.1320468E+00
        -11   -1    0    0    0    0  0.00000000000E+00  0.00000000000E+00  0.45593999997E+02  0.45594000000E+02  0.51100000000E-03 0.  1.
         11   -1    0    0    0    0 -0.00000000000E+00 -0.00000000000E+00 -0.45593999997E+02  0.45594000000E+02  0.51100000000E-03 0. -1.
    9900012    2    1    2    0    0 -0.10361459851E+02  0.13803453242E+02  0.41607913305E+02  0.46142316286E+02  0.99999865476E+01 0.  0.
         12    1    1    2    0    0  0.10361459851E+02 -0.13803453242E+02 -0.41607913305E+02  0.45045683714E+02  0.00000000000E+00 0. -1.
         11    1    3    3    0    0 -0.62489197465E+01  0.59022241532E+01  0.24857220492E+02  0.26301457351E+02  0.51100000000E-03 0.  1.
        -11    1    3    3    0    0 -0.93202144361E-01  0.17612279418E+01  0.24930951829E+00  0.17812259823E+01  0.51100000000E-03 0. -1.
        -12    1    3    3    0    0 -0.40193379604E+01  0.61400011470E+01  0.16501383295E+02  0.18059632952E+02  0.00000000000E+00 0.  1.
</event>
<event>
 7    1  0.1485408E-008  0.4614232E+02  0.7816164E-02  0.1320468E+00
        -11   -1    0    0    0    0  0.00000000000E+00  0.00000000000E+00  0.45593999997E+02  0.45594000000E+02  0.51100000000E-03 0. -1.
         11   -1    0    0    0    0 -0.00000000000E+00 -0.00000000000E+00 -0.45593999997E+02  0.45594000000E+02  0.51100000000E-03 0.  1.
    9900012    2    1    2    0    0 -0.37663655728E+02  0.19943961636E+02 -0.14587689569E+02  0.46142320346E+02  0.10000023572E+02 0.  0.
         12    1    1    2    0    0  0.37663655728E+02 -0.19943961636E+02  0.14587689569E+02  0.45045679654E+02  0.00000000000E+00 0. -1.
         11    1    3    3    0    0 -0.25268319944E+02  0.15229871439E+02 -0.11223196386E+02  0.31565758572E+02  0.51100000000E-03 0. -1.
        -11    1    3    3    0    0 -0.80073737895E+01  0.41498255077E+01 -0.58101595183E-03  0.90188185117E+01  0.51100000000E-03 0.  1.
         12    1    3    3    0    0 -0.43879619940E+01  0.56426468946E+00 -0.33639121672E+01  0.55577432622E+01  0.00000000000E+00 0. -1.
</event>
<event>
 7    1  0.1485408E-008  0.4614232E+02  0.7816164E-02  0.1320468E+00
        -11   -1    0    0    0    0  0.00000000000E+00  0.00000000000E+00  0.45593999997E+02  0.45594000000E+02  0.51100000000E-03 0.  1.
         11   -1    0    0    0    0 -0.00000000000E+00 -0.00000000000E+00 -0.45593999997E+02  0.45594000000E+02  0.51100000000E-03 0. -1.
    9900012    2    1    2    0    0 -0.26199141010E+01 -0.16735290933E+02  0.41739424916E+02  0.46142317578E+02  0.99999983315E+01 0.  0.
         12    1    1    2    0    0  0.26199141010E+01  0.16735290933E+02 -0.41739424916E+02  0.45045682422E+02  0.00000000000E+00 0. -1.
         11    1    3    3    0    0 -0.17195128823E+01 -0.75429182090E+01  0.86669829738E+01  0.11617613085E+02  0.51100000000E-03 0. -1.
        -11    1    3    3    0    0  0.72891268529E+00 -0.28860291367E+01  0.15516418178E+02  0.15799357937E+02  0.51100000000E-03 0.  1.
         12    1    3    3    0    0 -0.16293139040E+01 -0.63063435869E+01  0.17556023765E+02  0.18725346557E+02  0.00000000000E+00 0. -1.
</event>
<event>
 7    1  0.1485408E-008  0.4614232E+02  0.7816164E-02  0.1320468E+00
        -11   -1    0    0    0    0  0.00000000000E+00  0.00000000000E+00  0.45593999997E+02  0.45594000000E+02  0.51100000000E-03 0.  1.
         11   -1    0    0    0    0 -0.00000000000E+00 -0.00000000000E+00 -0.45593999997E+02  0.45594000000E+02  0.51100000000E-03 0. -1.
    9900012    2    1    2    0    0 -0.18902729660E+02 -0.39222508716E+02 -0.11549676787E+02  0.46142318603E+02  0.10000007680E+02 0.  0.
         12    1    1    2    0    0  0.18902729660E+02  0.39222508716E+02  0.11549676787E+02  0.45045681397E+02  0.00000000000E+00 0. -1.
         11    1    3    3    0    0  0.34376146203E+00  0.12918264239E+00 -0.75898955612E+00  0.84316398481E+00  0.51100000000E-03 0. -1.
        -11    1    3    3    0    0 -0.76533664643E+01 -0.14915256099E+02 -0.61513476848E+01  0.17857154346E+02  0.51100000000E-03 0.  1.
        -12    1    3    3    0    0 -0.11593124658E+02 -0.24436435260E+02 -0.46393395457E+01  0.27442000273E+02  0.00000000000E+00 0.  1.
</event>
<event>
 7    1  0.1485408E-008  0.4614232E+02  0.7816164E-02  0.1320468E+00
        -11   -1    0    0    0    0  0.00000000000E+00  0.00000000000E+00  0.45593999997E+02  0.45594000000E+02  0.51100000000E-03 0. -1.
         11   -1    0    0    0    0 -0.00000000000E+00 -0.00000000000E+00 -0.45593999997E+02  0.45594000000E+02  0.51100000000E-03 0.  1.
    9900012    2    1    2    0    0 -0.27974764158E+02 -0.37222335946E+01 -0.35109415798E+02  0.46142317296E+02  0.99999957572E+01 0.  0.
         12    1    1    2    0    0  0.27974764158E+02  0.37222335946E+01  0.35109415798E+02  0.45045682704E+02  0.00000000000E+00 0. -1.
         11    1    3    3    0    0 -0.16754309212E+02 -0.61401621369E+01 -0.18638366808E+02  0.25803046056E+02  0.51100000000E-03 0. -1.
        -11    1    3    3    0    0 -0.10963190893E+02  0.22342650197E+01 -0.16582527892E+02  0.20004092738E+02  0.51100000000E-03 0.  1.
         12    1    3    3    0    0 -0.25726405284E+00  0.18366352254E+00  0.11147890194E+00  0.33517850166E+00  0.00000000000E+00 0. -1.
</event>
<event>
 7    1  0.1485408E-008  0.4614232E+02  0.7816164E-02  0.1320468E+00
        -11   -1    0    0    0    0  0.00000000000E+00  0.00000000000E+00  0.45593999997E+02  0.45594000000E+02  0.51100000000E-03 0. -1.
         11   -1    0    0    0    0 -0.00000000000E+00 -0.00000000000E+00 -0.45593999997E+02  0.45594000000E+02  0.51100000000E-03 0.  1.
    9900012    2    1    2    0    0 -0.27231374396E+02 -0.29114936561E+02 -0.20973464832E+02  0.46142317527E+02  0.99999978614E+01 0.  0.
         12    1    1    2    0    0  0.27231374396E+02  0.29114936561E+02  0.20973464832E+02  0.45045682473E+02  0.00000000000E+00 0. -1.
         11    1    3    3    0    0 -0.39622628337E+01 -0.98983825640E+01 -0.50286742847E+01  0.11788344645E+02  0.51100000000E-03 0. -1.
        -11    1    3    3    0    0 -0.23136457718E+02 -0.19031112981E+02 -0.16161608113E+02  0.34039337744E+02  0.51100000000E-03 0.  1.
        -12    1    3    3    0    0 -0.13265384426E+00 -0.18544101664E+00  0.21681756552E+00  0.31463513753E+00  0.00000000000E+00 0.  1.
</event>
<event>
 7    1  0.1485408E-008  0.4614232E+02  0.7816164E-02  0.1320468E+00
        -11   -1    0    0    0    0  0.00000000000E+00  0.00000000000E+00  0.45593999997E+02  0.45594000000E+02  0.51100000000E-03 0. -1.
         11   -1    0    0    0    0 -0.00000000000E+00 -0.00000000000E+00 -0.45593999997E+02  0.45594000000E+02  0.51100000000E-03 0.  1.
    9900012    2    1    2    0    0  0.40119742046E+02 -0.14527303246E+02 -0.14438743360E+02  0.46142317063E+02  0.99999936339E+01 0.  0.
         12    1    1    2    0    0 -0.40119742046E+02  0.14527303246E+02  0.14438743360E+02  0.45045682937E+02  0.00000000000E+00 0. -1.
         11    1    3    3    0    0  0.16447608656E+02 -0.34964668229E+01 -0.31865021333E+01  0.17114406412E+02  0.51100000000E-03 0. -1.
        -11    1    3    3    0    0  0.15515987475E+02 -0.40839757883E+01 -0.68050195460E+01  0.17427937825E+02  0.51100000000E-03 0.  1.
         12    1    3    3    0    0  0.81561459158E+01 -0.69468606351E+01 -0.44472216806E+01  0.11599972826E+02  0.00000000000E+00 0. -1.
</event>
<event>
 7    1  0.1485408E-008  0.4614232E+02  0.7816164E-02  0.1320468E+00
        -11   -1    0    0    0    0  0.00000000000E+00  0.00000000000E+00  0.45593999997E+02  0.45594000000E+02  0.51100000000E-03 0.  1.
         11   -1    0    0    0    0 -0.00000000000E+00 -0.00000000000E+00 -0.45593999997E+02  0.45594000000E+02  0.51100000000E-03 0. -1.
    9900012    2    1    2    0    0 -0.29114895029E+02  0.30072733217E+02  0.16645335143E+02  0.46142316769E+02  0.99999909570E+01 0.  0.
         12    1    1    2    0    0  0.29114895029E+02 -0.30072733217E+02 -0.16645335143E+02  0.45045683231E+02  0.00000000000E+00 0. -1.
         11    1    3    3    0    0 -0.68580495628E+01  0.10389536881E+02  0.82816831887E+01  0.14951976361E+02  0.51100000000E-03 0. -1.
        -11    1    3    3    0    0 -0.16546023088E+02  0.16297205349E+02  0.79150195321E+01  0.24536041178E+02  0.51100000000E-03 0.  1.
        -12    1    3    3    0    0 -0.57108223785E+01  0.33859909869E+01  0.44863242229E+00  0.66542992307E+01  0.00000000000E+00 0.  1.
</event>
<event>
 7    1  0.1485408E-008  0.4614232E+02  0.7816164E-02  0.1320468E+00
        -11   -1    0    0    0    0  0.00000000000E+00  0.00000000000E+00  0.45593999997E+02  0.45594000000E+02  0.51100000000E-03 0. -1.
         11   -1    0    0    0    0 -0.00000000000E+00 -0.00000000000E+00 -0.45593999997E+02  0.45594000000E+02  0.51100000000E-03 0.  1.
    9900012    2    1    2    0    0  0.31180136423E+02  0.96811691174E+01 -0.31035262077E+02  0.46142318353E+02  0.10000005399E+02 0.  0.
         12    1    1    2    0    0 -0.31180136423E+02 -0.96811691174E+01  0.31035262077E+02  0.45045681647E+02  0.00000000000E+00 0. -1.
         11    1    3    3    0    0  0.18023093669E+02  0.96513371940E+00 -0.15603903893E+02  0.23858860104E+02  0.51100000000E-03 0. -1.
        -11    1    3    3    0    0  0.50693625019E+01  0.28842000706E+01 -0.77358173649E+01  0.96881327812E+01  0.51100000000E-03 0.  1.
         12    1    3    3    0    0  0.80876802516E+01  0.58318353274E+01 -0.76955408189E+01  0.12595325468E+02  0.00000000000E+00 0. -1.
</event>
<event>
 7    1  0.1485408E-008  0.4614232E+02  0.7816164E-02  0.1320468E+00
        -11   -1    0    0    0    0  0.00000000000E+00  0.00000000000E+00  0.45593999997E+02  0.45594000000E+02  0.51100000000E-03 0.  1.
         11   -1    0    0    0    0 -0.00000000000E+00 -0.00000000000E+00 -0.45593999997E+02  0.45594000000E+02  0.51100000000E-03 0. -1.
    9900012    2    1    2    0    0 -0.19520999631E+01 -0.50174580143E+01  0.44722790750E+02  0.46142316615E+02  0.99999895457E+01 0.  0.
         12    1    1    2    0    0  0.19520999631E+01  0.50174580143E+01 -0.44722790750E+02  0.45045683385E+02  0.00000000000E+00 0. -1.
         11    1    3    3    0    0 -0.36079767209E+01 -0.97617473228E+00  0.65594243474E+01  0.75496000661E+01  0.51100000000E-03 0. -1.
        -11    1    3    3    0    0  0.21429459427E+01 -0.27455294251E+01  0.34519770575E+02  0.34695024282E+02  0.51100000000E-03 0.  1.
         12    1    3    3    0    0 -0.48706918484E+00 -0.12957538570E+01  0.36435958276E+01  0.38976922664E+01  0.00000000000E+00 0. -1.
</event>
<event>
 7    1  0.1485408E-008  0.4614232E+02  0.7816164E-02  0.1320468E+00
        -11   -1    0    0    0    0  0.00000000000E+00  0.00000000000E+00  0.45593999997E+02  0.45594000000E+02  0.51100000000E-03 0.  1.
         11   -1    0    0    0    0 -0.00000000000E+00 -0.00000000000E+00 -0.45593999997E+02  0.45594000000E+02  0.51100000000E-03 0. -1.
    9900012    2    1    2    0    0  0.37655095134E+01  0.44164158618E+02  0.80287953017E+01  0.46142317384E+02  0.99999965587E+01 0.  0.
         12    1    1    2    0    0 -0.37655095134E+01 -0.44164158618E+02 -0.80287953017E+01  0.45045682616E+02  0.00000000000E+00 0. -1.
         11    1    3    3    0    0 -0.27878431942E+01  0.10686888549E+02  0.33150278654E+01  0.11531308102E+02  0.51100000000E-03 0. -1.
        -11    1    3    3    0    0  0.69169505238E+01  0.31866329806E+02  0.41788017080E+01  0.32875059906E+02  0.51100000000E-03 0.  1.
        -12    1    3    3    0    0 -0.36359781611E+00  0.16109402634E+01  0.53496572831E+00  0.17359493756E+01  0.00000000000E+00 0.  1.
</event>
<event>
 7    1  0.1485408E-008  0.4614232E+02  0.7816164E-02  0.1320468E+00
        -11   -1    0    0    0    0  0.00000000000E+00  0.00000000000E+00  0.45593999997E+02  0.45594000000E+02  0.51100000000E-03 0.  1.
         11   -1    0    0    0    0 -0.00000000000E+00 -0.00000000000E+00 -0.45593999997E+02  0.45594000000E+02  0.51100000000E-03 0. -1.
    9900012    2    1    2    0    0 -0.15961397649E+02 -0.60556171308E+01  0.41685450457E+02  0.46142317703E+02  0.99999994717E+01 0.  0.
         12    1    1    2    0    0  0.15961397649E+02  0.60556171308E+01 -0.41685450457E+02  0.45045682297E+02  0.00000000000E+00 0. -1.
         11    1    3    3    0    0 -0.26371296093E+00 -0.34643750109E+00  0.31341733377E-01  0.43651578814E+00  0.51100000000E-03 0. -1.
        -11    1    3    3    0    0 -0.16587047184E+02 -0.49823776502E+01  0.40628666694E+02  0.44166081771E+02  0.51100000000E-03 0.  1.
        -12    1    3    3    0    0  0.88936249613E+00 -0.72680197948E+00  0.10254420296E+01  0.15397201444E+01  0.00000000000E+00 0.  1.
</event>
<event>
 7    1  0.1485408E-008  0.4614232E+02  0.7816164E-02  0.1320468E+00
        -11   -1    0    0    0    0  0.00000000000E+00  0.00000000000E+00  0.45593999997E+02  0.45594000000E+02  0.51100000000E-03 0.  1.
         11   -1    0    0    0    0 -0.00000000000E+00 -0.00000000000E+00 -0.45593999997E+02  0.45594000000E+02  0.51100000000E-03 0. -1.
    9900012    2    1    2    0    0 -0.13199290879E+02 -0.38004578633E+02  0.20261891012E+02  0.46142317586E+02  0.99999984047E+01 0.  0.
         12    1    1    2    0    0  0.13199290879E+02  0.38004578633E+02 -0.20261891012E+02  0.45045682414E+02  0.00000000000E+00 0. -1.
         11    1    3    3    0    0 -0.66169808198E+01 -0.17531226568E+02  0.14595088640E+02  0.23751735785E+02  0.51100000000E-03 0. -1.
        -11    1    3    3    0    0 -0.22019175529E+01 -0.66874699186E+01  0.60975094107E+00  0.70670001622E+01  0.51100000000E-03 0.  1.
         12    1    3    3    0    0 -0.43803925061E+01 -0.13785882147E+02  0.50570514301E+01  0.15323581639E+02  0.00000000000E+00 0. -1.
</event>
<event>
 7    1  0.1485408E-008  0.4614232E+02  0.7816164E-02  0.1320468E+00
        -11   -1    0    0    0    0  0.00000000000E+00  0.00000000000E+00  0.45593999997E+02  0.45594000000E+02  0.51100000000E-03 0. -1.
         11   -1    0    0    0    0 -0.00000000000E+00 -0.00000000000E+00 -0.45593999997E+02  0.45594000000E+02  0.51100000000E-03 0.  1.
    9900012    2    1    2    0    0 -0.11705196024E+02  0.35298877487E+02 -0.25418313096E+02  0.46142323110E+02  0.10000048779E+02 0.  0.
         12    1    1    2    0    0  0.11705196024E+02 -0.35298877487E+02  0.25418313096E+02  0.45045676890E+02  0.00000000000E+00 0. -1.
         11    1    3    3    0    0  0.42730277368E+00 -0.30565542965E+00 -0.63740494653E-01  0.52922208367E+00  0.51100000000E-03 0. -1.
        -11    1    3    3    0    0 -0.36868174041E+01  0.13703160919E+02 -0.12145407069E+02  0.18678333835E+02  0.51100000000E-03 0.  1.
        -12    1    3    3    0    0 -0.84456813938E+01  0.21901371998E+02 -0.13209165533E+02  0.26934767191E+02  0.00000000000E+00 0.  1.
</event>
<event>
 7    1  0.1485408E-008  0.4614232E+02  0.7816164E-02  0.1320468E+00
        -11   -1    0    0    0    0  0.00000000000E+00  0.00000000000E+00  0.45593999997E+02  0.45594000000E+02  0.51100000000E-03 0.  1.
         11   -1    0    0    0    0 -0.00000000000E+00 -0.00000000000E+00 -0.45593999997E+02  0.45594000000E+02  0.51100000000E-03 0. -1.
    9900012    2    1    2    0    0 -0.18315169906E+02 -0.25623532684E+02  0.32204079202E+02  0.46142316598E+02  0.99999893963E+01 0.  0.
         12    1    1    2    0    0  0.18315169906E+02  0.25623532684E+02 -0.32204079202E+02  0.45045683402E+02  0.00000000000E+00 0. -1.
         11    1    3    3    0    0 -0.31577630212E+01 -0.35663191471E+00  0.25055546503E+01  0.40467836596E+01  0.51100000000E-03 0. -1.
        -11    1    3    3    0    0 -0.88978818688E+01 -0.14640339613E+02  0.13955224511E+02  0.22096609178E+02  0.51100000000E-03 0.  1.
        -12    1    3    3    0    0 -0.62595250158E+01 -0.10626561156E+02  0.15743300041E+02  0.19998923761E+02  0.00000000000E+00 0.  1.
</event>
<event>
 7    1  0.1485408E-008  0.4614232E+02  0.7816164E-02  0.1320468E+00
        -11   -1    0    0    0    0  0.00000000000E+00  0.00000000000E+00  0.45593999997E+02  0.45594000000E+02  0.51100000000E-03 0.  1.
         11   -1    0    0    0    0 -0.00000000000E+00 -0.00000000000E+00 -0.45593999997E+02  0.45594000000E+02  0.51100000000E-03 0. -1.
    9900012    2    1    2    0    0 -0.28394787266E+00 -0.52424378736E+01  0.44738684635E+02  0.46142315588E+02  0.99999801880E+01 0.  0.
         12    1    1    2    0    0  0.28394787266E+00  0.52424378736E+01 -0.44738684635E+02  0.45045684412E+02  0.00000000000E+00 0. -1.
         11    1    3    3    0    0  0.28106596333E+01 -0.27106391447E+01  0.87538892849E+01  0.95852986402E+01  0.51100000000E-03 0. -1.
        -11    1    3    3    0    0 -0.83186488012E+00 -0.17145130376E+01  0.30599302142E+02  0.30658585192E+02  0.51100000000E-03 0.  1.
        -12    1    3    3    0    0 -0.22627426259E+01 -0.81728569129E+00  0.53854932081E+01  0.58984317565E+01  0.00000000000E+00 0.  1.
</event>
<event>
 7    1  0.1485408E-008  0.4614232E+02  0.7816164E-02  0.1320468E+00
        -11   -1    0    0    0    0  0.00000000000E+00  0.00000000000E+00  0.45593999997E+02  0.45594000000E+02  0.51100000000E-03 0.  1.
         11   -1    0    0    0    0 -0.00000000000E+00 -0.00000000000E+00 -0.45593999997E+02  0.45594000000E+02  0.51100000000E-03 0. -1.
    9900012    2    1    2    0    0 -0.12947289731E+02  0.16667578454E+00  0.43144561781E+02  0.46142319813E+02  0.10000018711E+02 0.  0.
         12    1    1    2    0    0  0.12947289731E+02 -0.16667578454E+00 -0.43144561781E+02  0.45045680187E+02  0.00000000000E+00 0. -1.
         11    1    3    3    0    0 -0.44901466452E+01  0.12806105371E+01  0.10689939244E+02  0.11665169589E+02  0.51100000000E-03 0. -1.
        -11    1    3    3    0    0 -0.27321985259E+01 -0.42704972078E+01  0.15364445185E+02  0.16179253113E+02  0.51100000000E-03 0.  1.
         12    1    3    3    0    0 -0.57249445604E+01  0.31565624552E+01  0.17090177352E+02  0.18297897111E+02  0.00000000000E+00 0. -1.
</event>
<event>
 7    1  0.1485408E-008  0.4614232E+02  0.7816164E-02  0.1320468E+00
        -11   -1    0    0    0    0  0.00000000000E+00  0.00000000000E+00  0.45593999997E+02  0.45594000000E+02  0.51100000000E-03 0.  1.
         11   -1    0    0    0    0 -0.00000000000E+00 -0.00000000000E+00 -0.45593999997E+02  0.45594000000E+02  0.51100000000E-03 0. -1.
    9900012    2    1    2    0    0 -0.13924719325E+02 -0.22839257956E+02  0.36243399511E+02  0.46142317406E+02  0.99999967594E+01 0.  0.
         12    1    1    2    0    0  0.13924719325E+02  0.22839257956E+02 -0.36243399511E+02  0.45045682594E+02  0.00000000000E+00 0. -1.
         11    1    3    3    0    0 -0.14609042861E+01 -0.56546988871E+01  0.10039034567E+02  0.11614304807E+02  0.51100000000E-03 0. -1.
        -11    1    3    3    0    0 -0.87257657363E+01 -0.61688164017E+01  0.14639441185E+02  0.18124748880E+02  0.51100000000E-03 0.  1.
        -12    1    3    3    0    0 -0.37380493028E+01 -0.11015742667E+02  0.11564923758E+02  0.16403263719E+02  0.00000000000E+00 0.  1.
</event>
<event>
 7    1  0.1485408E-008  0.4614232E+02  0.7816164E-02  0.1320468E+00
        -11   -1    0    0    0    0  0.00000000000E+00  0.00000000000E+00  0.45593999997E+02  0.45594000000E+02  0.51100000000E-03 0.  1.
         11   -1    0    0    0    0 -0.00000000000E+00 -0.00000000000E+00 -0.45593999997E+02  0.45594000000E+02  0.51100000000E-03 0. -1.
    9900012    2    1    2    0    0 -0.19789117609E+02 -0.26612055807E+02  0.30484468912E+02  0.46142317245E+02  0.99999952948E+01 0.  0.
         12    1    1    2    0    0  0.19789117609E+02  0.26612055807E+02 -0.30484468912E+02  0.45045682755E+02  0.00000000000E+00 0. -1.
         11    1    3    3    0    0  0.40558904789E+00 -0.39099115860E+01  0.22395196729E+01  0.45240866164E+01  0.51100000000E-03 0. -1.
        -11    1    3    3    0    0 -0.19615123654E+02 -0.22240613076E+02  0.28119269677E+02  0.40866750218E+02  0.51100000000E-03 0.  1.
         12    1    3    3    0    0 -0.57958300300E+00 -0.46153114486E+00  0.12567956166E+00  0.75148041043E+00  0.00000000000E+00 0. -1.
</event>
<event>
 7    1  0.1485408E-008  0.4614232E+02  0.7816164E-02  0.1320468E+00
        -11   -1    0    0    0    0  0.00000000000E+00  0.00000000000E+00  0.45593999997E+02  0.45594000000E+02  0.51100000000E-03 0.  1.
         11   -1    0    0    0    0 -0.00000000000E+00 -0.00000000000E+00 -0.45593999997E+02  0.45594000000E+02  0.51100000000E-03 0. -1.
    9900012    2    1    2    0    0 -0.47286623673E+01  0.36583444521E+00  0.44795305216E+02  0.46142318165E+02  0.10000003683E+02 0.  0.
         12    1    1    2    0    0  0.47286623673E+01 -0.36583444521E+00 -0.44795305216E+02  0.45045681835E+02  0.00000000000E+00 0. -1.
         11    1    3    3    0    0 -0.47856077859E+01  0.78254735712E+00  0.31328946872E+02  0.31702008368E+02  0.51100000000E-03 0. -1.
        -11    1    3    3    0    0 -0.10127615781E+01 -0.31556801017E+00  0.13312704623E+02  0.13354900742E+02  0.51100000000E-03 0.  1.
         12    1    3    3    0    0  0.10697069967E+01 -0.10114490174E+00  0.15365372075E+00  0.10854090546E+01  0.00000000000E+00 0. -1.
</event>
<event>
 7    1  0.1485408E-008  0.4614232E+02  0.7816164E-02  0.1320468E+00
        -11   -1    0    0    0    0  0.00000000000E+00  0.00000000000E+00  0.45593999997E+02  0.45594000000E+02  0.51100000000E-03 0.  1.
         11   -1    0    0    0    0 -0.00000000000E+00 -0.00000000000E+00 -0.45593999997E+02  0.45594000000E+02  0.51100000000E-03 0. -1.
    9900012    2    1    2    0    0  0.18002648311E+02 -0.33675205590E+02  0.23895576350E+02  0.46142318888E+02  0.10000010279E+02 0.  0.
         12    1    1    2    0    0 -0.18002648311E+02  0.33675205590E+02 -0.23895576350E+02  0.45045681112E+02  0.00000000000E+00 0. -1.
         11    1    3    3    0    0  0.29046582906E+01 -0.13244977385E+01  0.32976640868E+01  0.45897628191E+01  0.51100000000E-03 0. -1.
        -11    1    3    3    0    0  0.11382147718E+02 -0.28708167735E+02  0.17461668061E+02  0.35477063479E+02  0.51100000000E-03 0.  1.
        -12    1    3    3    0    0  0.37158423029E+01 -0.36425401163E+01  0.31362442016E+01  0.60754925900E+01  0.00000000000E+00 0.  1.
</event>
<event>
 7    1  0.1485408E-008  0.4614232E+02  0.7816164E-02  0.1320468E+00
        -11   -1    0    0    0    0  0.00000000000E+00  0.00000000000E+00  0.45593999997E+02  0.45594000000E+02  0.51100000000E-03 0.  1.
         11   -1    0    0    0    0 -0.00000000000E+00 -0.00000000000E+00 -0.45593999997E+02  0.45594000000E+02  0.51100000000E-03 0. -1.
    9900012    2    1    2    0    0 -0.48578368891E+01 -0.28914011196E+02  0.34197877978E+02  0.46142317845E+02  0.10000000761E+02 0.  0.
         12    1    1    2    0    0  0.48578368891E+01  0.28914011196E+02 -0.34197877978E+02  0.45045682155E+02  0.00000000000E+00 0. -1.
         11    1    3    3    0    0 -0.52781974433E+01 -0.13763395025E+02  0.19458851475E+02  0.24411827294E+02  0.51100000000E-03 0. -1.
        -11    1    3    3    0    0  0.91958125093E+00 -0.12877105949E+02  0.14462703679E+02  0.19386471707E+02  0.51100000000E-03 0.  1.
         12    1    3    3    0    0 -0.49922069674E+00 -0.22735102218E+01  0.27632282397E+00  0.23440188429E+01  0.00000000000E+00 0. -1.
</event>
<event>
 7    1  0.1485408E-008  0.4614231E+02  0.7816164E-02  0.1320468E+00
        -11   -1    0    0    0    0  0.00000000000E+00  0.00000000000E+00  0.45593999997E+02  0.45594000000E+02  0.51100000000E-03 0.  1.
         11   -1    0    0    0    0 -0.00000000000E+00 -0.00000000000E+00 -0.45593999997E+02  0.45594000000E+02  0.51100000000E-03 0. -1.
    9900012    2    1    2    0    0 -0.94296140354E+01 -0.15889419331E+02  0.41081902657E+02  0.46142312154E+02  0.99999488737E+01 0.  0.
         12    1    1    2    0    0  0.94296140354E+01  0.15889419331E+02 -0.41081902657E+02  0.45045687846E+02  0.00000000000E+00 0. -1.
         11    1    3    3    0    0 -0.70863026422E+01 -0.55564112445E+01  0.26341076589E+02  0.27837774824E+02  0.51100000000E-03 0. -1.
        -11    1    3    3    0    0 -0.25029194705E+01 -0.66300334743E+01  0.87500152589E+01  0.11259871981E+02  0.51100000000E-03 0.  1.
         12    1    3    3    0    0  0.15960807736E+00 -0.37029746122E+01  0.59908108097E+01  0.70446653486E+01  0.00000000000E+00 0. -1.
</event>
<event>
 7    1  0.1485408E-008  0.4614232E+02  0.7816164E-02  0.1320468E+00
        -11   -1    0    0    0    0  0.00000000000E+00  0.00000000000E+00  0.45593999997E+02  0.45594000000E+02  0.51100000000E-03 0.  1.
         11   -1    0    0    0    0 -0.00000000000E+00 -0.00000000000E+00 -0.45593999997E+02  0.45594000000E+02  0.51100000000E-03 0. -1.
    9900012    2    1    2    0    0  0.38936574741E+02  0.21577481686E+02  0.68897710647E+01  0.46142317479E+02  0.99999974253E+01 0.  0.
         12    1    1    2    0    0 -0.38936574741E+02 -0.21577481686E+02 -0.68897710647E+01  0.45045682521E+02  0.00000000000E+00 0. -1.
         11    1    3    3    0    0  0.46921566649E+00  0.28973095403E+00 -0.35577948131E+00  0.65626722289E+00  0.51100000000E-03 0. -1.
        -11    1    3    3    0    0  0.33543076006E+02  0.14635879769E+02  0.65716029248E+01  0.37182427164E+02  0.51100000000E-03 0.  1.
        -12    1    3    3    0    0  0.49242830682E+01  0.66518709634E+01  0.67394762123E+00  0.83036230915E+01  0.00000000000E+00 0.  1.
</event>
<event>
 7    1  0.1485408E-008  0.4614232E+02  0.7816164E-02  0.1320468E+00
        -11   -1    0    0    0    0  0.00000000000E+00  0.00000000000E+00  0.45593999997E+02  0.45594000000E+02  0.51100000000E-03 0.  1.
         11   -1    0    0    0    0 -0.00000000000E+00 -0.00000000000E+00 -0.45593999997E+02  0.45594000000E+02  0.51100000000E-03 0. -1.
    9900012    2    1    2    0    0  0.28925595878E+02  0.15116022131E+02  0.31047205549E+02  0.46142321024E+02  0.10000029756E+02 0.  0.
         12    1    1    2    0    0 -0.28925595878E+02 -0.15116022131E+02 -0.31047205549E+02  0.45045678976E+02  0.00000000000E+00 0. -1.
         11    1    3    3    0    0  0.87678295343E+00  0.13743239733E+01 -0.92059468771E-01  0.16327859437E+01  0.51100000000E-03 0. -1.
        -11    1    3    3    0    0  0.10848314921E+02  0.57716232666E+01  0.16419519027E+02  0.20508490366E+02  0.51100000000E-03 0.  1.
         12    1    3    3    0    0  0.17200498003E+02  0.79700748909E+01  0.14719745991E+02  0.24001044714E+02  0.00000000000E+00 0. -1.
</event>
<event>
 7    1  0.1485408E-008  0.4614232E+02  0.7816164E-02  0.1320468E+00
        -11   -1    0    0    0    0  0.00000000000E+00  0.00000000000E+00  0.45593999997E+02  0.45594000000E+02  0.51100000000E-03 0.  1.
         11   -1    0    0    0    0 -0.00000000000E+00 -0.00000000000E+00 -0.45593999997E+02  0.45594000000E+02  0.51100000000E-03 0. -1.
    9900012    2    1    2    0    0  0.26423581148E+02  0.45068782979E+00  0.36478827037E+02  0.46142316719E+02  0.99999905009E+01 0.  0.
         12    1    1    2    0    0 -0.26423581148E+02 -0.45068782979E+00 -0.36478827037E+02  0.45045683281E+02  0.00000000000E+00 0. -1.
         11    1    3    3    0    0  0.63353224740E+01  0.51274069945E+00  0.12892629375E+02  0.14374251505E+02  0.51100000000E-03 0. -1.
        -11    1    3    3    0    0  0.15201112315E+02  0.90924525267E+00  0.21544945268E+02  0.26383426795E+02  0.51100000000E-03 0.  1.
        -12    1    3    3    0    0  0.48871463586E+01 -0.97129812234E+00  0.20412523940E+01  0.53846384195E+01  0.00000000000E+00 0.  1.
</event>
<event>
 7    1  0.1485408E-008  0.4614230E+02  0.7816164E-02  0.1320468E+00
        -11   -1    0    0    0    0  0.00000000000E+00  0.00000000000E+00  0.45593999997E+02  0.45594000000E+02  0.51100000000E-03 0.  1.
         11   -1    0    0    0    0 -0.00000000000E+00 -0.00000000000E+00 -0.45593999997E+02  0.45594000000E+02  0.51100000000E-03 0. -1.
    9900012    2    1    2    0    0 -0.19838437836E+02  0.40437854231E+02  0.57554962649E+00  0.46142301782E+02  0.99998542904E+01 0.  0.
         12    1    1    2    0    0  0.19838437836E+02 -0.40437854231E+02 -0.57554962649E+00  0.45045698218E+02  0.00000000000E+00 0. -1.
         11    1    3    3    0    0 -0.14926957475E+01  0.38912664566E+00 -0.12083464537E+01  0.19595054361E+01  0.51100000000E-03 0. -1.
        -11    1    3    3    0    0 -0.14493655782E+02  0.34122270894E+02  0.17558988212E+01  0.37114398956E+02  0.51100000000E-03 0.  1.
         12    1    3    3    0    0 -0.38520863071E+01  0.59264566904E+01  0.27997258999E-01  0.70683973903E+01  0.00000000000E+00 0. -1.
</event>
<event>
 7    1  0.1485408E-008  0.4614232E+02  0.7816164E-02  0.1320468E+00
        -11   -1    0    0    0    0  0.00000000000E+00  0.00000000000E+00  0.45593999997E+02  0.45594000000E+02  0.51100000000E-03 0.  1.
         11   -1    0    0    0    0 -0.00000000000E+00 -0.00000000000E+00 -0.45593999997E+02  0.45594000000E+02  0.51100000000E-03 0. -1.
    9900012    2    1    2    0    0 -0.35511007802E+02  0.81628475246E+00  0.27702265078E+02  0.46142317783E+02  0.10000000203E+02 0.  0.
         12    1    1    2    0    0  0.35511007802E+02 -0.81628475246E+00 -0.27702265078E+02  0.45045682217E+02  0.00000000000E+00 0. -1.
         11    1    3    3    0    0 -0.19296484590E+02 -0.31831284903E+01  0.13038956147E+02  0.23505339865E+02  0.51100000000E-03 0. -1.
        -11    1    3    3    0    0 -0.49074731511E+01 -0.67277688800E+00  0.34047570893E+01  0.60106815394E+01  0.51100000000E-03 0.  1.
         12    1    3    3    0    0 -0.11307050061E+02  0.46721901308E+01  0.11258551842E+02  0.16626296379E+02  0.00000000000E+00 0. -1.
</event>
<event>
 7    1  0.1485408E-008  0.4614232E+02  0.7816164E-02  0.1320468E+00
        -11   -1    0    0    0    0  0.00000000000E+00  0.00000000000E+00  0.45593999997E+02  0.45594000000E+02  0.51100000000E-03 0.  1.
         11   -1    0    0    0    0 -0.00000000000E+00 -0.00000000000E+00 -0.45593999997E+02  0.45594000000E+02  0.51100000000E-03 0. -1.
    9900012    2    1    2    0    0  0.19882860134E+02  0.75281279011E+01  0.39712879268E+02  0.46142316338E+02  0.99999870261E+01 0.  0.
         12    1    1    2    0    0 -0.19882860134E+02 -0.75281279011E+01 -0.39712879268E+02  0.45045683662E+02  0.00000000000E+00 0. -1.
         11    1    3    3    0    0  0.14629603077E+02  0.72139777722E+01  0.32860456495E+02  0.36686187630E+02  0.51100000000E-03 0. -1.
        -11    1    3    3    0    0  0.11558153544E+01  0.13011342637E+01  0.40133304837E+01  0.43744349735E+01  0.51100000000E-03 0.  1.
         12    1    3    3    0    0  0.40974417026E+01 -0.98698413483E+00  0.28390922889E+01  0.50816937347E+01  0.00000000000E+00 0. -1.
</event>
<event>
 7    1  0.1485408E-008  0.4614232E+02  0.7816164E-02  0.1320468E+00
        -11   -1    0    0    0    0  0.00000000000E+00  0.00000000000E+00  0.45593999997E+02  0.45594000000E+02  0.51100000000E-03 0.  1.
         11   -1    0    0    0    0 -0.00000000000E+00 -0.00000000000E+00 -0.45593999997E+02  0.45594000000E+02  0.51100000000E-03 0. -1.
    9900012    2    1    2    0    0  0.91364405340E+01 -0.42221518681E+02  0.12766451775E+02  0.46142317895E+02  0.10000001225E+02 0.  0.
         12    1    1    2    0    0 -0.91364405340E+01  0.42221518681E+02 -0.12766451775E+02  0.45045682105E+02  0.00000000000E+00 0. -1.
         11    1    3    3    0    0 -0.12633112193E+01 -0.12575945427E+02  0.29035072371E+01  0.12968450685E+02  0.51100000000E-03 0. -1.
        -11    1    3    3    0    0  0.88836329606E+01 -0.19760841790E+02  0.64100152638E+01  0.22594204982E+02  0.51100000000E-03 0.  1.
        -12    1    3    3    0    0  0.15161187927E+01 -0.98847314635E+01  0.34529292736E+01  0.10579662228E+02  0.00000000000E+00 0.  1.
</event>
<event>
 7    1  0.1485408E-008  0.4614232E+02  0.7816164E-02  0.1320468E+00
        -11   -1    0    0    0    0  0.00000000000E+00  0.00000000000E+00  0.45593999997E+02  0.45594000000E+02  0.51100000000E-03 0.  1.
         11   -1    0    0    0    0 -0.00000000000E+00 -0.00000000000E+00 -0.45593999997E+02  0.45594000000E+02  0.51100000000E-03 0. -1.
    9900012    2    1    2    0    0  0.41220325997E+02 -0.14965139945E+02 -0.10297708314E+02  0.46142317794E+02  0.10000000302E+02 0.  0.
         12    1    1    2    0    0 -0.41220325997E+02  0.14965139945E+02  0.10297708314E+02  0.45045682206E+02  0.00000000000E+00 0. -1.
         11    1    3    3    0    0  0.69909985539E+01 -0.48775292552E+00 -0.32789063627E+00  0.70156593580E+01  0.51100000000E-03 0. -1.
        -11    1    3    3    0    0  0.80470223960E+01 -0.65067973912E+01 -0.13711082769E+01  0.10439009527E+02  0.51100000000E-03 0.  1.
        -12    1    3    3    0    0  0.26182305047E+02 -0.79705896282E+01 -0.85987094008E+01  0.28687648910E+02  0.00000000000E+00 0.  1.
</event>
<event>
 7    1  0.1485408E-008  0.4614232E+02  0.7816164E-02  0.1320468E+00
        -11   -1    0    0    0    0  0.00000000000E+00  0.00000000000E+00  0.45593999997E+02  0.45594000000E+02  0.51100000000E-03 0. -1.
         11   -1    0    0    0    0 -0.00000000000E+00 -0.00000000000E+00 -0.45593999997E+02  0.45594000000E+02  0.51100000000E-03 0.  1.
    9900012    2    1    2    0    0 -0.15909456554E+02 -0.10745988992E+01 -0.42128943739E+02  0.46142317951E+02  0.10000001734E+02 0.  0.
         12    1    1    2    0    0  0.15909456554E+02  0.10745988992E+01  0.42128943739E+02  0.45045682049E+02  0.00000000000E+00 0. -1.
         11    1    3    3    0    0 -0.16351950379E+01 -0.32564122707E+01 -0.94520281549E+01  0.10130099713E+02  0.51100000000E-03 0. -1.
        -11    1    3    3    0    0 -0.13456227836E+02  0.74667691027E+00 -0.29443068626E+02  0.32380887640E+02  0.51100000000E-03 0.  1.
         12    1    3    3    0    0 -0.81803368070E+00  0.14351364612E+01 -0.32338469589E+01  0.36313305989E+01  0.00000000000E+00 0. -1.
</event>
<event>
 7    1  0.1485408E-008  0.4614232E+02  0.7816164E-02  0.1320468E+00
        -11   -1    0    0    0    0  0.00000000000E+00  0.00000000000E+00  0.45593999997E+02  0.45594000000E+02  0.51100000000E-03 0.  1.
         11   -1    0    0    0    0 -0.00000000000E+00 -0.00000000000E+00 -0.45593999997E+02  0.45594000000E+02  0.51100000000E-03 0. -1.
    9900012    2    1    2    0    0  0.20215765561E+02  0.36263789069E+02  0.17474950574E+02  0.46142317938E+02  0.10000001612E+02 0.  0.
         12    1    1    2    0    0 -0.20215765561E+02 -0.36263789069E+02 -0.17474950574E+02  0.45045682062E+02  0.00000000000E+00 0. -1.
         11    1    3    3    0    0  0.74027035627E+01  0.18070569643E+02  0.37362161647E+01  0.19882273984E+02  0.51100000000E-03 0. -1.
        -11    1    3    3    0    0  0.61280146475E+01  0.72864865512E+01  0.48701250248E+01  0.10694090321E+02  0.51100000000E-03 0.  1.
         12    1    3    3    0    0  0.66850473511E+01  0.10906732874E+02  0.88686093850E+01  0.15565953633E+02  0.00000000000E+00 0. -1.
</event>
<event>
 7    1  0.1485408E-008  0.4614232E+02  0.7816164E-02  0.1320468E+00
        -11   -1    0    0    0    0  0.00000000000E+00  0.00000000000E+00  0.45593999997E+02  0.45594000000E+02  0.51100000000E-03 0. -1.
         11   -1    0    0    0    0 -0.00000000000E+00 -0.00000000000E+00 -0.45593999997E+02  0.45594000000E+02  0.51100000000E-03 0.  1.
    9900012    2    1    2    0    0  0.40387323092E+02 -0.38879736823E+01 -0.19566838910E+02  0.46142318844E+02  0.10000009875E+02 0.  0.
         12    1    1    2    0    0 -0.40387323092E+02  0.38879736823E+01  0.19566838910E+02  0.45045681156E+02  0.00000000000E+00 0. -1.
         11    1    3    3    0    0  0.27553104590E+00  0.16254565784E+00  0.16803917267E+00  0.36135283700E+00  0.51100000000E-03 0. -1.
        -11    1    3    3    0    0  0.23904351521E+02 -0.68318204446E+01 -0.12155484857E+02  0.27673951734E+02  0.51100000000E-03 0.  1.
        -12    1    3    3    0    0  0.16207440525E+02  0.27813011045E+01 -0.75793932252E+01  0.18107014273E+02  0.00000000000E+00 0.  1.
</event>
<event>
 7    1  0.1485408E-008  0.4614232E+02  0.7816164E-02  0.1320468E+00
        -11   -1    0    0    0    0  0.00000000000E+00  0.00000000000E+00  0.45593999997E+02  0.45594000000E+02  0.51100000000E-03 0.  1.
         11   -1    0    0    0    0 -0.00000000000E+00 -0.00000000000E+00 -0.45593999997E+02  0.45594000000E+02  0.51100000000E-03 0. -1.
    9900012    2    1    2    0    0 -0.11773263017E+01  0.23987637561E+02  0.38109323353E+02  0.46142318971E+02  0.10000011031E+02 0.  0.
         12    1    1    2    0    0  0.11773263017E+01 -0.23987637561E+02 -0.38109323353E+02  0.45045681029E+02  0.00000000000E+00 0. -1.
         11    1    3    3    0    0  0.16366648977E+01  0.54373786899E+00  0.35504224940E+01  0.39471284505E+01  0.51100000000E-03 0. -1.
        -11    1    3    3    0    0 -0.32895924300E+01  0.22453808203E+02  0.30662136404E+02  0.38146579536E+02  0.51100000000E-03 0.  1.
        -12    1    3    3    0    0  0.47560123051E+00  0.99009148922E+00  0.38967644546E+01  0.40486109843E+01  0.00000000000E+00 0.  1.
</event>
<event>
 7    1  0.1485408E-008  0.4614232E+02  0.7816164E-02  0.1320468E+00
        -11   -1    0    0    0    0  0.00000000000E+00  0.00000000000E+00  0.45593999997E+02  0.45594000000E+02  0.51100000000E-03 0.  1.
         11   -1    0    0    0    0 -0.00000000000E+00 -0.00000000000E+00 -0.45593999997E+02  0.45594000000E+02  0.51100000000E-03 0. -1.
    9900012    2    1    2    0    0  0.72797185130E+01  0.32869868883E+02  0.29928095913E+02  0.46142317554E+02  0.99999981148E+01 0.  0.
         12    1    1    2    0    0 -0.72797185130E+01 -0.32869868883E+02 -0.29928095913E+02  0.45045682446E+02  0.00000000000E+00 0. -1.
         11    1    3    3    0    0  0.90353566642E+00  0.27439230210E+01  0.17215977645E+01  0.33629435573E+01  0.51100000000E-03 0. -1.
        -11    1    3    3    0    0 -0.86614939804E+00  0.18128789544E+02  0.15904302840E+02  0.24131930594E+02  0.51100000000E-03 0.  1.
        -12    1    3    3    0    0  0.72423322446E+01  0.11997156318E+02  0.12302195308E+02  0.18647443403E+02  0.00000000000E+00 0.  1.
</event>
<event>
 7    1  0.1485408E-008  0.4614232E+02  0.7816164E-02  0.1320468E+00
        -11   -1    0    0    0    0  0.00000000000E+00  0.00000000000E+00  0.45593999997E+02  0.45594000000E+02  0.51100000000E-03 0.  1.
         11   -1    0    0    0    0 -0.00000000000E+00 -0.00000000000E+00 -0.45593999997E+02  0.45594000000E+02  0.51100000000E-03 0. -1.
    9900012    2    1    2    0    0  0.40729191308E+02 -0.13911188564E+01  0.19191437499E+02  0.46142317526E+02  0.99999978567E+01 0.  0.
         12    1    1    2    0    0 -0.40729191308E+02  0.13911188564E+01 -0.19191437499E+02  0.45045682474E+02  0.00000000000E+00 0. -1.
         11    1    3    3    0    0  0.18158377490E+02 -0.31873869864E+00  0.46646365414E+01  0.18750656036E+02  0.51100000000E-03 0. -1.
        -11    1    3    3    0    0  0.17361034651E+02 -0.30373374209E+01  0.11620006608E+02  0.21110554152E+02  0.51100000000E-03 0.  1.
        -12    1    3    3    0    0  0.52097791667E+01  0.19649572632E+01  0.29067943488E+01  0.62811073385E+01  0.00000000000E+00 0.  1.
</event>
<event>
 7    1  0.1485408E-008  0.4614232E+02  0.7816164E-02  0.1320468E+00
        -11   -1    0    0    0    0  0.00000000000E+00  0.00000000000E+00  0.45593999997E+02  0.45594000000E+02  0.51100000000E-03 0. -1.
         11   -1    0    0    0    0 -0.00000000000E+00 -0.00000000000E+00 -0.45593999997E+02  0.45594000000E+02  0.51100000000E-03 0.  1.
    9900012    2    1    2    0    0 -0.69237901593E+01  0.28219666419E+02 -0.34421288578E+02  0.46142317074E+02  0.99999937302E+01 0.  0.
         12    1    1    2    0    0  0.69237901593E+01 -0.28219666419E+02  0.34421288578E+02  0.45045682926E+02  0.00000000000E+00 0. -1.
         11    1    3    3    0    0 -0.48369364936E+01  0.51217370480E+01 -0.86757786981E+01  0.11175745224E+02  0.51100000000E-03 0. -1.
        -11    1    3    3    0    0 -0.18662790956E+01  0.22356051230E+02 -0.23061132466E+02  0.32172843442E+02  0.51100000000E-03 0.  1.
        -12    1    3    3    0    0 -0.22057456998E+00  0.74187814090E+00 -0.26843774138E+01  0.27937284078E+01  0.00000000000E+00 0.  1.
</event>
<event>
 7    1  0.1485408E-008  0.4614232E+02  0.7816164E-02  0.1320468E+00
        -11   -1    0    0    0    0  0.00000000000E+00  0.00000000000E+00  0.45593999997E+02  0.45594000000E+02  0.51100000000E-03 0.  1.
         11   -1    0    0    0    0 -0.00000000000E+00 -0.00000000000E+00 -0.45593999997E+02  0.45594000000E+02  0.51100000000E-03 0. -1.
    9900012    2    1    2    0    0 -0.16214533009E+02 -0.41840696568E+02 -0.39443992356E+01  0.46142320347E+02  0.10000023584E+02 0.  0.
         12    1    1    2    0    0  0.16214533009E+02  0.41840696568E+02  0.39443992356E+01  0.45045679653E+02  0.00000000000E+00 0. -1.
         11    1    3    3    0    0 -0.69896085392E+01 -0.25754450580E+02 -0.16984527481E+01  0.26740065336E+02  0.51100000000E-03 0. -1.
        -11    1    3    3    0    0 -0.77442097220E+01 -0.14391140627E+02 -0.36557682643E+01  0.16746413187E+02  0.51100000000E-03 0.  1.
        -12    1    3    3    0    0 -0.14807147478E+01 -0.16951053611E+01  0.14098217768E+01  0.26558418236E+01  0.00000000000E+00 0.  1.
</event>
<event>
 7    1  0.1485408E-008  0.4614232E+02  0.7816164E-02  0.1320468E+00
        -11   -1    0    0    0    0  0.00000000000E+00  0.00000000000E+00  0.45593999997E+02  0.45594000000E+02  0.51100000000E-03 0.  1.
         11   -1    0    0    0    0 -0.00000000000E+00 -0.00000000000E+00 -0.45593999997E+02  0.45594000000E+02  0.51100000000E-03 0. -1.
    9900012    2    1    2    0    0  0.15113903987E+02  0.35540211583E+02  0.23185701237E+02  0.46142317911E+02  0.10000001363E+02 0.  0.
         12    1    1    2    0    0 -0.15113903987E+02 -0.35540211583E+02 -0.23185701237E+02  0.45045682089E+02  0.00000000000E+00 0. -1.
         11    1    3    3    0    0 -0.23267005565E+00  0.50398935543E+01  0.50149151989E+01  0.71136514608E+01  0.51100000000E-03 0. -1.
        -11    1    3    3    0    0  0.90501642007E+01  0.13738852880E+02  0.66963276475E+01  0.17762385953E+02  0.51100000000E-03 0.  1.
         12    1    3    3    0    0  0.62964098416E+01  0.16761465149E+02  0.11474458390E+02  0.21266280497E+02  0.00000000000E+00 0. -1.
</event>
<event>
 7    1  0.1485408E-008  0.4614232E+02  0.7816164E-02  0.1320468E+00
        -11   -1    0    0    0    0  0.00000000000E+00  0.00000000000E+00  0.45593999997E+02  0.45594000000E+02  0.51100000000E-03 0. -1.
         11   -1    0    0    0    0 -0.00000000000E+00 -0.00000000000E+00 -0.45593999997E+02  0.45594000000E+02  0.51100000000E-03 0.  1.
    9900012    2    1    2    0    0 -0.17061024802E+02  0.17161419743E+02 -0.37993691419E+02  0.46142317826E+02  0.10000000594E+02 0.  0.
         12    1    1    2    0    0  0.17061024802E+02 -0.17161419743E+02  0.37993691419E+02  0.45045682174E+02  0.00000000000E+00 0. -1.
         11    1    3    3    0    0 -0.13978162432E+01  0.54744155541E+01 -0.94593453033E+01  0.11018272539E+02  0.51100000000E-03 0. -1.
        -11    1    3    3    0    0 -0.12850161608E+02  0.66368539353E+01 -0.22661684277E+02  0.26883571527E+02  0.51100000000E-03 0.  1.
        -12    1    3    3    0    0 -0.28130469505E+01  0.50501502538E+01 -0.58726618382E+01  0.82404737605E+01  0.00000000000E+00 0.  1.
</event>
<event>
 7    1  0.1485408E-008  0.4614232E+02  0.7816164E-02  0.1320468E+00
        -11   -1    0    0    0    0  0.00000000000E+00  0.00000000000E+00  0.45593999997E+02  0.45594000000E+02  0.51100000000E-03 0. -1.
         11   -1    0    0    0    0 -0.00000000000E+00 -0.00000000000E+00 -0.45593999997E+02  0.45594000000E+02  0.51100000000E-03 0.  1.
    9900012    2    1    2    0    0 -0.14473386638E+02 -0.42284660347E+02 -0.56251292761E+01  0.46142317623E+02  0.99999987443E+01 0.  0.
         12    1    1    2    0    0  0.14473386638E+02  0.42284660347E+02  0.56251292761E+01  0.45045682377E+02  0.00000000000E+00 0. -1.
         11    1    3    3    0    0 -0.77309443974E+01 -0.22908759628E+02 -0.48378109592E+01  0.24657315023E+02  0.51100000000E-03 0. -1.
        -11    1    3    3    0    0 -0.52552628894E+01 -0.18206956142E+02 -0.22643835449E+01  0.19085032699E+02  0.51100000000E-03 0.  1.
         12    1    3    3    0    0 -0.14871793509E+01 -0.11689445759E+01  0.14770652281E+01  0.23999699021E+01  0.00000000000E+00 0. -1.
</event>
<event>
 7    1  0.1485408E-008  0.4614232E+02  0.7816164E-02  0.1320468E+00
        -11   -1    0    0    0    0  0.00000000000E+00  0.00000000000E+00  0.45593999997E+02  0.45594000000E+02  0.51100000000E-03 0.  1.
         11   -1    0    0    0    0 -0.00000000000E+00 -0.00000000000E+00 -0.45593999997E+02  0.45594000000E+02  0.51100000000E-03 0. -1.
    9900012    2    1    2    0    0  0.10519786891E+02 -0.25481803086E+02  0.35624784685E+02  0.46142317758E+02  0.99999999742E+01 0.  0.
         12    1    1    2    0    0 -0.10519786891E+02  0.25481803086E+02 -0.35624784685E+02  0.45045682242E+02  0.00000000000E+00 0. -1.
         11    1    3    3    0    0  0.32566268153E+01 -0.11967350466E+01  0.42047596988E+01  0.54514032479E+01  0.51100000000E-03 0. -1.
        -11    1    3    3    0    0  0.15519268384E+01 -0.11433708390E+02  0.17023229638E+02  0.20565225796E+02  0.51100000000E-03 0.  1.
        -12    1    3    3    0    0  0.57112332377E+01 -0.12851359649E+02  0.14396795348E+02  0.20125688715E+02  0.00000000000E+00 0.  1.
</event>
<event>
 7    1  0.1485408E-008  0.4614232E+02  0.7816164E-02  0.1320468E+00
        -11   -1    0    0    0    0  0.00000000000E+00  0.00000000000E+00  0.45593999997E+02  0.45594000000E+02  0.51100000000E-03 0.  1.
         11   -1    0    0    0    0 -0.00000000000E+00 -0.00000000000E+00 -0.45593999997E+02  0.45594000000E+02  0.51100000000E-03 0. -1.
    9900012    2    1    2    0    0 -0.21570606893E+02 -0.26354343002E+02  0.29483404950E+02  0.46142316031E+02  0.99999842223E+01 0.  0.
         12    1    1    2    0    0  0.21570606893E+02  0.26354343002E+02 -0.29483404950E+02  0.45045683969E+02  0.00000000000E+00 0. -1.
         11    1    3    3    0    0 -0.99495806297E+01 -0.11366727940E+02  0.83348019598E+01  0.17252987647E+02  0.51100000000E-03 0. -1.
        -11    1    3    3    0    0 -0.10800312253E+02 -0.13561505363E+02  0.16403524547E+02  0.23867064970E+02  0.51100000000E-03 0.  1.
        -12    1    3    3    0    0 -0.82071401068E+00 -0.14261096978E+01  0.47450784440E+01  0.50222634138E+01  0.00000000000E+00 0.  1.
</event>
<event>
 7    1  0.1485408E-008  0.4614232E+02  0.7816164E-02  0.1320468E+00
        -11   -1    0    0    0    0  0.00000000000E+00  0.00000000000E+00  0.45593999997E+02  0.45594000000E+02  0.51100000000E-03 0.  1.
         11   -1    0    0    0    0 -0.00000000000E+00 -0.00000000000E+00 -0.45593999997E+02  0.45594000000E+02  0.51100000000E-03 0. -1.
    9900012    2    1    2    0    0  0.12709020893E+02  0.28901712023E+02  0.32129197423E+02  0.46142317666E+02  0.99999991315E+01 0.  0.
         12    1    1    2    0    0 -0.12709020893E+02 -0.28901712023E+02 -0.32129197423E+02  0.45045682334E+02  0.00000000000E+00 0. -1.
         11    1    3    3    0    0  0.87449710616E+01  0.24369444695E+02  0.20486717888E+02  0.33015904708E+02  0.51100000000E-03 0. -1.
        -11    1    3    3    0    0  0.17116853112E+01  0.14666931249E+01  0.45768904091E+01  0.51018605827E+01  0.51100000000E-03 0.  1.
         12    1    3    3    0    0  0.22523645197E+01  0.30655742033E+01  0.70655891263E+01  0.80245523755E+01  0.00000000000E+00 0. -1.
</event>
<event>
 7    1  0.1485408E-008  0.4614232E+02  0.7816164E-02  0.1320468E+00
        -11   -1    0    0    0    0  0.00000000000E+00  0.00000000000E+00  0.45593999997E+02  0.45594000000E+02  0.51100000000E-03 0.  1.
         11   -1    0    0    0    0 -0.00000000000E+00 -0.00000000000E+00 -0.45593999997E+02  0.45594000000E+02  0.51100000000E-03 0. -1.
    9900012    2    1    2    0    0 -0.31867243888E+02 -0.29560092042E+02  0.11823419569E+02  0.46142317356E+02  0.99999963084E+01 0.  0.
         12    1    1    2    0    0  0.31867243888E+02  0.29560092042E+02 -0.11823419569E+02  0.45045682644E+02  0.00000000000E+00 0. -1.
         11    1    3    3    0    0 -0.53835739348E+01 -0.10540309966E+02  0.28453839333E+01  0.12172806270E+02  0.51100000000E-03 0. -1.
        -11    1    3    3    0    0 -0.14200145434E+02 -0.11338645663E+02  0.63265324885E+01  0.19241466405E+02  0.51100000000E-03 0.  1.
         12    1    3    3    0    0 -0.12283524519E+02 -0.76811364125E+01  0.26515031468E+01  0.14728044681E+02  0.00000000000E+00 0. -1.
</event>
<event>
 7    1  0.1485408E-008  0.4614232E+02  0.7816164E-02  0.1320468E+00
        -11   -1    0    0    0    0  0.00000000000E+00  0.00000000000E+00  0.45593999997E+02  0.45594000000E+02  0.51100000000E-03 0.  1.
         11   -1    0    0    0    0 -0.00000000000E+00 -0.00000000000E+00 -0.45593999997E+02  0.45594000000E+02  0.51100000000E-03 0. -1.
    9900012    2    1    2    0    0 -0.12766164911E+02  0.43763561387E+01  0.42976575021E+02  0.46142318075E+02  0.10000002858E+02 0.  0.
         12    1    1    2    0    0  0.12766164911E+02 -0.43763561387E+01 -0.42976575021E+02  0.45045681925E+02  0.00000000000E+00 0. -1.
         11    1    3    3    0    0 -0.77689052516E+01 -0.97456168923E+00  0.25271777817E+02  0.26456916177E+02  0.51100000000E-03 0. -1.
        -11    1    3    3    0    0 -0.53451534757E+01  0.42171675019E+01  0.16983403503E+02  0.18297299315E+02  0.51100000000E-03 0.  1.
         12    1    3    3    0    0  0.34789381585E+00  0.11337503260E+01  0.72139370150E+00  0.13881025831E+01  0.00000000000E+00 0. -1.
</event>
<event>
 7    1  0.1485408E-008  0.4614232E+02  0.7816164E-02  0.1320468E+00
        -11   -1    0    0    0    0  0.00000000000E+00  0.00000000000E+00  0.45593999997E+02  0.45594000000E+02  0.51100000000E-03 0.  1.
         11   -1    0    0    0    0 -0.00000000000E+00 -0.00000000000E+00 -0.45593999997E+02  0.45594000000E+02  0.51100000000E-03 0. -1.
    9900012    2    1    2    0    0 -0.60888112975E+01  0.40055292216E+02  0.19687900992E+02  0.46142317598E+02  0.99999985143E+01 0.  0.
         12    1    1    2    0    0  0.60888112975E+01 -0.40055292216E+02 -0.19687900992E+02  0.45045682402E+02  0.00000000000E+00 0. -1.
         11    1    3    3    0    0 -0.13928271284E+01  0.22607961933E+02  0.13832556734E+02  0.26540526299E+02  0.51100000000E-03 0. -1.
        -11    1    3    3    0    0 -0.21866405691E+01  0.61093537528E+01  0.45308051844E+01  0.79141516371E+01  0.51100000000E-03 0.  1.
         12    1    3    3    0    0 -0.25093436000E+01  0.11337976531E+02  0.13245390743E+01  0.11687639662E+02  0.00000000000E+00 0. -1.
</event>
<event>
 7    1  0.1485408E-008  0.4614232E+02  0.7816164E-02  0.1320468E+00
        -11   -1    0    0    0    0  0.00000000000E+00  0.00000000000E+00  0.45593999997E+02  0.45594000000E+02  0.51100000000E-03 0. -1.
         11   -1    0    0    0    0 -0.00000000000E+00 -0.00000000000E+00 -0.45593999997E+02  0.45594000000E+02  0.51100000000E-03 0.  1.
    9900012    2    1    2    0    0 -0.24059137363E+02 -0.36353349437E+02 -0.11344838119E+02  0.46142318099E+02  0.10000003081E+02 0.  0.
         12    1    1    2    0    0  0.24059137363E+02  0.36353349437E+02  0.11344838119E+02  0.45045681901E+02  0.00000000000E+00 0. -1.
         11    1    3    3    0    0 -0.11032987166E+02 -0.12630609120E+02 -0.69464099974E-01  0.16770924783E+02  0.51100000000E-03 0. -1.
        -11    1    3    3    0    0 -0.33316838640E+01 -0.45874728104E+01 -0.22950168670E+01  0.61165453351E+01  0.51100000000E-03 0.  1.
         12    1    3    3    0    0 -0.96944663335E+01 -0.19135267507E+02 -0.89803571521E+01  0.23254847981E+02  0.00000000000E+00 0. -1.
</event>
<event>
 7    1  0.1485408E-008  0.4614232E+02  0.7816164E-02  0.1320468E+00
        -11   -1    0    0    0    0  0.00000000000E+00  0.00000000000E+00  0.45593999997E+02  0.45594000000E+02  0.51100000000E-03 0.  1.
         11   -1    0    0    0    0 -0.00000000000E+00 -0.00000000000E+00 -0.45593999997E+02  0.45594000000E+02  0.51100000000E-03 0. -1.
    9900012    2    1    2    0    0 -0.34044641144E+02  0.11539481469E+02  0.27146199450E+02  0.46142319100E+02  0.10000012209E+02 0.  0.
         12    1    1    2    0    0  0.34044641144E+02 -0.11539481469E+02 -0.27146199450E+02  0.45045680900E+02  0.00000000000E+00 0. -1.
         11    1    3    3    0    0 -0.25983713700E+00  0.13211479300E+01 -0.31037364751E+00  0.13817667144E+01  0.51100000000E-03 0. -1.
        -11    1    3    3    0    0 -0.10297166323E+02  0.28581424791E+01  0.94207098699E+01  0.14246065683E+02  0.51100000000E-03 0.  1.
         12    1    3    3    0    0 -0.23487637683E+02  0.73601910603E+01  0.18035863227E+02  0.30514486703E+02  0.00000000000E+00 0. -1.
</event>
<event>
 7    1  0.1485408E-008  0.4614232E+02  0.7816164E-02  0.1320468E+00
        -11   -1    0    0    0    0  0.00000000000E+00  0.00000000000E+00  0.45593999997E+02  0.45594000000E+02  0.51100000000E-03 0.  1.
         11   -1    0    0    0    0 -0.00000000000E+00 -0.00000000000E+00 -0.45593999997E+02  0.45594000000E+02  0.51100000000E-03 0. -1.
    9900012    2    1    2    0    0 -0.11895777008E+01 -0.21610778687E+02  0.39505349772E+02  0.46142317508E+02  0.99999976909E+01 0.  0.
         12    1    1    2    0    0  0.11895777008E+01  0.21610778687E+02 -0.39505349772E+02  0.45045682492E+02  0.00000000000E+00 0. -1.
         11    1    3    3    0    0  0.26227348102E+00 -0.35161969828E+01  0.14780891630E+01  0.38232416136E+01  0.51100000000E-03 0. -1.
        -11    1    3    3    0    0 -0.26328715367E+01 -0.10168805566E+02  0.23128469544E+02  0.25402022024E+02  0.51100000000E-03 0.  1.
         12    1    3    3    0    0  0.11810203549E+01 -0.79257761386E+01  0.14898791064E+02  0.16917053871E+02  0.00000000000E+00 0. -1.
</event>
<event>
 7    1  0.1485408E-008  0.4614232E+02  0.7816164E-02  0.1320468E+00
        -11   -1    0    0    0    0  0.00000000000E+00  0.00000000000E+00  0.45593999997E+02  0.45594000000E+02  0.51100000000E-03 0.  1.
         11   -1    0    0    0    0 -0.00000000000E+00 -0.00000000000E+00 -0.45593999997E+02  0.45594000000E+02  0.51100000000E-03 0. -1.
    9900012    2    1    2    0    0  0.26736693589E+01  0.15460536070E+02  0.42224836966E+02  0.46142317186E+02  0.99999947519E+01 0.  0.
         12    1    1    2    0    0 -0.26736693589E+01 -0.15460536070E+02 -0.42224836966E+02  0.45045682814E+02  0.00000000000E+00 0. -1.
         11    1    3    3    0    0 -0.30995815155E+01  0.45368174034E+01  0.88906580721E+01  0.10451503190E+02  0.51100000000E-03 0. -1.
        -11    1    3    3    0    0  0.44165186291E+01  0.72219394968E+01  0.18555944358E+02  0.20395713230E+02  0.51100000000E-03 0.  1.
         12    1    3    3    0    0  0.13567322453E+01  0.37017791695E+01  0.14778234536E+02  0.15295100765E+02  0.00000000000E+00 0. -1.
</event>
<event>
 7    1  0.1485408E-008  0.4614232E+02  0.7816164E-02  0.1320468E+00
        -11   -1    0    0    0    0  0.00000000000E+00  0.00000000000E+00  0.45593999997E+02  0.45594000000E+02  0.51100000000E-03 0. -1.
         11   -1    0    0    0    0 -0.00000000000E+00 -0.00000000000E+00 -0.45593999997E+02  0.45594000000E+02  0.51100000000E-03 0.  1.
    9900012    2    1    2    0    0  0.30549069969E+02  0.30870075704E+02 -0.11954339649E+02  0.46142317783E+02  0.10000000197E+02 0.  0.
         12    1    1    2    0    0 -0.30549069969E+02 -0.30870075704E+02  0.11954339649E+02  0.45045682217E+02  0.00000000000E+00 0. -1.
         11    1    3    3    0    0  0.93655416163E+01  0.66245046392E+01 -0.61314264807E+00  0.11487966558E+02  0.51100000000E-03 0. -1.
        -11    1    3    3    0    0  0.71361135864E+01  0.12233469763E+02 -0.62683115225E+01  0.15487854247E+02  0.51100000000E-03 0.  1.
        -12    1    3    3    0    0  0.14047414767E+02  0.12012101302E+02 -0.50728854785E+01  0.19166496978E+02  0.00000000000E+00 0.  1.
</event>
<event>
 7    1  0.1485408E-008  0.4614232E+02  0.7816164E-02  0.1320468E+00
        -11   -1    0    0    0    0  0.00000000000E+00  0.00000000000E+00  0.45593999997E+02  0.45594000000E+02  0.51100000000E-03 0.  1.
         11   -1    0    0    0    0 -0.00000000000E+00 -0.00000000000E+00 -0.45593999997E+02  0.45594000000E+02  0.51100000000E-03 0. -1.
    9900012    2    1    2    0    0 -0.63397036443E+01 -0.33228086697E+02  0.29745854167E+02  0.46142318432E+02  0.10000006117E+02 0.  0.
         12    1    1    2    0    0  0.63397036443E+01  0.33228086697E+02 -0.29745854167E+02  0.45045681568E+02  0.00000000000E+00 0. -1.
         11    1    3    3    0    0 -0.49959450678E+01 -0.17652538126E+02  0.11790660315E+02  0.21808054484E+02  0.51100000000E-03 0. -1.
        -11    1    3    3    0    0 -0.40316758525E+00 -0.93808735420E+01  0.69919838828E+01  0.11706885640E+02  0.51100000000E-03 0.  1.
        -12    1    3    3    0    0 -0.94059099127E+00 -0.61946750282E+01  0.10963209969E+02  0.12627378308E+02  0.00000000000E+00 0.  1.
</event>
<event>
 7    1  0.1485408E-008  0.4614232E+02  0.7816164E-02  0.1320468E+00
        -11   -1    0    0    0    0  0.00000000000E+00  0.00000000000E+00  0.45593999997E+02  0.45594000000E+02  0.51100000000E-03 0. -1.
         11   -1    0    0    0    0 -0.00000000000E+00 -0.00000000000E+00 -0.45593999997E+02  0.45594000000E+02  0.51100000000E-03 0.  1.
    9900012    2    1    2    0    0 -0.37857684034E+02 -0.18747970337E+02  0.15634030124E+02  0.46142317298E+02  0.99999957784E+01 0.  0.
         12    1    1    2    0    0  0.37857684034E+02  0.18747970337E+02 -0.15634030124E+02  0.45045682702E+02  0.00000000000E+00 0. -1.
         11    1    3    3    0    0 -0.16021044635E+01 -0.20385136663E+01 -0.76974071228E+00  0.27045845716E+01  0.51100000000E-03 0. -1.
        -11    1    3    3    0    0 -0.15959904707E+02 -0.61608922409E+01  0.46872507218E+01  0.17738248816E+02  0.51100000000E-03 0.  1.
         12    1    3    3    0    0 -0.20295674863E+02 -0.10548564430E+02  0.11716520115E+02  0.25699483910E+02  0.00000000000E+00 0. -1.
</event>
<event>
 7    1  0.1485408E-008  0.4614232E+02  0.7816164E-02  0.1320468E+00
        -11   -1    0    0    0    0  0.00000000000E+00  0.00000000000E+00  0.45593999997E+02  0.45594000000E+02  0.51100000000E-03 0.  1.
         11   -1    0    0    0    0 -0.00000000000E+00 -0.00000000000E+00 -0.45593999997E+02  0.45594000000E+02  0.51100000000E-03 0. -1.
    9900012    2    1    2    0    0 -0.31960163252E+01  0.15533877363E+02  0.42161566088E+02  0.46142317396E+02  0.99999966714E+01 0.  0.
         12    1    1    2    0    0  0.31960163252E+01 -0.15533877363E+02 -0.42161566088E+02  0.45045682604E+02  0.00000000000E+00 0. -1.
         11    1    3    3    0    0 -0.17586304850E+01  0.11170460666E+02  0.20269141664E+02  0.23210128753E+02  0.51100000000E-03 0. -1.
        -11    1    3    3    0    0 -0.66994017421E+00  0.47580442205E+01  0.10975511534E+02  0.11981221070E+02  0.51100000000E-03 0.  1.
         12    1    3    3    0    0 -0.76744566599E+00 -0.39462752405E+00  0.10916912890E+02  0.10950967572E+02  0.00000000000E+00 0. -1.
</event>
<event>
 7    1  0.1485408E-008  0.4614232E+02  0.7816164E-02  0.1320468E+00
        -11   -1    0    0    0    0  0.00000000000E+00  0.00000000000E+00  0.45593999997E+02  0.45594000000E+02  0.51100000000E-03 0.  1.
         11   -1    0    0    0    0 -0.00000000000E+00 -0.00000000000E+00 -0.45593999997E+02  0.45594000000E+02  0.51100000000E-03 0. -1.
    9900012    2    1    2    0    0  0.39558978433E+02 -0.19964381646E+02  0.81008764194E+01  0.46142317544E+02  0.99999980199E+01 0.  0.
         12    1    1    2    0    0 -0.39558978433E+02  0.19964381646E+02 -0.81008764194E+01  0.45045682456E+02  0.00000000000E+00 0. -1.
         11    1    3    3    0    0  0.16504463955E+01 -0.29193579288E+01 -0.51687328192E+00  0.33931964682E+01  0.51100000000E-03 0. -1.
        -11    1    3    3    0    0  0.21745734109E+02 -0.10985580069E+02  0.73204771075E+01  0.25439129441E+02  0.51100000000E-03 0.  1.
        -12    1    3    3    0    0  0.16162797928E+02 -0.60594436483E+01  0.12972725938E+01  0.17309991634E+02  0.00000000000E+00 0.  1.
</event>
<event>
 7    1  0.1485408E-008  0.4614232E+02  0.7816164E-02  0.1320468E+00
        -11   -1    0    0    0    0  0.00000000000E+00  0.00000000000E+00  0.45593999997E+02  0.45594000000E+02  0.51100000000E-03 0.  1.
         11   -1    0    0    0    0 -0.00000000000E+00 -0.00000000000E+00 -0.45593999997E+02  0.45594000000E+02  0.51100000000E-03 0. -1.
    9900012    2    1    2    0    0 -0.69661805325E+01 -0.49768001951E+01  0.44224622963E+02  0.46142317769E+02  0.10000000072E+02 0.  0.
         12    1    1    2    0    0  0.69661805325E+01  0.49768001951E+01 -0.44224622963E+02  0.45045682231E+02  0.00000000000E+00 0. -1.
         11    1    3    3    0    0 -0.13798422614E+01  0.20598078003E+00  0.34504268945E+00  0.14371664715E+01  0.51100000000E-03 0. -1.
        -11    1    3    3    0    0 -0.29109061303E+01 -0.42908271171E+01  0.35175268159E+02  0.35555366151E+02  0.51100000000E-03 0.  1.
        -12    1    3    3    0    0 -0.26754321408E+01 -0.89195385808E+00  0.87043121154E+01  0.91497851465E+01  0.00000000000E+00 0.  1.
</event>
<event>
 7    1  0.1485408E-008  0.4614232E+02  0.7816164E-02  0.1320468E+00
        -11   -1    0    0    0    0  0.00000000000E+00  0.00000000000E+00  0.45593999997E+02  0.45594000000E+02  0.51100000000E-03 0.  1.
         11   -1    0    0    0    0 -0.00000000000E+00 -0.00000000000E+00 -0.45593999997E+02  0.45594000000E+02  0.51100000000E-03 0. -1.
    9900012    2    1    2    0    0 -0.35774502810E+02  0.83603407271E+01  0.26065362902E+02  0.46142317726E+02  0.99999996788E+01 0.  0.
         12    1    1    2    0    0  0.35774502810E+02 -0.83603407271E+01 -0.26065362902E+02  0.45045682274E+02  0.00000000000E+00 0. -1.
         11    1    3    3    0    0 -0.10805040750E+02 -0.12165272727E+01  0.96232025847E+01  0.14520154010E+02  0.51100000000E-03 0.  1.
        -11    1    3    3    0    0 -0.23484704480E+02  0.95598961068E+01  0.14610101976E+02  0.29263937502E+02  0.51100000000E-03 0. -1.
        -12    1    3    3    0    0 -0.14847575793E+01  0.16971893038E-01  0.18320583409E+01  0.23582262145E+01  0.00000000000E+00 0.  1.
</event>
<event>
 7    1  0.1485408E-008  0.4614232E+02  0.7816164E-02  0.1320468E+00
        -11   -1    0    0    0    0  0.00000000000E+00  0.00000000000E+00  0.45593999997E+02  0.45594000000E+02  0.51100000000E-03 0.  1.
         11   -1    0    0    0    0 -0.00000000000E+00 -0.00000000000E+00 -0.45593999997E+02  0.45594000000E+02  0.51100000000E-03 0. -1.
    9900012    2    1    2    0    0 -0.32665343960E+02 -0.62921320264E+01  0.30372646163E+02  0.46142320336E+02  0.10000023480E+02 0.  0.
         12    1    1    2    0    0  0.32665343960E+02  0.62921320264E+01 -0.30372646163E+02  0.45045679664E+02  0.00000000000E+00 0. -1.
         11    1    3    3    0    0 -0.30198754719E+02 -0.33523288802E+01  0.26925964046E+02  0.40598158032E+02  0.51100000000E-03 0. -1.
        -11    1    3    3    0    0 -0.21974059102E+01 -0.28290074507E+01  0.20704207082E+01  0.41374530885E+01  0.51100000000E-03 0.  1.
        -12    1    3    3    0    0 -0.26918333005E+00 -0.11079569545E+00  0.13762614087E+01  0.14067092153E+01  0.00000000000E+00 0.  1.
</event>
<event>
 7    1  0.1485408E-008  0.4614232E+02  0.7816164E-02  0.1320468E+00
        -11   -1    0    0    0    0  0.00000000000E+00  0.00000000000E+00  0.45593999997E+02  0.45594000000E+02  0.51100000000E-03 0.  1.
         11   -1    0    0    0    0 -0.00000000000E+00 -0.00000000000E+00 -0.45593999997E+02  0.45594000000E+02  0.51100000000E-03 0. -1.
    9900012    2    1    2    0    0  0.35238363458E+02 -0.13333421947E+02  0.24689901289E+02  0.46142316237E+02  0.99999860993E+01 0.  0.
         12    1    1    2    0    0 -0.35238363458E+02  0.13333421947E+02 -0.24689901289E+02  0.45045683763E+02  0.00000000000E+00 0. -1.
         11    1    3    3    0    0  0.15197113840E+02 -0.56892379448E+01  0.14568862211E+02  0.21807600598E+02  0.51100000000E-03 0.  1.
        -11    1    3    3    0    0  0.11824479080E+02 -0.29468642245E+01  0.31698678526E+01  0.12591678868E+02  0.51100000000E-03 0. -1.
        -12    1    3    3    0    0  0.82167705385E+01 -0.46973197779E+01  0.69511712252E+01  0.11743036770E+02  0.00000000000E+00 0.  1.
</event>
<event>
 7    1  0.1485408E-008  0.4614232E+02  0.7816164E-02  0.1320468E+00
        -11   -1    0    0    0    0  0.00000000000E+00  0.00000000000E+00  0.45593999997E+02  0.45594000000E+02  0.51100000000E-03 0. -1.
         11   -1    0    0    0    0 -0.00000000000E+00 -0.00000000000E+00 -0.45593999997E+02  0.45594000000E+02  0.51100000000E-03 0.  1.
    9900012    2    1    2    0    0  0.38747814355E+01 -0.27699979406E+02 -0.35310206744E+02  0.46142317736E+02  0.99999997751E+01 0.  0.
         12    1    1    2    0    0 -0.38747814355E+01  0.27699979406E+02  0.35310206744E+02  0.45045682264E+02  0.00000000000E+00 0. -1.
         11    1    3    3    0    0 -0.81679774673E+00 -0.20236095919E+01 -0.41179632911E+01  0.46604480758E+01  0.51100000000E-03 0. -1.
        -11    1    3    3    0    0  0.38581847964E-01 -0.57135892351E+00 -0.45295151123E+01  0.45655719239E+01  0.51100000000E-03 0.  1.
        -12    1    3    3    0    0  0.46529973342E+01 -0.25105010891E+02 -0.26662728341E+02  0.36916297737E+02  0.00000000000E+00 0.  1.
</event>
<event>
 7    1  0.1485408E-008  0.4614232E+02  0.7816164E-02  0.1320468E+00
        -11   -1    0    0    0    0  0.00000000000E+00  0.00000000000E+00  0.45593999997E+02  0.45594000000E+02  0.51100000000E-03 0. -1.
         11   -1    0    0    0    0 -0.00000000000E+00 -0.00000000000E+00 -0.45593999997E+02  0.45594000000E+02  0.51100000000E-03 0.  1.
    9900012    2    1    2    0    0 -0.24603967200E+02  0.34068307308E+01 -0.37578608376E+02  0.46142317576E+02  0.99999983102E+01 0.  0.
         12    1    1    2    0    0  0.24603967200E+02 -0.34068307308E+01  0.37578608376E+02  0.45045682424E+02  0.00000000000E+00 0. -1.
         11    1    3    3    0    0 -0.16203112427E+01 -0.18430212891E+01 -0.53760183904E+01  0.59096285831E+01  0.51100000000E-03 0. -1.
        -11    1    3    3    0    0 -0.13223562465E+02  0.12644066942E+01 -0.21006601827E+02  0.24854348697E+02  0.51100000000E-03 0.  1.
         12    1    3    3    0    0 -0.97600934920E+01  0.39854453257E+01 -0.11195988159E+02  0.15378340296E+02  0.00000000000E+00 0. -1.
</event>
<event>
 7    1  0.1485408E-008  0.4614232E+02  0.7816164E-02  0.1320468E+00
        -11   -1    0    0    0    0  0.00000000000E+00  0.00000000000E+00  0.45593999997E+02  0.45594000000E+02  0.51100000000E-03 0.  1.
         11   -1    0    0    0    0 -0.00000000000E+00 -0.00000000000E+00 -0.45593999997E+02  0.45594000000E+02  0.51100000000E-03 0. -1.
    9900012    2    1    2    0    0  0.69344995748E+00  0.28275752162E+02  0.35058728535E+02  0.46142317858E+02  0.10000000882E+02 0.  0.
         12    1    1    2    0    0 -0.69344995748E+00 -0.28275752162E+02 -0.35058728535E+02  0.45045682142E+02  0.00000000000E+00 0. -1.
         11    1    3    3    0    0  0.33457442493E+01  0.10536683375E+02  0.16894148955E+02  0.20189798669E+02  0.51100000000E-03 0. -1.
        -11    1    3    3    0    0 -0.37870381612E+01  0.14457758344E+02  0.15818527319E+02  0.21762220502E+02  0.51100000000E-03 0.  1.
        -12    1    3    3    0    0  0.11347438693E+01  0.32813104439E+01  0.23460522603E+01  0.41902986870E+01  0.00000000000E+00 0.  1.
</event>
<event>
 7    1  0.1485408E-008  0.4614231E+02  0.7816164E-02  0.1320468E+00
        -11   -1    0    0    0    0  0.00000000000E+00  0.00000000000E+00  0.45593999997E+02  0.45594000000E+02  0.51100000000E-03 0.  1.
         11   -1    0    0    0    0 -0.00000000000E+00 -0.00000000000E+00 -0.45593999997E+02  0.45594000000E+02  0.51100000000E-03 0. -1.
    9900012    2    1    2    0    0 -0.21439770743E+02 -0.10208469116E+02  0.38278416935E+02  0.46142314144E+02  0.99999670161E+01 0.  0.
         12    1    1    2    0    0  0.21439770743E+02  0.10208469116E+02 -0.38278416935E+02  0.45045685856E+02  0.00000000000E+00 0. -1.
         11    1    3    3    0    0 -0.23184746319E+01  0.11393232739E+01  0.28859193627E+01  0.38732303018E+01  0.51100000000E-03 0. -1.
        -11    1    3    3    0    0 -0.94548025506E+01 -0.42642911521E+01  0.21841698047E+02  0.24179273028E+02  0.51100000000E-03 0.  1.
        -12    1    3    3    0    0 -0.96664935607E+01 -0.70835012378E+01  0.13550799525E+02  0.18089810814E+02  0.00000000000E+00 0.  1.
</event>
<event>
 7    1  0.1485408E-008  0.4614232E+02  0.7816164E-02  0.1320468E+00
        -11   -1    0    0    0    0  0.00000000000E+00  0.00000000000E+00  0.45593999997E+02  0.45594000000E+02  0.51100000000E-03 0. -1.
         11   -1    0    0    0    0 -0.00000000000E+00 -0.00000000000E+00 -0.45593999997E+02  0.45594000000E+02  0.51100000000E-03 0.  1.
    9900012    2    1    2    0    0 -0.17626232145E+02 -0.41365801022E+02 -0.27018479841E+01  0.46142317228E+02  0.99999951417E+01 0.  0.
         12    1    1    2    0    0  0.17626232145E+02  0.41365801022E+02  0.27018479841E+01  0.45045682772E+02  0.00000000000E+00 0. -1.
         11    1    3    3    0    0 -0.34456101528E+01 -0.18031594187E+02 -0.20338255641E+00  0.18358975542E+02  0.51100000000E-03 0.  1.
        -11    1    3    3    0    0 -0.59736166987E+01 -0.76773676944E+01 -0.27334601144E+01  0.10104349343E+02  0.51100000000E-03 0. -1.
         12    1    3    3    0    0 -0.82070052937E+01 -0.15656839141E+02  0.23499468672E+00  0.17678992344E+02  0.00000000000E+00 0. -1.
</event>
<event>
 7    1  0.1485408E-008  0.4614232E+02  0.7816164E-02  0.1320468E+00
        -11   -1    0    0    0    0  0.00000000000E+00  0.00000000000E+00  0.45593999997E+02  0.45594000000E+02  0.51100000000E-03 0.  1.
         11   -1    0    0    0    0 -0.00000000000E+00 -0.00000000000E+00 -0.45593999997E+02  0.45594000000E+02  0.51100000000E-03 0. -1.
    9900012    2    1    2    0    0 -0.15560540646E+02  0.28701286315E+02  0.31035771673E+02  0.46142318912E+02  0.10000010495E+02 0.  0.
         12    1    1    2    0    0  0.15560540646E+02 -0.28701286315E+02 -0.31035771673E+02  0.45045681088E+02  0.00000000000E+00 0. -1.
         11    1    3    3    0    0 -0.87133387454E+01  0.94800785372E+01  0.11631049881E+02  0.17351526814E+02  0.51100000000E-03 0. -1.
        -11    1    3    3    0    0 -0.12634399763E+00  0.76020792382E+01  0.49913130309E+01  0.90950963482E+01  0.51100000000E-03 0.  1.
         12    1    3    3    0    0 -0.67208579028E+01  0.11619128540E+02  0.14413408761E+02  0.19695695750E+02  0.00000000000E+00 0. -1.
</event>
<event>
 7    1  0.1485408E-008  0.4614232E+02  0.7816164E-02  0.1320468E+00
        -11   -1    0    0    0    0  0.00000000000E+00  0.00000000000E+00  0.45593999997E+02  0.45594000000E+02  0.51100000000E-03 0. -1.
         11   -1    0    0    0    0 -0.00000000000E+00 -0.00000000000E+00 -0.45593999997E+02  0.45594000000E+02  0.51100000000E-03 0.  1.
    9900012    2    1    2    0    0 -0.14310624861E+02  0.42443974553E+02 -0.47779181687E+01  0.46142318056E+02  0.10000002686E+02 0.  0.
         12    1    1    2    0    0  0.14310624861E+02 -0.42443974553E+02  0.47779181687E+01  0.45045681944E+02  0.00000000000E+00 0. -1.
         11    1    3    3    0    0 -0.66800113787E+01  0.78666221352E+01 -0.70082228710E+00  0.10343957075E+02  0.51100000000E-03 0. -1.
        -11    1    3    3    0    0 -0.57371775563E+01  0.28644032967E+02 -0.44927354546E+01  0.29556395299E+02  0.51100000000E-03 0.  1.
        -12    1    3    3    0    0 -0.18934359263E+01  0.59333194509E+01  0.41563957296E+00  0.62419656814E+01  0.00000000000E+00 0.  1.
</event>
<event>
 7    1  0.1485408E-008  0.4614232E+02  0.7816164E-02  0.1320468E+00
        -11   -1    0    0    0    0  0.00000000000E+00  0.00000000000E+00  0.45593999997E+02  0.45594000000E+02  0.51100000000E-03 0. -1.
         11   -1    0    0    0    0 -0.00000000000E+00 -0.00000000000E+00 -0.45593999997E+02  0.45594000000E+02  0.51100000000E-03 0.  1.
    9900012    2    1    2    0    0  0.23545157101E+02 -0.91685799625E+01 -0.37291772845E+02  0.46142316485E+02  0.99999883650E+01 0.  0.
         12    1    1    2    0    0 -0.23545157101E+02  0.91685799625E+01  0.37291772845E+02  0.45045683515E+02  0.00000000000E+00 0. -1.
         11    1    3    3    0    0  0.30022712707E+01  0.27751643181E+00 -0.65630783421E+01  0.72225096566E+01  0.51100000000E-03 0. -1.
        -11    1    3    3    0    0  0.24438369627E+01 -0.22234692670E+01 -0.97136990085E+01  0.10260219460E+02  0.51100000000E-03 0.  1.
        -12    1    3    3    0    0  0.18099048867E+02 -0.72226271273E+01 -0.21014995494E+02  0.28659587368E+02  0.00000000000E+00 0.  1.
</event>
<event>
 7    1  0.1485408E-008  0.4614232E+02  0.7816164E-02  0.1320468E+00
        -11   -1    0    0    0    0  0.00000000000E+00  0.00000000000E+00  0.45593999997E+02  0.45594000000E+02  0.51100000000E-03 0.  1.
         11   -1    0    0    0    0 -0.00000000000E+00 -0.00000000000E+00 -0.45593999997E+02  0.45594000000E+02  0.51100000000E-03 0. -1.
    9900012    2    1    2    0    0 -0.41849067806E+02  0.54272369841E+01  0.15757984603E+02  0.46142318118E+02  0.10000003251E+02 0.  0.
         12    1    1    2    0    0  0.41849067806E+02 -0.54272369841E+01 -0.15757984603E+02  0.45045681882E+02  0.00000000000E+00 0. -1.
         11    1    3    3    0    0 -0.17352200880E+02  0.12623534949E+01  0.16774186351E+01  0.17478734086E+02  0.51100000000E-03 0. -1.
        -11    1    3    3    0    0 -0.24084451643E+02  0.41113165369E+01  0.14160995178E+02  0.28239998571E+02  0.51100000000E-03 0.  1.
        -12    1    3    3    0    0 -0.41241528309E+00  0.53566952279E-01 -0.80429210372E-01  0.42358546007E+00  0.00000000000E+00 0.  1.
</event>
<event>
 7    1  0.1485408E-008  0.4614232E+02  0.7816164E-02  0.1320468E+00
        -11   -1    0    0    0    0  0.00000000000E+00  0.00000000000E+00  0.45593999997E+02  0.45594000000E+02  0.51100000000E-03 0.  1.
         11   -1    0    0    0    0 -0.00000000000E+00 -0.00000000000E+00 -0.45593999997E+02  0.45594000000E+02  0.51100000000E-03 0. -1.
    9900012    2    1    2    0    0  0.39702540732E+01  0.38175561738E+02  0.23579165080E+02  0.46142318107E+02  0.10000003150E+02 0.  0.
         12    1    1    2    0    0 -0.39702540732E+01 -0.38175561738E+02 -0.23579165080E+02  0.45045681893E+02  0.00000000000E+00 0. -1.
         11    1    3    3    0    0  0.34480128444E+01  0.15109277992E+02  0.14059499860E+02  0.20924832391E+02  0.51100000000E-03 0. -1.
        -11    1    3    3    0    0  0.74206231662E+00  0.17956138244E+02  0.89326925569E+01  0.20069044663E+02  0.51100000000E-03 0.  1.
         12    1    3    3    0    0 -0.21982108783E+00  0.51101455022E+01  0.58697266246E+00  0.51484410524E+01  0.00000000000E+00 0. -1.
</event>
<event>
 7    1  0.1485408E-008  0.4614232E+02  0.7816164E-02  0.1320468E+00
        -11   -1    0    0    0    0  0.00000000000E+00  0.00000000000E+00  0.45593999997E+02  0.45594000000E+02  0.51100000000E-03 0.  1.
         11   -1    0    0    0    0 -0.00000000000E+00 -0.00000000000E+00 -0.45593999997E+02  0.45594000000E+02  0.51100000000E-03 0. -1.
    9900012    2    1    2    0    0  0.30330762567E+02 -0.18506003659E+02  0.27689095533E+02  0.46142319400E+02  0.10000014941E+02 0.  0.
         12    1    1    2    0    0 -0.30330762567E+02  0.18506003659E+02 -0.27689095533E+02  0.45045680600E+02  0.00000000000E+00 0. -1.
         11    1    3    3    0    0  0.17381233771E+02 -0.92917560562E+01  0.97921803392E+01  0.22007517218E+02  0.51100000000E-03 0. -1.
        -11    1    3    3    0    0  0.56679359871E+01 -0.42956961170E+01  0.10313406798E+02  0.12527763708E+02  0.51100000000E-03 0.  1.
        -12    1    3    3    0    0  0.72815928085E+01 -0.49185514859E+01  0.75835083954E+01  0.11607038474E+02  0.00000000000E+00 0.  1.
</event>
<event>
 7    1  0.1485408E-008  0.4614232E+02  0.7816164E-02  0.1320468E+00
        -11   -1    0    0    0    0  0.00000000000E+00  0.00000000000E+00  0.45593999997E+02  0.45594000000E+02  0.51100000000E-03 0.  1.
         11   -1    0    0    0    0 -0.00000000000E+00 -0.00000000000E+00 -0.45593999997E+02  0.45594000000E+02  0.51100000000E-03 0. -1.
    9900012    2    1    2    0    0  0.29516034512E+02 -0.49422832442E+01  0.33667358744E+02  0.46142317612E+02  0.99999986425E+01 0.  0.
         12    1    1    2    0    0 -0.29516034512E+02  0.49422832442E+01 -0.33667358744E+02  0.45045682388E+02  0.00000000000E+00 0. -1.
         11    1    3    3    0    0  0.22809836878E+01  0.17592647447E+01  0.33288938496E+01  0.44022078039E+01  0.51100000000E-03 0. -1.
        -11    1    3    3    0    0  0.25721431230E+02 -0.54186294450E+01  0.29686657593E+02  0.39651623030E+02  0.51100000000E-03 0.  1.
        -12    1    3    3    0    0  0.15136195943E+01 -0.12829185439E+01  0.65180730131E+00  0.20884867787E+01  0.00000000000E+00 0.  1.
</event>
<event>
 7    1  0.1485408E-008  0.4614232E+02  0.7816164E-02  0.1320468E+00
        -11   -1    0    0    0    0  0.00000000000E+00  0.00000000000E+00  0.45593999997E+02  0.45594000000E+02  0.51100000000E-03 0. -1.
         11   -1    0    0    0    0 -0.00000000000E+00 -0.00000000000E+00 -0.45593999997E+02  0.45594000000E+02  0.51100000000E-03 0.  1.
    9900012    2    1    2    0    0 -0.22417793223E+02 -0.38373243217E+02 -0.73518868775E+01  0.46142317758E+02  0.99999999742E+01 0.  0.
         12    1    1    2    0    0  0.22417793223E+02  0.38373243217E+02  0.73518868775E+01  0.45045682242E+02  0.00000000000E+00 0. -1.
         11    1    3    3    0    0 -0.12595068216E+02 -0.25146442641E+02 -0.39491593643E+00  0.28127127114E+02  0.51100000000E-03 0. -1.
        -11    1    3    3    0    0 -0.59912775992E+01 -0.94671450954E+01 -0.53241594507E+01  0.12404391063E+02  0.51100000000E-03 0.  1.
         12    1    3    3    0    0 -0.38314474083E+01 -0.37596554804E+01 -0.16328114904E+01  0.56107995809E+01  0.00000000000E+00 0. -1.
</event>
<event>
 7    1  0.1485408E-008  0.4614232E+02  0.7816164E-02  0.1320468E+00
        -11   -1    0    0    0    0  0.00000000000E+00  0.00000000000E+00  0.45593999997E+02  0.45594000000E+02  0.51100000000E-03 0.  1.
         11   -1    0    0    0    0 -0.00000000000E+00 -0.00000000000E+00 -0.45593999997E+02  0.45594000000E+02  0.51100000000E-03 0. -1.
    9900012    2    1    2    0    0  0.13844377563E+02 -0.35818326916E+02  0.23547699230E+02  0.46142317941E+02  0.10000001636E+02 0.  0.
         12    1    1    2    0    0 -0.13844377563E+02  0.35818326916E+02 -0.23547699230E+02  0.45045682059E+02  0.00000000000E+00 0. -1.
         11    1    3    3    0    0  0.77919735246E+01 -0.24104024649E+02  0.11321548489E+02  0.27747005535E+02  0.51100000000E-03 0. -1.
        -11    1    3    3    0    0  0.46630587361E+01 -0.48154528818E+01  0.61825167606E+01  0.91190030699E+01  0.51100000000E-03 0.  1.
        -12    1    3    3    0    0  0.13893453025E+01 -0.68988493850E+01  0.60436339800E+01  0.92763093356E+01  0.00000000000E+00 0.  1.
</event>
<event>
 7    1  0.1485408E-008  0.4614232E+02  0.7816164E-02  0.1320468E+00
        -11   -1    0    0    0    0  0.00000000000E+00  0.00000000000E+00  0.45593999997E+02  0.45594000000E+02  0.51100000000E-03 0.  1.
         11   -1    0    0    0    0 -0.00000000000E+00 -0.00000000000E+00 -0.45593999997E+02  0.45594000000E+02  0.51100000000E-03 0. -1.
    9900012    2    1    2    0    0  0.32919407857E+02 -0.29186129894E+02 -0.96744874048E+01  0.46142319870E+02  0.10000019226E+02 0.  0.
         12    1    1    2    0    0 -0.32919407857E+02  0.29186129894E+02  0.96744874048E+01  0.45045680130E+02  0.00000000000E+00 0. -1.
         11    1    3    3    0    0  0.21589950162E+02 -0.13917509040E+02 -0.31513416489E+01  0.25879605104E+02  0.51100000000E-03 0.  1.
        -11    1    3    3    0    0  0.11002394697E+02 -0.15310861034E+02 -0.64223699894E+01  0.19917881193E+02  0.51100000000E-03 0. -1.
         12    1    3    3    0    0  0.32706299813E+00  0.42240180308E-01 -0.10077576649E+00  0.34483357245E+00  0.00000000000E+00 0. -1.
</event>
<event>
 7    1  0.1485408E-008  0.4614231E+02  0.7816164E-02  0.1320468E+00
        -11   -1    0    0    0    0  0.00000000000E+00  0.00000000000E+00  0.45593999997E+02  0.45594000000E+02  0.51100000000E-03 0. -1.
         11   -1    0    0    0    0 -0.00000000000E+00 -0.00000000000E+00 -0.45593999997E+02  0.45594000000E+02  0.51100000000E-03 0.  1.
    9900012    2    1    2    0    0  0.37299673270E+02 -0.24933650261E+02 -0.40201054025E+01  0.46142314426E+02  0.99999695890E+01 0.  0.
         12    1    1    2    0    0 -0.37299673270E+02  0.24933650261E+02  0.40201054025E+01  0.45045685574E+02  0.00000000000E+00 0. -1.
         11    1    3    3    0    0  0.20373324957E+02 -0.10198920211E+02 -0.41340337711E+01  0.23155573384E+02  0.51100000000E-03 0. -1.
        -11    1    3    3    0    0  0.77231724513E+01 -0.75996820095E+01  0.24521481425E+01  0.11109256957E+02  0.51100000000E-03 0.  1.
         12    1    3    3    0    0  0.92031758615E+01 -0.71350480409E+01 -0.23382197739E+01  0.11877484085E+02  0.00000000000E+00 0. -1.
</event>
<event>
 7    1  0.1485408E-008  0.4614232E+02  0.7816164E-02  0.1320468E+00
        -11   -1    0    0    0    0  0.00000000000E+00  0.00000000000E+00  0.45593999997E+02  0.45594000000E+02  0.51100000000E-03 0.  1.
         11   -1    0    0    0    0 -0.00000000000E+00 -0.00000000000E+00 -0.45593999997E+02  0.45594000000E+02  0.51100000000E-03 0. -1.
    9900012    2    1    2    0    0  0.42357672445E+02 -0.32509965065E+01 -0.14979056744E+02  0.46142317253E+02  0.99999953658E+01 0.  0.
         12    1    1    2    0    0 -0.42357672445E+02  0.32509965065E+01  0.14979056744E+02  0.45045682747E+02  0.00000000000E+00 0. -1.
         11    1    3    3    0    0  0.65918250213E-01 -0.34589221691E+00 -0.14715717708E+01  0.15131128111E+01  0.51100000000E-03 0. -1.
        -11    1    3    3    0    0  0.31052633037E+02 -0.36764255285E+01 -0.97972867565E+01  0.32768413927E+02  0.51100000000E-03 0.  1.
        -12    1    3    3    0    0  0.11239121157E+02  0.77132123891E+00 -0.37101982163E+01  0.11860790515E+02  0.00000000000E+00 0.  1.
</event>
<event>
 7    1  0.1485408E-008  0.4614232E+02  0.7816164E-02  0.1320468E+00
        -11   -1    0    0    0    0  0.00000000000E+00  0.00000000000E+00  0.45593999997E+02  0.45594000000E+02  0.51100000000E-03 0. -1.
         11   -1    0    0    0    0 -0.00000000000E+00 -0.00000000000E+00 -0.45593999997E+02  0.45594000000E+02  0.51100000000E-03 0.  1.
    9900012    2    1    2    0    0 -0.90432140026E+01 -0.43747540635E+02  0.57867532824E+01  0.46142317136E+02  0.99999942998E+01 0.  0.
         12    1    1    2    0    0  0.90432140026E+01  0.43747540635E+02 -0.57867532824E+01  0.45045682864E+02  0.00000000000E+00 0. -1.
         11    1    3    3    0    0 -0.66740483452E-01 -0.14821189053E+01 -0.82196221168E+00  0.16960993132E+01  0.51100000000E-03 0. -1.
        -11    1    3    3    0    0 -0.96963684207E+01 -0.33947518986E+02  0.32766790129E+01  0.35456878479E+02  0.51100000000E-03 0.  1.
        -12    1    3    3    0    0  0.71989490161E+00 -0.83179027438E+01  0.33320364812E+01  0.89893393437E+01  0.00000000000E+00 0.  1.
</event>
<event>
 7    1  0.1485408E-008  0.4614232E+02  0.7816164E-02  0.1320468E+00
        -11   -1    0    0    0    0  0.00000000000E+00  0.00000000000E+00  0.45593999997E+02  0.45594000000E+02  0.51100000000E-03 0.  1.
         11   -1    0    0    0    0 -0.00000000000E+00 -0.00000000000E+00 -0.45593999997E+02  0.45594000000E+02  0.51100000000E-03 0. -1.
    9900012    2    1    2    0    0 -0.17849545509E+02  0.37728862163E+02 -0.16942255524E+02  0.46142319439E+02  0.10000015299E+02 0.  0.
         12    1    1    2    0    0  0.17849545509E+02 -0.37728862163E+02  0.16942255524E+02  0.45045680561E+02  0.00000000000E+00 0. -1.
         11    1    3    3    0    0 -0.10573785716E+01  0.55579649806E+01 -0.34827943407E+01  0.66437098710E+01  0.51100000000E-03 0. -1.
        -11    1    3    3    0    0 -0.10821843088E+02  0.24787186688E+02 -0.67627505480E+01  0.27879234333E+02  0.51100000000E-03 0.  1.
        -12    1    3    3    0    0 -0.59703238494E+01  0.73837104940E+01 -0.66967106350E+01  0.11619375235E+02  0.00000000000E+00 0.  1.
</event>
<event>
 7    1  0.1485408E-008  0.4614232E+02  0.7816164E-02  0.1320468E+00
        -11   -1    0    0    0    0  0.00000000000E+00  0.00000000000E+00  0.45593999997E+02  0.45594000000E+02  0.51100000000E-03 0.  1.
         11   -1    0    0    0    0 -0.00000000000E+00 -0.00000000000E+00 -0.45593999997E+02  0.45594000000E+02  0.51100000000E-03 0. -1.
    9900012    2    1    2    0    0 -0.13805292380E+02 -0.26351066767E+02  0.33825269253E+02  0.46142315884E+02  0.99999828810E+01 0.  0.
         12    1    1    2    0    0  0.13805292380E+02  0.26351066767E+02 -0.33825269253E+02  0.45045684116E+02  0.00000000000E+00 0. -1.
         11    1    3    3    0    0  0.74707509158E+00 -0.49340431764E+01  0.37938976062E+01  0.62686970390E+01  0.51100000000E-03 0. -1.
        -11    1    3    3    0    0 -0.61484249985E+01 -0.11814435203E+02  0.17468149177E+02  0.21966343462E+02  0.51100000000E-03 0.  1.
         12    1    3    3    0    0 -0.84039424732E+01 -0.96025883874E+01  0.12563222470E+02  0.17907275383E+02  0.00000000000E+00 0. -1.
</event>
<event>
 7    1  0.1485408E-008  0.4614232E+02  0.7816164E-02  0.1320468E+00
        -11   -1    0    0    0    0  0.00000000000E+00  0.00000000000E+00  0.45593999997E+02  0.45594000000E+02  0.51100000000E-03 0.  1.
         11   -1    0    0    0    0 -0.00000000000E+00 -0.00000000000E+00 -0.45593999997E+02  0.45594000000E+02  0.51100000000E-03 0. -1.
    9900012    2    1    2    0    0 -0.37436236399E+02 -0.17047143546E+01  0.24994712254E+02  0.46142317772E+02  0.10000000099E+02 0.  0.
         12    1    1    2    0    0  0.37436236399E+02  0.17047143546E+01 -0.24994712254E+02  0.45045682228E+02  0.00000000000E+00 0. -1.
         11    1    3    3    0    0 -0.98080070276E+01 -0.16799317700E+01  0.18955676303E+01  0.10129775393E+02  0.51100000000E-03 0. -1.
        -11    1    3    3    0    0 -0.13292442539E+02 -0.68314948155E-01  0.11125029324E+02  0.17333781275E+02  0.51100000000E-03 0.  1.
         12    1    3    3    0    0 -0.14335786833E+02  0.43532363613E-01  0.11974115300E+02  0.18678761104E+02  0.00000000000E+00 0. -1.
</event>
<event>
 7    1  0.1485408E-008  0.4614232E+02  0.7816164E-02  0.1320468E+00
        -11   -1    0    0    0    0  0.00000000000E+00  0.00000000000E+00  0.45593999997E+02  0.45594000000E+02  0.51100000000E-03 0. -1.
         11   -1    0    0    0    0 -0.00000000000E+00 -0.00000000000E+00 -0.45593999997E+02  0.45594000000E+02  0.51100000000E-03 0.  1.
    9900012    2    1    2    0    0  0.22393849666E+02  0.37279269926E+02 -0.11742434114E+02  0.46142320651E+02  0.10000026356E+02 0.  0.
         12    1    1    2    0    0 -0.22393849666E+02 -0.37279269926E+02  0.11742434114E+02  0.45045679349E+02  0.00000000000E+00 0. -1.
         11    1    3    3    0    0  0.44993052862E-01  0.49295807692E+01 -0.25920405036E+01  0.55696916583E+01  0.51100000000E-03 0. -1.
        -11    1    3    3    0    0  0.22252642857E+02  0.31921778959E+02 -0.85697577543E+01  0.39844959960E+02  0.51100000000E-03 0.  1.
        -12    1    3    3    0    0  0.96213756231E-01  0.42791019802E+00 -0.58063585579E+00  0.72766903293E+00  0.00000000000E+00 0.  1.
</event>
<event>
 7    1  0.1485408E-008  0.4614232E+02  0.7816164E-02  0.1320468E+00
        -11   -1    0    0    0    0  0.00000000000E+00  0.00000000000E+00  0.45593999997E+02  0.45594000000E+02  0.51100000000E-03 0.  1.
         11   -1    0    0    0    0 -0.00000000000E+00 -0.00000000000E+00 -0.45593999997E+02  0.45594000000E+02  0.51100000000E-03 0. -1.
    9900012    2    1    2    0    0  0.12995460485E+01  0.58926366186E+01  0.44639684923E+02  0.46142318117E+02  0.10000003244E+02 0.  0.
         12    1    1    2    0    0 -0.12995460485E+01 -0.58926366186E+01 -0.44639684923E+02  0.45045681883E+02  0.00000000000E+00 0. -1.
         11    1    3    3    0    0 -0.33232644650E+01  0.26615597601E+01  0.25906259678E+02  0.26253805016E+02  0.51100000000E-03 0. -1.
        -11    1    3    3    0    0  0.43607967649E+01  0.39488679589E+01  0.17135902468E+02  0.18117650516E+02  0.51100000000E-03 0.  1.
         12    1    3    3    0    0  0.26201374859E+00 -0.71779110043E+00  0.15975227780E+01  0.17708625849E+01  0.00000000000E+00 0. -1.
</event>
<event>
 7    1  0.1485408E-008  0.4614232E+02  0.7816164E-02  0.1320468E+00
        -11   -1    0    0    0    0  0.00000000000E+00  0.00000000000E+00  0.45593999997E+02  0.45594000000E+02  0.51100000000E-03 0.  1.
         11   -1    0    0    0    0 -0.00000000000E+00 -0.00000000000E+00 -0.45593999997E+02  0.45594000000E+02  0.51100000000E-03 0. -1.
    9900012    2    1    2    0    0 -0.43207431117E+02  0.12642699281E+02  0.15470825807E+01  0.46142318594E+02  0.10000007591E+02 0.  0.
         12    1    1    2    0    0  0.43207431117E+02 -0.12642699281E+02 -0.15470825807E+01  0.45045681406E+02  0.00000000000E+00 0. -1.
         11    1    3    3    0    0 -0.21927442595E+02  0.19639313049E+01  0.13903120802E+01  0.22059073708E+02  0.51100000000E-03 0.  1.
        -11    1    3    3    0    0 -0.20719198773E+02  0.10842246065E+02 -0.22452996892E+00  0.23385677486E+02  0.51100000000E-03 0. -1.
         12    1    3    3    0    0 -0.56078974906E+00 -0.16347808871E+00  0.38130046935E+00  0.69756739894E+00  0.00000000000E+00 0. -1.
</event>
<event>
 7    1  0.1485408E-008  0.4614232E+02  0.7816164E-02  0.1320468E+00
        -11   -1    0    0    0    0  0.00000000000E+00  0.00000000000E+00  0.45593999997E+02  0.45594000000E+02  0.51100000000E-03 0.  1.
         11   -1    0    0    0    0 -0.00000000000E+00 -0.00000000000E+00 -0.45593999997E+02  0.45594000000E+02  0.51100000000E-03 0. -1.
    9900012    2    1    2    0    0 -0.26964247946E+02 -0.15364799765E+02  0.32649131273E+02  0.46142317499E+02  0.99999976070E+01 0.  0.
         12    1    1    2    0    0  0.26964247946E+02  0.15364799765E+02 -0.32649131273E+02  0.45045682501E+02  0.00000000000E+00 0. -1.
         11    1    3    3    0    0 -0.87828089921E+01 -0.26194510431E+01  0.43327325827E+01  0.10137644177E+02  0.51100000000E-03 0. -1.
        -11    1    3    3    0    0 -0.16848662996E+02 -0.11843384874E+02  0.25711319077E+02  0.32942603707E+02  0.51100000000E-03 0.  1.
         12    1    3    3    0    0 -0.13327759576E+01 -0.90196384816E+00  0.26050796133E+01  0.30620696151E+01  0.00000000000E+00 0. -1.
</event>
<event>
 7    1  0.1485408E-008  0.4614232E+02  0.7816164E-02  0.1320468E+00
        -11   -1    0    0    0    0  0.00000000000E+00  0.00000000000E+00  0.45593999997E+02  0.45594000000E+02  0.51100000000E-03 0.  1.
         11   -1    0    0    0    0 -0.00000000000E+00 -0.00000000000E+00 -0.45593999997E+02  0.45594000000E+02  0.51100000000E-03 0. -1.
    9900012    2    1    2    0    0  0.82464620912E+01  0.42781644006E+02  0.11438544386E+02  0.46142317648E+02  0.99999989693E+01 0.  0.
         12    1    1    2    0    0 -0.82464620912E+01 -0.42781644006E+02 -0.11438544386E+02  0.45045682352E+02  0.00000000000E+00 0. -1.
         11    1    3    3    0    0  0.56322258263E+01  0.12472728326E+02  0.17590405786E+01  0.13798012309E+02  0.51100000000E-03 0. -1.
        -11    1    3    3    0    0  0.38142659706E-01  0.66706213371E+01  0.43875054954E+01  0.79842876087E+01  0.51100000000E-03 0.  1.
         12    1    3    3    0    0  0.25760936052E+01  0.23638294343E+02  0.52919983123E+01  0.24360017730E+02  0.00000000000E+00 0. -1.
</event>
<event>
 7    1  0.1485408E-008  0.4614232E+02  0.7816164E-02  0.1320468E+00
        -11   -1    0    0    0    0  0.00000000000E+00  0.00000000000E+00  0.45593999997E+02  0.45594000000E+02  0.51100000000E-03 0. -1.
         11   -1    0    0    0    0 -0.00000000000E+00 -0.00000000000E+00 -0.45593999997E+02  0.45594000000E+02  0.51100000000E-03 0.  1.
    9900012    2    1    2    0    0 -0.44965652952E+02  0.26758957762E+01  0.20784032006E+00  0.46142316952E+02  0.99999926261E+01 0.  0.
         12    1    1    2    0    0  0.44965652952E+02 -0.26758957762E+01 -0.20784032006E+00  0.45045683048E+02  0.00000000000E+00 0. -1.
         11    1    3    3    0    0 -0.37867724372E+02  0.11608203726E+01 -0.31363632078E+01  0.38015113146E+02  0.51100000000E-03 0. -1.
        -11    1    3    3    0    0 -0.69436787313E+01  0.16416560135E+01  0.30230277045E+01  0.77490906275E+01  0.51100000000E-03 0.  1.
         12    1    3    3    0    0 -0.15424984873E+00 -0.12658060992E+00  0.32117582340E+00  0.37811317906E+00  0.00000000000E+00 0. -1.
</event>
<event>
 7    1  0.1485408E-008  0.4614231E+02  0.7816164E-02  0.1320468E+00
        -11   -1    0    0    0    0  0.00000000000E+00  0.00000000000E+00  0.45593999997E+02  0.45594000000E+02  0.51100000000E-03 0.  1.
         11   -1    0    0    0    0 -0.00000000000E+00 -0.00000000000E+00 -0.45593999997E+02  0.45594000000E+02  0.51100000000E-03 0. -1.
    9900012    2    1    2    0    0  0.22655012215E+02 -0.13278746281E+02  0.36599714997E+02  0.46142314090E+02  0.99999665217E+01 0.  0.
         12    1    1    2    0    0 -0.22655012215E+02  0.13278746281E+02 -0.36599714997E+02  0.45045685910E+02  0.00000000000E+00 0. -1.
         11    1    3    3    0    0 -0.38928185253E+00  0.83095217083E+00  0.72822008088E+00  0.11714634515E+01  0.51100000000E-03 0. -1.
        -11    1    3    3    0    0  0.17635518161E+02 -0.98252693745E+01  0.25726188704E+02  0.32701440405E+02  0.51100000000E-03 0.  1.
         12    1    3    3    0    0  0.54087759067E+01 -0.42844290769E+01  0.10145306212E+02  0.12269410233E+02  0.00000000000E+00 0. -1.
</event>
<event>
 7    1  0.1485408E-008  0.4614232E+02  0.7816164E-02  0.1320468E+00
        -11   -1    0    0    0    0  0.00000000000E+00  0.00000000000E+00  0.45593999997E+02  0.45594000000E+02  0.51100000000E-03 0.  1.
         11   -1    0    0    0    0 -0.00000000000E+00 -0.00000000000E+00 -0.45593999997E+02  0.45594000000E+02  0.51100000000E-03 0. -1.
    9900012    2    1    2    0    0 -0.12948706842E+02 -0.29403229885E+01  0.43044152325E+02  0.46142316993E+02  0.99999929984E+01 0.  0.
         12    1    1    2    0    0  0.12948706842E+02  0.29403229885E+01 -0.43044152325E+02  0.45045683007E+02  0.00000000000E+00 0. -1.
         11    1    3    3    0    0 -0.32378596578E+01 -0.39232009614E+01  0.10429614259E+02  0.11603968925E+02  0.51100000000E-03 0. -1.
        -11    1    3    3    0    0 -0.16529637644E+00  0.28868872326E+00  0.96960031042E+01  0.97017081242E+01  0.51100000000E-03 0.  1.
        -12    1    3    3    0    0 -0.95455508076E+01  0.69418924958E+00  0.22918534962E+02  0.24836639944E+02  0.00000000000E+00 0.  1.
</event>
<event>
 7    1  0.1485408E-008  0.4614232E+02  0.7816164E-02  0.1320468E+00
        -11   -1    0    0    0    0  0.00000000000E+00  0.00000000000E+00  0.45593999997E+02  0.45594000000E+02  0.51100000000E-03 0.  1.
         11   -1    0    0    0    0 -0.00000000000E+00 -0.00000000000E+00 -0.45593999997E+02  0.45594000000E+02  0.51100000000E-03 0. -1.
    9900012    2    1    2    0    0 -0.34399832756E+01  0.41893635155E+02  0.16192693509E+02  0.46142317915E+02  0.10000001404E+02 0.  0.
         12    1    1    2    0    0  0.34399832756E+01 -0.41893635155E+02 -0.16192693509E+02  0.45045682085E+02  0.00000000000E+00 0. -1.
         11    1    3    3    0    0  0.20591792665E+00  0.10632280979E+01 -0.60027782813E+00  0.12382204621E+01  0.51100000000E-03 0. -1.
        -11    1    3    3    0    0 -0.74250692719E+00  0.98672008120E-01 -0.47750978270E-02  0.74904990808E+00  0.51100000000E-03 0.  1.
        -12    1    3    3    0    0 -0.29033942750E+01  0.40731735049E+02  0.16797746435E+02  0.44155047545E+02  0.00000000000E+00 0.  1.
</event>
<event>
 7    1  0.1485408E-008  0.4614232E+02  0.7816164E-02  0.1320468E+00
        -11   -1    0    0    0    0  0.00000000000E+00  0.00000000000E+00  0.45593999997E+02  0.45594000000E+02  0.51100000000E-03 0. -1.
         11   -1    0    0    0    0 -0.00000000000E+00 -0.00000000000E+00 -0.45593999997E+02  0.45594000000E+02  0.51100000000E-03 0.  1.
    9900012    2    1    2    0    0 -0.12320067448E+02  0.10490638400E+02 -0.42038980876E+02  0.46142317976E+02  0.10000001957E+02 0.  0.
         12    1    1    2    0    0  0.12320067448E+02 -0.10490638400E+02  0.42038980876E+02  0.45045682024E+02  0.00000000000E+00 0. -1.
         11    1    3    3    0    0 -0.26926395226E+00 -0.10644201802E+01 -0.38425885384E+01  0.39963708953E+01  0.51100000000E-03 0. -1.
        -11    1    3    3    0    0 -0.10835514461E+02  0.98721740324E+01 -0.26657976679E+02  0.30422293054E+02  0.51100000000E-03 0.  1.
        -12    1    3    3    0    0 -0.12152890352E+01  0.16828845478E+01 -0.11538415658E+02  0.11723654027E+02  0.00000000000E+00 0.  1.
</event>
<event>
 7    1  0.1485408E-008  0.4614232E+02  0.7816164E-02  0.1320468E+00
        -11   -1    0    0    0    0  0.00000000000E+00  0.00000000000E+00  0.45593999997E+02  0.45594000000E+02  0.51100000000E-03 0.  1.
         11   -1    0    0    0    0 -0.00000000000E+00 -0.00000000000E+00 -0.45593999997E+02  0.45594000000E+02  0.51100000000E-03 0. -1.
    9900012    2    1    2    0    0 -0.18378164839E+01 -0.26542574149E+02  0.36348695110E+02  0.46142318208E+02  0.10000004074E+02 0.  0.
         12    1    1    2    0    0  0.18378164839E+01  0.26542574149E+02 -0.36348695110E+02  0.45045681792E+02  0.00000000000E+00 0. -1.
         11    1    3    3    0    0 -0.51790888087E+00 -0.80998428964E+00  0.24888593424E+01  0.26680939349E+01  0.51100000000E-03 0. -1.
        -11    1    3    3    0    0 -0.81946722619E+00 -0.73092966346E+00 -0.30110827032E+00  0.11386180919E+01  0.51100000000E-03 0.  1.
        -12    1    3    3    0    0 -0.50044037679E+00 -0.25001660196E+02  0.34160944038E+02  0.42335606181E+02  0.00000000000E+00 0.  1.
</event>
<event>
 7    1  0.1485408E-008  0.4614232E+02  0.7816164E-02  0.1320468E+00
        -11   -1    0    0    0    0  0.00000000000E+00  0.00000000000E+00  0.45593999997E+02  0.45594000000E+02  0.51100000000E-03 0.  1.
         11   -1    0    0    0    0 -0.00000000000E+00 -0.00000000000E+00 -0.45593999997E+02  0.45594000000E+02  0.51100000000E-03 0. -1.
    9900012    2    1    2    0    0  0.34969820361E+02 -0.15936663792E+02 -0.23499954300E+02  0.46142318287E+02  0.10000004794E+02 0.  0.
         12    1    1    2    0    0 -0.34969820361E+02  0.15936663792E+02  0.23499954300E+02  0.45045681713E+02  0.00000000000E+00 0. -1.
         11    1    3    3    0    0  0.40226483052E+01 -0.39319674770E+01 -0.59658803127E+00  0.56566761589E+01  0.51100000000E-03 0. -1.
        -11    1    3    3    0    0  0.78271576436E+01 -0.24314355728E+01 -0.39732983767E+01  0.91084233528E+01  0.51100000000E-03 0.  1.
         12    1    3    3    0    0  0.23120014412E+02 -0.95732607422E+01 -0.18930067892E+02  0.31377218775E+02  0.00000000000E+00 0. -1.
</event>
<event>
 7    1  0.1485408E-008  0.4614232E+02  0.7816164E-02  0.1320468E+00
        -11   -1    0    0    0    0  0.00000000000E+00  0.00000000000E+00  0.45593999997E+02  0.45594000000E+02  0.51100000000E-03 0.  1.
         11   -1    0    0    0    0 -0.00000000000E+00 -0.00000000000E+00 -0.45593999997E+02  0.45594000000E+02  0.51100000000E-03 0. -1.
    9900012    2    1    2    0    0 -0.35894900567E+02 -0.16180647386E+02  0.21882782324E+02  0.46142318755E+02  0.10000009067E+02 0.  0.
         12    1    1    2    0    0  0.35894900567E+02  0.16180647386E+02 -0.21882782324E+02  0.45045681245E+02  0.00000000000E+00 0. -1.
         11    1    3    3    0    0 -0.32772334593E+02 -0.12651701418E+02  0.21125973490E+02  0.40992660557E+02  0.51100000000E-03 0.  1.
        -11    1    3    3    0    0 -0.19796115342E+01 -0.22698862662E+01 -0.47612567350E+00  0.30492525979E+01  0.51100000000E-03 0. -1.
        -12    1    3    3    0    0 -0.11429544406E+01 -0.12590597019E+01  0.12329345073E+01  0.21004056002E+01  0.00000000000E+00 0.  1.
</event>
<event>
 7    1  0.1485408E-008  0.4614232E+02  0.7816164E-02  0.1320468E+00
        -11   -1    0    0    0    0  0.00000000000E+00  0.00000000000E+00  0.45593999997E+02  0.45594000000E+02  0.51100000000E-03 0.  1.
         11   -1    0    0    0    0 -0.00000000000E+00 -0.00000000000E+00 -0.45593999997E+02  0.45594000000E+02  0.51100000000E-03 0. -1.
    9900012    2    1    2    0    0 -0.16323767096E+02  0.19505717599E+02  0.37177615534E+02  0.46142317765E+02  0.10000000031E+02 0.  0.
         12    1    1    2    0    0  0.16323767096E+02 -0.19505717599E+02 -0.37177615534E+02  0.45045682235E+02  0.00000000000E+00 0. -1.
         11    1    3    3    0    0 -0.92537470315E+01  0.14235533942E+02  0.19665682396E+02  0.25981172512E+02  0.51100000000E-03 0. -1.
        -11    1    3    3    0    0 -0.10912312839E+01  0.36010831116E+01  0.72358971764E+01  0.81557828257E+01  0.51100000000E-03 0.  1.
         12    1    3    3    0    0 -0.59787887802E+01  0.16691005454E+01  0.10276035962E+02  0.12005362427E+02  0.00000000000E+00 0. -1.
</event>
<event>
 7    1  0.1485408E-008  0.4614232E+02  0.7816164E-02  0.1320468E+00
        -11   -1    0    0    0    0  0.00000000000E+00  0.00000000000E+00  0.45593999997E+02  0.45594000000E+02  0.51100000000E-03 0.  1.
         11   -1    0    0    0    0 -0.00000000000E+00 -0.00000000000E+00 -0.45593999997E+02  0.45594000000E+02  0.51100000000E-03 0. -1.
    9900012    2    1    2    0    0  0.23001497592E+02 -0.68879719997E+01  0.38112995451E+02  0.46142317943E+02  0.10000001661E+02 0.  0.
         12    1    1    2    0    0 -0.23001497592E+02  0.68879719997E+01 -0.38112995451E+02  0.45045682057E+02  0.00000000000E+00 0. -1.
         11    1    3    3    0    0  0.50179508459E+01 -0.10375888696E+01  0.29272982663E+01  0.59013131382E+01  0.51100000000E-03 0. -1.
        -11    1    3    3    0    0  0.73118693784E+01 -0.37541023088E+01  0.19422921468E+02  0.21090438511E+02  0.51100000000E-03 0.  1.
         12    1    3    3    0    0  0.10671677367E+02 -0.20962808213E+01  0.15762775716E+02  0.19150566294E+02  0.00000000000E+00 0. -1.
</event>
<event>
 7    1  0.1485408E-008  0.4614232E+02  0.7816164E-02  0.1320468E+00
        -11   -1    0    0    0    0  0.00000000000E+00  0.00000000000E+00  0.45593999997E+02  0.45594000000E+02  0.51100000000E-03 0.  1.
         11   -1    0    0    0    0 -0.00000000000E+00 -0.00000000000E+00 -0.45593999997E+02  0.45594000000E+02  0.51100000000E-03 0. -1.
    9900012    2    1    2    0    0 -0.72863364304E+01 -0.29613508088E+02  0.33152118178E+02  0.46142317637E+02  0.99999988705E+01 0.  0.
         12    1    1    2    0    0  0.72863364304E+01  0.29613508088E+02 -0.33152118178E+02  0.45045682363E+02  0.00000000000E+00 0. -1.
         11    1    3    3    0    0 -0.40745723075E+00 -0.12579952300E+02  0.18415143860E+02  0.22305576542E+02  0.51100000000E-03 0. -1.
        -11    1    3    3    0    0 -0.54389380798E+01 -0.16138945293E+02  0.13612679607E+02  0.21802583539E+02  0.51100000000E-03 0.  1.
         12    1    3    3    0    0 -0.14399411198E+01 -0.89461049511E+00  0.11242947111E+01  0.20341575563E+01  0.00000000000E+00 0. -1.
</event>
<event>
 7    1  0.1485408E-008  0.4614232E+02  0.7816164E-02  0.1320468E+00
        -11   -1    0    0    0    0  0.00000000000E+00  0.00000000000E+00  0.45593999997E+02  0.45594000000E+02  0.51100000000E-03 0. -1.
         11   -1    0    0    0    0 -0.00000000000E+00 -0.00000000000E+00 -0.45593999997E+02  0.45594000000E+02  0.51100000000E-03 0.  1.
    9900012    2    1    2    0    0 -0.16751225043E+02 -0.40691133561E+02  0.96302432688E+01  0.46142317895E+02  0.10000001219E+02 0.  0.
         12    1    1    2    0    0  0.16751225043E+02  0.40691133561E+02 -0.96302432688E+01  0.45045682105E+02  0.00000000000E+00 0. -1.
         11    1    3    3    0    0 -0.74790377269E+01 -0.18841794406E+02  0.89380457347E+01  0.22154861399E+02  0.51100000000E-03 0.  1.
        -11    1    3    3    0    0 -0.89370412167E+01 -0.18152305441E+02  0.13384814776E+00  0.20233507212E+02  0.51100000000E-03 0. -1.
         12    1    3    3    0    0 -0.33514609928E+00 -0.36970337136E+01  0.55834938635E+00  0.37539492837E+01  0.00000000000E+00 0. -1.
</event>
<event>
 7    1  0.1485408E-008  0.4614232E+02  0.7816164E-02  0.1320468E+00
        -11   -1    0    0    0    0  0.00000000000E+00  0.00000000000E+00  0.45593999997E+02  0.45594000000E+02  0.51100000000E-03 0.  1.
         11   -1    0    0    0    0 -0.00000000000E+00 -0.00000000000E+00 -0.45593999997E+02  0.45594000000E+02  0.51100000000E-03 0. -1.
    9900012    2    1    2    0    0 -0.12927391913E+02 -0.20715104433E+02  0.37853407131E+02  0.46142318245E+02  0.10000004416E+02 0.  0.
         12    1    1    2    0    0  0.12927391913E+02  0.20715104433E+02 -0.37853407131E+02  0.45045681755E+02  0.00000000000E+00 0. -1.
         11    1    3    3    0    0 -0.16452335535E+01 -0.87799407222E+01  0.94861037904E+01  0.13029977664E+02  0.51100000000E-03 0. -1.
        -11    1    3    3    0    0 -0.83490950685E+01 -0.60203326406E+01  0.14846290696E+02  0.18065551230E+02  0.51100000000E-03 0.  1.
        -12    1    3    3    0    0 -0.29330632906E+01 -0.59148310697E+01  0.13521012645E+02  0.15046789352E+02  0.00000000000E+00 0.  1.
</event>
<event>
 7    1  0.1485408E-008  0.4614231E+02  0.7816164E-02  0.1320468E+00
        -11   -1    0    0    0    0  0.00000000000E+00  0.00000000000E+00  0.45593999997E+02  0.45594000000E+02  0.51100000000E-03 0.  1.
         11   -1    0    0    0    0 -0.00000000000E+00 -0.00000000000E+00 -0.45593999997E+02  0.45594000000E+02  0.51100000000E-03 0. -1.
    9900012    2    1    2    0    0 -0.44321137935E+02  0.63416354813E+01  0.49532076432E+01  0.46142313477E+02  0.99999609320E+01 0.  0.
         12    1    1    2    0    0  0.44321137935E+02 -0.63416354813E+01 -0.49532076432E+01  0.45045686523E+02  0.00000000000E+00 0. -1.
         11    1    3    3    0    0 -0.18074970875E+02  0.57190859685E+01  0.74828649757E+00  0.18972939925E+02  0.51100000000E-03 0. -1.
        -11    1    3    3    0    0 -0.66861748014E+01  0.24158807583E+00 -0.13647048824E+01  0.68283027138E+01  0.51100000000E-03 0.  1.
        -12    1    3    3    0    0 -0.19559992258E+02  0.38096143704E+00  0.55696260279E+01  0.20341070838E+02  0.00000000000E+00 0.  1.
</event>
<event>
 7    1  0.1485408E-008  0.4614232E+02  0.7816164E-02  0.1320468E+00
        -11   -1    0    0    0    0  0.00000000000E+00  0.00000000000E+00  0.45593999997E+02  0.45594000000E+02  0.51100000000E-03 0. -1.
         11   -1    0    0    0    0 -0.00000000000E+00 -0.00000000000E+00 -0.45593999997E+02  0.45594000000E+02  0.51100000000E-03 0.  1.
    9900012    2    1    2    0    0  0.59700973983E+01 -0.11126814642E+02 -0.43239629338E+02  0.46142316386E+02  0.99999874583E+01 0.  0.
         12    1    1    2    0    0 -0.59700973983E+01  0.11126814642E+02  0.43239629338E+02  0.45045683614E+02  0.00000000000E+00 0. -1.
         11    1    3    3    0    0 -0.48522359358E+00 -0.67969111890E+01 -0.12608207428E+02  0.14331794670E+02  0.51100000000E-03 0. -1.
        -11    1    3    3    0    0  0.15388392923E+01 -0.15322981980E+01 -0.36895105949E+01  0.42811742345E+01  0.51100000000E-03 0.  1.
         12    1    3    3    0    0  0.49164816995E+01 -0.27976052547E+01 -0.26941911315E+02  0.27529347481E+02  0.00000000000E+00 0. -1.
</event>
<event>
 7    1  0.1485408E-008  0.4614232E+02  0.7816164E-02  0.1320468E+00
        -11   -1    0    0    0    0  0.00000000000E+00  0.00000000000E+00  0.45593999997E+02  0.45594000000E+02  0.51100000000E-03 0.  1.
         11   -1    0    0    0    0 -0.00000000000E+00 -0.00000000000E+00 -0.45593999997E+02  0.45594000000E+02  0.51100000000E-03 0. -1.
    9900012    2    1    2    0    0 -0.21154664094E+02  0.23153883504E+02  0.32334053239E+02  0.46142321704E+02  0.10000035957E+02 0.  0.
         12    1    1    2    0    0  0.21154664094E+02 -0.23153883504E+02 -0.32334053239E+02  0.45045678296E+02  0.00000000000E+00 0. -1.
         11    1    3    3    0    0 -0.15516181324E+01  0.16208008230E+01  0.64105992192E+00  0.23335535608E+01  0.51100000000E-03 0. -1.
        -11    1    3    3    0    0 -0.56316864698E+01  0.11354972234E+02  0.16416208102E+02  0.20739893337E+02  0.51100000000E-03 0.  1.
        -12    1    3    3    0    0 -0.13971359491E+02  0.10178110448E+02  0.15276785215E+02  0.23068874806E+02  0.00000000000E+00 0.  1.
</event>
<event>
 7    1  0.1485408E-008  0.4614232E+02  0.7816164E-02  0.1320468E+00
        -11   -1    0    0    0    0  0.00000000000E+00  0.00000000000E+00  0.45593999997E+02  0.45594000000E+02  0.51100000000E-03 0. -1.
         11   -1    0    0    0    0 -0.00000000000E+00 -0.00000000000E+00 -0.45593999997E+02  0.45594000000E+02  0.51100000000E-03 0.  1.
    9900012    2    1    2    0    0  0.15284002111E+02  0.42286619209E+02  0.27119342148E+01  0.46142317945E+02  0.10000001674E+02 0.  0.
         12    1    1    2    0    0 -0.15284002111E+02 -0.42286619209E+02 -0.27119342148E+01  0.45045682055E+02  0.00000000000E+00 0. -1.
         11    1    3    3    0    0 -0.63563652854E+00  0.50611774730E+00  0.78047854202E+00  0.11266481200E+01  0.51100000000E-03 0. -1.
        -11    1    3    3    0    0  0.13296054710E+02  0.29724178775E+02  0.25193505327E+00  0.32563405016E+02  0.51100000000E-03 0.  1.
         12    1    3    3    0    0  0.26235839303E+01  0.12056322687E+02  0.16795206195E+01  0.12452264809E+02  0.00000000000E+00 0. -1.
</event>
<event>
 7    1  0.1485408E-008  0.4614232E+02  0.7816164E-02  0.1320468E+00
        -11   -1    0    0    0    0  0.00000000000E+00  0.00000000000E+00  0.45593999997E+02  0.45594000000E+02  0.51100000000E-03 0.  1.
         11   -1    0    0    0    0 -0.00000000000E+00 -0.00000000000E+00 -0.45593999997E+02  0.45594000000E+02  0.51100000000E-03 0. -1.
    9900012    2    1    2    0    0 -0.27821743913E+01  0.16579794684E+02  0.41790949259E+02  0.46142317342E+02  0.99999961815E+01 0.  0.
         12    1    1    2    0    0  0.27821743913E+01 -0.16579794684E+02 -0.41790949259E+02  0.45045682658E+02  0.00000000000E+00 0. -1.
         11    1    3    3    0    0 -0.33115195765E+01  0.85934749206E+01  0.13156903149E+02  0.16059827952E+02  0.51100000000E-03 0. -1.
        -11    1    3    3    0    0  0.15750321249E+01  0.78071682393E+01  0.26854883204E+02  0.28011022014E+02  0.51100000000E-03 0.  1.
         12    1    3    3    0    0 -0.10456869398E+01  0.17915152460E+00  0.17791629058E+01  0.20714673761E+01  0.00000000000E+00 0. -1.
</event>
<event>
 7    1  0.1670311E-008  0.4614232E+02  0.7816164E-02  0.1320468E+00
        -11   -1    0    0    0    0  0.00000000000E+00  0.00000000000E+00  0.45593999997E+02  0.45594000000E+02  0.51100000000E-03 0. -1.
         11   -1    0    0    0    0 -0.00000000000E+00 -0.00000000000E+00 -0.45593999997E+02  0.45594000000E+02  0.51100000000E-03 0.  1.
    9900012    2    1    2    0    0  0.12043822765E+02  0.40853263217E+02 -0.14665288975E+02  0.46142317820E+02  0.10000000541E+02 0.  0.
         12    1    1    2    0    0 -0.12043822765E+02 -0.40853263217E+02  0.14665288975E+02  0.45045682180E+02  0.00000000000E+00 0. -1.
         11    1    3    3    0    0 -0.11342181216E+01  0.66342902225E+01 -0.39819959017E+00  0.67423156763E+01  0.51100000000E-03 0. -1.
        -11    1    3    3    0    0  0.68992378760E+01  0.15587047327E+02 -0.59932658076E+01  0.18068612646E+02  0.51100000000E-03 0.  1.
         12    1    3    3    0    0  0.62788030109E+01  0.18631925667E+02 -0.82738235777E+01  0.21331389498E+02  0.00000000000E+00 0. -1.
</event>
<event>
 7    1  0.1485408E-008  0.4614232E+02  0.7816164E-02  0.1320468E+00
        -11   -1    0    0    0    0  0.00000000000E+00  0.00000000000E+00  0.45593999997E+02  0.45594000000E+02  0.51100000000E-03 0.  1.
         11   -1    0    0    0    0 -0.00000000000E+00 -0.00000000000E+00 -0.45593999997E+02  0.45594000000E+02  0.51100000000E-03 0. -1.
    9900012    2    1    2    0    0 -0.90653490619E+00 -0.57088765965E+01  0.44673263197E+02  0.46142317386E+02  0.99999965802E+01 0.  0.
         12    1    1    2    0    0  0.90653490619E+00  0.57088765965E+01 -0.44673263197E+02  0.45045682614E+02  0.00000000000E+00 0. -1.
         11    1    3    3    0    0 -0.56143519810E+00  0.23779409209E+01  0.93820525507E+01  0.96949844162E+01  0.51100000000E-03 0. -1.
        -11    1    3    3    0    0  0.32668964216E-01 -0.62060375318E+01  0.32321330106E+02  0.32911766121E+02  0.51100000000E-03 0.  1.
        -12    1    3    3    0    0 -0.37776867230E+00 -0.18807799856E+01  0.29698805401E+01  0.35355668494E+01  0.00000000000E+00 0.  1.
</event>
<event>
 7    1  0.1485408E-008  0.4614232E+02  0.7816164E-02  0.1320468E+00
        -11   -1    0    0    0    0  0.00000000000E+00  0.00000000000E+00  0.45593999997E+02  0.45594000000E+02  0.51100000000E-03 0.  1.
         11   -1    0    0    0    0 -0.00000000000E+00 -0.00000000000E+00 -0.45593999997E+02  0.45594000000E+02  0.51100000000E-03 0. -1.
    9900012    2    1    2    0    0 -0.44765332604E+02  0.20915210703E+01 -0.45611216383E+01  0.46142319918E+02  0.10000019664E+02 0.  0.
         12    1    1    2    0    0  0.44765332604E+02 -0.20915210703E+01  0.45611216383E+01  0.45045680082E+02  0.00000000000E+00 0. -1.
         11    1    3    3    0    0 -0.16839774585E+00 -0.29209457391E+00 -0.81855313199E+00  0.88527201014E+00  0.51100000000E-03 0. -1.
        -11    1    3    3    0    0 -0.28562425560E+02  0.70841896862E+00  0.53943257536E+00  0.28576301354E+02  0.51100000000E-03 0.  1.
         12    1    3    3    0    0 -0.16034509298E+02  0.16751966756E+01 -0.42820010817E+01  0.16680746553E+02  0.00000000000E+00 0. -1.
</event>
<event>
 7    1  0.1485408E-008  0.4614232E+02  0.7816164E-02  0.1320468E+00
        -11   -1    0    0    0    0  0.00000000000E+00  0.00000000000E+00  0.45593999997E+02  0.45594000000E+02  0.51100000000E-03 0. -1.
         11   -1    0    0    0    0 -0.00000000000E+00 -0.00000000000E+00 -0.45593999997E+02  0.45594000000E+02  0.51100000000E-03 0.  1.
    9900012    2    1    2    0    0  0.29070453025E+02  0.28202202954E+02 -0.19714410898E+02  0.46142317770E+02  0.10000000078E+02 0.  0.
         12    1    1    2    0    0 -0.29070453025E+02 -0.28202202954E+02  0.19714410898E+02  0.45045682230E+02  0.00000000000E+00 0. -1.
         11    1    3    3    0    0  0.55374734174E+01  0.48762981022E+01  0.21962330626E+00  0.73817429979E+01  0.51100000000E-03 0. -1.
        -11    1    3    3    0    0  0.19343315524E+02  0.19390847173E+02 -0.17602091614E+02  0.32557678649E+02  0.51100000000E-03 0.  1.
         12    1    3    3    0    0  0.41896640840E+01  0.39350576784E+01 -0.23319425906E+01  0.62028961231E+01  0.00000000000E+00 0. -1.
</event>
<event>
 7    1  0.1485408E-008  0.4614232E+02  0.7816164E-02  0.1320468E+00
        -11   -1    0    0    0    0  0.00000000000E+00  0.00000000000E+00  0.45593999997E+02  0.45594000000E+02  0.51100000000E-03 0. -1.
         11   -1    0    0    0    0 -0.00000000000E+00 -0.00000000000E+00 -0.45593999997E+02  0.45594000000E+02  0.51100000000E-03 0.  1.
    9900012    2    1    2    0    0  0.21001807679E+02 -0.20324953145E+02 -0.34277306588E+02  0.46142318819E+02  0.10000009648E+02 0.  0.
         12    1    1    2    0    0 -0.21001807679E+02  0.20324953145E+02  0.34277306588E+02  0.45045681181E+02  0.00000000000E+00 0. -1.
         11    1    3    3    0    0  0.54111682963E+01 -0.13385479401E+01 -0.32720751547E+01  0.64636621971E+01  0.51100000000E-03 0. -1.
        -11    1    3    3    0    0  0.11108751341E+02 -0.11499028717E+02 -0.18891965621E+02  0.24749512784E+02  0.51100000000E-03 0.  1.
         12    1    3    3    0    0  0.44818880426E+01 -0.74873764883E+01 -0.12113265812E+02  0.14929143838E+02  0.00000000000E+00 0. -1.
</event>
<event>
 7    1  0.1485408E-008  0.4614232E+02  0.7816164E-02  0.1320468E+00
        -11   -1    0    0    0    0  0.00000000000E+00  0.00000000000E+00  0.45593999997E+02  0.45594000000E+02  0.51100000000E-03 0.  1.
         11   -1    0    0    0    0 -0.00000000000E+00 -0.00000000000E+00 -0.45593999997E+02  0.45594000000E+02  0.51100000000E-03 0. -1.
    9900012    2    1    2    0    0 -0.79699381589E+01 -0.11500225775E+02  0.42817501171E+02  0.46142317480E+02  0.99999974389E+01 0.  0.
         12    1    1    2    0    0  0.79699381589E+01  0.11500225775E+02 -0.42817501171E+02  0.45045682520E+02  0.00000000000E+00 0. -1.
         11    1    3    3    0    0  0.11900447200E+01 -0.10132754341E+00  0.17926945565E+01  0.21541187852E+01  0.51100000000E-03 0. -1.
        -11    1    3    3    0    0 -0.42608556031E+01 -0.77071121979E+01  0.31080212821E+02  0.32303778389E+02  0.51100000000E-03 0.  1.
         12    1    3    3    0    0 -0.48991272758E+01 -0.36917860339E+01  0.99445937932E+01  0.11684420306E+02  0.00000000000E+00 0. -1.
</event>
<event>
 7    1  0.1485408E-008  0.4614232E+02  0.7816164E-02  0.1320468E+00
        -11   -1    0    0    0    0  0.00000000000E+00  0.00000000000E+00  0.45593999997E+02  0.45594000000E+02  0.51100000000E-03 0.  1.
         11   -1    0    0    0    0 -0.00000000000E+00 -0.00000000000E+00 -0.45593999997E+02  0.45594000000E+02  0.51100000000E-03 0. -1.
    9900012    2    1    2    0    0  0.64217002928E+01  0.33038727932E+02  0.29938567111E+02  0.46142316759E+02  0.99999908628E+01 0.  0.
         12    1    1    2    0    0 -0.64217002928E+01 -0.33038727932E+02 -0.29938567111E+02  0.45045683241E+02  0.00000000000E+00 0. -1.
         11    1    3    3    0    0 -0.13518088110E+00  0.50496643316E+01  0.16281803645E+01  0.53073868611E+01  0.51100000000E-03 0. -1.
        -11    1    3    3    0    0  0.45723622902E+01  0.17857580766E+02  0.22132729642E+02  0.28803774222E+02  0.51100000000E-03 0.  1.
        -12    1    3    3    0    0  0.19845188838E+01  0.10131482834E+02  0.61776571039E+01  0.12031155676E+02  0.00000000000E+00 0.  1.
</event>
<event>
 7    1  0.1485408E-008  0.4614232E+02  0.7816164E-02  0.1320468E+00
        -11   -1    0    0    0    0  0.00000000000E+00  0.00000000000E+00  0.45593999997E+02  0.45594000000E+02  0.51100000000E-03 0.  1.
         11   -1    0    0    0    0 -0.00000000000E+00 -0.00000000000E+00 -0.45593999997E+02  0.45594000000E+02  0.51100000000E-03 0. -1.
    9900012    2    1    2    0    0  0.26845255689E+02 -0.36134974238E+02  0.16460156307E+01  0.46142317813E+02  0.10000000477E+02 0.  0.
         12    1    1    2    0    0 -0.26845255689E+02  0.36134974238E+02 -0.16460156307E+01  0.45045682187E+02  0.00000000000E+00 0. -1.
         11    1    3    3    0    0  0.37099707125E+01 -0.68261447016E+01 -0.24018759786E+01  0.81319827012E+01  0.51100000000E-03 0. -1.
        -11    1    3    3    0    0  0.17357235814E+01 -0.56703688244E+00  0.90896267110E+00  0.20397256129E+01  0.51100000000E-03 0.  1.
        -12    1    3    3    0    0  0.21399561395E+02 -0.28741792654E+02  0.31389289382E+01  0.35970609499E+02  0.00000000000E+00 0.  1.
</event>
<event>
 7    1  0.1485408E-008  0.4614232E+02  0.7816164E-02  0.1320468E+00
        -11   -1    0    0    0    0  0.00000000000E+00  0.00000000000E+00  0.45593999997E+02  0.45594000000E+02  0.51100000000E-03 0. -1.
         11   -1    0    0    0    0 -0.00000000000E+00 -0.00000000000E+00 -0.45593999997E+02  0.45594000000E+02  0.51100000000E-03 0.  1.
    9900012    2    1    2    0    0  0.32392463560E+01  0.43821363138E+02  0.99150802151E+01  0.46142318743E+02  0.10000008958E+02 0.  0.
         12    1    1    2    0    0 -0.32392463560E+01 -0.43821363138E+02 -0.99150802151E+01  0.45045681257E+02  0.00000000000E+00 0. -1.
         11    1    3    3    0    0 -0.19378587996E+01  0.55135334527E+01  0.23220908851E+01  0.62885971568E+01  0.51100000000E-03 0. -1.
        -11    1    3    3    0    0  0.56009209511E+01  0.29705832481E+02  0.78697885878E+01  0.31236843175E+02  0.51100000000E-03 0.  1.
         12    1    3    3    0    0 -0.42381579543E+00  0.86019972041E+01 -0.27679925776E+00  0.86168784115E+01  0.00000000000E+00 0. -1.
</event>
<event>
 7    1  0.1485408E-008  0.4614232E+02  0.7816164E-02  0.1320468E+00
        -11   -1    0    0    0    0  0.00000000000E+00  0.00000000000E+00  0.45593999997E+02  0.45594000000E+02  0.51100000000E-03 0. -1.
         11   -1    0    0    0    0 -0.00000000000E+00 -0.00000000000E+00 -0.45593999997E+02  0.45594000000E+02  0.51100000000E-03 0.  1.
    9900012    2    1    2    0    0  0.22450169025E+02 -0.37185806421E+02 -0.11929766141E+02  0.46142316427E+02  0.99999878301E+01 0.  0.
         12    1    1    2    0    0 -0.22450169025E+02  0.37185806421E+02  0.11929766141E+02  0.45045683573E+02  0.00000000000E+00 0. -1.
         11    1    3    3    0    0 -0.11360719265E-01 -0.20282576381E+00  0.52663878834E+00  0.56446083204E+00  0.51100000000E-03 0. -1.
        -11    1    3    3    0    0  0.13137920049E+02 -0.23288511945E+02 -0.41971274480E+01  0.27066134022E+02  0.51100000000E-03 0.  1.
        -12    1    3    3    0    0  0.93236096957E+01 -0.13694468712E+02 -0.82592774816E+01  0.18511721572E+02  0.00000000000E+00 0.  1.
</event>
<event>
 7    1  0.1485408E-008  0.4614232E+02  0.7816164E-02  0.1320468E+00
        -11   -1    0    0    0    0  0.00000000000E+00  0.00000000000E+00  0.45593999997E+02  0.45594000000E+02  0.51100000000E-03 0. -1.
         11   -1    0    0    0    0 -0.00000000000E+00 -0.00000000000E+00 -0.45593999997E+02  0.45594000000E+02  0.51100000000E-03 0.  1.
    9900012    2    1    2    0    0  0.16051330522E+02 -0.36207775096E+02 -0.21458456122E+02  0.46142317320E+02  0.99999959785E+01 0.  0.
         12    1    1    2    0    0 -0.16051330522E+02  0.36207775096E+02  0.21458456122E+02  0.45045682680E+02  0.00000000000E+00 0. -1.
         11    1    3    3    0    0  0.12417755522E+01 -0.11335732688E+01 -0.31254455508E+01  0.35490005677E+01  0.51100000000E-03 0. -1.
        -11    1    3    3    0    0  0.80827606405E+01 -0.15766989017E+02 -0.11091107382E+02  0.20903148697E+02  0.51100000000E-03 0.  1.
         12    1    3    3    0    0  0.67267943293E+01 -0.19307212811E+02 -0.72419031896E+01  0.21690168056E+02  0.00000000000E+00 0. -1.
</event>
<event>
 7    1  0.1485408E-008  0.4614232E+02  0.7816164E-02  0.1320468E+00
        -11   -1    0    0    0    0  0.00000000000E+00  0.00000000000E+00  0.45593999997E+02  0.45594000000E+02  0.51100000000E-03 0.  1.
         11   -1    0    0    0    0 -0.00000000000E+00 -0.00000000000E+00 -0.45593999997E+02  0.45594000000E+02  0.51100000000E-03 0. -1.
    9900012    2    1    2    0    0  0.24606974991E+02  0.33154133605E+02  0.18011487850E+02  0.46142317767E+02  0.10000000049E+02 0.  0.
         12    1    1    2    0    0 -0.24606974991E+02 -0.33154133605E+02 -0.18011487850E+02  0.45045682233E+02  0.00000000000E+00 0. -1.
         11    1    3    3    0    0  0.93020289011E+01  0.12787239032E+02  0.31846783830E+01  0.16130201499E+02  0.51100000000E-03 0. -1.
        -11    1    3    3    0    0  0.14337874304E+02  0.17001915002E+02  0.10955448174E+02  0.24792369759E+02  0.51100000000E-03 0.  1.
         12    1    3    3    0    0  0.96707178568E+00  0.33649795701E+01  0.38713612933E+01  0.52197465081E+01  0.00000000000E+00 0. -1.
</event>
<event>
 7    1  0.1485408E-008  0.4614232E+02  0.7816164E-02  0.1320468E+00
        -11   -1    0    0    0    0  0.00000000000E+00  0.00000000000E+00  0.45593999997E+02  0.45594000000E+02  0.51100000000E-03 0. -1.
         11   -1    0    0    0    0 -0.00000000000E+00 -0.00000000000E+00 -0.45593999997E+02  0.45594000000E+02  0.51100000000E-03 0.  1.
    9900012    2    1    2    0    0  0.12923695527E+01 -0.44531771184E+02 -0.66606817341E+01  0.46142317132E+02  0.99999942658E+01 0.  0.
         12    1    1    2    0    0 -0.12923695527E+01  0.44531771184E+02  0.66606817341E+01  0.45045682868E+02  0.00000000000E+00 0. -1.
         11    1    3    3    0    0  0.38271893695E+01 -0.13968272127E+02 -0.37186601505E+01  0.14952873913E+02  0.51100000000E-03 0. -1.
        -11    1    3    3    0    0 -0.37926562066E+01 -0.23153123733E+02 -0.31373396692E+01  0.23670536119E+02  0.51100000000E-03 0.  1.
         12    1    3    3    0    0  0.12578363898E+01 -0.74103753235E+01  0.19531808566E+00  0.75189070997E+01  0.00000000000E+00 0. -1.
</event>
<event>
 7    1  0.1485408E-008  0.4614232E+02  0.7816164E-02  0.1320468E+00
        -11   -1    0    0    0    0  0.00000000000E+00  0.00000000000E+00  0.45593999997E+02  0.45594000000E+02  0.51100000000E-03 0.  1.
         11   -1    0    0    0    0 -0.00000000000E+00 -0.00000000000E+00 -0.45593999997E+02  0.45594000000E+02  0.51100000000E-03 0. -1.
    9900012    2    1    2    0    0 -0.19056204352E+02  0.18017048412E+02  0.36624583221E+02  0.46142322584E+02  0.10000043978E+02 0.  0.
         12    1    1    2    0    0  0.19056204352E+02 -0.18017048412E+02 -0.36624583221E+02  0.45045677416E+02  0.00000000000E+00 0. -1.
         11    1    3    3    0    0 -0.15300039047E+01 -0.93316947183E+00  0.18412009703E+01  0.25693848458E+01  0.51100000000E-03 0. -1.
        -11    1    3    3    0    0 -0.83872649507E+01  0.12148873493E+02  0.21391432640E+02  0.25991050982E+02  0.51100000000E-03 0.  1.
        -12    1    3    3    0    0 -0.91389354962E+01  0.68013443910E+01  0.13391949610E+02  0.17581886756E+02  0.00000000000E+00 0.  1.
</event>
<event>
 7    1  0.1485408E-008  0.4614232E+02  0.7816164E-02  0.1320468E+00
        -11   -1    0    0    0    0  0.00000000000E+00  0.00000000000E+00  0.45593999997E+02  0.45594000000E+02  0.51100000000E-03 0.  1.
         11   -1    0    0    0    0 -0.00000000000E+00 -0.00000000000E+00 -0.45593999997E+02  0.45594000000E+02  0.51100000000E-03 0. -1.
    9900012    2    1    2    0    0  0.25819378882E+02 -0.23489182140E+02  0.28473345365E+02  0.46142318745E+02  0.10000008972E+02 0.  0.
         12    1    1    2    0    0 -0.25819378882E+02  0.23489182140E+02 -0.28473345365E+02  0.45045681255E+02  0.00000000000E+00 0. -1.
         11    1    3    3    0    0  0.77981603062E+01 -0.82474726850E+01  0.15343596875E+02  0.19085546238E+02  0.51100000000E-03 0. -1.
        -11    1    3    3    0    0  0.15003084677E+02 -0.13282197516E+02  0.11536127110E+02  0.23121235902E+02  0.51100000000E-03 0.  1.
         12    1    3    3    0    0  0.30181338992E+01 -0.19595119390E+01  0.15936213794E+01  0.39355366055E+01  0.00000000000E+00 0. -1.
</event>
<event>
 7    1  0.1485408E-008  0.4614231E+02  0.7816164E-02  0.1320468E+00
        -11   -1    0    0    0    0  0.00000000000E+00  0.00000000000E+00  0.45593999997E+02  0.45594000000E+02  0.51100000000E-03 0. -1.
         11   -1    0    0    0    0 -0.00000000000E+00 -0.00000000000E+00 -0.45593999997E+02  0.45594000000E+02  0.51100000000E-03 0.  1.
    9900012    2    1    2    0    0 -0.13804508452E+02  0.34995898201E+01 -0.42735258127E+02  0.46142313529E+02  0.99999614083E+01 0.  0.
         12    1    1    2    0    0  0.13804508452E+02 -0.34995898201E+01  0.42735258127E+02  0.45045686471E+02  0.00000000000E+00 0. -1.
         11    1    3    3    0    0 -0.41441660708E+01  0.78783288289E+00 -0.35523216947E+01  0.55148692420E+01  0.51100000000E-03 0. -1.
        -11    1    3    3    0    0 -0.82006406284E+01  0.36750436140E+01 -0.33070414501E+02  0.34269647909E+02  0.51100000000E-03 0.  1.
        -12    1    3    3    0    0 -0.14597017526E+01 -0.96328667674E+00 -0.61125219311E+01  0.63577963781E+01  0.00000000000E+00 0.  1.
</event>
<event>
 7    1  0.1485408E-008  0.4614232E+02  0.7816164E-02  0.1320468E+00
        -11   -1    0    0    0    0  0.00000000000E+00  0.00000000000E+00  0.45593999997E+02  0.45594000000E+02  0.51100000000E-03 0.  1.
         11   -1    0    0    0    0 -0.00000000000E+00 -0.00000000000E+00 -0.45593999997E+02  0.45594000000E+02  0.51100000000E-03 0. -1.
    9900012    2    1    2    0    0  0.28397928563E+02 -0.29026753254E+02  0.19496635263E+02  0.46142317213E+02  0.99999950042E+01 0.  0.
         12    1    1    2    0    0 -0.28397928563E+02  0.29026753254E+02 -0.19496635263E+02  0.45045682787E+02  0.00000000000E+00 0. -1.
         11    1    3    3    0    0  0.18644354633E+01 -0.65885620340E+01  0.47646838226E+01  0.83419111397E+01  0.51100000000E-03 0. -1.
        -11    1    3    3    0    0  0.20290721627E+02 -0.18076227217E+02  0.12046501763E+02  0.29725100160E+02  0.51100000000E-03 0.  1.
         12    1    3    3    0    0  0.62427714729E+01 -0.43619640039E+01  0.26854496771E+01  0.80753059138E+01  0.00000000000E+00 0. -1.
</event>
<event>
 7    1  0.1485408E-008  0.4614232E+02  0.7816164E-02  0.1320468E+00
        -11   -1    0    0    0    0  0.00000000000E+00  0.00000000000E+00  0.45593999997E+02  0.45594000000E+02  0.51100000000E-03 0.  1.
         11   -1    0    0    0    0 -0.00000000000E+00 -0.00000000000E+00 -0.45593999997E+02  0.45594000000E+02  0.51100000000E-03 0. -1.
    9900012    2    1    2    0    0 -0.12664886362E+02  0.10121075827E+02  0.42027109637E+02  0.46142317999E+02  0.10000002172E+02 0.  0.
         12    1    1    2    0    0  0.12664886362E+02 -0.10121075827E+02 -0.42027109637E+02  0.45045682001E+02  0.00000000000E+00 0. -1.
         11    1    3    3    0    0 -0.21932615131E+01  0.60051828536E+01  0.77733574628E+01  0.10064676034E+02  0.51100000000E-03 0. -1.
        -11    1    3    3    0    0 -0.96957645641E+01  0.37981819384E+01  0.30408180996E+02  0.32141740903E+02  0.51100000000E-03 0.  1.
         12    1    3    3    0    0 -0.77586028441E+00  0.31771103508E+00  0.38455711787E+01  0.39359010624E+01  0.00000000000E+00 0. -1.
</event>
<event>
 7    1  0.1485408E-008  0.4614232E+02  0.7816164E-02  0.1320468E+00
        -11   -1    0    0    0    0  0.00000000000E+00  0.00000000000E+00  0.45593999997E+02  0.45594000000E+02  0.51100000000E-03 0.  1.
         11   -1    0    0    0    0 -0.00000000000E+00 -0.00000000000E+00 -0.45593999997E+02  0.45594000000E+02  0.51100000000E-03 0. -1.
    9900012    2    1    2    0    0 -0.16992765249E+02 -0.31465316790E+02  0.27391479653E+02  0.46142318864E+02  0.10000010053E+02 0.  0.
         12    1    1    2    0    0  0.16992765249E+02  0.31465316790E+02 -0.27391479653E+02  0.45045681136E+02  0.00000000000E+00 0. -1.
         11    1    3    3    0    0 -0.50544422907E+00 -0.38630192283E+00 -0.52646445173E-01  0.63833764858E+00  0.51100000000E-03 0. -1.
        -11    1    3    3    0    0 -0.47646569403E+01 -0.17251775072E+02  0.10860174363E+02  0.20934877271E+02  0.51100000000E-03 0.  1.
        -12    1    3    3    0    0 -0.11722664079E+02 -0.13827239795E+02  0.16583951735E+02  0.24569103944E+02  0.00000000000E+00 0.  1.
</event>
<event>
 7    1  0.1485408E-008  0.4614232E+02  0.7816164E-02  0.1320468E+00
        -11   -1    0    0    0    0  0.00000000000E+00  0.00000000000E+00  0.45593999997E+02  0.45594000000E+02  0.51100000000E-03 0.  1.
         11   -1    0    0    0    0 -0.00000000000E+00 -0.00000000000E+00 -0.45593999997E+02  0.45594000000E+02  0.51100000000E-03 0. -1.
    9900012    2    1    2    0    0  0.19665689835E+02 -0.24207567054E+02  0.32501813043E+02  0.46142317516E+02  0.99999977670E+01 0.  0.
         12    1    1    2    0    0 -0.19665689835E+02  0.24207567054E+02 -0.32501813043E+02  0.45045682484E+02  0.00000000000E+00 0. -1.
         11    1    3    3    0    0  0.13391291195E+02 -0.10342948070E+02  0.18727520878E+02  0.25239320378E+02  0.51100000000E-03 0. -1.
        -11    1    3    3    0    0  0.67642793911E+00 -0.10433141650E+01  0.29917880579E+01  0.32398850671E+01  0.51100000000E-03 0.  1.
         12    1    3    3    0    0  0.55979707017E+01 -0.12821304818E+02  0.10782504107E+02  0.17663112071E+02  0.00000000000E+00 0. -1.
</event>
<event>
 7    1  0.1485408E-008  0.4614232E+02  0.7816164E-02  0.1320468E+00
        -11   -1    0    0    0    0  0.00000000000E+00  0.00000000000E+00  0.45593999997E+02  0.45594000000E+02  0.51100000000E-03 0.  1.
         11   -1    0    0    0    0 -0.00000000000E+00 -0.00000000000E+00 -0.45593999997E+02  0.45594000000E+02  0.51100000000E-03 0. -1.
    9900012    2    1    2    0    0  0.15208752690E+02 -0.33046273061E+02  0.26565978038E+02  0.46142317513E+02  0.99999977357E+01 0.  0.
         12    1    1    2    0    0 -0.15208752690E+02  0.33046273061E+02 -0.26565978038E+02  0.45045682487E+02  0.00000000000E+00 0. -1.
         11    1    3    3    0    0  0.32402493573E+01 -0.65280478523E+01  0.17875251500E+01  0.75039903439E+01  0.51100000000E-03 0. -1.
        -11    1    3    3    0    0  0.47754618436E+01 -0.51842422088E+01  0.71890570424E+01  0.10067966255E+02  0.51100000000E-03 0.  1.
        -12    1    3    3    0    0  0.71930414893E+01 -0.21333983000E+02  0.17589395846E+02  0.28570360914E+02  0.00000000000E+00 0.  1.
</event>
<event>
 7    1  0.1485408E-008  0.4614233E+02  0.7816164E-02  0.1320468E+00
        -11   -1    0    0    0    0  0.00000000000E+00  0.00000000000E+00  0.45593999997E+02  0.45594000000E+02  0.51100000000E-03 0.  1.
         11   -1    0    0    0    0 -0.00000000000E+00 -0.00000000000E+00 -0.45593999997E+02  0.45594000000E+02  0.51100000000E-03 0. -1.
    9900012    2    1    2    0    0  0.28941402452E+02 -0.27666970190E+02  0.20640891231E+02  0.46142329773E+02  0.10000109534E+02 0.  0.
         12    1    1    2    0    0 -0.28941402452E+02  0.27666970190E+02 -0.20640891231E+02  0.45045670227E+02  0.00000000000E+00 0. -1.
         11    1    3    3    0    0  0.80005567985E+01 -0.13077136419E+02  0.10865192495E+02  0.18790231883E+02  0.51100000000E-03 0. -1.
        -11    1    3    3    0    0  0.14302095485E+02 -0.10534089246E+02  0.69944525286E+01  0.19090294339E+02  0.51100000000E-03 0.  1.
         12    1    3    3    0    0  0.66387501682E+01 -0.40557445246E+01  0.27812462077E+01  0.82618035508E+01  0.00000000000E+00 0. -1.
</event>
<event>
 7    1  0.1485408E-008  0.4614231E+02  0.7816164E-02  0.1320468E+00
        -11   -1    0    0    0    0  0.00000000000E+00  0.00000000000E+00  0.45593999997E+02  0.45594000000E+02  0.51100000000E-03 0.  1.
         11   -1    0    0    0    0 -0.00000000000E+00 -0.00000000000E+00 -0.45593999997E+02  0.45594000000E+02  0.51100000000E-03 0. -1.
    9900012    2    1    2    0    0 -0.72595237170E+01 -0.49982706953E+01  0.44175005412E+02  0.46142306558E+02  0.99998978382E+01 0.  0.
         12    1    1    2    0    0  0.72595237170E+01  0.49982706953E+01 -0.44175005412E+02  0.45045693442E+02  0.00000000000E+00 0. -1.
         11    1    3    3    0    0 -0.58402477830E+01 -0.55979866543E+01  0.39161432666E+02  0.39988295256E+02  0.51100000000E-03 0. -1.
        -11    1    3    3    0    0  0.49023326518E+00  0.27557695615E+00  0.38577478111E+01  0.38985240474E+01  0.51100000000E-03 0.  1.
         12    1    3    3    0    0 -0.19095091991E+01  0.32413900285E+00  0.11558249347E+01  0.22554872543E+01  0.00000000000E+00 0. -1.
</event>
<event>
 7    1  0.1485408E-008  0.4614232E+02  0.7816164E-02  0.1320468E+00
        -11   -1    0    0    0    0  0.00000000000E+00  0.00000000000E+00  0.45593999997E+02  0.45594000000E+02  0.51100000000E-03 0.  1.
         11   -1    0    0    0    0 -0.00000000000E+00 -0.00000000000E+00 -0.45593999997E+02  0.45594000000E+02  0.51100000000E-03 0. -1.
    9900012    2    1    2    0    0  0.42771244504E+02  0.77066119858E+01  0.11846611774E+02  0.46142318351E+02  0.10000005377E+02 0.  0.
         12    1    1    2    0    0 -0.42771244504E+02 -0.77066119858E+01 -0.11846611774E+02  0.45045681649E+02  0.00000000000E+00 0. -1.
         11    1    3    3    0    0  0.13248360684E+02  0.63611309631E+01  0.63955005716E+01  0.16027647231E+02  0.51100000000E-03 0. -1.
        -11    1    3    3    0    0  0.21788262150E+02  0.18315516610E+01  0.38624760817E+01  0.22203640934E+02  0.51100000000E-03 0.  1.
         12    1    3    3    0    0  0.77346216705E+01 -0.48607063837E+00  0.15886351203E+01  0.79110301856E+01  0.00000000000E+00 0. -1.
</event>
<event>
 7    1  0.1485408E-008  0.4614232E+02  0.7816164E-02  0.1320468E+00
        -11   -1    0    0    0    0  0.00000000000E+00  0.00000000000E+00  0.45593999997E+02  0.45594000000E+02  0.51100000000E-03 0. -1.
         11   -1    0    0    0    0 -0.00000000000E+00 -0.00000000000E+00 -0.45593999997E+02  0.45594000000E+02  0.51100000000E-03 0.  1.
    9900012    2    1    2    0    0  0.31364406261E+02 -0.21817768678E+01 -0.32258755643E+02  0.46142318231E+02  0.10000004286E+02 0.  0.
         12    1    1    2    0    0 -0.31364406261E+02  0.21817768678E+01  0.32258755643E+02  0.45045681769E+02  0.00000000000E+00 0. -1.
         11    1    3    3    0    0  0.11275325399E+02  0.17938380425E+01 -0.15635127085E+02  0.19359959117E+02  0.51100000000E-03 0.  1.
        -11    1    3    3    0    0  0.31126430217E+01 -0.23259155354E+01 -0.23464971861E+01  0.45392156772E+01  0.51100000000E-03 0. -1.
         12    1    3    3    0    0  0.16976437840E+02 -0.16496993749E+01 -0.14277131372E+02  0.22243143437E+02  0.00000000000E+00 0. -1.
</event>
<event>
 7    1  0.1485408E-008  0.4614232E+02  0.7816164E-02  0.1320468E+00
        -11   -1    0    0    0    0  0.00000000000E+00  0.00000000000E+00  0.45593999997E+02  0.45594000000E+02  0.51100000000E-03 0.  1.
         11   -1    0    0    0    0 -0.00000000000E+00 -0.00000000000E+00 -0.45593999997E+02  0.45594000000E+02  0.51100000000E-03 0. -1.
    9900012    2    1    2    0    0  0.50697253989E+01  0.58274751874E+01  0.44378507927E+02  0.46142317094E+02  0.99999939142E+01 0.  0.
         12    1    1    2    0    0 -0.50697253989E+01 -0.58274751874E+01 -0.44378507927E+02  0.45045682906E+02  0.00000000000E+00 0. -1.
         11    1    3    3    0    0 -0.26878812996E+01  0.86842442936E+00  0.12827621408E+02  0.13134943400E+02  0.51100000000E-03 0. -1.
        -11    1    3    3    0    0  0.17392183793E+00  0.89837631668E+00  0.15746645555E+01  0.18212351675E+01  0.51100000000E-03 0.  1.
         12    1    3    3    0    0  0.75836848606E+01  0.40606744413E+01  0.29976221964E+02  0.31186138527E+02  0.00000000000E+00 0. -1.
</event>
<event>
 7    1  0.1485408E-008  0.4614232E+02  0.7816164E-02  0.1320468E+00
        -11   -1    0    0    0    0  0.00000000000E+00  0.00000000000E+00  0.45593999997E+02  0.45594000000E+02  0.51100000000E-03 0.  1.
         11   -1    0    0    0    0 -0.00000000000E+00 -0.00000000000E+00 -0.45593999997E+02  0.45594000000E+02  0.51100000000E-03 0. -1.
    9900012    2    1    2    0    0 -0.33211594004E+02 -0.20703268879E+02  0.22304219432E+02  0.46142317377E+02  0.99999964961E+01 0.  0.
         12    1    1    2    0    0  0.33211594004E+02  0.20703268879E+02 -0.22304219432E+02  0.45045682623E+02  0.00000000000E+00 0. -1.
         11    1    3    3    0    0 -0.61604396672E+01 -0.15612467815E+01  0.34596537474E+00  0.63646053065E+01  0.51100000000E-03 0. -1.
        -11    1    3    3    0    0 -0.16510938818E+01 -0.14341046809E+01  0.11382671053E+01  0.24654450930E+01  0.51100000000E-03 0.  1.
         12    1    3    3    0    0 -0.25400060454E+02 -0.17707917417E+02  0.20819986952E+02  0.37312266977E+02  0.00000000000E+00 0. -1.
</event>
<event>
 7    1  0.1485408E-008  0.4614232E+02  0.7816164E-02  0.1320468E+00
        -11   -1    0    0    0    0  0.00000000000E+00  0.00000000000E+00  0.45593999997E+02  0.45594000000E+02  0.51100000000E-03 0. -1.
         11   -1    0    0    0    0 -0.00000000000E+00 -0.00000000000E+00 -0.45593999997E+02  0.45594000000E+02  0.51100000000E-03 0.  1.
    9900012    2    1    2    0    0  0.20567347723E+02  0.39395990706E+02  0.73521123871E+01  0.46142318380E+02  0.10000005645E+02 0.  0.
         12    1    1    2    0    0 -0.20567347723E+02 -0.39395990706E+02 -0.73521123871E+01  0.45045681620E+02  0.00000000000E+00 0. -1.
         11    1    3    3    0    0  0.18428330098E+02  0.33420287801E+02  0.56460639996E+01  0.38579748908E+02  0.51100000000E-03 0.  1.
        -11    1    3    3    0    0 -0.68762495399E+00  0.15131539125E+01 -0.64203499127E+00  0.17817609356E+01  0.51100000000E-03 0. -1.
        -12    1    3    3    0    0  0.28266425789E+01  0.44625489926E+01  0.23480833788E+01  0.57808085363E+01  0.00000000000E+00 0.  1.
</event>
<event>
 7    1  0.1485408E-008  0.4614232E+02  0.7816164E-02  0.1320468E+00
        -11   -1    0    0    0    0  0.00000000000E+00  0.00000000000E+00  0.45593999997E+02  0.45594000000E+02  0.51100000000E-03 0.  1.
         11   -1    0    0    0    0 -0.00000000000E+00 -0.00000000000E+00 -0.45593999997E+02  0.45594000000E+02  0.51100000000E-03 0. -1.
    9900012    2    1    2    0    0  0.78511672499E+01  0.38918959242E+02  0.21278799094E+02  0.46142317559E+02  0.99999981598E+01 0.  0.
         12    1    1    2    0    0 -0.78511672499E+01 -0.38918959242E+02 -0.21278799094E+02  0.45045682441E+02  0.00000000000E+00 0. -1.
         11    1    3    3    0    0  0.30256404114E+01  0.25867553808E+02  0.89850896098E+01  0.27550257267E+02  0.51100000000E-03 0.  1.
        -11    1    3    3    0    0  0.39950441867E+01  0.99761137200E+01  0.91058073440E+01  0.14085416240E+02  0.51100000000E-03 0. -1.
        -12    1    3    3    0    0  0.83048265184E+00  0.30752917140E+01  0.31879021397E+01  0.45066440522E+01  0.00000000000E+00 0.  1.
</event>
<event>
 7    1  0.1485408E-008  0.4614232E+02  0.7816164E-02  0.1320468E+00
        -11   -1    0    0    0    0  0.00000000000E+00  0.00000000000E+00  0.45593999997E+02  0.45594000000E+02  0.51100000000E-03 0.  1.
         11   -1    0    0    0    0 -0.00000000000E+00 -0.00000000000E+00 -0.45593999997E+02  0.45594000000E+02  0.51100000000E-03 0. -1.
    9900012    2    1    2    0    0 -0.33188349773E+02  0.26387416055E+02  0.15210234149E+02  0.46142317525E+02  0.99999978483E+01 0.  0.
         12    1    1    2    0    0  0.33188349773E+02 -0.26387416055E+02 -0.15210234149E+02  0.45045682475E+02  0.00000000000E+00 0. -1.
         11    1    3    3    0    0 -0.83469317533E+01  0.79514056162E+01  0.75798513869E+01  0.13796748467E+02  0.51100000000E-03 0. -1.
        -11    1    3    3    0    0 -0.12148328105E+02  0.81377273769E+01  0.84082082716E+00  0.14646209835E+02  0.51100000000E-03 0.  1.
         12    1    3    3    0    0 -0.12693089915E+02  0.10298283062E+02  0.67895619345E+01  0.17699359223E+02  0.00000000000E+00 0. -1.
</event>
<event>
 7    1  0.1485408E-008  0.4614232E+02  0.7816164E-02  0.1320468E+00
        -11   -1    0    0    0    0  0.00000000000E+00  0.00000000000E+00  0.45593999997E+02  0.45594000000E+02  0.51100000000E-03 0.  1.
         11   -1    0    0    0    0 -0.00000000000E+00 -0.00000000000E+00 -0.45593999997E+02  0.45594000000E+02  0.51100000000E-03 0. -1.
    9900012    2    1    2    0    0  0.35492915542E+02 -0.23966989352E+02  0.13962443892E+02  0.46142317946E+02  0.10000001685E+02 0.  0.
         12    1    1    2    0    0 -0.35492915542E+02  0.23966989352E+02 -0.13962443892E+02  0.45045682054E+02  0.00000000000E+00 0. -1.
         11    1    3    3    0    0  0.11263762713E+01 -0.82968810430E+00 -0.73317414961E+00  0.15794462478E+01  0.51100000000E-03 0. -1.
        -11    1    3    3    0    0  0.32372326531E+02 -0.22330255038E+02  0.12006089046E+02  0.41118779037E+02  0.51100000000E-03 0.  1.
        -12    1    3    3    0    0  0.19942127400E+01 -0.80704621016E+00  0.26895289962E+01  0.34440926612E+01  0.00000000000E+00 0.  1.
</event>
<event>
 7    1  0.1485408E-008  0.4614232E+02  0.7816164E-02  0.1320468E+00
        -11   -1    0    0    0    0  0.00000000000E+00  0.00000000000E+00  0.45593999997E+02  0.45594000000E+02  0.51100000000E-03 0.  1.
         11   -1    0    0    0    0 -0.00000000000E+00 -0.00000000000E+00 -0.45593999997E+02  0.45594000000E+02  0.51100000000E-03 0. -1.
    9900012    2    1    2    0    0 -0.27557437716E+02 -0.13430118578E+02  0.33005045181E+02  0.46142318010E+02  0.10000002273E+02 0.  0.
         12    1    1    2    0    0  0.27557437716E+02  0.13430118578E+02 -0.33005045181E+02  0.45045681990E+02  0.00000000000E+00 0. -1.
         11    1    3    3    0    0 -0.22306091993E+02 -0.14362532517E+02  0.29692319330E+02  0.39818060070E+02  0.51100000000E-03 0. -1.
        -11    1    3    3    0    0 -0.22041544069E+01  0.47639554724E+00  0.18338975378E+01  0.29066182768E+01  0.51100000000E-03 0.  1.
         12    1    3    3    0    0 -0.30471913155E+01  0.45601839156E+00  0.14788283141E+01  0.34176396635E+01  0.00000000000E+00 0. -1.
</event>
<event>
 7    1  0.1485408E-008  0.4614232E+02  0.7816164E-02  0.1320468E+00
        -11   -1    0    0    0    0  0.00000000000E+00  0.00000000000E+00  0.45593999997E+02  0.45594000000E+02  0.51100000000E-03 0.  1.
         11   -1    0    0    0    0 -0.00000000000E+00 -0.00000000000E+00 -0.45593999997E+02  0.45594000000E+02  0.51100000000E-03 0. -1.
    9900012    2    1    2    0    0 -0.31103324562E+02  0.31628786697E+02  0.78304888769E+01  0.46142317601E+02  0.99999985425E+01 0.  0.
         12    1    1    2    0    0  0.31103324562E+02 -0.31628786697E+02 -0.78304888769E+01  0.45045682399E+02  0.00000000000E+00 0. -1.
         11    1    3    3    0    0 -0.72799054902E+01  0.80064578251E+01  0.58747332189E+01  0.12313118269E+02  0.51100000000E-03 0. -1.
        -11    1    3    3    0    0 -0.13549944423E+02  0.15873814947E+02  0.19482087693E+01  0.20961262188E+02  0.51100000000E-03 0.  1.
         12    1    3    3    0    0 -0.10273474648E+02  0.77485139249E+01  0.75468885960E-02  0.12867937144E+02  0.00000000000E+00 0. -1.
</event>
<event>
 7    1  0.1485408E-008  0.4614232E+02  0.7816164E-02  0.1320468E+00
        -11   -1    0    0    0    0  0.00000000000E+00  0.00000000000E+00  0.45593999997E+02  0.45594000000E+02  0.51100000000E-03 0. -1.
         11   -1    0    0    0    0 -0.00000000000E+00 -0.00000000000E+00 -0.45593999997E+02  0.45594000000E+02  0.51100000000E-03 0.  1.
    9900012    2    1    2    0    0  0.24986954550E+02 -0.29275055761E+02 -0.23403774398E+02  0.46142318259E+02  0.10000004537E+02 0.  0.
         12    1    1    2    0    0 -0.24986954550E+02  0.29275055761E+02  0.23403774398E+02  0.45045681741E+02  0.00000000000E+00 0. -1.
         11    1    3    3    0    0  0.47741765727E+01 -0.51375462031E+01 -0.99362230337E+00  0.70833910297E+01  0.51100000000E-03 0. -1.
        -11    1    3    3    0    0  0.13378647333E+02 -0.16939573836E+02 -0.18364263270E+02  0.28340492796E+02  0.51100000000E-03 0.  1.
        -12    1    3    3    0    0  0.68341306437E+01 -0.71979357220E+01 -0.40458888242E+01  0.10718434433E+02  0.00000000000E+00 0.  1.
</event>
<event>
 7    1  0.1485408E-008  0.4614232E+02  0.7816164E-02  0.1320468E+00
        -11   -1    0    0    0    0  0.00000000000E+00  0.00000000000E+00  0.45593999997E+02  0.45594000000E+02  0.51100000000E-03 0. -1.
         11   -1    0    0    0    0 -0.00000000000E+00 -0.00000000000E+00 -0.45593999997E+02  0.45594000000E+02  0.51100000000E-03 0.  1.
    9900012    2    1    2    0    0 -0.32727371127E+02 -0.10767679172E+02 -0.29018783052E+02  0.46142317571E+02  0.99999982692E+01 0.  0.
         12    1    1    2    0    0  0.32727371127E+02  0.10767679172E+02  0.29018783052E+02  0.45045682429E+02  0.00000000000E+00 0. -1.
         11    1    3    3    0    0 -0.82012955046E+01 -0.66083283179E+01 -0.83496141137E+01  0.13440509932E+02  0.51100000000E-03 0. -1.
        -11    1    3    3    0    0 -0.93824870876E+01  0.37100871529E+00 -0.60429576420E+01  0.11166290733E+02  0.51100000000E-03 0.  1.
         12    1    3    3    0    0 -0.15143588535E+02 -0.45303595691E+01 -0.14626211296E+02  0.21535516906E+02  0.00000000000E+00 0. -1.
</event>
<event>
 7    1  0.1485408E-008  0.4614232E+02  0.7816164E-02  0.1320468E+00
        -11   -1    0    0    0    0  0.00000000000E+00  0.00000000000E+00  0.45593999997E+02  0.45594000000E+02  0.51100000000E-03 0. -1.
         11   -1    0    0    0    0 -0.00000000000E+00 -0.00000000000E+00 -0.45593999997E+02  0.45594000000E+02  0.51100000000E-03 0.  1.
    9900012    2    1    2    0    0  0.13270783366E+02  0.42910239683E+02 -0.34221547993E+01  0.46142317585E+02  0.99999983903E+01 0.  0.
         12    1    1    2    0    0 -0.13270783366E+02 -0.42910239683E+02  0.34221547993E+01  0.45045682415E+02  0.00000000000E+00 0. -1.
         11    1    3    3    0    0  0.35482196240E+01  0.54243607277E+01 -0.12736509985E+01  0.66057353059E+01  0.51100000000E-03 0. -1.
        -11    1    3    3    0    0  0.67998544168E+01  0.29766007561E+02  0.13696085679E+01  0.30563524897E+02  0.51100000000E-03 0.  1.
        -12    1    3    3    0    0  0.29227093257E+01  0.77198713940E+01 -0.35181123686E+01  0.89730573820E+01  0.00000000000E+00 0.  1.
</event>
<event>
 7    1  0.1485408E-008  0.4614232E+02  0.7816164E-02  0.1320468E+00
        -11   -1    0    0    0    0  0.00000000000E+00  0.00000000000E+00  0.45593999997E+02  0.45594000000E+02  0.51100000000E-03 0.  1.
         11   -1    0    0    0    0 -0.00000000000E+00 -0.00000000000E+00 -0.45593999997E+02  0.45594000000E+02  0.51100000000E-03 0. -1.
    9900012    2    1    2    0    0  0.29543327356E+02 -0.18875180865E+02  0.28284852356E+02  0.46142317447E+02  0.99999971316E+01 0.  0.
         12    1    1    2    0    0 -0.29543327356E+02  0.18875180865E+02 -0.28284852356E+02  0.45045682553E+02  0.00000000000E+00 0. -1.
         11    1    3    3    0    0  0.24482081387E+02 -0.13659211236E+02  0.19261748657E+02  0.34014134153E+02  0.51100000000E-03 0. -1.
        -11    1    3    3    0    0  0.46436511054E+01 -0.38145349513E+01  0.87892047288E+01  0.10647266903E+02  0.51100000000E-03 0.  1.
         12    1    3    3    0    0  0.41759486343E+00 -0.14014346778E+01  0.23389897002E+00  0.14809163900E+01  0.00000000000E+00 0. -1.
</event>
<event>
 7    1  0.1485408E-008  0.4614232E+02  0.7816164E-02  0.1320468E+00
        -11   -1    0    0    0    0  0.00000000000E+00  0.00000000000E+00  0.45593999997E+02  0.45594000000E+02  0.51100000000E-03 0. -1.
         11   -1    0    0    0    0 -0.00000000000E+00 -0.00000000000E+00 -0.45593999997E+02  0.45594000000E+02  0.51100000000E-03 0.  1.
    9900012    2    1    2    0    0  0.14656916332E+02 -0.18459588015E+02 -0.38386611844E+02  0.46142317022E+02  0.99999932637E+01 0.  0.
         12    1    1    2    0    0 -0.14656916332E+02  0.18459588015E+02  0.38386611844E+02  0.45045682978E+02  0.00000000000E+00 0. -1.
         11    1    3    3    0    0 -0.56693493501E+00 -0.23601250067E+01 -0.22945724002E+01  0.33401598806E+01  0.51100000000E-03 0. -1.
        -11    1    3    3    0    0  0.12973855746E+02 -0.15893233700E+02 -0.34068437219E+02  0.39769010865E+02  0.51100000000E-03 0.  1.
        -12    1    3    3    0    0  0.22499955207E+01 -0.20622930786E+00 -0.20236022253E+01  0.30331462769E+01  0.00000000000E+00 0.  1.
</event>
<event>
 7    1  0.1485408E-008  0.4614232E+02  0.7816164E-02  0.1320468E+00
        -11   -1    0    0    0    0  0.00000000000E+00  0.00000000000E+00  0.45593999997E+02  0.45594000000E+02  0.51100000000E-03 0.  1.
         11   -1    0    0    0    0 -0.00000000000E+00 -0.00000000000E+00 -0.45593999997E+02  0.45594000000E+02  0.51100000000E-03 0. -1.
    9900012    2    1    2    0    0  0.17800587738E+02 -0.17903320937E+02  0.37305813353E+02  0.46142317251E+02  0.99999953442E+01 0.  0.
         12    1    1    2    0    0 -0.17800587738E+02  0.17903320937E+02 -0.37305813353E+02  0.45045682749E+02  0.00000000000E+00 0. -1.
         11    1    3    3    0    0  0.44182946175E+01 -0.36630931714E+01  0.10451367425E+02  0.11923533881E+02  0.51100000000E-03 0. -1.
        -11    1    3    3    0    0  0.55719922625E+01 -0.94244351194E+01  0.19872408939E+02  0.22688757401E+02  0.51100000000E-03 0.  1.
         12    1    3    3    0    0  0.78103008584E+01 -0.48157926461E+01  0.69820369898E+01  0.11530025969E+02  0.00000000000E+00 0. -1.
</event>
<event>
 7    1  0.1485408E-008  0.4614232E+02  0.7816164E-02  0.1320468E+00
        -11   -1    0    0    0    0  0.00000000000E+00  0.00000000000E+00  0.45593999997E+02  0.45594000000E+02  0.51100000000E-03 0.  1.
         11   -1    0    0    0    0 -0.00000000000E+00 -0.00000000000E+00 -0.45593999997E+02  0.45594000000E+02  0.51100000000E-03 0. -1.
    9900012    2    1    2    0    0  0.11293531711E+02 -0.39114043696E+02  0.19278515958E+02  0.46142318183E+02  0.10000003850E+02 0.  0.
         12    1    1    2    0    0 -0.11293531711E+02  0.39114043696E+02 -0.19278515958E+02  0.45045681817E+02  0.00000000000E+00 0. -1.
         11    1    3    3    0    0  0.18769894084E+01 -0.14653815142E+01 -0.18746823470E+00  0.23886349285E+01  0.51100000000E-03 0. -1.
        -11    1    3    3    0    0  0.70150389255E+01 -0.21520107160E+02  0.13700486531E+02  0.26458063322E+02  0.51100000000E-03 0.  1.
        -12    1    3    3    0    0  0.24015033766E+01 -0.16128555022E+02  0.57654976623E+01  0.17295619933E+02  0.00000000000E+00 0.  1.
</event>
<event>
 7    1  0.1485408E-008  0.4614232E+02  0.7816164E-02  0.1320468E+00
        -11   -1    0    0    0    0  0.00000000000E+00  0.00000000000E+00  0.45593999997E+02  0.45594000000E+02  0.51100000000E-03 0.  1.
         11   -1    0    0    0    0 -0.00000000000E+00 -0.00000000000E+00 -0.45593999997E+02  0.45594000000E+02  0.51100000000E-03 0. -1.
    9900012    2    1    2    0    0  0.43524397657E+02 -0.26142838617E+01 -0.11309542885E+02  0.46142318389E+02  0.10000005726E+02 0.  0.
         12    1    1    2    0    0 -0.43524397657E+02  0.26142838617E+01  0.11309542885E+02  0.45045681611E+02  0.00000000000E+00 0. -1.
         11    1    3    3    0    0  0.14759403876E+02 -0.42046164771E+01 -0.36406646112E+01  0.15772547086E+02  0.51100000000E-03 0. -1.
        -11    1    3    3    0    0  0.18988736869E+02  0.51730234075E+00 -0.22167992628E+01  0.19124694215E+02  0.51100000000E-03 0.  1.
         12    1    3    3    0    0  0.97762569125E+01  0.10730302747E+01 -0.54520790106E+01  0.11245077089E+02  0.00000000000E+00 0. -1.
</event>
<event>
 7    1  0.1485408E-008  0.4614232E+02  0.7816164E-02  0.1320468E+00
        -11   -1    0    0    0    0  0.00000000000E+00  0.00000000000E+00  0.45593999997E+02  0.45594000000E+02  0.51100000000E-03 0.  1.
         11   -1    0    0    0    0 -0.00000000000E+00 -0.00000000000E+00 -0.45593999997E+02  0.45594000000E+02  0.51100000000E-03 0. -1.
    9900012    2    1    2    0    0 -0.42906068317E+02 -0.60758222593E+01  0.12299070823E+02  0.46142318102E+02  0.10000003108E+02 0.  0.
         12    1    1    2    0    0  0.42906068317E+02  0.60758222593E+01 -0.12299070823E+02  0.45045681898E+02  0.00000000000E+00 0. -1.
         11    1    3    3    0    0 -0.26608768463E+02 -0.65236094109E+01  0.95940288654E+01  0.29028080009E+02  0.51100000000E-03 0. -1.
        -11    1    3    3    0    0 -0.15088777080E+02  0.13656840640E+01  0.32620647446E+01  0.15497656383E+02  0.51100000000E-03 0.  1.
         12    1    3    3    0    0 -0.12085227741E+01 -0.91789691236E+00 -0.55702278745E+00  0.16165817093E+01  0.00000000000E+00 0. -1.
</event>
<event>
 7    1  0.1485408E-008  0.4614232E+02  0.7816164E-02  0.1320468E+00
        -11   -1    0    0    0    0  0.00000000000E+00  0.00000000000E+00  0.45593999997E+02  0.45594000000E+02  0.51100000000E-03 0.  1.
         11   -1    0    0    0    0 -0.00000000000E+00 -0.00000000000E+00 -0.45593999997E+02  0.45594000000E+02  0.51100000000E-03 0. -1.
    9900012    2    1    2    0    0  0.11031117624E+02 -0.39137480146E+02  0.19382610098E+02  0.46142317827E+02  0.10000000600E+02 0.  0.
         12    1    1    2    0    0 -0.11031117624E+02  0.39137480146E+02 -0.19382610098E+02  0.45045682173E+02  0.00000000000E+00 0. -1.
         11    1    3    3    0    0  0.75078642960E+01 -0.20365972290E+02  0.83522412549E+01  0.23257273870E+02  0.51100000000E-03 0. -1.
        -11    1    3    3    0    0  0.52336970535E+01 -0.15378799196E+02  0.87021138854E+01  0.18428940173E+02  0.51100000000E-03 0.  1.
         12    1    3    3    0    0 -0.17104437252E+01 -0.33927086596E+01  0.23282549578E+01  0.44561037841E+01  0.00000000000E+00 0. -1.
</event>
<event>
 7    1  0.1485408E-008  0.4614232E+02  0.7816164E-02  0.1320468E+00
        -11   -1    0    0    0    0  0.00000000000E+00  0.00000000000E+00  0.45593999997E+02  0.45594000000E+02  0.51100000000E-03 0.  1.
         11   -1    0    0    0    0 -0.00000000000E+00 -0.00000000000E+00 -0.45593999997E+02  0.45594000000E+02  0.51100000000E-03 0. -1.
    9900012    2    1    2    0    0 -0.22638230350E+02  0.38101952507E+02  0.80538952201E+01  0.46142317782E+02  0.10000000193E+02 0.  0.
         12    1    1    2    0    0  0.22638230350E+02 -0.38101952507E+02 -0.80538952201E+01  0.45045682218E+02  0.00000000000E+00 0. -1.
         11    1    3    3    0    0 -0.24089076602E+01  0.39870718779E+01  0.36548268608E+01  0.59209237386E+01  0.51100000000E-03 0. -1.
        -11    1    3    3    0    0 -0.16986372689E+02  0.26223739345E+02  0.17727875429E+01  0.31294794109E+02  0.51100000000E-03 0.  1.
        -12    1    3    3    0    0 -0.32429500012E+01  0.78911412840E+01  0.26262808164E+01  0.89265999351E+01  0.00000000000E+00 0.  1.
</event>
<event>
 7    1  0.1485408E-008  0.4614232E+02  0.7816164E-02  0.1320468E+00
        -11   -1    0    0    0    0  0.00000000000E+00  0.00000000000E+00  0.45593999997E+02  0.45594000000E+02  0.51100000000E-03 0.  1.
         11   -1    0    0    0    0 -0.00000000000E+00 -0.00000000000E+00 -0.45593999997E+02  0.45594000000E+02  0.51100000000E-03 0. -1.
    9900012    2    1    2    0    0 -0.21508154230E+02  0.11336304563E+02  0.37920982255E+02  0.46142318800E+02  0.10000009477E+02 0.  0.
         12    1    1    2    0    0  0.21508154230E+02 -0.11336304563E+02 -0.37920982255E+02  0.45045681200E+02  0.00000000000E+00 0. -1.
         11    1    3    3    0    0 -0.95589348141E+01  0.62286176499E+00  0.12249722635E+02  0.15550462902E+02  0.51100000000E-03 0. -1.
        -11    1    3    3    0    0 -0.80326099573E+01  0.96785553371E+01  0.19866378736E+02  0.23513193328E+02  0.51100000000E-03 0.  1.
        -12    1    3    3    0    0 -0.39166094589E+01  0.10348874613E+01  0.58048808843E+01  0.70786625708E+01  0.00000000000E+00 0.  1.
</event>
<event>
 7    1  0.1485408E-008  0.4614232E+02  0.7816164E-02  0.1320468E+00
        -11   -1    0    0    0    0  0.00000000000E+00  0.00000000000E+00  0.45593999997E+02  0.45594000000E+02  0.51100000000E-03 0.  1.
         11   -1    0    0    0    0 -0.00000000000E+00 -0.00000000000E+00 -0.45593999997E+02  0.45594000000E+02  0.51100000000E-03 0. -1.
    9900012    2    1    2    0    0  0.52081980391E+00 -0.12116296648E+02  0.43382457757E+02  0.46142317202E+02  0.99999948982E+01 0.  0.
         12    1    1    2    0    0 -0.52081980391E+00  0.12116296648E+02 -0.43382457757E+02  0.45045682798E+02  0.00000000000E+00 0. -1.
         11    1    3    3    0    0 -0.19407019579E+00 -0.80615818381E+00  0.64374144309E+00  0.10497416658E+01  0.51100000000E-03 0. -1.
        -11    1    3    3    0    0  0.45866710002E+01 -0.80293963705E+01  0.25632978422E+02  0.27249923669E+02  0.51100000000E-03 0.  1.
        -12    1    3    3    0    0 -0.38717810005E+01 -0.32807420932E+01  0.17105737892E+02  0.17842651867E+02  0.00000000000E+00 0.  1.
</event>
<event>
 7    1  0.1485408E-008  0.4614231E+02  0.7816164E-02  0.1320468E+00
        -11   -1    0    0    0    0  0.00000000000E+00  0.00000000000E+00  0.45593999997E+02  0.45594000000E+02  0.51100000000E-03 0.  1.
         11   -1    0    0    0    0 -0.00000000000E+00 -0.00000000000E+00 -0.45593999997E+02  0.45594000000E+02  0.51100000000E-03 0. -1.
    9900012    2    1    2    0    0 -0.18439588387E+02  0.20660285929E+02  0.35528131547E+02  0.46142312463E+02  0.99999516836E+01 0.  0.
         12    1    1    2    0    0  0.18439588387E+02 -0.20660285929E+02 -0.35528131547E+02  0.45045687537E+02  0.00000000000E+00 0. -1.
         11    1    3    3    0    0  0.56590993292E+00  0.31890202602E+00  0.17906888938E+01  0.19048673260E+01  0.51100000000E-03 0. -1.
        -11    1    3    3    0    0 -0.14686651944E+02  0.19122313424E+02  0.28945063676E+02  0.37671970050E+02  0.51100000000E-03 0.  1.
        -12    1    3    3    0    0 -0.43188463757E+01  0.12190704785E+01  0.47923789770E+01  0.65654750862E+01  0.00000000000E+00 0.  1.
</event>
<event>
 7    1  0.1747660E-008  0.4614232E+02  0.7816164E-02  0.1320468E+00
        -11   -1    0    0    0    0  0.00000000000E+00  0.00000000000E+00  0.45593999997E+02  0.45594000000E+02  0.51100000000E-03 0.  1.
         11   -1    0    0    0    0 -0.00000000000E+00 -0.00000000000E+00 -0.45593999997E+02  0.45594000000E+02  0.51100000000E-03 0. -1.
    9900012    2    1    2    0    0  0.23635433984E+02  0.35143477323E+02 -0.15343263987E+02  0.46142317768E+02  0.10000000064E+02 0.  0.
         12    1    1    2    0    0 -0.23635433984E+02 -0.35143477323E+02  0.15343263987E+02  0.45045682232E+02  0.00000000000E+00 0. -1.
         11    1    3    3    0    0  0.24490636542E+01  0.27562873678E+01 -0.44975148719E+01  0.58157263622E+01  0.51100000000E-03 0. -1.
        -11    1    3    3    0    0  0.15284327402E+02  0.23226668531E+02 -0.93096919252E+01  0.29321650008E+02  0.51100000000E-03 0.  1.
         12    1    3    3    0    0  0.59020429279E+01  0.91605214244E+01 -0.15360571897E+01  0.11004941398E+02  0.00000000000E+00 0. -1.
</event>
<event>
 7    1  0.1485408E-008  0.4614232E+02  0.7816164E-02  0.1320468E+00
        -11   -1    0    0    0    0  0.00000000000E+00  0.00000000000E+00  0.45593999997E+02  0.45594000000E+02  0.51100000000E-03 0.  1.
         11   -1    0    0    0    0 -0.00000000000E+00 -0.00000000000E+00 -0.45593999997E+02  0.45594000000E+02  0.51100000000E-03 0. -1.
    9900012    2    1    2    0    0  0.31554408733E+02 -0.13672229306E+02  0.29094723339E+02  0.46142317733E+02  0.99999997474E+01 0.  0.
         12    1    1    2    0    0 -0.31554408733E+02  0.13672229306E+02 -0.29094723339E+02  0.45045682267E+02  0.00000000000E+00 0. -1.
         11    1    3    3    0    0  0.88653662752E+01 -0.77371981900E+01  0.80893574742E+01  0.14279238762E+02  0.51100000000E-03 0. -1.
        -11    1    3    3    0    0  0.12673522132E+02 -0.11676214056E+01  0.12927572067E+02  0.18141213377E+02  0.51100000000E-03 0.  1.
         12    1    3    3    0    0  0.10015520326E+02 -0.47674097103E+01  0.80777937976E+01  0.13721865594E+02  0.00000000000E+00 0. -1.
</event>
<event>
 7    1  0.1485408E-008  0.4614232E+02  0.7816164E-02  0.1320468E+00
        -11   -1    0    0    0    0  0.00000000000E+00  0.00000000000E+00  0.45593999997E+02  0.45594000000E+02  0.51100000000E-03 0. -1.
         11   -1    0    0    0    0 -0.00000000000E+00 -0.00000000000E+00 -0.45593999997E+02  0.45594000000E+02  0.51100000000E-03 0.  1.
    9900012    2    1    2    0    0 -0.32080293119E+02 -0.28603751876E+02 -0.13483089011E+02  0.46142317441E+02  0.99999970775E+01 0.  0.
         12    1    1    2    0    0  0.32080293119E+02  0.28603751876E+02  0.13483089011E+02  0.45045682559E+02  0.00000000000E+00 0. -1.
         11    1    3    3    0    0 -0.15634136354E+02 -0.10782053683E+02 -0.30787676745E+01  0.19239483148E+02  0.51100000000E-03 0. -1.
        -11    1    3    3    0    0 -0.14083262624E+02 -0.15964055745E+02 -0.10800213237E+02  0.23871195366E+02  0.51100000000E-03 0.  1.
         12    1    3    3    0    0 -0.23628941403E+01 -0.18576424479E+01  0.39589190026E+00  0.30316389263E+01  0.00000000000E+00 0. -1.
</event>
<event>
 7    1  0.1485408E-008  0.4614232E+02  0.7816164E-02  0.1320468E+00
        -11   -1    0    0    0    0  0.00000000000E+00  0.00000000000E+00  0.45593999997E+02  0.45594000000E+02  0.51100000000E-03 0.  1.
         11   -1    0    0    0    0 -0.00000000000E+00 -0.00000000000E+00 -0.45593999997E+02  0.45594000000E+02  0.51100000000E-03 0. -1.
    9900012    2    1    2    0    0 -0.30987170312E+02  0.58442242291E+01  0.32167588177E+02  0.46142318632E+02  0.10000007940E+02 0.  0.
         12    1    1    2    0    0  0.30987170312E+02 -0.58442242291E+01 -0.32167588177E+02  0.45045681368E+02  0.00000000000E+00 0. -1.
         11    1    3    3    0    0 -0.10114590155E+02  0.33233850913E+01  0.13564130276E+02  0.17243417668E+02  0.51100000000E-03 0. -1.
        -11    1    3    3    0    0 -0.20937525845E+02  0.33155497462E+01  0.18414049572E+02  0.28079353278E+02  0.51100000000E-03 0.  1.
        -12    1    3    3    0    0  0.64945688475E-01 -0.79471060831E+00  0.18940832974E+00  0.81954768548E+00  0.00000000000E+00 0.  1.
</event>
<event>
 7    1  0.1485408E-008  0.4614232E+02  0.7816164E-02  0.1320468E+00
        -11   -1    0    0    0    0  0.00000000000E+00  0.00000000000E+00  0.45593999997E+02  0.45594000000E+02  0.51100000000E-03 0.  1.
         11   -1    0    0    0    0 -0.00000000000E+00 -0.00000000000E+00 -0.45593999997E+02  0.45594000000E+02  0.51100000000E-03 0. -1.
    9900012    2    1    2    0    0  0.21906231025E+01  0.44973369564E+02 -0.13078385541E+01  0.46142320505E+02  0.10000025022E+02 0.  0.
         12    1    1    2    0    0 -0.21906231025E+01 -0.44973369564E+02  0.13078385541E+01  0.45045679495E+02  0.00000000000E+00 0. -1.
         11    1    3    3    0    0  0.32668155137E+00  0.25748216011E+02 -0.36169119376E+01  0.26003065220E+02  0.51100000000E-03 0. -1.
        -11    1    3    3    0    0  0.19420179857E+01  0.15675048691E+02  0.38673003295E+01  0.16261445121E+02  0.51100000000E-03 0.  1.
         12    1    3    3    0    0 -0.78076434582E-01  0.35501048617E+01 -0.15582269460E+01  0.38778101648E+01  0.00000000000E+00 0. -1.
</event>
<event>
 7    1  0.1485408E-008  0.4614232E+02  0.7816164E-02  0.1320468E+00
        -11   -1    0    0    0    0  0.00000000000E+00  0.00000000000E+00  0.45593999997E+02  0.45594000000E+02  0.51100000000E-03 0. -1.
         11   -1    0    0    0    0 -0.00000000000E+00 -0.00000000000E+00 -0.45593999997E+02  0.45594000000E+02  0.51100000000E-03 0.  1.
    9900012    2    1    2    0    0  0.16796318565E+02 -0.37301882985E+02 -0.18856471642E+02  0.46142319693E+02  0.10000017614E+02 0.  0.
         12    1    1    2    0    0 -0.16796318565E+02  0.37301882985E+02  0.18856471642E+02  0.45045680307E+02  0.00000000000E+00 0. -1.
         11    1    3    3    0    0  0.31044531710E+01 -0.97691940890E+01 -0.89368578714E+00  0.10289482843E+02  0.51100000000E-03 0. -1.
        -11    1    3    3    0    0  0.12989556630E+02 -0.26595907069E+02 -0.16214696974E+02  0.33748885204E+02  0.51100000000E-03 0.  1.
        -12    1    3    3    0    0  0.70230876404E+00 -0.93678182671E+00 -0.17480888809E+01  0.21039516455E+01  0.00000000000E+00 0.  1.
</event>
<event>
 7    1  0.1485408E-008  0.4614232E+02  0.7816164E-02  0.1320468E+00
        -11   -1    0    0    0    0  0.00000000000E+00  0.00000000000E+00  0.45593999997E+02  0.45594000000E+02  0.51100000000E-03 0.  1.
         11   -1    0    0    0    0 -0.00000000000E+00 -0.00000000000E+00 -0.45593999997E+02  0.45594000000E+02  0.51100000000E-03 0. -1.
    9900012    2    1    2    0    0 -0.17378269127E+02  0.24666812283E+01  0.41485236846E+02  0.46142316186E+02  0.99999856324E+01 0.  0.
         12    1    1    2    0    0  0.17378269127E+02 -0.24666812283E+01 -0.41485236846E+02  0.45045683814E+02  0.00000000000E+00 0. -1.
         11    1    3    3    0    0 -0.84879572630E+01  0.48951828272E+00  0.10404411763E+02  0.13436399482E+02  0.51100000000E-03 0. -1.
        -11    1    3    3    0    0 -0.60808967773E+01 -0.91048851588E+00  0.18336529652E+02  0.19339974532E+02  0.51100000000E-03 0.  1.
         12    1    3    3    0    0 -0.28094150865E+01  0.28876514615E+01  0.12744295432E+02  0.13365942172E+02  0.00000000000E+00 0. -1.
</event>
<event>
 7    1  0.1485408E-008  0.4614232E+02  0.7816164E-02  0.1320468E+00
        -11   -1    0    0    0    0  0.00000000000E+00  0.00000000000E+00  0.45593999997E+02  0.45594000000E+02  0.51100000000E-03 0. -1.
         11   -1    0    0    0    0 -0.00000000000E+00 -0.00000000000E+00 -0.45593999997E+02  0.45594000000E+02  0.51100000000E-03 0.  1.
    9900012    2    1    2    0    0 -0.21937369564E+02 -0.16570664778E+02 -0.35683025565E+02  0.46142318431E+02  0.10000006104E+02 0.  0.
         12    1    1    2    0    0  0.21937369564E+02  0.16570664778E+02  0.35683025565E+02  0.45045681569E+02  0.00000000000E+00 0. -1.
         11    1    3    3    0    0 -0.17807152388E+00 -0.54479186946E-01  0.29601785971E+00  0.34972029369E+00  0.51100000000E-03 0. -1.
        -11    1    3    3    0    0 -0.17864149186E+02 -0.11052224494E+02 -0.22789218475E+02  0.30993998957E+02  0.51100000000E-03 0.  1.
        -12    1    3    3    0    0 -0.38951488541E+01 -0.54639610972E+01 -0.13189824950E+02  0.14798599180E+02  0.00000000000E+00 0.  1.
</event>
<event>
 7    1  0.1485408E-008  0.4614232E+02  0.7816164E-02  0.1320468E+00
        -11   -1    0    0    0    0  0.00000000000E+00  0.00000000000E+00  0.45593999997E+02  0.45594000000E+02  0.51100000000E-03 0.  1.
         11   -1    0    0    0    0 -0.00000000000E+00 -0.00000000000E+00 -0.45593999997E+02  0.45594000000E+02  0.51100000000E-03 0. -1.
    9900012    2    1    2    0    0  0.22507333420E+02 -0.94733646407E+01  0.37852196488E+02  0.46142317918E+02  0.10000001426E+02 0.  0.
         12    1    1    2    0    0 -0.22507333420E+02  0.94733646407E+01 -0.37852196488E+02  0.45045682082E+02  0.00000000000E+00 0. -1.
         11    1    3    3    0    0 -0.37544832736E+00  0.99491014668E+00  0.15652762764E+01  0.18923260102E+01  0.51100000000E-03 0. -1.
        -11    1    3    3    0    0  0.96802262024E+01 -0.30116839469E+01  0.15484685691E+02  0.18508174160E+02  0.51100000000E-03 0.  1.
         12    1    3    3    0    0  0.13202555545E+02 -0.74565908405E+01  0.20802234521E+02  0.25741817748E+02  0.00000000000E+00 0. -1.
</event>
<event>
 7    1  0.1485408E-008  0.4614232E+02  0.7816164E-02  0.1320468E+00
        -11   -1    0    0    0    0  0.00000000000E+00  0.00000000000E+00  0.45593999997E+02  0.45594000000E+02  0.51100000000E-03 0. -1.
         11   -1    0    0    0    0 -0.00000000000E+00 -0.00000000000E+00 -0.45593999997E+02  0.45594000000E+02  0.51100000000E-03 0.  1.
    9900012    2    1    2    0    0  0.10297834493E+02 -0.36208781682E+01 -0.43703057306E+02  0.46142319055E+02  0.10000011797E+02 0.  0.
         12    1    1    2    0    0 -0.10297834493E+02  0.36208781682E+01  0.43703057306E+02  0.45045680945E+02  0.00000000000E+00 0. -1.
         11    1    3    3    0    0  0.39752669849E+01  0.34618773384E+00 -0.43532257166E+01  0.59053507896E+01  0.51100000000E-03 0. -1.
        -11    1    3    3    0    0  0.37114562593E+01 -0.14777652175E+01 -0.29055020048E+02  0.29328363198E+02  0.51100000000E-03 0.  1.
         12    1    3    3    0    0  0.26111112492E+01 -0.24893006845E+01 -0.10294811541E+02  0.10908605067E+02  0.00000000000E+00 0. -1.
</event>
<event>
 7    1  0.1485408E-008  0.4614232E+02  0.7816164E-02  0.1320468E+00
        -11   -1    0    0    0    0  0.00000000000E+00  0.00000000000E+00  0.45593999997E+02  0.45594000000E+02  0.51100000000E-03 0.  1.
         11   -1    0    0    0    0 -0.00000000000E+00 -0.00000000000E+00 -0.45593999997E+02  0.45594000000E+02  0.51100000000E-03 0. -1.
    9900012    2    1    2    0    0 -0.29765120348E+02 -0.28653785578E+02  0.17947465795E+02  0.46142319344E+02  0.10000014435E+02 0.  0.
         12    1    1    2    0    0  0.29765120348E+02  0.28653785578E+02 -0.17947465795E+02  0.45045680656E+02  0.00000000000E+00 0. -1.
         11    1    3    3    0    0 -0.91747039036E+01 -0.11498340123E+02  0.90258678406E+01  0.17258427154E+02  0.51100000000E-03 0. -1.
        -11    1    3    3    0    0 -0.58085855057E+01 -0.85345475533E+01  0.26458106167E+01  0.10657320564E+02  0.51100000000E-03 0.  1.
         12    1    3    3    0    0 -0.14781830939E+02 -0.86208979018E+01  0.62757873372E+01  0.18226571626E+02  0.00000000000E+00 0. -1.
</event>
<event>
 7    1  0.1485408E-008  0.4614232E+02  0.7816164E-02  0.1320468E+00
        -11   -1    0    0    0    0  0.00000000000E+00  0.00000000000E+00  0.45593999997E+02  0.45594000000E+02  0.51100000000E-03 0.  1.
         11   -1    0    0    0    0 -0.00000000000E+00 -0.00000000000E+00 -0.45593999997E+02  0.45594000000E+02  0.51100000000E-03 0. -1.
    9900012    2    1    2    0    0  0.42262817932E+01  0.71435819858E+01  0.44274387964E+02  0.46142315956E+02  0.99999835406E+01 0.  0.
         12    1    1    2    0    0 -0.42262817932E+01 -0.71435819858E+01 -0.44274387964E+02  0.45045684044E+02  0.00000000000E+00 0. -1.
         11    1    3    3    0    0 -0.12214813974E+00 -0.95050885555E+00  0.41729541942E+01  0.42815808086E+01  0.51100000000E-03 0. -1.
        -11    1    3    3    0    0  0.59577139138E+01  0.84674740997E+01  0.34267348942E+02  0.35797257947E+02  0.51100000000E-03 0.  1.
        -12    1    3    3    0    0 -0.16092839809E+01 -0.37338325833E+00  0.58340848278E+01  0.60634772010E+01  0.00000000000E+00 0.  1.
</event>
<event>
 7    1  0.1485408E-008  0.4614232E+02  0.7816164E-02  0.1320468E+00
        -11   -1    0    0    0    0  0.00000000000E+00  0.00000000000E+00  0.45593999997E+02  0.45594000000E+02  0.51100000000E-03 0.  1.
         11   -1    0    0    0    0 -0.00000000000E+00 -0.00000000000E+00 -0.45593999997E+02  0.45594000000E+02  0.51100000000E-03 0. -1.
    9900012    2    1    2    0    0  0.27699948179E+02  0.30882175321E+01  0.35387699741E+02  0.46142317525E+02  0.99999978510E+01 0.  0.
         12    1    1    2    0    0 -0.27699948179E+02 -0.30882175321E+01 -0.35387699741E+02  0.45045682475E+02  0.00000000000E+00 0. -1.
         11    1    3    3    0    0  0.22031338569E+02  0.60615727543E+01  0.27840781414E+02  0.36017102235E+02  0.51100000000E-03 0. -1.
        -11    1    3    3    0    0  0.30808791315E+01 -0.50794252406E+00  0.28883504008E+01  0.42535150322E+01  0.51100000000E-03 0.  1.
         12    1    3    3    0    0  0.25877304788E+01 -0.24654126981E+01  0.46585679263E+01  0.58717002586E+01  0.00000000000E+00 0. -1.
</event>
<event>
 7    1  0.1485408E-008  0.4614232E+02  0.7816164E-02  0.1320468E+00
        -11   -1    0    0    0    0  0.00000000000E+00  0.00000000000E+00  0.45593999997E+02  0.45594000000E+02  0.51100000000E-03 0.  1.
         11   -1    0    0    0    0 -0.00000000000E+00 -0.00000000000E+00 -0.45593999997E+02  0.45594000000E+02  0.51100000000E-03 0. -1.
    9900012    2    1    2    0    0 -0.62263676740E+01 -0.24802000266E+02  0.37083778902E+02  0.46142317307E+02  0.99999958569E+01 0.  0.
         12    1    1    2    0    0  0.62263676740E+01  0.24802000266E+02 -0.37083778902E+02  0.45045682693E+02  0.00000000000E+00 0. -1.
         11    1    3    3    0    0 -0.49591928315E+01 -0.16391835597E+02  0.23980990626E+02  0.29468182493E+02  0.51100000000E-03 0. -1.
        -11    1    3    3    0    0  0.14793163362E+01 -0.50690425403E+00  0.70053474053E+00  0.17134987392E+01  0.51100000000E-03 0.  1.
        -12    1    3    3    0    0 -0.27464911788E+01 -0.79032604150E+01  0.12402253536E+02  0.14960636074E+02  0.00000000000E+00 0.  1.
</event>
<event>
 7    1  0.1485408E-008  0.4614232E+02  0.7816164E-02  0.1320468E+00
        -11   -1    0    0    0    0  0.00000000000E+00  0.00000000000E+00  0.45593999997E+02  0.45594000000E+02  0.51100000000E-03 0. -1.
         11   -1    0    0    0    0 -0.00000000000E+00 -0.00000000000E+00 -0.45593999997E+02  0.45594000000E+02  0.51100000000E-03 0.  1.
    9900012    2    1    2    0    0  0.31271786266E+02 -0.31830730342E+02  0.61638847341E+01  0.46142317794E+02  0.10000000299E+02 0.  0.
         12    1    1    2    0    0 -0.31271786266E+02  0.31830730342E+02 -0.61638847341E+01  0.45045682206E+02  0.00000000000E+00 0. -1.
         11    1    3    3    0    0  0.71492804078E+01 -0.10632302756E+02  0.24624157563E+01  0.13046898630E+02  0.51100000000E-03 0. -1.
        -11    1    3    3    0    0 -0.24777023622E+00 -0.11007596699E+01  0.78115834718E+00  0.13723230543E+01  0.51100000000E-03 0.  1.
        -12    1    3    3    0    0  0.24370276095E+02 -0.20097667916E+02  0.29203106306E+01  0.31723096110E+02  0.00000000000E+00 0.  1.
</event>
<event>
 7    1  0.1485408E-008  0.4614232E+02  0.7816164E-02  0.1320468E+00
        -11   -1    0    0    0    0  0.00000000000E+00  0.00000000000E+00  0.45593999997E+02  0.45594000000E+02  0.51100000000E-03 0. -1.
         11   -1    0    0    0    0 -0.00000000000E+00 -0.00000000000E+00 -0.45593999997E+02  0.45594000000E+02  0.51100000000E-03 0.  1.
    9900012    2    1    2    0    0 -0.44273973135E+02 -0.42542212264E+01 -0.71295461734E+01  0.46142317365E+02  0.99999963880E+01 0.  0.
         12    1    1    2    0    0  0.44273973135E+02  0.42542212264E+01  0.71295461734E+01  0.45045682635E+02  0.00000000000E+00 0. -1.
         11    1    3    3    0    0 -0.91791420056E+00  0.69631893684E+00 -0.65491083066E+00  0.13252678969E+01  0.51100000000E-03 0. -1.
        -11    1    3    3    0    0 -0.30177791645E+02  0.16647036512E-01 -0.57080940816E+01  0.30712891821E+02  0.51100000000E-03 0.  1.
        -12    1    3    3    0    0 -0.13178267289E+02 -0.49671871997E+01 -0.76654126111E+00  0.14104157647E+02  0.00000000000E+00 0.  1.
</event>
<event>
 7    1  0.1485408E-008  0.4614232E+02  0.7816164E-02  0.1320468E+00
        -11   -1    0    0    0    0  0.00000000000E+00  0.00000000000E+00  0.45593999997E+02  0.45594000000E+02  0.51100000000E-03 0.  1.
         11   -1    0    0    0    0 -0.00000000000E+00 -0.00000000000E+00 -0.45593999997E+02  0.45594000000E+02  0.51100000000E-03 0. -1.
    9900012    2    1    2    0    0  0.19507322989E+02 -0.11575128672E+02  0.38917789927E+02  0.46142316225E+02  0.99999859938E+01 0.  0.
         12    1    1    2    0    0 -0.19507322989E+02  0.11575128672E+02 -0.38917789927E+02  0.45045683775E+02  0.00000000000E+00 0. -1.
         11    1    3    3    0    0  0.14921336392E+02 -0.95281434547E+01  0.30895612290E+02  0.35608575603E+02  0.51100000000E-03 0.  1.
        -11    1    3    3    0    0  0.37128045738E+01  0.62721355412E+00  0.59437237732E+01  0.70360619098E+01  0.51100000000E-03 0. -1.
         12    1    3    3    0    0  0.87318202293E+00 -0.26741987714E+01  0.20784538638E+01  0.34976787128E+01  0.00000000000E+00 0. -1.
</event>
<event>
 7    1  0.1485408E-008  0.4614231E+02  0.7816164E-02  0.1320468E+00
        -11   -1    0    0    0    0  0.00000000000E+00  0.00000000000E+00  0.45593999997E+02  0.45594000000E+02  0.51100000000E-03 0.  1.
         11   -1    0    0    0    0 -0.00000000000E+00 -0.00000000000E+00 -0.45593999997E+02  0.45594000000E+02  0.51100000000E-03 0. -1.
    9900012    2    1    2    0    0  0.31271341211E+02 -0.31427210853E+02  0.79716661917E+01  0.46142314025E+02  0.99999659268E+01 0.  0.
         12    1    1    2    0    0 -0.31271341211E+02  0.31427210853E+02 -0.79716661917E+01  0.45045685975E+02  0.00000000000E+00 0. -1.
         11    1    3    3    0    0  0.28474296145E+01 -0.44725695402E+00 -0.11475376107E+01  0.31023760284E+01  0.51100000000E-03 0. -1.
        -11    1    3    3    0    0  0.20713618444E+02 -0.22975223387E+02  0.62076696483E+01  0.31550753421E+02  0.51100000000E-03 0.  1.
         12    1    3    3    0    0  0.77102931525E+01 -0.80047305119E+01  0.29115341541E+01  0.11489184575E+02  0.00000000000E+00 0. -1.
</event>
<event>
 7    1  0.1485408E-008  0.4614232E+02  0.7816164E-02  0.1320468E+00
        -11   -1    0    0    0    0  0.00000000000E+00  0.00000000000E+00  0.45593999997E+02  0.45594000000E+02  0.51100000000E-03 0.  1.
         11   -1    0    0    0    0 -0.00000000000E+00 -0.00000000000E+00 -0.45593999997E+02  0.45594000000E+02  0.51100000000E-03 0. -1.
    9900012    2    1    2    0    0 -0.69907869245E+01 -0.37534201475E+02  0.23904522529E+02  0.46142316749E+02  0.99999907740E+01 0.  0.
         12    1    1    2    0    0  0.69907869245E+01  0.37534201475E+02 -0.23904522529E+02  0.45045683251E+02  0.00000000000E+00 0. -1.
         11    1    3    3    0    0  0.14743608641E+00  0.17660895863E+00 -0.43292636657E+00  0.49025873153E+00  0.51100000000E-03 0. -1.
        -11    1    3    3    0    0 -0.76716156753E+01 -0.36360816061E+02  0.23623353467E+02  0.44034366817E+02  0.51100000000E-03 0.  1.
         12    1    3    3    0    0  0.53339266439E+00 -0.13499943721E+01  0.71409542919E+00  0.16176912008E+01  0.00000000000E+00 0. -1.
</event>
<event>
 7    1  0.1485408E-008  0.4614232E+02  0.7816164E-02  0.1320468E+00
        -11   -1    0    0    0    0  0.00000000000E+00  0.00000000000E+00  0.45593999997E+02  0.45594000000E+02  0.51100000000E-03 0.  1.
         11   -1    0    0    0    0 -0.00000000000E+00 -0.00000000000E+00 -0.45593999997E+02  0.45594000000E+02  0.51100000000E-03 0. -1.
    9900012    2    1    2    0    0  0.11841373679E-01 -0.26154740275E+02  0.36674825313E+02  0.46142318844E+02  0.10000009873E+02 0.  0.
         12    1    1    2    0    0 -0.11841373679E-01  0.26154740275E+02 -0.36674825313E+02  0.45045681156E+02  0.00000000000E+00 0. -1.
         11    1    3    3    0    0  0.42639409027E+00 -0.15426184318E+01  0.65814947553E+01  0.67732973522E+01  0.51100000000E-03 0. -1.
        -11    1    3    3    0    0 -0.19034037064E+00 -0.19398823293E+02  0.27178641629E+02  0.33392051983E+02  0.51100000000E-03 0.  1.
        -12    1    3    3    0    0 -0.22421234595E+00 -0.52132985501E+01  0.29146889292E+01  0.59769695082E+01  0.00000000000E+00 0.  1.
</event>
<event>
 7    1  0.1485408E-008  0.4614232E+02  0.7816164E-02  0.1320468E+00
        -11   -1    0    0    0    0  0.00000000000E+00  0.00000000000E+00  0.45593999997E+02  0.45594000000E+02  0.51100000000E-03 0. -1.
         11   -1    0    0    0    0 -0.00000000000E+00 -0.00000000000E+00 -0.45593999997E+02  0.45594000000E+02  0.51100000000E-03 0.  1.
    9900012    2    1    2    0    0  0.17001250802E+02  0.19317071194E+02 -0.36971905187E+02  0.46142317172E+02  0.99999946257E+01 0.  0.
         12    1    1    2    0    0 -0.17001250802E+02 -0.19317071194E+02  0.36971905187E+02  0.45045682828E+02  0.00000000000E+00 0. -1.
         11    1    3    3    0    0 -0.17995959422E+00  0.19109586105E+01 -0.35691286949E+01  0.40525088733E+01  0.51100000000E-03 0. -1.
        -11    1    3    3    0    0  0.12399337083E+02  0.13176018968E+02 -0.29502046736E+02  0.34608117513E+02  0.51100000000E-03 0.  1.
        -12    1    3    3    0    0  0.47818733134E+01  0.42300936149E+01 -0.39007297558E+01  0.74816907851E+01  0.00000000000E+00 0.  1.
</event>
<event>
 7    1  0.1485408E-008  0.4614232E+02  0.7816164E-02  0.1320468E+00
        -11   -1    0    0    0    0  0.00000000000E+00  0.00000000000E+00  0.45593999997E+02  0.45594000000E+02  0.51100000000E-03 0.  1.
         11   -1    0    0    0    0 -0.00000000000E+00 -0.00000000000E+00 -0.45593999997E+02  0.45594000000E+02  0.51100000000E-03 0. -1.
    9900012    2    1    2    0    0  0.36976311293E+02 -0.23081719226E+02  0.11362221527E+02  0.46142318328E+02  0.10000005168E+02 0.  0.
         12    1    1    2    0    0 -0.36976311293E+02  0.23081719226E+02 -0.11362221527E+02  0.45045681672E+02  0.00000000000E+00 0. -1.
         11    1    3    3    0    0  0.50484179893E-01 -0.70336704237E+00  0.20383347624E+00  0.73404509117E+00  0.51100000000E-03 0. -1.
        -11    1    3    3    0    0  0.48960035060E+01 -0.15793558685E+01 -0.11727784714E+01  0.52764215993E+01  0.51100000000E-03 0.  1.
        -12    1    3    3    0    0  0.32029823607E+02 -0.20798996315E+02  0.12331166523E+02  0.40131851637E+02  0.00000000000E+00 0.  1.
</event>
<event>
 7    1  0.1485408E-008  0.4614232E+02  0.7816164E-02  0.1320468E+00
        -11   -1    0    0    0    0  0.00000000000E+00  0.00000000000E+00  0.45593999997E+02  0.45594000000E+02  0.51100000000E-03 0.  1.
         11   -1    0    0    0    0 -0.00000000000E+00 -0.00000000000E+00 -0.45593999997E+02  0.45594000000E+02  0.51100000000E-03 0. -1.
    9900012    2    1    2    0    0 -0.18895518287E+02 -0.40765610088E+02 -0.31996833417E+01  0.46142317070E+02  0.99999936969E+01 0.  0.
         12    1    1    2    0    0  0.18895518287E+02  0.40765610088E+02  0.31996833417E+01  0.45045682930E+02  0.00000000000E+00 0. -1.
         11    1    3    3    0    0 -0.85850546824E+00 -0.96029554303E+01 -0.20691306479E+01  0.98607852899E+01  0.51100000000E-03 0. -1.
        -11    1    3    3    0    0 -0.56423649871E+01 -0.78801242920E+01  0.13650402482E+01  0.97875419102E+01  0.51100000000E-03 0.  1.
         12    1    3    3    0    0 -0.12394647831E+02 -0.23282530366E+02 -0.24955929420E+01  0.26493989870E+02  0.00000000000E+00 0. -1.
</event>
<event>
 7    1  0.1485408E-008  0.4614232E+02  0.7816164E-02  0.1320468E+00
        -11   -1    0    0    0    0  0.00000000000E+00  0.00000000000E+00  0.45593999997E+02  0.45594000000E+02  0.51100000000E-03 0.  1.
         11   -1    0    0    0    0 -0.00000000000E+00 -0.00000000000E+00 -0.45593999997E+02  0.45594000000E+02  0.51100000000E-03 0. -1.
    9900012    2    1    2    0    0  0.39790218402E+02  0.10481388777E+02  0.18330096838E+02  0.46142318284E+02  0.10000004764E+02 0.  0.
         12    1    1    2    0    0 -0.39790218402E+02 -0.10481388777E+02 -0.18330096838E+02  0.45045681716E+02  0.00000000000E+00 0. -1.
         11    1    3    3    0    0  0.15071640172E+02  0.15327180978E+01  0.73534221586E+01  0.16839726243E+02  0.51100000000E-03 0. -1.
        -11    1    3    3    0    0  0.17300433656E+01  0.10327184768E+01 -0.94309490740E+00  0.22246316020E+01  0.51100000000E-03 0.  1.
        -12    1    3    3    0    0  0.22988534865E+02  0.79159522026E+01  0.11919769587E+02  0.27077960438E+02  0.00000000000E+00 0.  1.
</event>
<event>
 7    1  0.1485408E-008  0.4614232E+02  0.7816164E-02  0.1320468E+00
        -11   -1    0    0    0    0  0.00000000000E+00  0.00000000000E+00  0.45593999997E+02  0.45594000000E+02  0.51100000000E-03 0.  1.
         11   -1    0    0    0    0 -0.00000000000E+00 -0.00000000000E+00 -0.45593999997E+02  0.45594000000E+02  0.51100000000E-03 0. -1.
    9900012    2    1    2    0    0  0.16717834192E+02  0.62366011373E+01  0.41361000219E+02  0.46142317488E+02  0.99999975104E+01 0.  0.
         12    1    1    2    0    0 -0.16717834192E+02 -0.62366011373E+01 -0.41361000219E+02  0.45045682512E+02  0.00000000000E+00 0. -1.
         11    1    3    3    0    0  0.91834170731E+01  0.16163802397E+01  0.10727957603E+02  0.14213968792E+02  0.51100000000E-03 0. -1.
        -11    1    3    3    0    0  0.47804428053E+01  0.35258646744E+01  0.18102996697E+02  0.19052633540E+02  0.51100000000E-03 0.  1.
         12    1    3    3    0    0  0.27539743138E+01  0.10943562232E+01  0.12530045919E+02  0.12875715157E+02  0.00000000000E+00 0. -1.
</event>
<event>
 7    1  0.1485408E-008  0.4614231E+02  0.7816164E-02  0.1320468E+00
        -11   -1    0    0    0    0  0.00000000000E+00  0.00000000000E+00  0.45593999997E+02  0.45594000000E+02  0.51100000000E-03 0. -1.
         11   -1    0    0    0    0 -0.00000000000E+00 -0.00000000000E+00 -0.45593999997E+02  0.45594000000E+02  0.51100000000E-03 0.  1.
    9900012    2    1    2    0    0  0.17513799947E+02  0.89689973160E+01 -0.40520830616E+02  0.46142314133E+02  0.99999669148E+01 0.  0.
         12    1    1    2    0    0 -0.17513799947E+02 -0.89689973160E+01  0.40520830616E+02  0.45045685867E+02  0.00000000000E+00 0. -1.
         11    1    3    3    0    0  0.11084122365E+02  0.80011445066E+01 -0.25049258262E+02  0.28536668022E+02  0.51100000000E-03 0. -1.
        -11    1    3    3    0    0  0.50031937907E+01  0.30615871622E+01 -0.11005669720E+02  0.12471167961E+02  0.51100000000E-03 0.  1.
         12    1    3    3    0    0  0.14264837918E+01 -0.20937343527E+01 -0.44659026329E+01  0.51344781502E+01  0.00000000000E+00 0. -1.
</event>
<event>
 7    1  0.1485408E-008  0.4614232E+02  0.7816164E-02  0.1320468E+00
        -11   -1    0    0    0    0  0.00000000000E+00  0.00000000000E+00  0.45593999997E+02  0.45594000000E+02  0.51100000000E-03 0. -1.
         11   -1    0    0    0    0 -0.00000000000E+00 -0.00000000000E+00 -0.45593999997E+02  0.45594000000E+02  0.51100000000E-03 0.  1.
    9900012    2    1    2    0    0 -0.63875031816E+01 -0.40897395306E+02 -0.17768412092E+02  0.46142316433E+02  0.99999878932E+01 0.  0.
         12    1    1    2    0    0  0.63875031816E+01  0.40897395306E+02  0.17768412092E+02  0.45045683567E+02  0.00000000000E+00 0. -1.
         11    1    3    3    0    0 -0.24145812156E+01 -0.10126534990E+02 -0.77345722362E+01  0.12969214366E+02  0.51100000000E-03 0. -1.
        -11    1    3    3    0    0 -0.42149835909E+01 -0.13025253179E+02 -0.61379676696E+01  0.15003264792E+02  0.51100000000E-03 0.  1.
         12    1    3    3    0    0  0.24206162487E+00 -0.17745607138E+02 -0.38958721859E+01  0.18169837275E+02  0.00000000000E+00 0. -1.
</event>
<event>
 7    1  0.1485408E-008  0.4614232E+02  0.7816164E-02  0.1320468E+00
        -11   -1    0    0    0    0  0.00000000000E+00  0.00000000000E+00  0.45593999997E+02  0.45594000000E+02  0.51100000000E-03 0.  1.
         11   -1    0    0    0    0 -0.00000000000E+00 -0.00000000000E+00 -0.45593999997E+02  0.45594000000E+02  0.51100000000E-03 0. -1.
    9900012    2    1    2    0    0  0.26550806548E+02 -0.17622229962E+02  0.31837481170E+02  0.46142317361E+02  0.99999963508E+01 0.  0.
         12    1    1    2    0    0 -0.26550806548E+02  0.17622229962E+02 -0.31837481170E+02  0.45045682639E+02  0.00000000000E+00 0. -1.
         11    1    3    3    0    0  0.40913338205E+00  0.16284428848E+00  0.12238072427E+01  0.13006201656E+01  0.51100000000E-03 0. -1.
        -11    1    3    3    0    0  0.12874415186E+02 -0.87875315270E+01  0.20988364043E+02  0.26143502102E+02  0.51100000000E-03 0.  1.
        -12    1    3    3    0    0  0.13267257980E+02 -0.89975427236E+01  0.96253098842E+01  0.18698195093E+02  0.00000000000E+00 0.  1.
</event>
<event>
 7    1  0.1485408E-008  0.4614232E+02  0.7816164E-02  0.1320468E+00
        -11   -1    0    0    0    0  0.00000000000E+00  0.00000000000E+00  0.45593999997E+02  0.45594000000E+02  0.51100000000E-03 0. -1.
         11   -1    0    0    0    0 -0.00000000000E+00 -0.00000000000E+00 -0.45593999997E+02  0.45594000000E+02  0.51100000000E-03 0.  1.
    9900012    2    1    2    0    0 -0.38125638922E+02 -0.23821922848E+02 -0.28399193288E+01  0.46142317708E+02  0.99999995127E+01 0.  0.
         12    1    1    2    0    0  0.38125638922E+02  0.23821922848E+02  0.28399193288E+01  0.45045682292E+02  0.00000000000E+00 0. -1.
         11    1    3    3    0    0 -0.30341694418E+01  0.56697905067E+00 -0.89227752278E+00  0.32130684531E+01  0.51100000000E-03 0. -1.
        -11    1    3    3    0    0 -0.26508423597E+01 -0.27432507199E+01  0.53070040484E+00  0.38514974891E+01  0.51100000000E-03 0.  1.
         12    1    3    3    0    0 -0.32440627120E+02 -0.21645651179E+02 -0.24783422109E+01  0.39077751765E+02  0.00000000000E+00 0. -1.
</event>
<event>
 7    1  0.1485408E-008  0.4614231E+02  0.7816164E-02  0.1320468E+00
        -11   -1    0    0    0    0  0.00000000000E+00  0.00000000000E+00  0.45593999997E+02  0.45594000000E+02  0.51100000000E-03 0.  1.
         11   -1    0    0    0    0 -0.00000000000E+00 -0.00000000000E+00 -0.45593999997E+02  0.45594000000E+02  0.51100000000E-03 0. -1.
    9900012    2    1    2    0    0  0.22041470888E+02 -0.39208885288E+02 -0.24394081225E+01  0.46142313898E+02  0.99999647718E+01 0.  0.
         12    1    1    2    0    0 -0.22041470888E+02  0.39208885288E+02  0.24394081225E+01  0.45045686102E+02  0.00000000000E+00 0. -1.
         11    1    3    3    0    0  0.71436360923E+01 -0.14216406848E+02 -0.18964551641E+01  0.16022930529E+02  0.51100000000E-03 0. -1.
        -11    1    3    3    0    0  0.36628659967E+01 -0.20691797616E+01  0.16005485510E+01  0.45010941027E+01  0.51100000000E-03 0.  1.
        -12    1    3    3    0    0  0.11234968799E+02 -0.22923298678E+02 -0.21435015093E+01  0.25618289266E+02  0.00000000000E+00 0.  1.
</event>
<event>
 7    1  0.1485408E-008  0.4614232E+02  0.7816164E-02  0.1320468E+00
        -11   -1    0    0    0    0  0.00000000000E+00  0.00000000000E+00  0.45593999997E+02  0.45594000000E+02  0.51100000000E-03 0. -1.
         11   -1    0    0    0    0 -0.00000000000E+00 -0.00000000000E+00 -0.45593999997E+02  0.45594000000E+02  0.51100000000E-03 0.  1.
    9900012    2    1    2    0    0 -0.43044802905E+02  0.12935453000E+02 -0.29887258127E+01  0.46142317816E+02  0.10000000503E+02 0.  0.
         12    1    1    2    0    0  0.43044802905E+02 -0.12935453000E+02  0.29887258127E+01  0.45045682184E+02  0.00000000000E+00 0. -1.
         11    1    3    3    0    0 -0.85322160626E+01  0.64825660350E+01 -0.31548544370E+00  0.10720163463E+02  0.51100000000E-03 0. -1.
        -11    1    3    3    0    0 -0.24074807376E+02  0.45551101111E+01 -0.85012588963E-01  0.24502093905E+02  0.51100000000E-03 0.  1.
         12    1    3    3    0    0 -0.10437779466E+02  0.18977768539E+01 -0.25882277800E+01  0.10920060449E+02  0.00000000000E+00 0. -1.
</event>
<event>
 7    1  0.1485408E-008  0.4614232E+02  0.7816164E-02  0.1320468E+00
        -11   -1    0    0    0    0  0.00000000000E+00  0.00000000000E+00  0.45593999997E+02  0.45594000000E+02  0.51100000000E-03 0.  1.
         11   -1    0    0    0    0 -0.00000000000E+00 -0.00000000000E+00 -0.45593999997E+02  0.45594000000E+02  0.51100000000E-03 0. -1.
    9900012    2    1    2    0    0  0.19058321239E+02 -0.56373986238E+01  0.40424170859E+02  0.46142318061E+02  0.10000002737E+02 0.  0.
         12    1    1    2    0    0 -0.19058321239E+02  0.56373986238E+01 -0.40424170859E+02  0.45045681939E+02  0.00000000000E+00 0. -1.
         11    1    3    3    0    0  0.85818963744E+01 -0.31547406801E-01  0.96554497297E+01  0.12918113266E+02  0.51100000000E-03 0. -1.
        -11    1    3    3    0    0  0.91645501061E+01 -0.48034237505E+01  0.29392247956E+02  0.31160328922E+02  0.51100000000E-03 0.  1.
        -12    1    3    3    0    0  0.13118747583E+01 -0.80242746650E+00  0.13764731734E+01  0.20638758726E+01  0.00000000000E+00 0.  1.
</event>
<event>
 7    1  0.1485408E-008  0.4614232E+02  0.7816164E-02  0.1320468E+00
        -11   -1    0    0    0    0  0.00000000000E+00  0.00000000000E+00  0.45593999997E+02  0.45594000000E+02  0.51100000000E-03 0.  1.
         11   -1    0    0    0    0 -0.00000000000E+00 -0.00000000000E+00 -0.45593999997E+02  0.45594000000E+02  0.51100000000E-03 0. -1.
    9900012    2    1    2    0    0 -0.42018650470E+02 -0.67174659995E+01  0.14779113724E+02  0.46142317196E+02  0.99999948494E+01 0.  0.
         12    1    1    2    0    0  0.42018650470E+02  0.67174659995E+01 -0.14779113724E+02  0.45045682804E+02  0.00000000000E+00 0. -1.
         11    1    3    3    0    0 -0.29591406635E+02 -0.59028665809E+01  0.76620432033E+01  0.31132010645E+02  0.51100000000E-03 0. -1.
        -11    1    3    3    0    0 -0.47468830749E+01 -0.62663339554E+00  0.39904666328E+00  0.48046651121E+01  0.51100000000E-03 0.  1.
         12    1    3    3    0    0 -0.76803607605E+01 -0.18796602306E+00  0.67180238570E+01  0.10205641439E+02  0.00000000000E+00 0. -1.
</event>
<event>
 7    1  0.1485408E-008  0.4614232E+02  0.7816164E-02  0.1320468E+00
        -11   -1    0    0    0    0  0.00000000000E+00  0.00000000000E+00  0.45593999997E+02  0.45594000000E+02  0.51100000000E-03 0.  1.
         11   -1    0    0    0    0 -0.00000000000E+00 -0.00000000000E+00 -0.45593999997E+02  0.45594000000E+02  0.51100000000E-03 0. -1.
    9900012    2    1    2    0    0  0.62591186574E+01  0.21032242548E+02  0.39339314831E+02  0.46142317806E+02  0.10000000406E+02 0.  0.
         12    1    1    2    0    0 -0.62591186574E+01 -0.21032242548E+02 -0.39339314831E+02  0.45045682194E+02  0.00000000000E+00 0. -1.
         11    1    3    3    0    0  0.64863305931E+01  0.99896915347E+01  0.17903857906E+02  0.21503826396E+02  0.51100000000E-03 0. -1.
        -11    1    3    3    0    0 -0.12589371738E+01  0.66928024141E+01  0.17120731400E+02  0.18425470710E+02  0.51100000000E-03 0.  1.
         12    1    3    3    0    0  0.10317252381E+01  0.43497485997E+01  0.43147255256E+01  0.62130206992E+01  0.00000000000E+00 0. -1.
</event>
<event>
 7    1  0.1485408E-008  0.4614232E+02  0.7816164E-02  0.1320468E+00
        -11   -1    0    0    0    0  0.00000000000E+00  0.00000000000E+00  0.45593999997E+02  0.45594000000E+02  0.51100000000E-03 0.  1.
         11   -1    0    0    0    0 -0.00000000000E+00 -0.00000000000E+00 -0.45593999997E+02  0.45594000000E+02  0.51100000000E-03 0. -1.
    9900012    2    1    2    0    0 -0.53042914985E+01  0.88818701287E+01  0.43841649035E+02  0.46142319681E+02  0.10000017507E+02 0.  0.
         12    1    1    2    0    0  0.53042914985E+01 -0.88818701287E+01 -0.43841649035E+02  0.45045680319E+02  0.00000000000E+00 0. -1.
         11    1    3    3    0    0 -0.30129911195E+01  0.47217379220E+01  0.79976623456E+01  0.97639913839E+01  0.51100000000E-03 0. -1.
        -11    1    3    3    0    0 -0.21038488407E+01  0.30644209016E+01  0.34152971545E+02  0.34354655013E+02  0.51100000000E-03 0.  1.
        -12    1    3    3    0    0 -0.18745153825E+00  0.10957113052E+01  0.16910151442E+01  0.20236732843E+01  0.00000000000E+00 0.  1.
</event>
<event>
 7    1  0.1485408E-008  0.4614232E+02  0.7816164E-02  0.1320468E+00
        -11   -1    0    0    0    0  0.00000000000E+00  0.00000000000E+00  0.45593999997E+02  0.45594000000E+02  0.51100000000E-03 0.  1.
         11   -1    0    0    0    0 -0.00000000000E+00 -0.00000000000E+00 -0.45593999997E+02  0.45594000000E+02  0.51100000000E-03 0. -1.
    9900012    2    1    2    0    0  0.14908369277E+02  0.24519207738E+02  0.34722650442E+02  0.46142317895E+02  0.10000001219E+02 0.  0.
         12    1    1    2    0    0 -0.14908369277E+02 -0.24519207738E+02 -0.34722650442E+02  0.45045682105E+02  0.00000000000E+00 0. -1.
         11    1    3    3    0    0  0.56613713292E+00  0.71430502654E+00  0.16420377352E+01  0.18780391660E+01  0.51100000000E-03 0. -1.
        -11    1    3    3    0    0  0.97505834683E+01  0.70457362869E+01  0.13904631195E+02  0.18386273323E+02  0.51100000000E-03 0.  1.
        -12    1    3    3    0    0  0.45916486762E+01  0.16759166425E+02  0.19175981512E+02  0.25878005405E+02  0.00000000000E+00 0.  1.
</event>
<event>
 7    1  0.1485408E-008  0.4614232E+02  0.7816164E-02  0.1320468E+00
        -11   -1    0    0    0    0  0.00000000000E+00  0.00000000000E+00  0.45593999997E+02  0.45594000000E+02  0.51100000000E-03 0. -1.
         11   -1    0    0    0    0 -0.00000000000E+00 -0.00000000000E+00 -0.45593999997E+02  0.45594000000E+02  0.51100000000E-03 0.  1.
    9900012    2    1    2    0    0  0.61012528327E+00 -0.15862153969E+02 -0.42156059025E+02  0.46142317699E+02  0.99999994363E+01 0.  0.
         12    1    1    2    0    0 -0.61012528327E+00  0.15862153969E+02  0.42156059025E+02  0.45045682301E+02  0.00000000000E+00 0. -1.
         11    1    3    3    0    0  0.15010249542E+01 -0.12369496455E+02 -0.22557841936E+02  0.25770404567E+02  0.51100000000E-03 0. -1.
        -11    1    3    3    0    0  0.31318482577E+00  0.35775224338E+00 -0.13398066185E+00  0.49398631723E+00  0.51100000000E-03 0.  1.
        -12    1    3    3    0    0 -0.12040844967E+01 -0.38504097574E+01 -0.19464236427E+02  0.19877926815E+02  0.00000000000E+00 0.  1.
</event>
<event>
 7    1  0.1485408E-008  0.4614231E+02  0.7816164E-02  0.1320468E+00
        -11   -1    0    0    0    0  0.00000000000E+00  0.00000000000E+00  0.45593999997E+02  0.45594000000E+02  0.51100000000E-03 0.  1.
         11   -1    0    0    0    0 -0.00000000000E+00 -0.00000000000E+00 -0.45593999997E+02  0.45594000000E+02  0.51100000000E-03 0. -1.
    9900012    2    1    2    0    0 -0.24682990785E+02 -0.32697152546E+02  0.18728588175E+02  0.46142313927E+02  0.99999650378E+01 0.  0.
         12    1    1    2    0    0  0.24682990785E+02  0.32697152546E+02 -0.18728588175E+02  0.45045686073E+02  0.00000000000E+00 0. -1.
         11    1    3    3    0    0 -0.10374640111E+02 -0.10289049279E+02  0.49158689490E+01  0.15416337447E+02  0.51100000000E-03 0.  1.
        -11    1    3    3    0    0 -0.67993424164E+01 -0.55039669183E+01  0.62080967873E+01  0.10726843670E+02  0.51100000000E-03 0. -1.
         12    1    3    3    0    0 -0.75090082581E+01 -0.16904136349E+02  0.76046224389E+01  0.19999132810E+02  0.00000000000E+00 0. -1.
</event>
<event>
 7    1  0.1485408E-008  0.4614232E+02  0.7816164E-02  0.1320468E+00
        -11   -1    0    0    0    0  0.00000000000E+00  0.00000000000E+00  0.45593999997E+02  0.45594000000E+02  0.51100000000E-03 0. -1.
         11   -1    0    0    0    0 -0.00000000000E+00 -0.00000000000E+00 -0.45593999997E+02  0.45594000000E+02  0.51100000000E-03 0.  1.
    9900012    2    1    2    0    0  0.31043130403E+02 -0.28989970575E+02 -0.15000638785E+02  0.46142317598E+02  0.99999985085E+01 0.  0.
         12    1    1    2    0    0 -0.31043130403E+02  0.28989970575E+02  0.15000638785E+02  0.45045682402E+02  0.00000000000E+00 0. -1.
         11    1    3    3    0    0  0.97596988175E+00 -0.33284287524E+01 -0.30645679362E+01  0.46284481273E+01  0.51100000000E-03 0. -1.
        -11    1    3    3    0    0  0.17047356112E+02 -0.16486543804E+02 -0.86987123957E+01  0.25260365687E+02  0.51100000000E-03 0.  1.
         12    1    3    3    0    0  0.13019804409E+02 -0.91749980179E+01 -0.32373584526E+01  0.16253503783E+02  0.00000000000E+00 0. -1.
</event>
<event>
 7    1  0.1485408E-008  0.4614232E+02  0.7816164E-02  0.1320468E+00
        -11   -1    0    0    0    0  0.00000000000E+00  0.00000000000E+00  0.45593999997E+02  0.45594000000E+02  0.51100000000E-03 0.  1.
         11   -1    0    0    0    0 -0.00000000000E+00 -0.00000000000E+00 -0.45593999997E+02  0.45594000000E+02  0.51100000000E-03 0. -1.
    9900012    2    1    2    0    0  0.21313023600E+02  0.31759337743E+02  0.23795226252E+02  0.46142319838E+02  0.10000018937E+02 0.  0.
         12    1    1    2    0    0 -0.21313023600E+02 -0.31759337743E+02 -0.23795226252E+02  0.45045680162E+02  0.00000000000E+00 0. -1.
         11    1    3    3    0    0  0.87711777448E+01  0.15257928309E+02  0.96054855018E+01  0.20050019633E+02  0.51100000000E-03 0.  1.
        -11    1    3    3    0    0  0.98090910331E+00  0.94027996757E+00 -0.80933674405E+00  0.15815610367E+01  0.51100000000E-03 0. -1.
         12    1    3    3    0    0  0.11560936752E+02  0.15561129467E+02  0.14999077495E+02  0.24510739168E+02  0.00000000000E+00 0. -1.
</event>
<event>
 7    1  0.1485408E-008  0.4614232E+02  0.7816164E-02  0.1320468E+00
        -11   -1    0    0    0    0  0.00000000000E+00  0.00000000000E+00  0.45593999997E+02  0.45594000000E+02  0.51100000000E-03 0.  1.
         11   -1    0    0    0    0 -0.00000000000E+00 -0.00000000000E+00 -0.45593999997E+02  0.45594000000E+02  0.51100000000E-03 0. -1.
    9900012    2    1    2    0    0 -0.38169055797E+02 -0.19626965482E+02  0.13675471955E+02  0.46142321765E+02  0.10000036514E+02 0.  0.
         12    1    1    2    0    0  0.38169055797E+02  0.19626965482E+02 -0.13675471955E+02  0.45045678235E+02  0.00000000000E+00 0. -1.
         11    1    3    3    0    0 -0.10985661198E+02 -0.73994689807E+01  0.50157698856E+01  0.14163150813E+02  0.51100000000E-03 0.  1.
        -11    1    3    3    0    0 -0.61282295272E+01 -0.26448922740E+01 -0.12880066390E+01  0.67977653418E+01  0.51100000000E-03 0. -1.
         12    1    3    3    0    0 -0.21055165072E+02 -0.95826042268E+01  0.99477087083E+01  0.25181405611E+02  0.00000000000E+00 0. -1.
</event>
<event>
 7    1  0.1485408E-008  0.4614232E+02  0.7816164E-02  0.1320468E+00
        -11   -1    0    0    0    0  0.00000000000E+00  0.00000000000E+00  0.45593999997E+02  0.45594000000E+02  0.51100000000E-03 0.  1.
         11   -1    0    0    0    0 -0.00000000000E+00 -0.00000000000E+00 -0.45593999997E+02  0.45594000000E+02  0.51100000000E-03 0. -1.
    9900012    2    1    2    0    0 -0.31200884682E+02  0.25376483369E+01  0.32391025726E+02  0.46142318613E+02  0.10000007772E+02 0.  0.
         12    1    1    2    0    0  0.31200884682E+02 -0.25376483369E+01 -0.32391025726E+02  0.45045681387E+02  0.00000000000E+00 0. -1.
         11    1    3    3    0    0 -0.62900020150E+01  0.12215745197E+01  0.36091610881E+01  0.73540746310E+01  0.51100000000E-03 0. -1.
        -11    1    3    3    0    0 -0.17757339569E+02  0.36068950977E+01  0.23159525715E+02  0.29405721083E+02  0.51100000000E-03 0.  1.
        -12    1    3    3    0    0 -0.71535430983E+01 -0.22908212805E+01  0.56223389221E+01  0.93825228992E+01  0.00000000000E+00 0.  1.
</event>
<event>
 7    1  0.1485408E-008  0.4614232E+02  0.7816164E-02  0.1320468E+00
        -11   -1    0    0    0    0  0.00000000000E+00  0.00000000000E+00  0.45593999997E+02  0.45594000000E+02  0.51100000000E-03 0.  1.
         11   -1    0    0    0    0 -0.00000000000E+00 -0.00000000000E+00 -0.45593999997E+02  0.45594000000E+02  0.51100000000E-03 0. -1.
    9900012    2    1    2    0    0 -0.42260892250E+02 -0.15647753371E+01  0.15513928009E+02  0.46142317656E+02  0.99999990373E+01 0.  0.
         12    1    1    2    0    0  0.42260892250E+02  0.15647753371E+01 -0.15513928009E+02  0.45045682344E+02  0.00000000000E+00 0. -1.
         11    1    3    3    0    0 -0.18963001173E+01 -0.14301811301E+01  0.12609950082E+01  0.26891412889E+01  0.51100000000E-03 0. -1.
        -11    1    3    3    0    0 -0.23804081371E+02 -0.20124215617E+01  0.11671740151E+02  0.26587847767E+02  0.51100000000E-03 0.  1.
        -12    1    3    3    0    0 -0.16560510761E+02  0.18778273546E+01  0.25811928505E+01  0.16865328600E+02  0.00000000000E+00 0.  1.
</event>
<event>
 7    1  0.1485408E-008  0.4614231E+02  0.7816164E-02  0.1320468E+00
        -11   -1    0    0    0    0  0.00000000000E+00  0.00000000000E+00  0.45593999997E+02  0.45594000000E+02  0.51100000000E-03 0.  1.
         11   -1    0    0    0    0 -0.00000000000E+00 -0.00000000000E+00 -0.45593999997E+02  0.45594000000E+02  0.51100000000E-03 0. -1.
    9900012    2    1    2    0    0  0.37205439223E+02 -0.20978358605E+02  0.14310049111E+02  0.46142314934E+02  0.99999742209E+01 0.  0.
         12    1    1    2    0    0 -0.37205439223E+02  0.20978358605E+02 -0.14310049111E+02  0.45045685066E+02  0.00000000000E+00 0. -1.
         11    1    3    3    0    0  0.54605542617E+01 -0.21426520760E+00  0.24637835824E+01  0.59944801465E+01  0.51100000000E-03 0. -1.
        -11    1    3    3    0    0  0.28262136784E+02 -0.16065931522E+02  0.98703976450E+01  0.33974803623E+02  0.51100000000E-03 0.  1.
         12    1    3    3    0    0  0.34827481769E+01 -0.46981618754E+01  0.19758678831E+01  0.61730311649E+01  0.00000000000E+00 0. -1.
</event>
<event>
 7    1  0.1485408E-008  0.4614232E+02  0.7816164E-02  0.1320468E+00
        -11   -1    0    0    0    0  0.00000000000E+00  0.00000000000E+00  0.45593999997E+02  0.45594000000E+02  0.51100000000E-03 0. -1.
         11   -1    0    0    0    0 -0.00000000000E+00 -0.00000000000E+00 -0.45593999997E+02  0.45594000000E+02  0.51100000000E-03 0.  1.
    9900012    2    1    2    0    0  0.21522418021E+02 -0.36466680659E+02  0.15364900883E+02  0.46142318132E+02  0.10000003386E+02 0.  0.
         12    1    1    2    0    0 -0.21522418021E+02  0.36466680659E+02 -0.15364900883E+02  0.45045681868E+02  0.00000000000E+00 0. -1.
         11    1    3    3    0    0  0.12328950154E+02 -0.23166003961E+02  0.54208922491E+01  0.26796507691E+02  0.51100000000E-03 0. -1.
        -11    1    3    3    0    0  0.38484885964E+01 -0.73888872076E+01  0.32672198227E+01  0.89488124505E+01  0.51100000000E-03 0.  1.
         12    1    3    3    0    0  0.53449792706E+01 -0.59117894905E+01  0.66767888114E+01  0.10396997991E+02  0.00000000000E+00 0. -1.
</event>
<event>
 7    1  0.1485408E-008  0.4614232E+02  0.7816164E-02  0.1320468E+00
        -11   -1    0    0    0    0  0.00000000000E+00  0.00000000000E+00  0.45593999997E+02  0.45594000000E+02  0.51100000000E-03 0.  1.
         11   -1    0    0    0    0 -0.00000000000E+00 -0.00000000000E+00 -0.45593999997E+02  0.45594000000E+02  0.51100000000E-03 0. -1.
    9900012    2    1    2    0    0  0.25032550541E+02  0.10779286863E+02  0.35864911832E+02  0.46142317493E+02  0.99999975549E+01 0.  0.
         12    1    1    2    0    0 -0.25032550541E+02 -0.10779286863E+02 -0.35864911832E+02  0.45045682507E+02  0.00000000000E+00 0. -1.
         11    1    3    3    0    0  0.53322545079E+01  0.55905353876E+01  0.58219109431E+01  0.96737620059E+01  0.51100000000E-03 0. -1.
        -11    1    3    3    0    0  0.16022502950E+02  0.43628528408E+01  0.26631608175E+02  0.31384672054E+02  0.51100000000E-03 0.  1.
        -12    1    3    3    0    0  0.36777930830E+01  0.82589863445E+00  0.34113927132E+01  0.50838834329E+01  0.00000000000E+00 0.  1.
</event>
<event>
 7    1  0.1485408E-008  0.4614232E+02  0.7816164E-02  0.1320468E+00
        -11   -1    0    0    0    0  0.00000000000E+00  0.00000000000E+00  0.45593999997E+02  0.45594000000E+02  0.51100000000E-03 0. -1.
         11   -1    0    0    0    0 -0.00000000000E+00 -0.00000000000E+00 -0.45593999997E+02  0.45594000000E+02  0.51100000000E-03 0.  1.
    9900012    2    1    2    0    0 -0.33511860554E+02 -0.28101218468E+02 -0.10788430008E+02  0.46142317641E+02  0.99999989013E+01 0.  0.
         12    1    1    2    0    0  0.33511860554E+02  0.28101218468E+02  0.10788430008E+02  0.45045682359E+02  0.00000000000E+00 0. -1.
         11    1    3    3    0    0 -0.58569749914E+01 -0.44996850625E+01  0.51158230627E+00  0.74035828103E+01  0.51100000000E-03 0. -1.
        -11    1    3    3    0    0 -0.10416433225E+02 -0.10792586574E+02 -0.80339167882E+01  0.17015458422E+02  0.51100000000E-03 0.  1.
        -12    1    3    3    0    0 -0.17238452337E+02 -0.12808946832E+02 -0.32660955263E+01  0.21723276408E+02  0.00000000000E+00 0.  1.
</event>
<event>
 7    1  0.1485408E-008  0.4614232E+02  0.7816164E-02  0.1320468E+00
        -11   -1    0    0    0    0  0.00000000000E+00  0.00000000000E+00  0.45593999997E+02  0.45594000000E+02  0.51100000000E-03 0. -1.
         11   -1    0    0    0    0 -0.00000000000E+00 -0.00000000000E+00 -0.45593999997E+02  0.45594000000E+02  0.51100000000E-03 0.  1.
    9900012    2    1    2    0    0 -0.27153702457E+02  0.33958831344E+02 -0.11772324799E+02  0.46142318580E+02  0.10000007472E+02 0.  0.
         12    1    1    2    0    0  0.27153702457E+02 -0.33958831344E+02  0.11772324799E+02  0.45045681420E+02  0.00000000000E+00 0. -1.
         11    1    3    3    0    0 -0.56672305428E+01  0.49543101819E+01 -0.30859544012E+00  0.75337854237E+01  0.51100000000E-03 0. -1.
        -11    1    3    3    0    0  0.54538226773E+00  0.88226907764E+00 -0.84817021428E+00  0.13398632456E+01  0.51100000000E-03 0.  1.
        -12    1    3    3    0    0 -0.22031854182E+02  0.28122252085E+02 -0.10615559144E+02  0.37268669911E+02  0.00000000000E+00 0.  1.
</event>
<event>
 7    1  0.1812072E-008  0.4614232E+02  0.7816164E-02  0.1320468E+00
        -11   -1    0    0    0    0  0.00000000000E+00  0.00000000000E+00  0.45593999997E+02  0.45594000000E+02  0.51100000000E-03 0. -1.
         11   -1    0    0    0    0 -0.00000000000E+00 -0.00000000000E+00 -0.45593999997E+02  0.45594000000E+02  0.51100000000E-03 0.  1.
    9900012    2    1    2    0    0  0.15957583053E+02 -0.35691924934E+02 -0.22373098301E+02  0.46142317744E+02  0.99999998398E+01 0.  0.
         12    1    1    2    0    0 -0.15957583053E+02  0.35691924934E+02  0.22373098301E+02  0.45045682256E+02  0.00000000000E+00 0. -1.
         11    1    3    3    0    0  0.87653370414E+01 -0.10632761958E+02 -0.76587673454E+01  0.15765261743E+02  0.51100000000E-03 0. -1.
        -11    1    3    3    0    0  0.63250469967E+01 -0.14025311409E+02 -0.99813531053E+01  0.18339656205E+02  0.51100000000E-03 0.  1.
         12    1    3    3    0    0  0.86719901509E+00 -0.11033851566E+02 -0.47329778502E+01  0.12037399796E+02  0.00000000000E+00 0. -1.
</event>
<event>
 7    1  0.1485408E-008  0.4614232E+02  0.7816164E-02  0.1320468E+00
        -11   -1    0    0    0    0  0.00000000000E+00  0.00000000000E+00  0.45593999997E+02  0.45594000000E+02  0.51100000000E-03 0.  1.
         11   -1    0    0    0    0 -0.00000000000E+00 -0.00000000000E+00 -0.45593999997E+02  0.45594000000E+02  0.51100000000E-03 0. -1.
    9900012    2    1    2    0    0 -0.12715775412E+02 -0.39077139456E+02  0.18449925614E+02  0.46142317326E+02  0.99999960333E+01 0.  0.
         12    1    1    2    0    0  0.12715775412E+02  0.39077139456E+02 -0.18449925614E+02  0.45045682674E+02  0.00000000000E+00 0. -1.
         11    1    3    3    0    0 -0.59803771014E+00  0.92929019168E-01 -0.24841129292E+00  0.65421199693E+00  0.51100000000E-03 0. -1.
        -11    1    3    3    0    0 -0.11620486095E+02 -0.29437750882E+02  0.15431824345E+02  0.35210198480E+02  0.51100000000E-03 0.  1.
         12    1    3    3    0    0 -0.49725160644E+00 -0.97323175931E+01  0.32665125617E+01  0.10277906850E+02  0.00000000000E+00 0. -1.
</event>
<event>
 7    1  0.1485408E-008  0.4614232E+02  0.7816164E-02  0.1320468E+00
        -11   -1    0    0    0    0  0.00000000000E+00  0.00000000000E+00  0.45593999997E+02  0.45594000000E+02  0.51100000000E-03 0.  1.
         11   -1    0    0    0    0 -0.00000000000E+00 -0.00000000000E+00 -0.45593999997E+02  0.45594000000E+02  0.51100000000E-03 0. -1.
    9900012    2    1    2    0    0 -0.21252335254E+02  0.20378748717E+01  0.39664830956E+02  0.46142317604E+02  0.99999985667E+01 0.  0.
         12    1    1    2    0    0  0.21252335254E+02 -0.20378748717E+01 -0.39664830956E+02  0.45045682396E+02  0.00000000000E+00 0. -1.
         11    1    3    3    0    0 -0.16346792382E+00  0.41523833711E+00  0.52270859913E+01  0.52461007291E+01  0.51100000000E-03 0. -1.
        -11    1    3    3    0    0 -0.20933065358E+02  0.20389794128E+01  0.34540422276E+02  0.40439973215E+02  0.51100000000E-03 0.  1.
        -12    1    3    3    0    0 -0.15580197191E+00 -0.41634287827E+00 -0.10267731149E+00  0.45624365972E+00  0.00000000000E+00 0.  1.
</event>
<event>
 7    1  0.1485408E-008  0.4614232E+02  0.7816164E-02  0.1320468E+00
        -11   -1    0    0    0    0  0.00000000000E+00  0.00000000000E+00  0.45593999997E+02  0.45594000000E+02  0.51100000000E-03 0. -1.
         11   -1    0    0    0    0 -0.00000000000E+00 -0.00000000000E+00 -0.45593999997E+02  0.45594000000E+02  0.51100000000E-03 0.  1.
    9900012    2    1    2    0    0  0.19334954480E+02 -0.21605742110E+02 -0.34474120375E+02  0.46142317271E+02  0.99999955302E+01 0.  0.
         12    1    1    2    0    0 -0.19334954480E+02  0.21605742110E+02  0.34474120375E+02  0.45045682729E+02  0.00000000000E+00 0. -1.
         11    1    3    3    0    0  0.93430639285E+01 -0.54874572909E+01 -0.17763959539E+02  0.20807769939E+02  0.51100000000E-03 0. -1.
        -11    1    3    3    0    0  0.96001821084E+01 -0.14871308505E+02 -0.15922465510E+02  0.23808490531E+02  0.51100000000E-03 0.  1.
        -12    1    3    3    0    0  0.39170844278E+00 -0.12469763142E+01 -0.78769532676E+00  0.15260568011E+01  0.00000000000E+00 0.  1.
</event>
<event>
 7    1  0.1485408E-008  0.4614232E+02  0.7816164E-02  0.1320468E+00
        -11   -1    0    0    0    0  0.00000000000E+00  0.00000000000E+00  0.45593999997E+02  0.45594000000E+02  0.51100000000E-03 0.  1.
         11   -1    0    0    0    0 -0.00000000000E+00 -0.00000000000E+00 -0.45593999997E+02  0.45594000000E+02  0.51100000000E-03 0. -1.
    9900012    2    1    2    0    0  0.87667709020E+01  0.23737843007E+02  0.37266231200E+02  0.46142318181E+02  0.10000003832E+02 0.  0.
         12    1    1    2    0    0 -0.87667709020E+01 -0.23737843007E+02 -0.37266231200E+02  0.45045681819E+02  0.00000000000E+00 0. -1.
         11    1    3    3    0    0  0.48131222174E+01  0.40955062312E+01  0.11238377208E+02  0.12893426205E+02  0.51100000000E-03 0. -1.
        -11    1    3    3    0    0  0.17651156557E+01  0.12370964403E+02  0.19867609655E+02  0.23470796902E+02  0.51100000000E-03 0.  1.
        -12    1    3    3    0    0  0.21885330289E+01  0.72713723723E+01  0.61602443364E+01  0.97780950742E+01  0.00000000000E+00 0.  1.
</event>
<event>
 7    1  0.1485408E-008  0.4614232E+02  0.7816164E-02  0.1320468E+00
        -11   -1    0    0    0    0  0.00000000000E+00  0.00000000000E+00  0.45593999997E+02  0.45594000000E+02  0.51100000000E-03 0.  1.
         11   -1    0    0    0    0 -0.00000000000E+00 -0.00000000000E+00 -0.45593999997E+02  0.45594000000E+02  0.51100000000E-03 0. -1.
    9900012    2    1    2    0    0 -0.14291399973E+02 -0.17229951448E+02  0.39089618843E+02  0.46142316062E+02  0.99999845095E+01 0.  0.
         12    1    1    2    0    0  0.14291399973E+02  0.17229951448E+02 -0.39089618843E+02  0.45045683938E+02  0.00000000000E+00 0. -1.
         11    1    3    3    0    0 -0.20664396585E+01 -0.84546429608E+00  0.18131886421E+01  0.28762190548E+01  0.51100000000E-03 0. -1.
        -11    1    3    3    0    0 -0.59811804589E+01 -0.40247336499E+01  0.19104630963E+02  0.20419596596E+02  0.51100000000E-03 0.  1.
        -12    1    3    3    0    0 -0.62437798558E+01 -0.12359753502E+02  0.18171799238E+02  0.22846500412E+02  0.00000000000E+00 0.  1.
</event>
<event>
 7    1  0.1485408E-008  0.4614232E+02  0.7816164E-02  0.1320468E+00
        -11   -1    0    0    0    0  0.00000000000E+00  0.00000000000E+00  0.45593999997E+02  0.45594000000E+02  0.51100000000E-03 0.  1.
         11   -1    0    0    0    0 -0.00000000000E+00 -0.00000000000E+00 -0.45593999997E+02  0.45594000000E+02  0.51100000000E-03 0. -1.
    9900012    2    1    2    0    0 -0.13742056117E+02 -0.99030192612E+00  0.42886929321E+02  0.46142317512E+02  0.99999977261E+01 0.  0.
         12    1    1    2    0    0  0.13742056117E+02  0.99030192612E+00 -0.42886929321E+02  0.45045682488E+02  0.00000000000E+00 0. -1.
         11    1    3    3    0    0 -0.17143273070E+01 -0.32909790651E+01  0.45629861676E+01  0.58813522551E+01  0.51100000000E-03 0. -1.
        -11    1    3    3    0    0 -0.99001693103E+01  0.20330836129E+01  0.29622069975E+02  0.31298782903E+02  0.51100000000E-03 0.  1.
         12    1    3    3    0    0 -0.21275594997E+01  0.26759352613E+00  0.87018731788E+01  0.89621823536E+01  0.00000000000E+00 0. -1.
</event>
<event>
 7    1  0.1485408E-008  0.4614232E+02  0.7816164E-02  0.1320468E+00
        -11   -1    0    0    0    0  0.00000000000E+00  0.00000000000E+00  0.45593999997E+02  0.45594000000E+02  0.51100000000E-03 0.  1.
         11   -1    0    0    0    0 -0.00000000000E+00 -0.00000000000E+00 -0.45593999997E+02  0.45594000000E+02  0.51100000000E-03 0. -1.
    9900012    2    1    2    0    0  0.17728517938E+02  0.88128321114E+01  0.40461675543E+02  0.46142317123E+02  0.99999941792E+01 0.  0.
         12    1    1    2    0    0 -0.17728517938E+02 -0.88128321114E+01 -0.40461675543E+02  0.45045682877E+02  0.00000000000E+00 0. -1.
         11    1    3    3    0    0  0.26294570625E+00  0.10073837119E+01  0.11758263531E+00  0.10477539428E+01  0.51100000000E-03 0. -1.
        -11    1    3    3    0    0  0.52188835871E+01 -0.62764514632E+00  0.96642707302E+01  0.11001309619E+02  0.51100000000E-03 0.  1.
        -12    1    3    3    0    0  0.12246688645E+02  0.84330935459E+01  0.30679822178E+02  0.34093253561E+02  0.00000000000E+00 0.  1.
</event>
<event>
 7    1  0.1485408E-008  0.4614232E+02  0.7816164E-02  0.1320468E+00
        -11   -1    0    0    0    0  0.00000000000E+00  0.00000000000E+00  0.45593999997E+02  0.45594000000E+02  0.51100000000E-03 0.  1.
         11   -1    0    0    0    0 -0.00000000000E+00 -0.00000000000E+00 -0.45593999997E+02  0.45594000000E+02  0.51100000000E-03 0. -1.
    9900012    2    1    2    0    0 -0.22813072645E+02 -0.33293308417E+02  0.20005816680E+02  0.46142319076E+02  0.10000011989E+02 0.  0.
         12    1    1    2    0    0  0.22813072645E+02  0.33293308417E+02 -0.20005816680E+02  0.45045680924E+02  0.00000000000E+00 0. -1.
         11    1    3    3    0    0 -0.86702702639E+01 -0.20670780996E+02  0.10430682725E+02  0.24723549822E+02  0.51100000000E-03 0.  1.
        -11    1    3    3    0    0 -0.11968451957E+02 -0.10041775756E+02  0.88898278680E+01  0.17975264737E+02  0.51100000000E-03 0. -1.
        -12    1    3    3    0    0 -0.21743504247E+01 -0.25807516658E+01  0.68530608746E+00  0.34435045177E+01  0.00000000000E+00 0.  1.
</event>
<event>
 7    1  0.1485408E-008  0.4614232E+02  0.7816164E-02  0.1320468E+00
        -11   -1    0    0    0    0  0.00000000000E+00  0.00000000000E+00  0.45593999997E+02  0.45594000000E+02  0.51100000000E-03 0.  1.
         11   -1    0    0    0    0 -0.00000000000E+00 -0.00000000000E+00 -0.45593999997E+02  0.45594000000E+02  0.51100000000E-03 0. -1.
    9900012    2    1    2    0    0  0.44998333844E+02  0.40765677283E+00 -0.20241776073E+01  0.46142317324E+02  0.99999960144E+01 0.  0.
         12    1    1    2    0    0 -0.44998333844E+02 -0.40765677283E+00  0.20241776073E+01  0.45045682676E+02  0.00000000000E+00 0. -1.
         11    1    3    3    0    0  0.28212555847E+02 -0.36145009905E+01  0.16624836343E+01  0.28491696631E+02  0.51100000000E-03 0.  1.
        -11    1    3    3    0    0  0.10320067016E+02  0.25123563336E+01 -0.23089958693E+01  0.10869552877E+02  0.51100000000E-03 0. -1.
        -12    1    3    3    0    0  0.64657109811E+01  0.15098014297E+01 -0.13776653724E+01  0.67810678161E+01  0.00000000000E+00 0.  1.
</event>
<event>
 7    1  0.1485408E-008  0.4614232E+02  0.7816164E-02  0.1320468E+00
        -11   -1    0    0    0    0  0.00000000000E+00  0.00000000000E+00  0.45593999997E+02  0.45594000000E+02  0.51100000000E-03 0. -1.
         11   -1    0    0    0    0 -0.00000000000E+00 -0.00000000000E+00 -0.45593999997E+02  0.45594000000E+02  0.51100000000E-03 0.  1.
    9900012    2    1    2    0    0 -0.25752155357E+02  0.17555954326E+02 -0.32522736326E+02  0.46142318565E+02  0.10000007328E+02 0.  0.
         12    1    1    2    0    0  0.25752155357E+02 -0.17555954326E+02  0.32522736326E+02  0.45045681435E+02  0.00000000000E+00 0. -1.
         11    1    3    3    0    0 -0.63213422743E+01  0.80230901938E+01 -0.96339522798E+01  0.14040740052E+02  0.51100000000E-03 0.  1.
        -11    1    3    3    0    0 -0.30551357462E+01  0.14956539363E+01 -0.75018181783E+01  0.82369965015E+01  0.51100000000E-03 0. -1.
         12    1    3    3    0    0 -0.16375677337E+02  0.80372101961E+01 -0.15386965868E+02  0.23864582012E+02  0.00000000000E+00 0. -1.
</event>
<event>
 7    1  0.1485408E-008  0.4614232E+02  0.7816164E-02  0.1320468E+00
        -11   -1    0    0    0    0  0.00000000000E+00  0.00000000000E+00  0.45593999997E+02  0.45594000000E+02  0.51100000000E-03 0. -1.
         11   -1    0    0    0    0 -0.00000000000E+00 -0.00000000000E+00 -0.45593999997E+02  0.45594000000E+02  0.51100000000E-03 0.  1.
    9900012    2    1    2    0    0 -0.33286291196E+02  0.27126997594E+02 -0.13611112420E+02  0.46142316951E+02  0.99999926160E+01 0.  0.
         12    1    1    2    0    0  0.33286291196E+02 -0.27126997594E+02  0.13611112420E+02  0.45045683049E+02  0.00000000000E+00 0. -1.
         11    1    3    3    0    0 -0.39472283820E+01  0.81973260249E+00 -0.27049851024E+01  0.48548448075E+01  0.51100000000E-03 0. -1.
        -11    1    3    3    0    0 -0.17198764462E+02  0.11576193268E+02 -0.56122162476E+01  0.21477958959E+02  0.51100000000E-03 0.  1.
         12    1    3    3    0    0 -0.12140298352E+02  0.14731071723E+02 -0.52939110697E+01  0.19809513184E+02  0.00000000000E+00 0. -1.
</event>
<event>
 7    1  0.1485408E-008  0.4614232E+02  0.7816164E-02  0.1320468E+00
        -11   -1    0    0    0    0  0.00000000000E+00  0.00000000000E+00  0.45593999997E+02  0.45594000000E+02  0.51100000000E-03 0.  1.
         11   -1    0    0    0    0 -0.00000000000E+00 -0.00000000000E+00 -0.45593999997E+02  0.45594000000E+02  0.51100000000E-03 0. -1.
    9900012    2    1    2    0    0  0.90547746235E+01 -0.10731517863E+02  0.42801392045E+02  0.46142316743E+02  0.99999907162E+01 0.  0.
         12    1    1    2    0    0 -0.90547746235E+01  0.10731517863E+02 -0.42801392045E+02  0.45045683257E+02  0.00000000000E+00 0. -1.
         11    1    3    3    0    0  0.52326300779E+01 -0.77183402228E+01  0.14160500733E+02  0.16955028004E+02  0.51100000000E-03 0. -1.
        -11    1    3    3    0    0  0.15564840294E+01 -0.12223534610E+01  0.19520912916E+02  0.19620979381E+02  0.51100000000E-03 0.  1.
         12    1    3    3    0    0  0.22656605162E+01 -0.17908241792E+01  0.91199783952E+01  0.95663093586E+01  0.00000000000E+00 0. -1.
</event>
<event>
 7    1  0.1485408E-008  0.4614231E+02  0.7816164E-02  0.1320468E+00
        -11   -1    0    0    0    0  0.00000000000E+00  0.00000000000E+00  0.45593999997E+02  0.45594000000E+02  0.51100000000E-03 0.  1.
         11   -1    0    0    0    0 -0.00000000000E+00 -0.00000000000E+00 -0.45593999997E+02  0.45594000000E+02  0.51100000000E-03 0. -1.
    9900012    2    1    2    0    0  0.24748887153E+02  0.29256439466E+02  0.23678409597E+02  0.46142314895E+02  0.99999738608E+01 0.  0.
         12    1    1    2    0    0 -0.24748887153E+02 -0.29256439466E+02 -0.23678409597E+02  0.45045685105E+02  0.00000000000E+00 0. -1.
         11    1    3    3    0    0  0.85062657814E+01  0.67530585128E+01  0.10101030377E+02  0.14832099371E+02  0.51100000000E-03 0. -1.
        -11    1    3    3    0    0  0.15246836696E+02  0.17976806581E+02  0.11594244448E+02  0.26268957129E+02  0.51100000000E-03 0.  1.
         12    1    3    3    0    0  0.99578467571E+00  0.45265743724E+01  0.19831347723E+01  0.50412583939E+01  0.00000000000E+00 0. -1.
</event>
<event>
 7    1  0.1485408E-008  0.4614232E+02  0.7816164E-02  0.1320468E+00
        -11   -1    0    0    0    0  0.00000000000E+00  0.00000000000E+00  0.45593999997E+02  0.45594000000E+02  0.51100000000E-03 0.  1.
         11   -1    0    0    0    0 -0.00000000000E+00 -0.00000000000E+00 -0.45593999997E+02  0.45594000000E+02  0.51100000000E-03 0. -1.
    9900012    2    1    2    0    0  0.29731415991E+02  0.28358918165E+02 -0.18464240108E+02  0.46142317642E+02  0.99999989167E+01 0.  0.
         12    1    1    2    0    0 -0.29731415991E+02 -0.28358918165E+02  0.18464240108E+02  0.45045682358E+02  0.00000000000E+00 0. -1.
         11    1    3    3    0    0  0.58520795134E+01  0.21171238149E+01 -0.45935895037E+01  0.77349927387E+01  0.51100000000E-03 0. -1.
        -11    1    3    3    0    0  0.23477039971E+02  0.26264854540E+02 -0.14098448249E+02  0.37944436128E+02  0.51100000000E-03 0.  1.
        -12    1    3    3    0    0  0.40229650636E+00 -0.23060189444E-01  0.22779764500E+00  0.46288877544E+00  0.00000000000E+00 0.  1.
</event>
<event>
 7    1  0.1485408E-008  0.4614232E+02  0.7816164E-02  0.1320468E+00
        -11   -1    0    0    0    0  0.00000000000E+00  0.00000000000E+00  0.45593999997E+02  0.45594000000E+02  0.51100000000E-03 0. -1.
         11   -1    0    0    0    0 -0.00000000000E+00 -0.00000000000E+00 -0.45593999997E+02  0.45594000000E+02  0.51100000000E-03 0.  1.
    9900012    2    1    2    0    0 -0.29560973152E+02 -0.33409610962E+02  0.62498134010E+01  0.46142318677E+02  0.10000008349E+02 0.  0.
         12    1    1    2    0    0  0.29560973152E+02  0.33409610962E+02 -0.62498134010E+01  0.45045681323E+02  0.00000000000E+00 0. -1.
         11    1    3    3    0    0 -0.19644061822E+02 -0.26279801409E+02  0.14940419346E+01  0.32844318969E+02  0.51100000000E-03 0. -1.
        -11    1    3    3    0    0 -0.11495163399E+01 -0.16921865890E+01  0.33049121396E+00  0.20722229540E+01  0.51100000000E-03 0.  1.
         12    1    3    3    0    0 -0.87673949908E+01 -0.54376229639E+01  0.44252802524E+01  0.11225776754E+02  0.00000000000E+00 0. -1.
</event>
<event>
 7    1  0.1485408E-008  0.4614232E+02  0.7816164E-02  0.1320468E+00
        -11   -1    0    0    0    0  0.00000000000E+00  0.00000000000E+00  0.45593999997E+02  0.45594000000E+02  0.51100000000E-03 0. -1.
         11   -1    0    0    0    0 -0.00000000000E+00 -0.00000000000E+00 -0.45593999997E+02  0.45594000000E+02  0.51100000000E-03 0.  1.
    9900012    2    1    2    0    0 -0.36064602822E+02 -0.15611714188E+02 -0.22016635820E+02  0.46142318193E+02  0.10000003942E+02 0.  0.
         12    1    1    2    0    0  0.36064602822E+02  0.15611714188E+02  0.22016635820E+02  0.45045681807E+02  0.00000000000E+00 0. -1.
         11    1    3    3    0    0 -0.15251358569E+02 -0.43459175414E+01 -0.13806764363E+02  0.21026594587E+02  0.51100000000E-03 0. -1.
        -11    1    3    3    0    0 -0.13093615199E+02 -0.69403931132E+01 -0.42161134395E+01  0.15407382268E+02  0.51100000000E-03 0.  1.
         12    1    3    3    0    0 -0.77196290529E+01 -0.43254035330E+01 -0.39937580179E+01  0.97083413384E+01  0.00000000000E+00 0. -1.
</event>
<event>
 7    1  0.1485408E-008  0.4614232E+02  0.7816164E-02  0.1320468E+00
        -11   -1    0    0    0    0  0.00000000000E+00  0.00000000000E+00  0.45593999997E+02  0.45594000000E+02  0.51100000000E-03 0.  1.
         11   -1    0    0    0    0 -0.00000000000E+00 -0.00000000000E+00 -0.45593999997E+02  0.45594000000E+02  0.51100000000E-03 0. -1.
    9900012    2    1    2    0    0  0.17006708043E+02  0.95563992502E+01  0.40602470493E+02  0.46142317685E+02  0.99999993100E+01 0.  0.
         12    1    1    2    0    0 -0.17006708043E+02 -0.95563992502E+01 -0.40602470493E+02  0.45045682315E+02  0.00000000000E+00 0. -1.
         11    1    3    3    0    0  0.39769586521E+01  0.50129490983E+01  0.21811694257E+02  0.22730945106E+02  0.51100000000E-03 0. -1.
        -11    1    3    3    0    0  0.92995670800E+01  0.40119129340E+01  0.12624326016E+02  0.16184900398E+02  0.51100000000E-03 0.  1.
         12    1    3    3    0    0  0.37301823106E+01  0.53153721793E+00  0.61664502193E+01  0.72264721817E+01  0.00000000000E+00 0. -1.
</event>
<event>
 7    1  0.1485408E-008  0.4614232E+02  0.7816164E-02  0.1320468E+00
        -11   -1    0    0    0    0  0.00000000000E+00  0.00000000000E+00  0.45593999997E+02  0.45594000000E+02  0.51100000000E-03 0.  1.
         11   -1    0    0    0    0 -0.00000000000E+00 -0.00000000000E+00 -0.45593999997E+02  0.45594000000E+02  0.51100000000E-03 0. -1.
    9900012    2    1    2    0    0  0.32702987227E+02  0.38927966355E+01  0.30732302364E+02  0.46142315991E+02  0.99999838576E+01 0.  0.
         12    1    1    2    0    0 -0.32702987227E+02 -0.38927966355E+01 -0.30732302364E+02  0.45045684009E+02  0.00000000000E+00 0. -1.
         11    1    3    3    0    0  0.31019562635E+02  0.42256163474E+01  0.25743771316E+02  0.40531603243E+02  0.51100000000E-03 0. -1.
        -11    1    3    3    0    0 -0.28637571514E+00 -0.24047364374E+00  0.18302435044E+00  0.41633736024E+00  0.51100000000E-03 0.  1.
         12    1    3    3    0    0  0.19698003070E+01 -0.92346068177E-01  0.48055066976E+01  0.51943753875E+01  0.00000000000E+00 0. -1.
</event>
<event>
 7    1  0.1485408E-008  0.4614232E+02  0.7816164E-02  0.1320468E+00
        -11   -1    0    0    0    0  0.00000000000E+00  0.00000000000E+00  0.45593999997E+02  0.45594000000E+02  0.51100000000E-03 0.  1.
         11   -1    0    0    0    0 -0.00000000000E+00 -0.00000000000E+00 -0.45593999997E+02  0.45594000000E+02  0.51100000000E-03 0. -1.
    9900012    2    1    2    0    0  0.29351427783E+02 -0.24070637503E+02  0.24253075163E+02  0.46142316993E+02  0.99999929986E+01 0.  0.
         12    1    1    2    0    0 -0.29351427783E+02  0.24070637503E+02 -0.24253075163E+02  0.45045683007E+02  0.00000000000E+00 0. -1.
         11    1    3    3    0    0  0.19085269579E+02 -0.16195697727E+02  0.15443641802E+02  0.29411803959E+02  0.51100000000E-03 0.  1.
        -11    1    3    3    0    0  0.15894933227E+01 -0.29276033520E+01  0.50678212125E+01  0.60646650783E+01  0.51100000000E-03 0. -1.
         12    1    3    3    0    0  0.86766648806E+01 -0.49473364241E+01  0.37416121488E+01  0.10665847956E+02  0.00000000000E+00 0. -1.
</event>
<event>
 7    1  0.1485408E-008  0.4614232E+02  0.7816164E-02  0.1320468E+00
        -11   -1    0    0    0    0  0.00000000000E+00  0.00000000000E+00  0.45593999997E+02  0.45594000000E+02  0.51100000000E-03 0.  1.
         11   -1    0    0    0    0 -0.00000000000E+00 -0.00000000000E+00 -0.45593999997E+02  0.45594000000E+02  0.51100000000E-03 0. -1.
    9900012    2    1    2    0    0 -0.94259008546E+01 -0.40371448990E+02  0.17618506744E+02  0.46142320070E+02  0.10000021052E+02 0.  0.
         12    1    1    2    0    0  0.94259008546E+01  0.40371448990E+02 -0.17618506744E+02  0.45045679930E+02  0.00000000000E+00 0. -1.
         11    1    3    3    0    0 -0.44221500737E+01 -0.24622415808E+02  0.11066686447E+02  0.27354895735E+02  0.51100000000E-03 0. -1.
        -11    1    3    3    0    0  0.28189135112E+00 -0.88920049457E+01  0.40535130521E+01  0.97764095154E+01  0.51100000000E-03 0.  1.
         12    1    3    3    0    0 -0.52856421321E+01 -0.68570282369E+01  0.24983072449E+01  0.90110148196E+01  0.00000000000E+00 0. -1.
</event>
<event>
 7    1  0.1485408E-008  0.4614232E+02  0.7816164E-02  0.1320468E+00
        -11   -1    0    0    0    0  0.00000000000E+00  0.00000000000E+00  0.45593999997E+02  0.45594000000E+02  0.51100000000E-03 0.  1.
         11   -1    0    0    0    0 -0.00000000000E+00 -0.00000000000E+00 -0.45593999997E+02  0.45594000000E+02  0.51100000000E-03 0. -1.
    9900012    2    1    2    0    0 -0.26065562785E+01 -0.60366956391E+01  0.44563184638E+02  0.46142320352E+02  0.10000023627E+02 0.  0.
         12    1    1    2    0    0  0.26065562785E+01  0.60366956391E+01 -0.44563184638E+02  0.45045679648E+02  0.00000000000E+00 0. -1.
         11    1    3    3    0    0 -0.13614908393E+01 -0.57895328864E+01  0.19935314367E+02  0.20803584007E+02  0.51100000000E-03 0. -1.
        -11    1    3    3    0    0  0.22982490620E+01 -0.65014840878E+00  0.93623792219E+01  0.96622350758E+01  0.51100000000E-03 0.  1.
         12    1    3    3    0    0 -0.35433145012E+01  0.40298565608E+00  0.15265491049E+02  0.15676501270E+02  0.00000000000E+00 0. -1.
</event>
<event>
 7    1  0.1485408E-008  0.4614232E+02  0.7816164E-02  0.1320468E+00
        -11   -1    0    0    0    0  0.00000000000E+00  0.00000000000E+00  0.45593999997E+02  0.45594000000E+02  0.51100000000E-03 0.  1.
         11   -1    0    0    0    0 -0.00000000000E+00 -0.00000000000E+00 -0.45593999997E+02  0.45594000000E+02  0.51100000000E-03 0. -1.
    9900012    2    1    2    0    0  0.41743990087E+01 -0.20482831037E+02  0.39901647830E+02  0.46142317921E+02  0.10000001461E+02 0.  0.
         12    1    1    2    0    0 -0.41743990087E+01  0.20482831037E+02 -0.39901647830E+02  0.45045682079E+02  0.00000000000E+00 0. -1.
         11    1    3    3    0    0  0.17209385670E+01 -0.44021486631E+01  0.79539298641E+01  0.92523263533E+01  0.51100000000E-03 0. -1.
        -11    1    3    3    0    0 -0.22336594283E+01 -0.55417015977E+01  0.58729711488E+01  0.83780356537E+01  0.51100000000E-03 0.  1.
        -12    1    3    3    0    0  0.46871198699E+01 -0.10538980776E+02  0.26074746817E+02  0.28511955914E+02  0.00000000000E+00 0.  1.
</event>
<event>
 7    1  0.1485408E-008  0.4614232E+02  0.7816164E-02  0.1320468E+00
        -11   -1    0    0    0    0  0.00000000000E+00  0.00000000000E+00  0.45593999997E+02  0.45594000000E+02  0.51100000000E-03 0.  1.
         11   -1    0    0    0    0 -0.00000000000E+00 -0.00000000000E+00 -0.45593999997E+02  0.45594000000E+02  0.51100000000E-03 0. -1.
    9900012    2    1    2    0    0 -0.70038388652E+01  0.10916298628E+02  0.43138082460E+02  0.46142317711E+02  0.99999995432E+01 0.  0.
         12    1    1    2    0    0  0.70038388652E+01 -0.10916298628E+02 -0.43138082460E+02  0.45045682289E+02  0.00000000000E+00 0. -1.
         11    1    3    3    0    0 -0.30078883860E+01  0.38397569033E+01  0.76275380655E+01  0.90537540733E+01  0.51100000000E-03 0. -1.
        -11    1    3    3    0    0 -0.13860556474E+00  0.61434753966E+01  0.27110594280E+02  0.27798306134E+02  0.51100000000E-03 0.  1.
        -12    1    3    3    0    0 -0.38573449145E+01  0.93306632826E+00  0.83999501139E+01  0.92902575034E+01  0.00000000000E+00 0.  1.
</event>
<event>
 7    1  0.1485408E-008  0.4614232E+02  0.7816164E-02  0.1320468E+00
        -11   -1    0    0    0    0  0.00000000000E+00  0.00000000000E+00  0.45593999997E+02  0.45594000000E+02  0.51100000000E-03 0.  1.
         11   -1    0    0    0    0 -0.00000000000E+00 -0.00000000000E+00 -0.45593999997E+02  0.45594000000E+02  0.51100000000E-03 0. -1.
    9900012    2    1    2    0    0 -0.40849482785E+02 -0.17289258003E+02  0.78431457448E+01  0.46142316286E+02  0.99999865500E+01 0.  0.
         12    1    1    2    0    0  0.40849482785E+02  0.17289258003E+02 -0.78431457448E+01  0.45045683714E+02  0.00000000000E+00 0. -1.
         11    1    3    3    0    0 -0.10941023877E+02 -0.54236899453E+01 -0.39207491864E+00  0.12217861478E+02  0.51100000000E-03 0. -1.
        -11    1    3    3    0    0 -0.14734125419E+02 -0.21470439210E+01  0.37944902458E+01  0.15365624164E+02  0.51100000000E-03 0.  1.
        -12    1    3    3    0    0 -0.15174333489E+02 -0.97185241372E+01  0.44407304176E+01  0.18558830644E+02  0.00000000000E+00 0.  1.
</event>
<event>
 7    1  0.1485408E-008  0.4614232E+02  0.7816164E-02  0.1320468E+00
        -11   -1    0    0    0    0  0.00000000000E+00  0.00000000000E+00  0.45593999997E+02  0.45594000000E+02  0.51100000000E-03 0.  1.
         11   -1    0    0    0    0 -0.00000000000E+00 -0.00000000000E+00 -0.45593999997E+02  0.45594000000E+02  0.51100000000E-03 0. -1.
    9900012    2    1    2    0    0  0.16667771087E+02 -0.41845045608E+02 -0.53954530395E+00  0.46142317143E+02  0.99999943627E+01 0.  0.
         12    1    1    2    0    0 -0.16667771087E+02  0.41845045608E+02  0.53954530395E+00  0.45045682857E+02  0.00000000000E+00 0. -1.
         11    1    3    3    0    0  0.10545726624E+02 -0.21266490305E+02 -0.45774061271E+01  0.24174958263E+02  0.51100000000E-03 0. -1.
        -11    1    3    3    0    0  0.51983117940E+01 -0.15962454919E+02  0.22774047133E+01  0.16941339529E+02  0.51100000000E-03 0.  1.
         12    1    3    3    0    0  0.92373266894E+00 -0.46161003842E+01  0.17604561099E+01  0.50260193509E+01  0.00000000000E+00 0. -1.
</event>
<event>
 7    1  0.1485408E-008  0.4614232E+02  0.7816164E-02  0.1320468E+00
        -11   -1    0    0    0    0  0.00000000000E+00  0.00000000000E+00  0.45593999997E+02  0.45594000000E+02  0.51100000000E-03 0.  1.
         11   -1    0    0    0    0 -0.00000000000E+00 -0.00000000000E+00 -0.45593999997E+02  0.45594000000E+02  0.51100000000E-03 0. -1.
    9900012    2    1    2    0    0  0.10066277169E+02  0.41500756639E+02  0.14334250088E+02  0.46142318040E+02  0.10000002542E+02 0.  0.
         12    1    1    2    0    0 -0.10066277169E+02 -0.41500756639E+02 -0.14334250088E+02  0.45045681960E+02  0.00000000000E+00 0. -1.
         11    1    3    3    0    0  0.15104614678E+00  0.92618963067E+01  0.67018475837E+01  0.11433297837E+02  0.51100000000E-03 0. -1.
        -11    1    3    3    0    0  0.69536854762E+01  0.25023209426E+02  0.48022980195E+01  0.26411679579E+02  0.51100000000E-03 0.  1.
        -12    1    3    3    0    0  0.29615455464E+01  0.72156509065E+01  0.28301044849E+01  0.82973406235E+01  0.00000000000E+00 0.  1.
</event>
<event>
 7    1  0.1485408E-008  0.4614232E+02  0.7816164E-02  0.1320468E+00
        -11   -1    0    0    0    0  0.00000000000E+00  0.00000000000E+00  0.45593999997E+02  0.45594000000E+02  0.51100000000E-03 0.  1.
         11   -1    0    0    0    0 -0.00000000000E+00 -0.00000000000E+00 -0.45593999997E+02  0.45594000000E+02  0.51100000000E-03 0. -1.
    9900012    2    1    2    0    0 -0.40500001402E+02  0.12524076847E+02  0.15231908222E+02  0.46142316050E+02  0.99999843977E+01 0.  0.
         12    1    1    2    0    0  0.40500001402E+02 -0.12524076847E+02 -0.15231908222E+02  0.45045683950E+02  0.00000000000E+00 0. -1.
         11    1    3    3    0    0 -0.10026767533E+02  0.19842767839E+01  0.56427359924E+01  0.11675354010E+02  0.51100000000E-03 0. -1.
        -11    1    3    3    0    0 -0.22748319704E+02  0.45383416821E+01  0.81104836331E+01  0.24573614704E+02  0.51100000000E-03 0.  1.
        -12    1    3    3    0    0 -0.77249141648E+01  0.60014583808E+01  0.14786885961E+01  0.98933473362E+01  0.00000000000E+00 0.  1.
</event>
<event>
 7    1  0.1485408E-008  0.4614231E+02  0.7816164E-02  0.1320468E+00
        -11   -1    0    0    0    0  0.00000000000E+00  0.00000000000E+00  0.45593999997E+02  0.45594000000E+02  0.51100000000E-03 0.  1.
         11   -1    0    0    0    0 -0.00000000000E+00 -0.00000000000E+00 -0.45593999997E+02  0.45594000000E+02  0.51100000000E-03 0. -1.
    9900012    2    1    2    0    0  0.30891414664E+02 -0.18557060772E+02  0.27027211250E+02  0.46142310390E+02  0.99999327880E+01 0.  0.
         12    1    1    2    0    0 -0.30891414664E+02  0.18557060772E+02 -0.27027211250E+02  0.45045689610E+02  0.00000000000E+00 0. -1.
         11    1    3    3    0    0  0.19289871535E+02 -0.68388450383E+01  0.12393986499E+02  0.23926551086E+02  0.51100000000E-03 0. -1.
        -11    1    3    3    0    0  0.60043364473E+01 -0.71447283263E+01  0.67334542223E+01  0.11508197298E+02  0.51100000000E-03 0.  1.
         12    1    3    3    0    0  0.55972066825E+01 -0.45734874070E+01  0.78997705285E+01  0.10707562006E+02  0.00000000000E+00 0. -1.
</event>
<event>
 7    1  0.1485408E-008  0.4614232E+02  0.7816164E-02  0.1320468E+00
        -11   -1    0    0    0    0  0.00000000000E+00  0.00000000000E+00  0.45593999997E+02  0.45594000000E+02  0.51100000000E-03 0.  1.
         11   -1    0    0    0    0 -0.00000000000E+00 -0.00000000000E+00 -0.45593999997E+02  0.45594000000E+02  0.51100000000E-03 0. -1.
    9900012    2    1    2    0    0  0.30103800817E+02  0.54065809994E+01  0.33070282040E+02  0.46142317677E+02  0.99999992357E+01 0.  0.
         12    1    1    2    0    0 -0.30103800817E+02 -0.54065809994E+01 -0.33070282040E+02  0.45045682323E+02  0.00000000000E+00 0. -1.
         11    1    3    3    0    0  0.38911838543E+01 -0.12359268744E+00  0.10189827594E+01  0.40242903804E+01  0.51100000000E-03 0. -1.
        -11    1    3    3    0    0  0.23180843767E+02  0.55079050900E+01  0.25498812448E+02  0.34898108441E+02  0.51100000000E-03 0.  1.
        -12    1    3    3    0    0  0.30317731956E+01  0.22268596916E-01  0.65524868322E+01  0.72199188559E+01  0.00000000000E+00 0.  1.
</event>
<event>
 7    1  0.1485408E-008  0.4614232E+02  0.7816164E-02  0.1320468E+00
        -11   -1    0    0    0    0  0.00000000000E+00  0.00000000000E+00  0.45593999997E+02  0.45594000000E+02  0.51100000000E-03 0. -1.
         11   -1    0    0    0    0 -0.00000000000E+00 -0.00000000000E+00 -0.45593999997E+02  0.45594000000E+02  0.51100000000E-03 0.  1.
    9900012    2    1    2    0    0  0.29377981905E+02  0.30780181824E+02 -0.14786061207E+02  0.46142322961E+02  0.10000047415E+02 0.  0.
         12    1    1    2    0    0 -0.29377981905E+02 -0.30780181824E+02  0.14786061207E+02  0.45045677039E+02  0.00000000000E+00 0. -1.
         11    1    3    3    0    0  0.12317638492E+02  0.83462705180E+01 -0.34853029224E+01  0.15281746834E+02  0.51100000000E-03 0. -1.
        -11    1    3    3    0    0  0.12339975939E+02  0.17898919994E+02 -0.63358898740E+01  0.22644863521E+02  0.51100000000E-03 0.  1.
        -12    1    3    3    0    0  0.47203674738E+01  0.45349913114E+01 -0.49648684104E+01  0.82157126054E+01  0.00000000000E+00 0.  1.
</event>
<event>
 7    1  0.1485408E-008  0.4614232E+02  0.7816164E-02  0.1320468E+00
        -11   -1    0    0    0    0  0.00000000000E+00  0.00000000000E+00  0.45593999997E+02  0.45594000000E+02  0.51100000000E-03 0. -1.
         11   -1    0    0    0    0 -0.00000000000E+00 -0.00000000000E+00 -0.45593999997E+02  0.45594000000E+02  0.51100000000E-03 0.  1.
    9900012    2    1    2    0    0  0.28875005570E+02 -0.30557946306E+02 -0.16172804400E+02  0.46142316175E+02  0.99999855361E+01 0.  0.
         12    1    1    2    0    0 -0.28875005570E+02  0.30557946306E+02  0.16172804400E+02  0.45045683825E+02  0.00000000000E+00 0. -1.
         11    1    3    3    0    0  0.33490909443E+01 -0.19979825428E+01 -0.34373426890E+01  0.51984295145E+01  0.51100000000E-03 0. -1.
        -11    1    3    3    0    0  0.18804584941E+02 -0.16190241115E+02 -0.74780705665E+01  0.25916362820E+02  0.51100000000E-03 0.  1.
         12    1    3    3    0    0  0.67213296844E+01 -0.12369722648E+02 -0.52573911444E+01  0.15027523840E+02  0.00000000000E+00 0. -1.
</event>
<event>
 7    1  0.1485408E-008  0.4614232E+02  0.7816164E-02  0.1320468E+00
        -11   -1    0    0    0    0  0.00000000000E+00  0.00000000000E+00  0.45593999997E+02  0.45594000000E+02  0.51100000000E-03 0.  1.
         11   -1    0    0    0    0 -0.00000000000E+00 -0.00000000000E+00 -0.45593999997E+02  0.45594000000E+02  0.51100000000E-03 0. -1.
    9900012    2    1    2    0    0  0.32075786142E+02 -0.19750481024E+02  0.24701738132E+02  0.46142318475E+02  0.10000006508E+02 0.  0.
         12    1    1    2    0    0 -0.32075786142E+02  0.19750481024E+02 -0.24701738132E+02  0.45045681525E+02  0.00000000000E+00 0. -1.
         11    1    3    3    0    0  0.49296102639E+00 -0.45851917313E-01  0.27390132961E+01  0.27833984747E+01  0.51100000000E-03 0. -1.
        -11    1    3    3    0    0  0.27920672748E+02 -0.16152119475E+02  0.19515322517E+02  0.37700169011E+02  0.51100000000E-03 0.  1.
        -12    1    3    3    0    0  0.36621523675E+01 -0.35525096315E+01  0.24474023194E+01  0.56587509892E+01  0.00000000000E+00 0.  1.
</event>
<event>
 7    1  0.1485408E-008  0.4614232E+02  0.7816164E-02  0.1320468E+00
        -11   -1    0    0    0    0  0.00000000000E+00  0.00000000000E+00  0.45593999997E+02  0.45594000000E+02  0.51100000000E-03 0.  1.
         11   -1    0    0    0    0 -0.00000000000E+00 -0.00000000000E+00 -0.45593999997E+02  0.45594000000E+02  0.51100000000E-03 0. -1.
    9900012    2    1    2    0    0  0.30374496598E+02 -0.33243877861E+00  0.33262485522E+02  0.46142317607E+02  0.99999985973E+01 0.  0.
         12    1    1    2    0    0 -0.30374496598E+02  0.33243877861E+00 -0.33262485522E+02  0.45045682393E+02  0.00000000000E+00 0. -1.
         11    1    3    3    0    0  0.61686217551E+01 -0.25278001857E+01  0.64561555364E+01  0.92802808528E+01  0.51100000000E-03 0.  1.
        -11    1    3    3    0    0  0.17180430633E+01  0.33446144204E+00 -0.91634191392E-01  0.17526932161E+01  0.51100000000E-03 0. -1.
        -12    1    3    3    0    0  0.22487831780E+02  0.18608999651E+01  0.26897964177E+02  0.35109343538E+02  0.00000000000E+00 0.  1.
</event>
<event>
 7    1  0.1485408E-008  0.4614232E+02  0.7816164E-02  0.1320468E+00
        -11   -1    0    0    0    0  0.00000000000E+00  0.00000000000E+00  0.45593999997E+02  0.45594000000E+02  0.51100000000E-03 0.  1.
         11   -1    0    0    0    0 -0.00000000000E+00 -0.00000000000E+00 -0.45593999997E+02  0.45594000000E+02  0.51100000000E-03 0. -1.
    9900012    2    1    2    0    0  0.28844211168E+02 -0.28902093581E+02  0.19020881855E+02  0.46142317879E+02  0.10000001072E+02 0.  0.
         12    1    1    2    0    0 -0.28844211168E+02  0.28902093581E+02 -0.19020881855E+02  0.45045682121E+02  0.00000000000E+00 0. -1.
         11    1    3    3    0    0  0.51948565516E+01 -0.33923109067E+01 -0.49101466821E+00  0.62237772731E+01  0.51100000000E-03 0. -1.
        -11    1    3    3    0    0  0.76720436703E+01 -0.74618597548E+01  0.54010787058E+01  0.11987962985E+02  0.51100000000E-03 0.  1.
         12    1    3    3    0    0  0.15977310946E+02 -0.18047922919E+02  0.14110817817E+02  0.27930577621E+02  0.00000000000E+00 0. -1.
</event>
<event>
 7    1  0.1485408E-008  0.4614232E+02  0.7816164E-02  0.1320468E+00
        -11   -1    0    0    0    0  0.00000000000E+00  0.00000000000E+00  0.45593999997E+02  0.45594000000E+02  0.51100000000E-03 0. -1.
         11   -1    0    0    0    0 -0.00000000000E+00 -0.00000000000E+00 -0.45593999997E+02  0.45594000000E+02  0.51100000000E-03 0.  1.
    9900012    2    1    2    0    0  0.17168443030E+02 -0.37931822015E+02 -0.17191131239E+02  0.46142317069E+02  0.99999936869E+01 0.  0.
         12    1    1    2    0    0 -0.17168443030E+02  0.37931822015E+02  0.17191131239E+02  0.45045682931E+02  0.00000000000E+00 0. -1.
         11    1    3    3    0    0  0.98975720651E+01 -0.24184360716E+02 -0.68852776635E+01  0.27023180508E+02  0.51100000000E-03 0. -1.
        -11    1    3    3    0    0  0.62249206771E+01 -0.13663705834E+02 -0.99441913628E+01  0.18009259748E+02  0.51100000000E-03 0.  1.
        -12    1    3    3    0    0  0.10459502882E+01 -0.83755465539E-01 -0.36166221303E+00  0.11098768129E+01  0.00000000000E+00 0.  1.
</event>
<event>
 7    1  0.1485408E-008  0.4614232E+02  0.7816164E-02  0.1320468E+00
        -11   -1    0    0    0    0  0.00000000000E+00  0.00000000000E+00  0.45593999997E+02  0.45594000000E+02  0.51100000000E-03 0. -1.
         11   -1    0    0    0    0 -0.00000000000E+00 -0.00000000000E+00 -0.45593999997E+02  0.45594000000E+02  0.51100000000E-03 0.  1.
    9900012    2    1    2    0    0  0.38527516681E+02  0.34215731061E+01 -0.23087592414E+02  0.46142316216E+02  0.99999859085E+01 0.  0.
         12    1    1    2    0    0 -0.38527516681E+02 -0.34215731061E+01  0.23087592414E+02  0.45045683784E+02  0.00000000000E+00 0. -1.
         11    1    3    3    0    0  0.18431477489E+02  0.57351198881E+01 -0.98967810254E+01  0.21692331306E+02  0.51100000000E-03 0. -1.
        -11    1    3    3    0    0  0.16387296171E+02 -0.11740227808E+01 -0.89763767529E+01  0.18721568982E+02  0.51100000000E-03 0.  1.
         12    1    3    3    0    0  0.37087430217E+01 -0.11395240013E+01 -0.42144346355E+01  0.57284159282E+01  0.00000000000E+00 0. -1.
</event>
<event>
 7    1  0.1485408E-008  0.4614232E+02  0.7816164E-02  0.1320468E+00
        -11   -1    0    0    0    0  0.00000000000E+00  0.00000000000E+00  0.45593999997E+02  0.45594000000E+02  0.51100000000E-03 0.  1.
         11   -1    0    0    0    0 -0.00000000000E+00 -0.00000000000E+00 -0.45593999997E+02  0.45594000000E+02  0.51100000000E-03 0. -1.
    9900012    2    1    2    0    0  0.12663753831E+02 -0.23368087588E+02  0.36368603381E+02  0.46142317738E+02  0.99999997848E+01 0.  0.
         12    1    1    2    0    0 -0.12663753831E+02  0.23368087588E+02 -0.36368603381E+02  0.45045682262E+02  0.00000000000E+00 0. -1.
         11    1    3    3    0    0  0.19532806253E+01 -0.33364796175E+01  0.22930838219E+01  0.44950678654E+01  0.51100000000E-03 0. -1.
        -11    1    3    3    0    0  0.83660092634E+01 -0.15454918629E+02  0.19802116490E+02  0.26475808554E+02  0.51100000000E-03 0.  1.
        -12    1    3    3    0    0  0.23444639419E+01 -0.45766893414E+01  0.14273403069E+02  0.15171441318E+02  0.00000000000E+00 0.  1.
</event>
<event>
 7    1  0.1485408E-008  0.4614232E+02  0.7816164E-02  0.1320468E+00
        -11   -1    0    0    0    0  0.00000000000E+00  0.00000000000E+00  0.45593999997E+02  0.45594000000E+02  0.51100000000E-03 0.  1.
         11   -1    0    0    0    0 -0.00000000000E+00 -0.00000000000E+00 -0.45593999997E+02  0.45594000000E+02  0.51100000000E-03 0. -1.
    9900012    2    1    2    0    0 -0.12708517202E+02  0.30597462677E+02  0.30518885603E+02  0.46142317519E+02  0.99999977884E+01 0.  0.
         12    1    1    2    0    0  0.12708517202E+02 -0.30597462677E+02 -0.30518885603E+02  0.45045682481E+02  0.00000000000E+00 0. -1.
         11    1    3    3    0    0 -0.51930285094E+01  0.11829707286E+02  0.17759435485E+02  0.21961490582E+02  0.51100000000E-03 0. -1.
        -11    1    3    3    0    0  0.26784679027E+00  0.20432976898E+01  0.88689622346E+00  0.22435223477E+01  0.51100000000E-03 0.  1.
        -12    1    3    3    0    0 -0.77833354829E+01  0.16724457702E+02  0.11872553895E+02  0.21937304589E+02  0.00000000000E+00 0.  1.
</event>
<event>
 7    1  0.1485408E-008  0.4614232E+02  0.7816164E-02  0.1320468E+00
        -11   -1    0    0    0    0  0.00000000000E+00  0.00000000000E+00  0.45593999997E+02  0.45594000000E+02  0.51100000000E-03 0.  1.
         11   -1    0    0    0    0 -0.00000000000E+00 -0.00000000000E+00 -0.45593999997E+02  0.45594000000E+02  0.51100000000E-03 0. -1.
    9900012    2    1    2    0    0 -0.57811997962E+01 -0.24524094197E+02  0.37339789947E+02  0.46142318958E+02  0.10000010914E+02 0.  0.
         12    1    1    2    0    0  0.57811997962E+01  0.24524094197E+02 -0.37339789947E+02  0.45045681042E+02  0.00000000000E+00 0. -1.
         11    1    3    3    0    0 -0.15566213823E+00 -0.14617996171E+02  0.24515963287E+02  0.28543694556E+02  0.51100000000E-03 0. -1.
        -11    1    3    3    0    0 -0.27777812487E+01 -0.32213918414E+01  0.73853338279E+01  0.85227102539E+01  0.51100000000E-03 0.  1.
         12    1    3    3    0    0 -0.28477564093E+01 -0.66847061842E+01  0.54384928319E+01  0.90759141478E+01  0.00000000000E+00 0. -1.
</event>
<event>
 7    1  0.1485408E-008  0.4614232E+02  0.7816164E-02  0.1320468E+00
        -11   -1    0    0    0    0  0.00000000000E+00  0.00000000000E+00  0.45593999997E+02  0.45594000000E+02  0.51100000000E-03 0.  1.
         11   -1    0    0    0    0 -0.00000000000E+00 -0.00000000000E+00 -0.45593999997E+02  0.45594000000E+02  0.51100000000E-03 0. -1.
    9900012    2    1    2    0    0  0.32867676785E+02  0.14202867297E+02  0.27333273169E+02  0.46142318311E+02  0.10000005013E+02 0.  0.
         12    1    1    2    0    0 -0.32867676785E+02 -0.14202867297E+02 -0.27333273169E+02  0.45045681689E+02  0.00000000000E+00 0. -1.
         11    1    3    3    0    0  0.40962049203E+01 -0.10185409365E+00  0.33831358990E+01  0.53136501369E+01  0.51100000000E-03 0. -1.
        -11    1    3    3    0    0  0.11789619204E+02  0.34599422706E+01  0.53294714456E+01  0.13392893177E+02  0.51100000000E-03 0.  1.
        -12    1    3    3    0    0  0.16981852661E+02  0.10844779120E+02  0.18620665825E+02  0.27435774997E+02  0.00000000000E+00 0.  1.
</event>
<event>
 7    1  0.1485408E-008  0.4614232E+02  0.7816164E-02  0.1320468E+00
        -11   -1    0    0    0    0  0.00000000000E+00  0.00000000000E+00  0.45593999997E+02  0.45594000000E+02  0.51100000000E-03 0.  1.
         11   -1    0    0    0    0 -0.00000000000E+00 -0.00000000000E+00 -0.45593999997E+02  0.45594000000E+02  0.51100000000E-03 0. -1.
    9900012    2    1    2    0    0 -0.17410103222E+02 -0.40751128925E+02  0.80837637045E+01  0.46142318315E+02  0.10000005049E+02 0.  0.
         12    1    1    2    0    0  0.17410103222E+02  0.40751128925E+02 -0.80837637045E+01  0.45045681685E+02  0.00000000000E+00 0. -1.
         11    1    3    3    0    0 -0.73914986255E+01 -0.17565338327E+02  0.57282934038E+01  0.19899465020E+02  0.51100000000E-03 0. -1.
        -11    1    3    3    0    0 -0.88254885022E+01 -0.22744747234E+02  0.33530352184E+01  0.24626319650E+02  0.51100000000E-03 0.  1.
        -12    1    3    3    0    0 -0.11931160939E+01 -0.44104336327E+00 -0.99756491766E+00  0.16165336454E+01  0.00000000000E+00 0.  1.
</event>
<event>
 7    1  0.1485408E-008  0.4614232E+02  0.7816164E-02  0.1320468E+00
        -11   -1    0    0    0    0  0.00000000000E+00  0.00000000000E+00  0.45593999997E+02  0.45594000000E+02  0.51100000000E-03 0.  1.
         11   -1    0    0    0    0 -0.00000000000E+00 -0.00000000000E+00 -0.45593999997E+02  0.45594000000E+02  0.51100000000E-03 0. -1.
    9900012    2    1    2    0    0  0.40454291595E+02 -0.77372644492E+01  0.18240026221E+02  0.46142317342E+02  0.99999961771E+01 0.  0.
         12    1    1    2    0    0 -0.40454291595E+02  0.77372644492E+01 -0.18240026221E+02  0.45045682658E+02  0.00000000000E+00 0. -1.
         11    1    3    3    0    0  0.24123680035E+01 -0.10602290161E+01  0.90425805941E+00  0.27859088015E+01  0.51100000000E-03 0. -1.
        -11    1    3    3    0    0  0.34136494465E+02 -0.39227170528E+01  0.17528029129E+02  0.38573563082E+02  0.51100000000E-03 0.  1.
         12    1    3    3    0    0  0.39054291263E+01 -0.27543183803E+01 -0.19226096709E+00  0.47828454585E+01  0.00000000000E+00 0. -1.
</event>
<event>
 7    1  0.1485408E-008  0.4614232E+02  0.7816164E-02  0.1320468E+00
        -11   -1    0    0    0    0  0.00000000000E+00  0.00000000000E+00  0.45593999997E+02  0.45594000000E+02  0.51100000000E-03 0. -1.
         11   -1    0    0    0    0 -0.00000000000E+00 -0.00000000000E+00 -0.45593999997E+02  0.45594000000E+02  0.51100000000E-03 0.  1.
    9900012    2    1    2    0    0 -0.25222633370E+02  0.36750610543E+02  0.65057425474E+01  0.46142319902E+02  0.10000019522E+02 0.  0.
         12    1    1    2    0    0  0.25222633370E+02 -0.36750610543E+02 -0.65057425474E+01  0.45045680098E+02  0.00000000000E+00 0. -1.
         11    1    3    3    0    0  0.28347151906E+00  0.14074786278E+01  0.12087205766E+01  0.18767945767E+01  0.51100000000E-03 0. -1.
        -11    1    3    3    0    0 -0.16483873845E+02  0.21915105173E+02  0.60060911629E+01  0.28072460936E+02  0.51100000000E-03 0.  1.
        -12    1    3    3    0    0 -0.90222310446E+01  0.13428026742E+02 -0.70906919205E+00  0.16193064389E+02  0.00000000000E+00 0.  1.
</event>
<event>
 7    1  0.1485408E-008  0.4614232E+02  0.7816164E-02  0.1320468E+00
        -11   -1    0    0    0    0  0.00000000000E+00  0.00000000000E+00  0.45593999997E+02  0.45594000000E+02  0.51100000000E-03 0.  1.
         11   -1    0    0    0    0 -0.00000000000E+00 -0.00000000000E+00 -0.45593999997E+02  0.45594000000E+02  0.51100000000E-03 0. -1.
    9900012    2    1    2    0    0 -0.79396392157E+01 -0.21542293686E+02  0.38755712034E+02  0.46142317594E+02  0.99999984753E+01 0.  0.
         12    1    1    2    0    0  0.79396392157E+01  0.21542293686E+02 -0.38755712034E+02  0.45045682406E+02  0.00000000000E+00 0. -1.
         11    1    3    3    0    0 -0.42230452210E+01 -0.15083797716E+02  0.19694370125E+02  0.25163928139E+02  0.51100000000E-03 0. -1.
        -11    1    3    3    0    0 -0.18209071100E+00 -0.11274075268E+01  0.88896893847E+01  0.89627441320E+01  0.51100000000E-03 0.  1.
        -12    1    3    3    0    0 -0.35345032838E+01 -0.53310884430E+01  0.10171652525E+02  0.12015645323E+02  0.00000000000E+00 0.  1.
</event>
<event>
 7    1  0.1485408E-008  0.4614232E+02  0.7816164E-02  0.1320468E+00
        -11   -1    0    0    0    0  0.00000000000E+00  0.00000000000E+00  0.45593999997E+02  0.45594000000E+02  0.51100000000E-03 0.  1.
         11   -1    0    0    0    0 -0.00000000000E+00 -0.00000000000E+00 -0.45593999997E+02  0.45594000000E+02  0.51100000000E-03 0. -1.
    9900012    2    1    2    0    0  0.27359640827E+02  0.21392306015E+02  0.28686804195E+02  0.46142318323E+02  0.10000005126E+02 0.  0.
         12    1    1    2    0    0 -0.27359640827E+02 -0.21392306015E+02 -0.28686804195E+02  0.45045681677E+02  0.00000000000E+00 0. -1.
         11    1    3    3    0    0  0.26525976602E+01  0.15521263984E+01  0.47548469793E+01  0.56616199768E+01  0.51100000000E-03 0. -1.
        -11    1    3    3    0    0  0.22098651651E+02  0.17760834527E+02  0.17730553948E+02  0.33439051893E+02  0.51100000000E-03 0.  1.
        -12    1    3    3    0    0  0.26083915157E+01  0.20793450892E+01  0.62014032670E+01  0.70416464537E+01  0.00000000000E+00 0.  1.
</event>
<event>
 7    1  0.1485408E-008  0.4614232E+02  0.7816164E-02  0.1320468E+00
        -11   -1    0    0    0    0  0.00000000000E+00  0.00000000000E+00  0.45593999997E+02  0.45594000000E+02  0.51100000000E-03 0.  1.
         11   -1    0    0    0    0 -0.00000000000E+00 -0.00000000000E+00 -0.45593999997E+02  0.45594000000E+02  0.51100000000E-03 0. -1.
    9900012    2    1    2    0    0  0.91439903706E+01 -0.15095919987E+02  0.41444107185E+02  0.46142318958E+02  0.10000010918E+02 0.  0.
         12    1    1    2    0    0 -0.91439903706E+01  0.15095919987E+02 -0.41444107185E+02  0.45045681042E+02  0.00000000000E+00 0. -1.
         11    1    3    3    0    0  0.39078758032E+01 -0.82144238634E+01  0.11033304319E+02  0.14299722276E+02  0.51100000000E-03 0. -1.
        -11    1    3    3    0    0  0.42713752679E+01 -0.71014021573E+01  0.28631538382E+02  0.29806703099E+02  0.51100000000E-03 0.  1.
         12    1    3    3    0    0  0.96473929947E+00  0.21990603365E+00  0.17792644842E+01  0.20358935838E+01  0.00000000000E+00 0. -1.
</event>
<event>
 7    1  0.1485408E-008  0.4614232E+02  0.7816164E-02  0.1320468E+00
        -11   -1    0    0    0    0  0.00000000000E+00  0.00000000000E+00  0.45593999997E+02  0.45594000000E+02  0.51100000000E-03 0.  1.
         11   -1    0    0    0    0 -0.00000000000E+00 -0.00000000000E+00 -0.45593999997E+02  0.45594000000E+02  0.51100000000E-03 0. -1.
    9900012    2    1    2    0    0 -0.39595158692E+02  0.14119309978E+02  0.16185855234E+02  0.46142318567E+02  0.10000007346E+02 0.  0.
         12    1    1    2    0    0  0.39595158692E+02 -0.14119309978E+02 -0.16185855234E+02  0.45045681433E+02  0.00000000000E+00 0. -1.
         11    1    3    3    0    0 -0.11352018218E+02  0.56475943737E+01  0.11231306426E+01  0.12728906572E+02  0.51100000000E-03 0. -1.
        -11    1    3    3    0    0 -0.20650278928E+02  0.40725203553E+01  0.10824175430E+02  0.23668168832E+02  0.51100000000E-03 0.  1.
        -12    1    3    3    0    0 -0.75928615465E+01  0.43991952490E+01  0.42385491615E+01  0.97452431626E+01  0.00000000000E+00 0.  1.
</event>
<event>
 7    1  0.1485408E-008  0.4614232E+02  0.7816164E-02  0.1320468E+00
        -11   -1    0    0    0    0  0.00000000000E+00  0.00000000000E+00  0.45593999997E+02  0.45594000000E+02  0.51100000000E-03 0.  1.
         11   -1    0    0    0    0 -0.00000000000E+00 -0.00000000000E+00 -0.45593999997E+02  0.45594000000E+02  0.51100000000E-03 0. -1.
    9900012    2    1    2    0    0 -0.13597574382E+02  0.31653822801E+02  0.29021629369E+02  0.46142317652E+02  0.99999990072E+01 0.  0.
         12    1    1    2    0    0  0.13597574382E+02 -0.31653822801E+02 -0.29021629369E+02  0.45045682348E+02  0.00000000000E+00 0. -1.
         11    1    3    3    0    0 -0.86949821724E+01  0.23077092054E+02  0.25091411965E+02  0.35181441803E+02  0.51100000000E-03 0. -1.
        -11    1    3    3    0    0 -0.20923398540E+01  0.23546059934E+01  0.14229511616E+00  0.31531418633E+01  0.51100000000E-03 0.  1.
         12    1    3    3    0    0 -0.28102523557E+01  0.62221247530E+01  0.37879222872E+01  0.78077339861E+01  0.00000000000E+00 0. -1.
</event>
<event>
 7    1  0.1485408E-008  0.4614232E+02  0.7816164E-02  0.1320468E+00
        -11   -1    0    0    0    0  0.00000000000E+00  0.00000000000E+00  0.45593999997E+02  0.45594000000E+02  0.51100000000E-03 0.  1.
         11   -1    0    0    0    0 -0.00000000000E+00 -0.00000000000E+00 -0.45593999997E+02  0.45594000000E+02  0.51100000000E-03 0. -1.
    9900012    2    1    2    0    0 -0.14298804094E+02 -0.23024016939E+02  0.35979887840E+02  0.46142317815E+02  0.10000000490E+02 0.  0.
         12    1    1    2    0    0  0.14298804094E+02  0.23024016939E+02 -0.35979887840E+02  0.45045682185E+02  0.00000000000E+00 0. -1.
         11    1    3    3    0    0  0.10950738788E+01 -0.26827612465E+01  0.22340587130E+01  0.36588814274E+01  0.51100000000E-03 0. -1.
        -11    1    3    3    0    0 -0.51319840319E+01 -0.91971652781E+01  0.15939151052E+02  0.19104492816E+02  0.51100000000E-03 0.  1.
         12    1    3    3    0    0 -0.10261893941E+02 -0.11144090415E+02  0.17806678075E+02  0.23378943571E+02  0.00000000000E+00 0. -1.
</event>
<event>
 7    1  0.1485408E-008  0.4614232E+02  0.7816164E-02  0.1320468E+00
        -11   -1    0    0    0    0  0.00000000000E+00  0.00000000000E+00  0.45593999997E+02  0.45594000000E+02  0.51100000000E-03 0.  1.
         11   -1    0    0    0    0 -0.00000000000E+00 -0.00000000000E+00 -0.45593999997E+02  0.45594000000E+02  0.51100000000E-03 0. -1.
    9900012    2    1    2    0    0  0.26840416432E+02  0.21578122193E+02  0.29036015793E+02  0.46142317357E+02  0.99999963187E+01 0.  0.
         12    1    1    2    0    0 -0.26840416432E+02 -0.21578122193E+02 -0.29036015793E+02  0.45045682643E+02  0.00000000000E+00 0. -1.
         11    1    3    3    0    0  0.80780883388E+01  0.43513291937E+01  0.37037206406E+01  0.98948028685E+01  0.51100000000E-03 0. -1.
        -11    1    3    3    0    0  0.27797770360E+01  0.49510398958E+01  0.69074737656E+01  0.89416525600E+01  0.51100000000E-03 0.  1.
        -12    1    3    3    0    0  0.15982551057E+02  0.12275753103E+02  0.18424821387E+02  0.27305861929E+02  0.00000000000E+00 0.  1.
</event>
<event>
 7    1  0.1485408E-008  0.4614232E+02  0.7816164E-02  0.1320468E+00
        -11   -1    0    0    0    0  0.00000000000E+00  0.00000000000E+00  0.45593999997E+02  0.45594000000E+02  0.51100000000E-03 0.  1.
         11   -1    0    0    0    0 -0.00000000000E+00 -0.00000000000E+00 -0.45593999997E+02  0.45594000000E+02  0.51100000000E-03 0. -1.
    9900012    2    1    2    0    0 -0.25942490545E+02  0.33301387327E+02  0.15719999596E+02  0.46142316512E+02  0.99999886127E+01 0.  0.
         12    1    1    2    0    0  0.25942490545E+02 -0.33301387327E+02 -0.15719999596E+02  0.45045683488E+02  0.00000000000E+00 0. -1.
         11    1    3    3    0    0 -0.71005167770E+01  0.52741109128E+01  0.27906229546E+00  0.88493762744E+01  0.51100000000E-03 0. -1.
        -11    1    3    3    0    0 -0.18832284622E+02  0.27016522488E+02  0.14897291078E+02  0.36145217016E+02  0.51100000000E-03 0.  1.
        -12    1    3    3    0    0 -0.96891464007E-02  0.10107539263E+01  0.54364622263E+00  0.11477232221E+01  0.00000000000E+00 0.  1.
</event>
<event>
 7    1  0.1485408E-008  0.4614232E+02  0.7816164E-02  0.1320468E+00
        -11   -1    0    0    0    0  0.00000000000E+00  0.00000000000E+00  0.45593999997E+02  0.45594000000E+02  0.51100000000E-03 0. -1.
         11   -1    0    0    0    0 -0.00000000000E+00 -0.00000000000E+00 -0.45593999997E+02  0.45594000000E+02  0.51100000000E-03 0.  1.
    9900012    2    1    2    0    0 -0.97146356442E+01  0.41485168521E+02 -0.14619164521E+02  0.46142319584E+02  0.10000016619E+02 0.  0.
         12    1    1    2    0    0  0.97146356442E+01 -0.41485168521E+02  0.14619164521E+02  0.45045680416E+02  0.00000000000E+00 0. -1.
         11    1    3    3    0    0 -0.75267052941E+01  0.14200306110E+02 -0.51972978892E+01  0.16891177929E+02  0.51100000000E-03 0. -1.
        -11    1    3    3    0    0 -0.17459519353E+01  0.12639591543E+02 -0.23201762568E+01  0.12968841145E+02  0.51100000000E-03 0.  1.
         12    1    3    3    0    0 -0.44197841474E+00  0.14645270868E+02 -0.71016903745E+01  0.16282300510E+02  0.00000000000E+00 0. -1.
</event>
<event>
 7    1  0.1485408E-008  0.4614232E+02  0.7816164E-02  0.1320468E+00
        -11   -1    0    0    0    0  0.00000000000E+00  0.00000000000E+00  0.45593999997E+02  0.45594000000E+02  0.51100000000E-03 0.  1.
         11   -1    0    0    0    0 -0.00000000000E+00 -0.00000000000E+00 -0.45593999997E+02  0.45594000000E+02  0.51100000000E-03 0. -1.
    9900012    2    1    2    0    0 -0.29535269915E+02  0.23777252412E+01 -0.33928274352E+02  0.46142317113E+02  0.99999940915E+01 0.  0.
         12    1    1    2    0    0  0.29535269915E+02 -0.23777252412E+01  0.33928274352E+02  0.45045682887E+02  0.00000000000E+00 0. -1.
         11    1    3    3    0    0 -0.11152594469E+02  0.56376031678E+01 -0.12123611305E+02  0.17411056379E+02  0.51100000000E-03 0. -1.
        -11    1    3    3    0    0 -0.77335003775E+00 -0.26307693777E+00 -0.65004881876E+00  0.10439556906E+01  0.51100000000E-03 0.  1.
         12    1    3    3    0    0 -0.17609325408E+02 -0.29968009888E+01 -0.21154614227E+02  0.27687305044E+02  0.00000000000E+00 0. -1.
</event>
<event>
 7    1  0.1485408E-008  0.4614232E+02  0.7816164E-02  0.1320468E+00
        -11   -1    0    0    0    0  0.00000000000E+00  0.00000000000E+00  0.45593999997E+02  0.45594000000E+02  0.51100000000E-03 0. -1.
         11   -1    0    0    0    0 -0.00000000000E+00 -0.00000000000E+00 -0.45593999997E+02  0.45594000000E+02  0.51100000000E-03 0.  1.
    9900012    2    1    2    0    0  0.31675954960E+02  0.31898243326E+02  0.28721502084E+01  0.46142319888E+02  0.10000019394E+02 0.  0.
         12    1    1    2    0    0 -0.31675954960E+02 -0.31898243326E+02 -0.28721502084E+01  0.45045680112E+02  0.00000000000E+00 0. -1.
         11    1    3    3    0    0  0.75791335783E+01  0.60461907734E+01  0.17300608288E+01  0.98484922399E+01  0.51100000000E-03 0. -1.
        -11    1    3    3    0    0  0.92807109320E+01  0.49476122746E+01 -0.10942023391E+01  0.10573917989E+02  0.51100000000E-03 0.  1.
        -12    1    3    3    0    0  0.14816110450E+02  0.20904440278E+02  0.22362917187E+01  0.25719909659E+02  0.00000000000E+00 0.  1.
</event>
<event>
 7    1  0.1485408E-008  0.4614232E+02  0.7816164E-02  0.1320468E+00
        -11   -1    0    0    0    0  0.00000000000E+00  0.00000000000E+00  0.45593999997E+02  0.45594000000E+02  0.51100000000E-03 0.  1.
         11   -1    0    0    0    0 -0.00000000000E+00 -0.00000000000E+00 -0.45593999997E+02  0.45594000000E+02  0.51100000000E-03 0. -1.
    9900012    2    1    2    0    0  0.34908292637E+02 -0.19922397424E+02  0.20337714815E+02  0.46142318100E+02  0.10000003088E+02 0.  0.
         12    1    1    2    0    0 -0.34908292637E+02  0.19922397424E+02 -0.20337714815E+02  0.45045681900E+02  0.00000000000E+00 0. -1.
         11    1    3    3    0    0  0.11407368990E+02 -0.39382209954E+01  0.52370202709E+01  0.13155380399E+02  0.51100000000E-03 0. -1.
        -11    1    3    3    0    0  0.12519662678E+01 -0.34095281175E+01  0.86775647140E+00  0.37343410496E+01  0.51100000000E-03 0.  1.
        -12    1    3    3    0    0  0.22248957379E+02 -0.12574648311E+02  0.14232938073E+02  0.29252596651E+02  0.00000000000E+00 0.  1.
</event>
<event>
 7    1  0.1485408E-008  0.4614232E+02  0.7816164E-02  0.1320468E+00
        -11   -1    0    0    0    0  0.00000000000E+00  0.00000000000E+00  0.45593999997E+02  0.45594000000E+02  0.51100000000E-03 0.  1.
         11   -1    0    0    0    0 -0.00000000000E+00 -0.00000000000E+00 -0.45593999997E+02  0.45594000000E+02  0.51100000000E-03 0. -1.
    9900012    2    1    2    0    0  0.19542262027E+02  0.16304485714E+01  0.40553113853E+02  0.46142318622E+02  0.10000007849E+02 0.  0.
         12    1    1    2    0    0 -0.19542262027E+02 -0.16304485714E+01 -0.40553113853E+02  0.45045681378E+02  0.00000000000E+00 0. -1.
         11    1    3    3    0    0  0.81067108071E+00  0.10484105331E+01  0.21868671296E+01  0.25570960777E+01  0.51100000000E-03 0. -1.
        -11    1    3    3    0    0  0.21803131247E+01  0.18167156962E+01  0.16278531811E+01  0.32717162901E+01  0.51100000000E-03 0.  1.
        -12    1    3    3    0    0  0.16551277822E+02 -0.12346776579E+01  0.36738393542E+02  0.40313506254E+02  0.00000000000E+00 0.  1.
</event>
<event>
 7    1  0.1485408E-008  0.4614232E+02  0.7816164E-02  0.1320468E+00
        -11   -1    0    0    0    0  0.00000000000E+00  0.00000000000E+00  0.45593999997E+02  0.45594000000E+02  0.51100000000E-03 0.  1.
         11   -1    0    0    0    0 -0.00000000000E+00 -0.00000000000E+00 -0.45593999997E+02  0.45594000000E+02  0.51100000000E-03 0. -1.
    9900012    2    1    2    0    0  0.25608568828E+02 -0.31408734633E+02  0.19667388438E+02  0.46142316781E+02  0.99999910644E+01 0.  0.
         12    1    1    2    0    0 -0.25608568828E+02  0.31408734633E+02 -0.19667388438E+02  0.45045683219E+02  0.00000000000E+00 0. -1.
         11    1    3    3    0    0  0.16481057958E-01 -0.10526230568E+01  0.21563959096E+01  0.23996521634E+01  0.51100000000E-03 0. -1.
        -11    1    3    3    0    0  0.25122482024E+02 -0.27765674518E+02  0.16143475914E+02  0.40776017453E+02  0.51100000000E-03 0.  1.
        -12    1    3    3    0    0  0.46960574645E+00 -0.25904370589E+01  0.13675166138E+01  0.29666471651E+01  0.00000000000E+00 0.  1.
</event>
<event>
 7    1  0.1485408E-008  0.4614232E+02  0.7816164E-02  0.1320468E+00
        -11   -1    0    0    0    0  0.00000000000E+00  0.00000000000E+00  0.45593999997E+02  0.45594000000E+02  0.51100000000E-03 0.  1.
         11   -1    0    0    0    0 -0.00000000000E+00 -0.00000000000E+00 -0.45593999997E+02  0.45594000000E+02  0.51100000000E-03 0. -1.
    9900012    2    1    2    0    0 -0.39748384482E+02 -0.19242828702E+02  0.88821773227E+01  0.46142316529E+02  0.99999887624E+01 0.  0.
         12    1    1    2    0    0  0.39748384482E+02  0.19242828702E+02 -0.88821773227E+01  0.45045683471E+02  0.00000000000E+00 0. -1.
         11    1    3    3    0    0 -0.70094478812E+01 -0.61745044685E+01  0.10965211784E+01  0.94052763907E+01  0.51100000000E-03 0. -1.
        -11    1    3    3    0    0 -0.27302688777E+02 -0.13044105587E+02  0.51435532288E+01  0.30692696934E+02  0.51100000000E-03 0.  1.
         12    1    3    3    0    0 -0.54362478244E+01 -0.24218646154E-01  0.26421029155E+01  0.60443432040E+01  0.00000000000E+00 0. -1.
</event>
<event>
 7    1  0.1485408E-008  0.4614232E+02  0.7816164E-02  0.1320468E+00
        -11   -1    0    0    0    0  0.00000000000E+00  0.00000000000E+00  0.45593999997E+02  0.45594000000E+02  0.51100000000E-03 0. -1.
         11   -1    0    0    0    0 -0.00000000000E+00 -0.00000000000E+00 -0.45593999997E+02  0.45594000000E+02  0.51100000000E-03 0.  1.
    9900012    2    1    2    0    0 -0.44829293903E+02  0.13276968941E+01  0.42053680319E+01  0.46142317730E+02  0.99999997181E+01 0.  0.
         12    1    1    2    0    0  0.44829293903E+02 -0.13276968941E+01 -0.42053680319E+01  0.45045682270E+02  0.00000000000E+00 0. -1.
         11    1    3    3    0    0 -0.30962595147E+02 -0.28502760956E+01  0.41428558998E+01  0.31368290157E+02  0.51100000000E-03 0.  1.
        -11    1    3    3    0    0 -0.47183509427E+01  0.28059204190E+01  0.50484484104E+00  0.55127936285E+01  0.51100000000E-03 0. -1.
         12    1    3    3    0    0 -0.91483478126E+01  0.13720525707E+01 -0.44233270895E+00  0.92612339449E+01  0.00000000000E+00 0. -1.
</event>
<event>
 7    1  0.1485408E-008  0.4614232E+02  0.7816164E-02  0.1320468E+00
        -11   -1    0    0    0    0  0.00000000000E+00  0.00000000000E+00  0.45593999997E+02  0.45594000000E+02  0.51100000000E-03 0. -1.
         11   -1    0    0    0    0 -0.00000000000E+00 -0.00000000000E+00 -0.45593999997E+02  0.45594000000E+02  0.51100000000E-03 0.  1.
    9900012    2    1    2    0    0  0.41543429242E+02  0.86021555409E+01 -0.15141333140E+02  0.46142316939E+02  0.99999925049E+01 0.  0.
         12    1    1    2    0    0 -0.41543429242E+02 -0.86021555409E+01  0.15141333140E+02  0.45045683061E+02  0.00000000000E+00 0. -1.
         11    1    3    3    0    0  0.17301712336E+02  0.19611923571E+01 -0.25605388842E+01  0.17599769455E+02  0.51100000000E-03 0. -1.
        -11    1    3    3    0    0  0.14271797182E+02  0.54525612441E+01 -0.54228535887E+01  0.16211784609E+02  0.51100000000E-03 0.  1.
         12    1    3    3    0    0  0.99699197245E+01  0.11884019397E+01 -0.71579406674E+01  0.12330762875E+02  0.00000000000E+00 0. -1.
</event>
<event>
 7    1  0.1485408E-008  0.4614232E+02  0.7816164E-02  0.1320468E+00
        -11   -1    0    0    0    0  0.00000000000E+00  0.00000000000E+00  0.45593999997E+02  0.45594000000E+02  0.51100000000E-03 0.  1.
         11   -1    0    0    0    0 -0.00000000000E+00 -0.00000000000E+00 -0.45593999997E+02  0.45594000000E+02  0.51100000000E-03 0. -1.
    9900012    2    1    2    0    0 -0.14654874561E+02 -0.10566382966E+02  0.41263781614E+02  0.46142317960E+02  0.10000001814E+02 0.  0.
         12    1    1    2    0    0  0.14654874561E+02  0.10566382966E+02 -0.41263781614E+02  0.45045682040E+02  0.00000000000E+00 0. -1.
         11    1    3    3    0    0  0.11956536291E+00  0.74750518751E+00  0.75401578924E+00  0.10684568091E+01  0.51100000000E-03 0. -1.
        -11    1    3    3    0    0 -0.76976620295E+01 -0.33591098447E+01  0.12053220897E+02  0.14690737011E+02  0.51100000000E-03 0.  1.
         12    1    3    3    0    0 -0.70767778948E+01 -0.79547783086E+01  0.28456544928E+02  0.30383124140E+02  0.00000000000E+00 0. -1.
</event>
<event>
 7    1  0.1485408E-008  0.4614231E+02  0.7816164E-02  0.1320468E+00
        -11   -1    0    0    0    0  0.00000000000E+00  0.00000000000E+00  0.45593999997E+02  0.45594000000E+02  0.51100000000E-03 0.  1.
         11   -1    0    0    0    0 -0.00000000000E+00 -0.00000000000E+00 -0.45593999997E+02  0.45594000000E+02  0.51100000000E-03 0. -1.
    9900012    2    1    2    0    0  0.13862510046E+02  0.33500030097E+02  0.26733744938E+02  0.46142308534E+02  0.99999158603E+01 0.  0.
         12    1    1    2    0    0 -0.13862510046E+02 -0.33500030097E+02 -0.26733744938E+02  0.45045691466E+02  0.00000000000E+00 0. -1.
         11    1    3    3    0    0  0.52124934541E+01  0.60930036808E+01  0.64812906950E+01  0.10310281819E+02  0.51100000000E-03 0. -1.
        -11    1    3    3    0    0  0.86911393520E+01  0.26146965275E+02  0.17079369195E+02  0.32417657976E+02  0.51100000000E-03 0.  1.
        -12    1    3    3    0    0 -0.41122760039E-01  0.12600611410E+01  0.31730850477E+01  0.34143687382E+01  0.00000000000E+00 0.  1.
</event>
<event>
 7    1  0.1485408E-008  0.4614232E+02  0.7816164E-02  0.1320468E+00
        -11   -1    0    0    0    0  0.00000000000E+00  0.00000000000E+00  0.45593999997E+02  0.45594000000E+02  0.51100000000E-03 0. -1.
         11   -1    0    0    0    0 -0.00000000000E+00 -0.00000000000E+00 -0.45593999997E+02  0.45594000000E+02  0.51100000000E-03 0.  1.
    9900012    2    1    2    0    0 -0.35152329708E+01  0.42247412912E+02  0.15228685287E+02  0.46142316343E+02  0.99999870663E+01 0.  0.
         12    1    1    2    0    0  0.35152329708E+01 -0.42247412912E+02 -0.15228685287E+02  0.45045683657E+02  0.00000000000E+00 0. -1.
         11    1    3    3    0    0 -0.90370332135E+00  0.17559713819E+02  0.84833154373E+01  0.19522470904E+02  0.51100000000E-03 0. -1.
        -11    1    3    3    0    0 -0.17965754401E+01  0.18438154576E+02  0.80247337946E+01  0.20188847917E+02  0.51100000000E-03 0.  1.
         12    1    3    3    0    0 -0.81495420929E+00  0.62495445168E+01 -0.12793639450E+01  0.64309975225E+01  0.00000000000E+00 0. -1.
</event>
<event>
 7    1  0.1485408E-008  0.4614232E+02  0.7816164E-02  0.1320468E+00
        -11   -1    0    0    0    0  0.00000000000E+00  0.00000000000E+00  0.45593999997E+02  0.45594000000E+02  0.51100000000E-03 0.  1.
         11   -1    0    0    0    0 -0.00000000000E+00 -0.00000000000E+00 -0.45593999997E+02  0.45594000000E+02  0.51100000000E-03 0. -1.
    9900012    2    1    2    0    0  0.13488439132E+02  0.37861091064E+02 -0.20339943881E+02  0.46142317367E+02  0.99999964061E+01 0.  0.
         12    1    1    2    0    0 -0.13488439132E+02 -0.37861091064E+02  0.20339943881E+02  0.45045682633E+02  0.00000000000E+00 0. -1.
         11    1    3    3    0    0  0.61912888114E+01  0.92332262125E+01 -0.73019794867E+01  0.13300504807E+02  0.51100000000E-03 0. -1.
        -11    1    3    3    0    0  0.44852955518E+01  0.23060063223E+02 -0.12421147072E+02  0.26573845918E+02  0.51100000000E-03 0.  1.
         12    1    3    3    0    0  0.28118547685E+01  0.55678016283E+01 -0.61681732315E+00  0.62679666417E+01  0.00000000000E+00 0. -1.
</event>
<event>
 7    1  0.1485408E-008  0.4614232E+02  0.7816164E-02  0.1320468E+00
        -11   -1    0    0    0    0  0.00000000000E+00  0.00000000000E+00  0.45593999997E+02  0.45594000000E+02  0.51100000000E-03 0.  1.
         11   -1    0    0    0    0 -0.00000000000E+00 -0.00000000000E+00 -0.45593999997E+02  0.45594000000E+02  0.51100000000E-03 0. -1.
    9900012    2    1    2    0    0 -0.12606512151E+02 -0.80824138050E+01  0.42483690057E+02  0.46142317827E+02  0.10000000604E+02 0.  0.
         12    1    1    2    0    0  0.12606512151E+02  0.80824138050E+01 -0.42483690057E+02  0.45045682173E+02  0.00000000000E+00 0. -1.
         11    1    3    3    0    0 -0.28801223282E+01  0.12692865905E+00  0.12920745189E+02  0.13238461845E+02  0.51100000000E-03 0. -1.
        -11    1    3    3    0    0 -0.65182374868E+01 -0.57816028671E+01  0.26356164935E+02  0.27758994614E+02  0.51100000000E-03 0.  1.
         12    1    3    3    0    0 -0.32081523359E+01 -0.24277395969E+01  0.32067799325E+01  0.51448613680E+01  0.00000000000E+00 0. -1.
</event>
<event>
 7    1  0.1485408E-008  0.4614232E+02  0.7816164E-02  0.1320468E+00
        -11   -1    0    0    0    0  0.00000000000E+00  0.00000000000E+00  0.45593999997E+02  0.45594000000E+02  0.51100000000E-03 0.  1.
         11   -1    0    0    0    0 -0.00000000000E+00 -0.00000000000E+00 -0.45593999997E+02  0.45594000000E+02  0.51100000000E-03 0. -1.
    9900012    2    1    2    0    0 -0.61501528525E+01  0.55154158076E+01  0.44281702069E+02  0.46142319521E+02  0.10000016051E+02 0.  0.
         12    1    1    2    0    0  0.61501528525E+01 -0.55154158076E+01 -0.44281702069E+02  0.45045680479E+02  0.00000000000E+00 0. -1.
         11    1    3    3    0    0 -0.41231676501E+01 -0.37305343637E-01  0.11368540620E+02  0.12093205500E+02  0.51100000000E-03 0. -1.
        -11    1    3    3    0    0 -0.15755578917E+01  0.35588143622E+01  0.31018726760E+02  0.31261940958E+02  0.51100000000E-03 0.  1.
        -12    1    3    3    0    0 -0.45142731076E+00  0.19939067890E+01  0.18944346885E+01  0.27871730641E+01  0.00000000000E+00 0.  1.
</event>
<event>
 7    1  0.1485408E-008  0.4614233E+02  0.7816164E-02  0.1320468E+00
        -11   -1    0    0    0    0  0.00000000000E+00  0.00000000000E+00  0.45593999997E+02  0.45594000000E+02  0.51100000000E-03 0.  1.
         11   -1    0    0    0    0 -0.00000000000E+00 -0.00000000000E+00 -0.45593999997E+02  0.45594000000E+02  0.51100000000E-03 0. -1.
    9900012    2    1    2    0    0 -0.14890666267E+02 -0.22094526990E+02  0.36320961363E+02  0.46142330962E+02  0.10000120372E+02 0.  0.
         12    1    1    2    0    0  0.14890666267E+02  0.22094526990E+02 -0.36320961363E+02  0.45045669038E+02  0.00000000000E+00 0. -1.
         11    1    3    3    0    0 -0.66135802428E+01 -0.10862315023E+02  0.19333127859E+02  0.23140854876E+02  0.51100000000E-03 0. -1.
        -11    1    3    3    0    0 -0.66647876906E+01 -0.10741575670E+02  0.17153234842E+02  0.21308080830E+02  0.51100000000E-03 0.  1.
         12    1    3    3    0    0 -0.16122983333E+01 -0.49063629648E+00 -0.16540133828E+00  0.16933952562E+01  0.00000000000E+00 0. -1.
</event>
<event>
 7    1  0.1485408E-008  0.4614232E+02  0.7816164E-02  0.1320468E+00
        -11   -1    0    0    0    0  0.00000000000E+00  0.00000000000E+00  0.45593999997E+02  0.45594000000E+02  0.51100000000E-03 0.  1.
         11   -1    0    0    0    0 -0.00000000000E+00 -0.00000000000E+00 -0.45593999997E+02  0.45594000000E+02  0.51100000000E-03 0. -1.
    9900012    2    1    2    0    0  0.21199319908E+02  0.18861357757E+02  0.34985018978E+02  0.46142317256E+02  0.99999953918E+01 0.  0.
         12    1    1    2    0    0 -0.21199319908E+02 -0.18861357757E+02 -0.34985018978E+02  0.45045682744E+02  0.00000000000E+00 0. -1.
         11    1    3    3    0    0  0.73112907040E+01  0.96070681537E+01  0.89003955708E+01  0.14998925690E+02  0.51100000000E-03 0. -1.
        -11    1    3    3    0    0  0.66657734381E+01  0.57779330489E+01  0.15897909761E+02  0.18181325058E+02  0.51100000000E-03 0.  1.
        -12    1    3    3    0    0  0.72222557658E+01  0.34763565547E+01  0.10186713646E+02  0.12962066508E+02  0.00000000000E+00 0.  1.
</event>
<event>
 7    1  0.1485408E-008  0.4614232E+02  0.7816164E-02  0.1320468E+00
        -11   -1    0    0    0    0  0.00000000000E+00  0.00000000000E+00  0.45593999997E+02  0.45594000000E+02  0.51100000000E-03 0.  1.
         11   -1    0    0    0    0 -0.00000000000E+00 -0.00000000000E+00 -0.45593999997E+02  0.45594000000E+02  0.51100000000E-03 0. -1.
    9900012    2    1    2    0    0 -0.42923105972E+02  0.10866277210E+02 -0.82851958700E+01  0.46142317884E+02  0.10000001118E+02 0.  0.
         12    1    1    2    0    0  0.42923105972E+02 -0.10866277210E+02  0.82851958700E+01  0.45045682116E+02  0.00000000000E+00 0. -1.
         11    1    3    3    0    0 -0.15200780005E+02  0.44697807308E+00 -0.24044831795E+01  0.15396267138E+02  0.51100000000E-03 0.  1.
        -11    1    3    3    0    0 -0.24340180354E+02  0.10853578564E+02 -0.43291646200E+01  0.26999744700E+02  0.51100000000E-03 0. -1.
        -12    1    3    3    0    0 -0.33821456138E+01 -0.43427942785E+00 -0.15515480705E+01  0.37463060459E+01  0.00000000000E+00 0.  1.
</event>
<event>
 7    1  0.1485408E-008  0.4614232E+02  0.7816164E-02  0.1320468E+00
        -11   -1    0    0    0    0  0.00000000000E+00  0.00000000000E+00  0.45593999997E+02  0.45594000000E+02  0.51100000000E-03 0. -1.
         11   -1    0    0    0    0 -0.00000000000E+00 -0.00000000000E+00 -0.45593999997E+02  0.45594000000E+02  0.51100000000E-03 0.  1.
    9900012    2    1    2    0    0 -0.19029424426E+02  0.34151323522E+02 -0.22375912794E+02  0.46142319124E+02  0.10000012425E+02 0.  0.
         12    1    1    2    0    0  0.19029424426E+02 -0.34151323522E+02  0.22375912794E+02  0.45045680876E+02  0.00000000000E+00 0. -1.
         11    1    3    3    0    0 -0.49322865614E+01  0.16079887340E+02 -0.64508840140E+01  0.18013998235E+02  0.51100000000E-03 0. -1.
        -11    1    3    3    0    0 -0.11199276993E+02  0.12018686382E+02 -0.10474677862E+02  0.19483108173E+02  0.51100000000E-03 0.  1.
        -12    1    3    3    0    0 -0.28978608717E+01  0.60527497997E+01 -0.54503509174E+01  0.86452127153E+01  0.00000000000E+00 0.  1.
</event>
<event>
 7    1  0.1485408E-008  0.4614232E+02  0.7816164E-02  0.1320468E+00
        -11   -1    0    0    0    0  0.00000000000E+00  0.00000000000E+00  0.45593999997E+02  0.45594000000E+02  0.51100000000E-03 0.  1.
         11   -1    0    0    0    0 -0.00000000000E+00 -0.00000000000E+00 -0.45593999997E+02  0.45594000000E+02  0.51100000000E-03 0. -1.
    9900012    2    1    2    0    0 -0.41622009698E+02  0.50921087966E+01  0.16455766023E+02  0.46142317646E+02  0.99999989542E+01 0.  0.
         12    1    1    2    0    0  0.41622009698E+02 -0.50921087966E+01 -0.16455766023E+02  0.45045682354E+02  0.00000000000E+00 0. -1.
         11    1    3    3    0    0 -0.15876765618E+01 -0.15381313921E+01  0.17533966464E+00  0.22175006885E+01  0.51100000000E-03 0. -1.
        -11    1    3    3    0    0 -0.38002477635E+02  0.69861131083E+01  0.14760840261E+02  0.41362742755E+02  0.51100000000E-03 0.  1.
         12    1    3    3    0    0 -0.20318555009E+01 -0.35587291960E+00  0.15195860975E+01  0.25620742025E+01  0.00000000000E+00 0. -1.
</event>
<event>
 7    1  0.1485408E-008  0.4614232E+02  0.7816164E-02  0.1320468E+00
        -11   -1    0    0    0    0  0.00000000000E+00  0.00000000000E+00  0.45593999997E+02  0.45594000000E+02  0.51100000000E-03 0.  1.
         11   -1    0    0    0    0 -0.00000000000E+00 -0.00000000000E+00 -0.45593999997E+02  0.45594000000E+02  0.51100000000E-03 0. -1.
    9900012    2    1    2    0    0 -0.16720612601E+02 -0.95485262097E+01  0.40722967498E+02  0.46142319626E+02  0.10000017005E+02 0.  0.
         12    1    1    2    0    0  0.16720612601E+02  0.95485262097E+01 -0.40722967498E+02  0.45045680374E+02  0.00000000000E+00 0. -1.
         11    1    3    3    0    0 -0.12234720727E+02 -0.85597490061E+01  0.25364969844E+02  0.29433643841E+02  0.51100000000E-03 0. -1.
        -11    1    3    3    0    0 -0.19001996354E+01 -0.27502706934E+01  0.94423877673E+01  0.10016657853E+02  0.51100000000E-03 0.  1.
         12    1    3    3    0    0 -0.25856922379E+01  0.17614934898E+01  0.59156098867E+01  0.66920179315E+01  0.00000000000E+00 0. -1.
</event>
<event>
 7    1  0.1485408E-008  0.4614232E+02  0.7816164E-02  0.1320468E+00
        -11   -1    0    0    0    0  0.00000000000E+00  0.00000000000E+00  0.45593999997E+02  0.45594000000E+02  0.51100000000E-03 0.  1.
         11   -1    0    0    0    0 -0.00000000000E+00 -0.00000000000E+00 -0.45593999997E+02  0.45594000000E+02  0.51100000000E-03 0. -1.
    9900012    2    1    2    0    0  0.31860763431E+02 -0.19307844922E+02  0.25322170704E+02  0.46142318175E+02  0.10000003771E+02 0.  0.
         12    1    1    2    0    0 -0.31860763431E+02  0.19307844922E+02 -0.25322170704E+02  0.45045681825E+02  0.00000000000E+00 0. -1.
         11    1    3    3    0    0  0.95529303593E+01 -0.20544102939E+01  0.96255310081E+01  0.13716046353E+02  0.51100000000E-03 0. -1.
        -11    1    3    3    0    0  0.18839836288E+02 -0.15649928603E+02  0.12825223923E+02  0.27646809321E+02  0.51100000000E-03 0.  1.
        -12    1    3    3    0    0  0.34679967835E+01 -0.16035060252E+01  0.28714157722E+01  0.47794625012E+01  0.00000000000E+00 0.  1.
</event>
<event>
 7    1  0.1485408E-008  0.4614232E+02  0.7816164E-02  0.1320468E+00
        -11   -1    0    0    0    0  0.00000000000E+00  0.00000000000E+00  0.45593999997E+02  0.45594000000E+02  0.51100000000E-03 0.  1.
         11   -1    0    0    0    0 -0.00000000000E+00 -0.00000000000E+00 -0.45593999997E+02  0.45594000000E+02  0.51100000000E-03 0. -1.
    9900012    2    1    2    0    0  0.30927735101E+02 -0.27368762278E+02  0.17987203382E+02  0.46142318380E+02  0.10000005641E+02 0.  0.
         12    1    1    2    0    0 -0.30927735101E+02  0.27368762278E+02 -0.17987203382E+02  0.45045681620E+02  0.00000000000E+00 0. -1.
         11    1    3    3    0    0  0.49754540486E+01 -0.55037291677E+01  0.47383600582E+01  0.88033081307E+01  0.51100000000E-03 0.  1.
        -11    1    3    3    0    0  0.19486937393E+02 -0.11469465976E+02  0.95953419926E+01  0.24563386716E+02  0.51100000000E-03 0. -1.
         12    1    3    3    0    0  0.64653436594E+01 -0.10395567135E+02  0.36535013308E+01  0.12775623533E+02  0.00000000000E+00 0. -1.
</event>
<event>
 7    1  0.1485408E-008  0.4614232E+02  0.7816164E-02  0.1320468E+00
        -11   -1    0    0    0    0  0.00000000000E+00  0.00000000000E+00  0.45593999997E+02  0.45594000000E+02  0.51100000000E-03 0.  1.
         11   -1    0    0    0    0 -0.00000000000E+00 -0.00000000000E+00 -0.45593999997E+02  0.45594000000E+02  0.51100000000E-03 0. -1.
    9900012    2    1    2    0    0  0.21179973065E+02 -0.39661713881E+02  0.27332550096E+01  0.46142317743E+02  0.99999998373E+01 0.  0.
         12    1    1    2    0    0 -0.21179973065E+02  0.39661713881E+02 -0.27332550096E+01  0.45045682257E+02  0.00000000000E+00 0. -1.
         11    1    3    3    0    0  0.10072190417E+02 -0.10559079159E+02 -0.35576980917E+00  0.14596908744E+02  0.51100000000E-03 0.  1.
        -11    1    3    3    0    0  0.33643468390E+01 -0.14051558289E+02  0.19683719757E+01  0.14582167483E+02  0.51100000000E-03 0. -1.
        -12    1    3    3    0    0  0.77434358097E+01 -0.15051076433E+02  0.11206528431E+01  0.16963241516E+02  0.00000000000E+00 0.  1.
</event>
<event>
 7    1  0.1485408E-008  0.4614232E+02  0.7816164E-02  0.1320468E+00
        -11   -1    0    0    0    0  0.00000000000E+00  0.00000000000E+00  0.45593999997E+02  0.45594000000E+02  0.51100000000E-03 0. -1.
         11   -1    0    0    0    0 -0.00000000000E+00 -0.00000000000E+00 -0.45593999997E+02  0.45594000000E+02  0.51100000000E-03 0.  1.
    9900012    2    1    2    0    0  0.35364002700E+02  0.16373395623E+02 -0.22592315653E+02  0.46142317656E+02  0.99999990444E+01 0.  0.
         12    1    1    2    0    0 -0.35364002700E+02 -0.16373395623E+02  0.22592315653E+02  0.45045682344E+02  0.00000000000E+00 0. -1.
         11    1    3    3    0    0  0.36709286097E+01  0.19671609805E+01  0.46357458734E+00  0.41905060363E+01  0.51100000000E-03 0. -1.
        -11    1    3    3    0    0  0.21254325822E+02  0.96504470875E+01 -0.17686238989E+02  0.29286183517E+02  0.51100000000E-03 0.  1.
         12    1    3    3    0    0  0.10438748269E+02  0.47557875551E+01 -0.53696512516E+01  0.12665628103E+02  0.00000000000E+00 0. -1.
</event>
<event>
 7    1  0.1485408E-008  0.4614232E+02  0.7816164E-02  0.1320468E+00
        -11   -1    0    0    0    0  0.00000000000E+00  0.00000000000E+00  0.45593999997E+02  0.45594000000E+02  0.51100000000E-03 0.  1.
         11   -1    0    0    0    0 -0.00000000000E+00 -0.00000000000E+00 -0.45593999997E+02  0.45594000000E+02  0.51100000000E-03 0. -1.
    9900012    2    1    2    0    0 -0.20233449651E+01  0.23426171379E+02  0.38421791916E+02  0.46142317362E+02  0.99999963570E+01 0.  0.
         12    1    1    2    0    0  0.20233449651E+01 -0.23426171379E+02 -0.38421791916E+02  0.45045682638E+02  0.00000000000E+00 0. -1.
         11    1    3    3    0    0 -0.36876156629E+01  0.50106096393E+01  0.51966188265E+01  0.81061437024E+01  0.51100000000E-03 0. -1.
        -11    1    3    3    0    0  0.10488892490E+01  0.15384406934E+02  0.27916928847E+02  0.31892554960E+02  0.51100000000E-03 0.  1.
         12    1    3    3    0    0  0.61538144884E+00  0.30311548063E+01  0.53082442424E+01  0.61436186995E+01  0.00000000000E+00 0. -1.
</event>
<event>
 7    1  0.1485408E-008  0.4614232E+02  0.7816164E-02  0.1320468E+00
        -11   -1    0    0    0    0  0.00000000000E+00  0.00000000000E+00  0.45593999997E+02  0.45594000000E+02  0.51100000000E-03 0. -1.
         11   -1    0    0    0    0 -0.00000000000E+00 -0.00000000000E+00 -0.45593999997E+02  0.45594000000E+02  0.51100000000E-03 0.  1.
    9900012    2    1    2    0    0  0.13622014617E+02  0.29308823428E+02 -0.31377493906E+02  0.46142317224E+02  0.99999950988E+01 0.  0.
         12    1    1    2    0    0 -0.13622014617E+02 -0.29308823428E+02  0.31377493906E+02  0.45045682776E+02  0.00000000000E+00 0. -1.
         11    1    3    3    0    0  0.94955752615E+01  0.11781569551E+02 -0.15006730990E+02  0.21311342189E+02  0.51100000000E-03 0.  1.
        -11    1    3    3    0    0 -0.14551616833E+00 -0.20993755456E+00 -0.81851874910E+00  0.85745083580E+00  0.51100000000E-03 0. -1.
         12    1    3    3    0    0  0.42719555238E+01  0.17737191432E+02 -0.15552244167E+02  0.23973524199E+02  0.00000000000E+00 0. -1.
</event>
<event>
 7    1  0.1485408E-008  0.4614232E+02  0.7816164E-02  0.1320468E+00
        -11   -1    0    0    0    0  0.00000000000E+00  0.00000000000E+00  0.45593999997E+02  0.45594000000E+02  0.51100000000E-03 0.  1.
         11   -1    0    0    0    0 -0.00000000000E+00 -0.00000000000E+00 -0.45593999997E+02  0.45594000000E+02  0.51100000000E-03 0. -1.
    9900012    2    1    2    0    0 -0.41497300069E+02  0.13528517658E+02  0.11138526354E+02  0.46142317938E+02  0.10000001616E+02 0.  0.
         12    1    1    2    0    0  0.41497300069E+02 -0.13528517658E+02 -0.11138526354E+02  0.45045682062E+02  0.00000000000E+00 0. -1.
         11    1    3    3    0    0 -0.25478754621E+02  0.67348223995E+01  0.23968255313E+01  0.26462606498E+02  0.51100000000E-03 0. -1.
        -11    1    3    3    0    0 -0.38564298809E+01  0.10745923639E+01  0.32690348417E+01  0.51684997081E+01  0.51100000000E-03 0.  1.
         12    1    3    3    0    0 -0.12162115568E+02  0.57191028951E+01  0.54726659806E+01  0.14511211732E+02  0.00000000000E+00 0. -1.
</event>
<event>
 7    1  0.1485408E-008  0.4614232E+02  0.7816164E-02  0.1320468E+00
        -11   -1    0    0    0    0  0.00000000000E+00  0.00000000000E+00  0.45593999997E+02  0.45594000000E+02  0.51100000000E-03 0. -1.
         11   -1    0    0    0    0 -0.00000000000E+00 -0.00000000000E+00 -0.45593999997E+02  0.45594000000E+02  0.51100000000E-03 0.  1.
    9900012    2    1    2    0    0 -0.20217266668E+01 -0.44426663000E+02 -0.71622379273E+01  0.46142318562E+02  0.10000007307E+02 0.  0.
         12    1    1    2    0    0  0.20217266668E+01  0.44426663000E+02  0.71622379273E+01  0.45045681438E+02  0.00000000000E+00 0. -1.
         11    1    3    3    0    0  0.93681025029E+00 -0.11301629024E+01  0.12060292518E+01  0.18998390585E+01  0.51100000000E-03 0. -1.
        -11    1    3    3    0    0 -0.21325702899E+01 -0.23352271702E+02 -0.53802987150E+01  0.24058762732E+02  0.51100000000E-03 0.  1.
         12    1    3    3    0    0 -0.82596662710E+00 -0.19944228396E+02 -0.29879684641E+01  0.20183716772E+02  0.00000000000E+00 0. -1.
</event>
<event>
 7    1  0.1485408E-008  0.4614232E+02  0.7816164E-02  0.1320468E+00
        -11   -1    0    0    0    0  0.00000000000E+00  0.00000000000E+00  0.45593999997E+02  0.45594000000E+02  0.51100000000E-03 0. -1.
         11   -1    0    0    0    0 -0.00000000000E+00 -0.00000000000E+00 -0.45593999997E+02  0.45594000000E+02  0.51100000000E-03 0.  1.
    9900012    2    1    2    0    0 -0.41254910367E+02  0.14627417354E+02 -0.10638824288E+02  0.46142317077E+02  0.99999937589E+01 0.  0.
         12    1    1    2    0    0  0.41254910367E+02 -0.14627417354E+02  0.10638824288E+02  0.45045682923E+02  0.00000000000E+00 0. -1.
         11    1    3    3    0    0 -0.26465566358E+02  0.12181940025E+02 -0.35579137145E+01  0.29351058170E+02  0.51100000000E-03 0. -1.
        -11    1    3    3    0    0 -0.10860889814E+02  0.14708249175E+01 -0.38646374008E+01  0.11621431753E+02  0.51100000000E-03 0.  1.
         12    1    3    3    0    0 -0.39284541948E+01  0.97465241180E+00 -0.32162731726E+01  0.51698271543E+01  0.00000000000E+00 0. -1.
</event>
<event>
 7    1  0.1485408E-008  0.4614232E+02  0.7816164E-02  0.1320468E+00
        -11   -1    0    0    0    0  0.00000000000E+00  0.00000000000E+00  0.45593999997E+02  0.45594000000E+02  0.51100000000E-03 0.  1.
         11   -1    0    0    0    0 -0.00000000000E+00 -0.00000000000E+00 -0.45593999997E+02  0.45594000000E+02  0.51100000000E-03 0. -1.
    9900012    2    1    2    0    0  0.15633542506E+01 -0.44255270721E+02  0.82547222801E+01  0.46142317598E+02  0.99999985149E+01 0.  0.
         12    1    1    2    0    0 -0.15633542506E+01  0.44255270721E+02 -0.82547222801E+01  0.45045682402E+02  0.00000000000E+00 0. -1.
         11    1    3    3    0    0  0.37234294805E+01 -0.13349307187E+02  0.43051229952E+01  0.14512133328E+02  0.51100000000E-03 0. -1.
        -11    1    3    3    0    0 -0.25311194922E+01 -0.30611585926E+02  0.33984519915E+01  0.30903482571E+02  0.51100000000E-03 0.  1.
        -12    1    3    3    0    0  0.37104426221E+00 -0.29437760772E+00  0.55114729340E+00  0.72670169909E+00  0.00000000000E+00 0.  1.
</event>
<event>
 7    1  0.1485408E-008  0.4614232E+02  0.7816164E-02  0.1320468E+00
        -11   -1    0    0    0    0  0.00000000000E+00  0.00000000000E+00  0.45593999997E+02  0.45594000000E+02  0.51100000000E-03 0.  1.
         11   -1    0    0    0    0 -0.00000000000E+00 -0.00000000000E+00 -0.45593999997E+02  0.45594000000E+02  0.51100000000E-03 0. -1.
    9900012    2    1    2    0    0  0.35710756791E+02 -0.25697516140E+02  0.96691738199E+01  0.46142318645E+02  0.10000008065E+02 0.  0.
         12    1    1    2    0    0 -0.35710756791E+02  0.25697516140E+02 -0.96691738199E+01  0.45045681355E+02  0.00000000000E+00 0. -1.
         11    1    3    3    0    0  0.55727104519E+01 -0.83841727483E+01  0.25871748207E+00  0.10070570463E+02  0.51100000000E-03 0. -1.
        -11    1    3    3    0    0  0.22937573398E+02 -0.12344668634E+02  0.76427362533E+01  0.27146538173E+02  0.51100000000E-03 0.  1.
         12    1    3    3    0    0  0.72004729407E+01 -0.49686747573E+01  0.17677200845E+01  0.89252100093E+01  0.00000000000E+00 0. -1.
</event>
<event>
 7    1  0.1485408E-008  0.4614232E+02  0.7816164E-02  0.1320468E+00
        -11   -1    0    0    0    0  0.00000000000E+00  0.00000000000E+00  0.45593999997E+02  0.45594000000E+02  0.51100000000E-03 0.  1.
         11   -1    0    0    0    0 -0.00000000000E+00 -0.00000000000E+00 -0.45593999997E+02  0.45594000000E+02  0.51100000000E-03 0. -1.
    9900012    2    1    2    0    0 -0.12925907902E+01  0.10717778547E+02  0.43732961156E+02  0.46142318083E+02  0.10000002931E+02 0.  0.
         12    1    1    2    0    0  0.12925907902E+01 -0.10717778547E+02 -0.43732961156E+02  0.45045681917E+02  0.00000000000E+00 0. -1.
         11    1    3    3    0    0  0.25953793474E+01  0.13730160154E+01  0.42998226868E+01  0.52066920722E+01  0.51100000000E-03 0. -1.
        -11    1    3    3    0    0 -0.18815205790E+00  0.57356736554E+01  0.23215894676E+02  0.23914663271E+02  0.51100000000E-03 0.  1.
         12    1    3    3    0    0 -0.36998180797E+01  0.36090888765E+01  0.16217243793E+02  0.17020962740E+02  0.00000000000E+00 0. -1.
</event>
<event>
 7    1  0.1485408E-008  0.4614232E+02  0.7816164E-02  0.1320468E+00
        -11   -1    0    0    0    0  0.00000000000E+00  0.00000000000E+00  0.45593999997E+02  0.45594000000E+02  0.51100000000E-03 0.  1.
         11   -1    0    0    0    0 -0.00000000000E+00 -0.00000000000E+00 -0.45593999997E+02  0.45594000000E+02  0.51100000000E-03 0. -1.
    9900012    2    1    2    0    0  0.27071240085E+02  0.21639651685E+02  0.28774764273E+02  0.46142316258E+02  0.99999862947E+01 0.  0.
         12    1    1    2    0    0 -0.27071240085E+02 -0.21639651685E+02 -0.28774764273E+02  0.45045683742E+02  0.00000000000E+00 0. -1.
         11    1    3    3    0    0  0.55438442815E+01  0.95660947747E+01  0.11131646797E+02  0.15689421256E+02  0.51100000000E-03 0. -1.
        -11    1    3    3    0    0  0.23407084670E+01  0.21130539373E+01  0.16275435102E+01  0.35486351191E+01  0.51100000000E-03 0.  1.
         12    1    3    3    0    0  0.19186687336E+02  0.99605029732E+01  0.16015573966E+02  0.26904259884E+02  0.00000000000E+00 0. -1.
</event>
<event>
 7    1  0.1485408E-008  0.4614232E+02  0.7816164E-02  0.1320468E+00
        -11   -1    0    0    0    0  0.00000000000E+00  0.00000000000E+00  0.45593999997E+02  0.45594000000E+02  0.51100000000E-03 0.  1.
         11   -1    0    0    0    0 -0.00000000000E+00 -0.00000000000E+00 -0.45593999997E+02  0.45594000000E+02  0.51100000000E-03 0. -1.
    9900012    2    1    2    0    0  0.60879315540E+01  0.33694977737E+02  0.29269421162E+02  0.46142318182E+02  0.10000003835E+02 0.  0.
         12    1    1    2    0    0 -0.60879315540E+01 -0.33694977737E+02 -0.29269421162E+02  0.45045681818E+02  0.00000000000E+00 0. -1.
         11    1    3    3    0    0  0.17184583081E+00  0.27283666284E+01  0.70589896725E+00  0.28234392257E+01  0.51100000000E-03 0. -1.
        -11    1    3    3    0    0  0.74518050473E+00  0.23287703552E+01  0.60515753795E+01  0.65268698613E+01  0.51100000000E-03 0.  1.
        -12    1    3    3    0    0  0.51709052185E+01  0.28637840754E+02  0.22511946815E+02  0.36792009095E+02  0.00000000000E+00 0.  1.
</event>
<event>
 7    1  0.1485408E-008  0.4614232E+02  0.7816164E-02  0.1320468E+00
        -11   -1    0    0    0    0  0.00000000000E+00  0.00000000000E+00  0.45593999997E+02  0.45594000000E+02  0.51100000000E-03 0.  1.
         11   -1    0    0    0    0 -0.00000000000E+00 -0.00000000000E+00 -0.45593999997E+02  0.45594000000E+02  0.51100000000E-03 0. -1.
    9900012    2    1    2    0    0 -0.30785876434E+02  0.81450460352E+01  0.31859088471E+02  0.46142317844E+02  0.10000000753E+02 0.  0.
         12    1    1    2    0    0  0.30785876434E+02 -0.81450460352E+01 -0.31859088471E+02  0.45045682156E+02  0.00000000000E+00 0. -1.
         11    1    3    3    0    0 -0.26979625370E+00  0.85449295306E+00  0.16576987447E+01  0.18843868007E+01  0.51100000000E-03 0. -1.
        -11    1    3    3    0    0 -0.27696294088E+02  0.40593779339E+01  0.27138135755E+02  0.38987711756E+02  0.51100000000E-03 0.  1.
        -12    1    3    3    0    0 -0.28197860917E+01  0.32311751482E+01  0.30632539714E+01  0.52702192871E+01  0.00000000000E+00 0.  1.
</event>
<event>
 7    1  0.1485408E-008  0.4614232E+02  0.7816164E-02  0.1320468E+00
        -11   -1    0    0    0    0  0.00000000000E+00  0.00000000000E+00  0.45593999997E+02  0.45594000000E+02  0.51100000000E-03 0. -1.
         11   -1    0    0    0    0 -0.00000000000E+00 -0.00000000000E+00 -0.45593999997E+02  0.45594000000E+02  0.51100000000E-03 0.  1.
    9900012    2    1    2    0    0 -0.28159282470E+02 -0.74704191886E+01 -0.34356384415E+02  0.46142317609E+02  0.99999986096E+01 0.  0.
         12    1    1    2    0    0  0.28159282470E+02  0.74704191886E+01  0.34356384415E+02  0.45045682391E+02  0.00000000000E+00 0. -1.
         11    1    3    3    0    0 -0.94960843309E+01  0.19356071800E+01 -0.11036041718E+02  0.14687287355E+02  0.51100000000E-03 0. -1.
        -11    1    3    3    0    0 -0.70704055113E+01 -0.30031183646E+01 -0.10610985004E+02  0.13099708280E+02  0.51100000000E-03 0.  1.
         12    1    3    3    0    0 -0.11592792628E+02 -0.64029080039E+01 -0.12709357693E+02  0.18355321974E+02  0.00000000000E+00 0. -1.
</event>
<event>
 7    1  0.1485408E-008  0.4614232E+02  0.7816164E-02  0.1320468E+00
        -11   -1    0    0    0    0  0.00000000000E+00  0.00000000000E+00  0.45593999997E+02  0.45594000000E+02  0.51100000000E-03 0.  1.
         11   -1    0    0    0    0 -0.00000000000E+00 -0.00000000000E+00 -0.45593999997E+02  0.45594000000E+02  0.51100000000E-03 0. -1.
    9900012    2    1    2    0    0 -0.33110878220E+02  0.14720256542E+01  0.30506004812E+02  0.46142318236E+02  0.10000004329E+02 0.  0.
         12    1    1    2    0    0  0.33110878220E+02 -0.14720256542E+01 -0.30506004812E+02  0.45045681764E+02  0.00000000000E+00 0. -1.
         11    1    3    3    0    0 -0.26137190916E+00 -0.84168098354E+00  0.22730194626E+01  0.24379007140E+01  0.51100000000E-03 0. -1.
        -11    1    3    3    0    0 -0.59973728379E+01 -0.43199348532E+00  0.28578443825E+01  0.66575050961E+01  0.51100000000E-03 0.  1.
         12    1    3    3    0    0 -0.26852133473E+02  0.27457001231E+01  0.25375140967E+02  0.37046912426E+02  0.00000000000E+00 0. -1.
</event>
<event>
 7    1  0.1485408E-008  0.4614232E+02  0.7816164E-02  0.1320468E+00
        -11   -1    0    0    0    0  0.00000000000E+00  0.00000000000E+00  0.45593999997E+02  0.45594000000E+02  0.51100000000E-03 0.  1.
         11   -1    0    0    0    0 -0.00000000000E+00 -0.00000000000E+00 -0.45593999997E+02  0.45594000000E+02  0.51100000000E-03 0. -1.
    9900012    2    1    2    0    0 -0.17828355939E+02  0.38459414725E+02  0.15236031515E+02  0.46142317490E+02  0.99999975282E+01 0.  0.
         12    1    1    2    0    0  0.17828355939E+02 -0.38459414725E+02 -0.15236031515E+02  0.45045682510E+02  0.00000000000E+00 0. -1.
         11    1    3    3    0    0 -0.70820223025E+01  0.82715675758E+01  0.56199152843E+01  0.12253869516E+02  0.51100000000E-03 0. -1.
        -11    1    3    3    0    0 -0.36572788871E+01  0.43234149751E+01  0.20611061155E+01  0.60262562662E+01  0.51100000000E-03 0.  1.
         12    1    3    3    0    0 -0.70890547492E+01  0.25864432174E+02  0.75550101153E+01  0.27862191708E+02  0.00000000000E+00 0. -1.
</event>
<event>
 7    1  0.1485408E-008  0.4614232E+02  0.7816164E-02  0.1320468E+00
        -11   -1    0    0    0    0  0.00000000000E+00  0.00000000000E+00  0.45593999997E+02  0.45594000000E+02  0.51100000000E-03 0.  1.
         11   -1    0    0    0    0 -0.00000000000E+00 -0.00000000000E+00 -0.45593999997E+02  0.45594000000E+02  0.51100000000E-03 0. -1.
    9900012    2    1    2    0    0 -0.27468588093E+02  0.13909061525E+02  0.32880513189E+02  0.46142317944E+02  0.10000001669E+02 0.  0.
         12    1    1    2    0    0  0.27468588093E+02 -0.13909061525E+02 -0.32880513189E+02  0.45045682056E+02  0.00000000000E+00 0. -1.
         11    1    3    3    0    0 -0.65305182008E+01  0.65423905398E+01  0.13430312618E+02  0.16304104981E+02  0.51100000000E-03 0.  1.
        -11    1    3    3    0    0 -0.92401618826E+01  0.15785631092E+01  0.10121319289E+02  0.13795417990E+02  0.51100000000E-03 0. -1.
         12    1    3    3    0    0 -0.11697908009E+02  0.57881078765E+01  0.93288812812E+01  0.16042794973E+02  0.00000000000E+00 0. -1.
</event>
<event>
 7    1  0.1485408E-008  0.4614232E+02  0.7816164E-02  0.1320468E+00
        -11   -1    0    0    0    0  0.00000000000E+00  0.00000000000E+00  0.45593999997E+02  0.45594000000E+02  0.51100000000E-03 0.  1.
         11   -1    0    0    0    0 -0.00000000000E+00 -0.00000000000E+00 -0.45593999997E+02  0.45594000000E+02  0.51100000000E-03 0. -1.
    9900012    2    1    2    0    0  0.19316943006E+02  0.40602781198E+02 -0.27172386464E+01  0.46142317477E+02  0.99999974055E+01 0.  0.
         12    1    1    2    0    0 -0.19316943006E+02 -0.40602781198E+02  0.27172386464E+01  0.45045682523E+02  0.00000000000E+00 0. -1.
         11    1    3    3    0    0  0.33647600504E+01  0.17252599347E+01 -0.95744785300E+00  0.39006202957E+01  0.51100000000E-03 0. -1.
        -11    1    3    3    0    0  0.81703037651E+01  0.18428650156E+02  0.10307276677E+01  0.20184930269E+02  0.51100000000E-03 0.  1.
        -12    1    3    3    0    0  0.77818791906E+01  0.20448871108E+02 -0.27905184611E+01  0.22056766912E+02  0.00000000000E+00 0.  1.
</event>
<event>
 7    1  0.1485408E-008  0.4614231E+02  0.7816164E-02  0.1320468E+00
        -11   -1    0    0    0    0  0.00000000000E+00  0.00000000000E+00  0.45593999997E+02  0.45594000000E+02  0.51100000000E-03 0. -1.
         11   -1    0    0    0    0 -0.00000000000E+00 -0.00000000000E+00 -0.45593999997E+02  0.45594000000E+02  0.51100000000E-03 0.  1.
    9900012    2    1    2    0    0 -0.63207089676E+01  0.42042916348E+02 -0.14884759196E+02  0.46142309493E+02  0.99999246048E+01 0.  0.
         12    1    1    2    0    0  0.63207089676E+01 -0.42042916348E+02  0.14884759196E+02  0.45045690507E+02  0.00000000000E+00 0. -1.
         11    1    3    3    0    0 -0.27443868100E+01  0.77627966853E+01 -0.51043670530E+01  0.96874782381E+01  0.51100000000E-03 0. -1.
        -11    1    3    3    0    0 -0.14261854762E+01  0.20041655730E+02 -0.22874870180E+01  0.20222130613E+02  0.51100000000E-03 0.  1.
         12    1    3    3    0    0 -0.21501366814E+01  0.14238463934E+02 -0.74929051246E+01  0.16232700642E+02  0.00000000000E+00 0. -1.
</event>
<event>
 7    1  0.1485408E-008  0.4614232E+02  0.7816164E-02  0.1320468E+00
        -11   -1    0    0    0    0  0.00000000000E+00  0.00000000000E+00  0.45593999997E+02  0.45594000000E+02  0.51100000000E-03 0.  1.
         11   -1    0    0    0    0 -0.00000000000E+00 -0.00000000000E+00 -0.45593999997E+02  0.45594000000E+02  0.51100000000E-03 0. -1.
    9900012    2    1    2    0    0  0.41518284148E+02 -0.39560722986E+00  0.17469661443E+02  0.46142317691E+02  0.99999993649E+01 0.  0.
         12    1    1    2    0    0 -0.41518284148E+02  0.39560722986E+00 -0.17469661443E+02  0.45045682309E+02  0.00000000000E+00 0. -1.
         11    1    3    3    0    0  0.16515142600E+01  0.18930262433E+01  0.60814310606E+00  0.25847409942E+01  0.51100000000E-03 0. -1.
        -11    1    3    3    0    0  0.34090620442E+02 -0.17594657296E+01  0.15977939018E+02  0.37690325778E+02  0.51100000000E-03 0.  1.
         12    1    3    3    0    0  0.57761494467E+01 -0.52916774352E+00  0.88357931883E+00  0.58672509188E+01  0.00000000000E+00 0. -1.
</event>
<event>
 7    1  0.1485408E-008  0.4614232E+02  0.7816164E-02  0.1320468E+00
        -11   -1    0    0    0    0  0.00000000000E+00  0.00000000000E+00  0.45593999997E+02  0.45594000000E+02  0.51100000000E-03 0. -1.
         11   -1    0    0    0    0 -0.00000000000E+00 -0.00000000000E+00 -0.45593999997E+02  0.45594000000E+02  0.51100000000E-03 0.  1.
    9900012    2    1    2    0    0 -0.94841067334E+01  0.11458412134E+00 -0.44035804886E+02  0.46142317388E+02  0.99999965934E+01 0.  0.
         12    1    1    2    0    0  0.94841067334E+01 -0.11458412134E+00  0.44035804886E+02  0.45045682612E+02  0.00000000000E+00 0. -1.
         11    1    3    3    0    0 -0.69582408492E+01 -0.13608443414E+01 -0.13088954714E+02  0.14885890931E+02  0.51100000000E-03 0. -1.
        -11    1    3    3    0    0 -0.30793293090E+01  0.17831107654E+01 -0.28773929969E+02  0.28993116409E+02  0.51100000000E-03 0.  1.
        -12    1    3    3    0    0  0.55346342486E+00 -0.30768230265E+00 -0.21729202027E+01  0.22633100471E+01  0.00000000000E+00 0.  1.
</event>
<event>
 7    1  0.1485408E-008  0.4614232E+02  0.7816164E-02  0.1320468E+00
        -11   -1    0    0    0    0  0.00000000000E+00  0.00000000000E+00  0.45593999997E+02  0.45594000000E+02  0.51100000000E-03 0. -1.
         11   -1    0    0    0    0 -0.00000000000E+00 -0.00000000000E+00 -0.45593999997E+02  0.45594000000E+02  0.51100000000E-03 0.  1.
    9900012    2    1    2    0    0  0.13206958292E+02 -0.25908955201E+02 -0.34400811034E+02  0.46142317558E+02  0.99999981447E+01 0.  0.
         12    1    1    2    0    0 -0.13206958292E+02  0.25908955201E+02  0.34400811034E+02  0.45045682442E+02  0.00000000000E+00 0. -1.
         11    1    3    3    0    0  0.82183283760E+01 -0.93065535512E+01 -0.12968793361E+02  0.17953898234E+02  0.51100000000E-03 0. -1.
        -11    1    3    3    0    0 -0.59210270288E+00 -0.81739733354E+01 -0.99565774715E+01  0.12895652791E+02  0.51100000000E-03 0.  1.
        -12    1    3    3    0    0  0.55807326188E+01 -0.84284283145E+01 -0.11475440201E+02  0.15292766533E+02  0.00000000000E+00 0.  1.
</event>
<event>
 7    1  0.1485408E-008  0.4614231E+02  0.7816164E-02  0.1320468E+00
        -11   -1    0    0    0    0  0.00000000000E+00  0.00000000000E+00  0.45593999997E+02  0.45594000000E+02  0.51100000000E-03 0. -1.
         11   -1    0    0    0    0 -0.00000000000E+00 -0.00000000000E+00 -0.45593999997E+02  0.45594000000E+02  0.51100000000E-03 0.  1.
    9900012    2    1    2    0    0 -0.31988796315E+02 -0.29207492093E+02 -0.12359332932E+02  0.46142314363E+02  0.99999690090E+01 0.  0.
         12    1    1    2    0    0  0.31988796315E+02  0.29207492093E+02  0.12359332932E+02  0.45045685637E+02  0.00000000000E+00 0. -1.
         11    1    3    3    0    0 -0.40378712265E+01 -0.47135647210E+01 -0.40797812962E+01  0.74274297106E+01  0.51100000000E-03 0. -1.
        -11    1    3    3    0    0 -0.27566817381E+02 -0.24881365239E+02 -0.85490163918E+01  0.38106396290E+02  0.51100000000E-03 0.  1.
        -12    1    3    3    0    0 -0.38410770755E+00  0.38743786735E+00  0.26946475592E+00  0.60848836204E+00  0.00000000000E+00 0.  1.
</event>
<event>
 7    1  0.1485408E-008  0.4614232E+02  0.7816164E-02  0.1320468E+00
        -11   -1    0    0    0    0  0.00000000000E+00  0.00000000000E+00  0.45593999997E+02  0.45594000000E+02  0.51100000000E-03 0. -1.
         11   -1    0    0    0    0 -0.00000000000E+00 -0.00000000000E+00 -0.45593999997E+02  0.45594000000E+02  0.51100000000E-03 0.  1.
    9900012    2    1    2    0    0  0.17923003452E+02 -0.13220788854E+02 -0.39154695089E+02  0.46142318096E+02  0.10000003052E+02 0.  0.
         12    1    1    2    0    0 -0.17923003452E+02  0.13220788854E+02  0.39154695089E+02  0.45045681904E+02  0.00000000000E+00 0. -1.
         11    1    3    3    0    0  0.68473147347E+01 -0.31829980916E+01 -0.20107653996E+02  0.21478709119E+02  0.51100000000E-03 0. -1.
        -11    1    3    3    0    0  0.11505755563E+02 -0.92901130682E+01 -0.18248053335E+02  0.23487870544E+02  0.51100000000E-03 0.  1.
         12    1    3    3    0    0 -0.43006684495E+00 -0.74767769469E+00 -0.79898775803E+00  0.11757384334E+01  0.00000000000E+00 0. -1.
</event>
<event>
 7    1  0.1485408E-008  0.4614232E+02  0.7816164E-02  0.1320468E+00
        -11   -1    0    0    0    0  0.00000000000E+00  0.00000000000E+00  0.45593999997E+02  0.45594000000E+02  0.51100000000E-03 0.  1.
         11   -1    0    0    0    0 -0.00000000000E+00 -0.00000000000E+00 -0.45593999997E+02  0.45594000000E+02  0.51100000000E-03 0. -1.
    9900012    2    1    2    0    0 -0.33043488000E+02  0.47526824717E+00  0.30610710058E+02  0.46142317084E+02  0.99999938262E+01 0.  0.
         12    1    1    2    0    0  0.33043488000E+02 -0.47526824717E+00 -0.30610710058E+02  0.45045682916E+02  0.00000000000E+00 0. -1.
         11    1    3    3    0    0 -0.13205964193E+02 -0.31870381359E+01  0.13725747023E+02  0.19311935013E+02  0.51100000000E-03 0. -1.
        -11    1    3    3    0    0 -0.87384429187E+01  0.98050746006E-01  0.45276059762E+01  0.98422159461E+01  0.51100000000E-03 0.  1.
         12    1    3    3    0    0 -0.11099080888E+02  0.35642556371E+01  0.12357357059E+02  0.16988166125E+02  0.00000000000E+00 0. -1.
</event>
<event>
 7    1  0.1485408E-008  0.4614232E+02  0.7816164E-02  0.1320468E+00
        -11   -1    0    0    0    0  0.00000000000E+00  0.00000000000E+00  0.45593999997E+02  0.45594000000E+02  0.51100000000E-03 0.  1.
         11   -1    0    0    0    0 -0.00000000000E+00 -0.00000000000E+00 -0.45593999997E+02  0.45594000000E+02  0.51100000000E-03 0. -1.
    9900012    2    1    2    0    0  0.17926460235E+02  0.18456859517E+01  0.41283760599E+02  0.46142318494E+02  0.10000006681E+02 0.  0.
         12    1    1    2    0    0 -0.17926460235E+02 -0.18456859517E+01 -0.41283760599E+02  0.45045681506E+02  0.00000000000E+00 0. -1.
         11    1    3    3    0    0  0.41288516240E+01  0.11681266757E+01  0.38985259880E+01  0.57974512334E+01  0.51100000000E-03 0. -1.
        -11    1    3    3    0    0  0.13088669750E+02  0.15149375148E+01  0.28573762903E+02  0.31465349803E+02  0.51100000000E-03 0.  1.
        -12    1    3    3    0    0  0.70893886049E+00 -0.83737823880E+00  0.88114717076E+01  0.88795174574E+01  0.00000000000E+00 0.  1.
</event>
<event>
 7    1  0.1485408E-008  0.4614232E+02  0.7816164E-02  0.1320468E+00
        -11   -1    0    0    0    0  0.00000000000E+00  0.00000000000E+00  0.45593999997E+02  0.45594000000E+02  0.51100000000E-03 0.  1.
         11   -1    0    0    0    0 -0.00000000000E+00 -0.00000000000E+00 -0.45593999997E+02  0.45594000000E+02  0.51100000000E-03 0. -1.
    9900012    2    1    2    0    0 -0.19851668831E+02 -0.28336721334E+02  0.28845361223E+02  0.46142318793E+02  0.10000009408E+02 0.  0.
         12    1    1    2    0    0  0.19851668831E+02  0.28336721334E+02 -0.28845361223E+02  0.45045681207E+02  0.00000000000E+00 0. -1.
         11    1    3    3    0    0 -0.99115617100E+01 -0.99706041856E+01  0.82051039442E+01  0.16278075266E+02  0.51100000000E-03 0. -1.
        -11    1    3    3    0    0 -0.18722829296E+01 -0.85887961125E+01  0.69453889719E+01  0.11203182149E+02  0.51100000000E-03 0.  1.
         12    1    3    3    0    0 -0.80678241913E+01 -0.97773210359E+01  0.13694868307E+02  0.18661061378E+02  0.00000000000E+00 0. -1.
</event>
<event>
 7    1  0.1485408E-008  0.4614233E+02  0.7816164E-02  0.1320468E+00
        -11   -1    0    0    0    0  0.00000000000E+00  0.00000000000E+00  0.45593999997E+02  0.45594000000E+02  0.51100000000E-03 0. -1.
         11   -1    0    0    0    0 -0.00000000000E+00 -0.00000000000E+00 -0.45593999997E+02  0.45594000000E+02  0.51100000000E-03 0.  1.
    9900012    2    1    2    0    0  0.13824792316E+02  0.16072744776E+02 -0.39744870984E+02  0.46142325660E+02  0.10000072030E+02 0.  0.
         12    1    1    2    0    0 -0.13824792316E+02 -0.16072744776E+02  0.39744870984E+02  0.45045674340E+02  0.00000000000E+00 0. -1.
         11    1    3    3    0    0  0.83594229282E+01  0.43857004604E+01 -0.23005427225E+02  0.24866925871E+02  0.51100000000E-03 0. -1.
        -11    1    3    3    0    0  0.13986631935E+01  0.35391809011E+01 -0.32754526122E+01  0.50210208380E+01  0.51100000000E-03 0.  1.
         12    1    3    3    0    0  0.40667061947E+01  0.81478634143E+01 -0.13463991146E+02  0.16254378951E+02  0.00000000000E+00 0. -1.
</event>
<event>
 7    1  0.1485408E-008  0.4614232E+02  0.7816164E-02  0.1320468E+00
        -11   -1    0    0    0    0  0.00000000000E+00  0.00000000000E+00  0.45593999997E+02  0.45594000000E+02  0.51100000000E-03 0.  1.
         11   -1    0    0    0    0 -0.00000000000E+00 -0.00000000000E+00 -0.45593999997E+02  0.45594000000E+02  0.51100000000E-03 0. -1.
    9900012    2    1    2    0    0  0.95348781662E+01  0.40523949813E+02  0.17204914444E+02  0.46142317731E+02  0.99999997255E+01 0.  0.
         12    1    1    2    0    0 -0.95348781662E+01 -0.40523949813E+02 -0.17204914444E+02  0.45045682269E+02  0.00000000000E+00 0. -1.
         11    1    3    3    0    0  0.32612243782E+00  0.54309069433E+01  0.30628446805E+01  0.62435665985E+01  0.51100000000E-03 0. -1.
        -11    1    3    3    0    0  0.72640840503E+01  0.28213889790E+02  0.14876480068E+02  0.32712385325E+02  0.51100000000E-03 0.  1.
        -12    1    3    3    0    0  0.19446716781E+01  0.68791530794E+01 -0.73441030486E+00  0.71863658076E+01  0.00000000000E+00 0.  1.
</event>
<event>
 7    1  0.1485408E-008  0.4614232E+02  0.7816164E-02  0.1320468E+00
        -11   -1    0    0    0    0  0.00000000000E+00  0.00000000000E+00  0.45593999997E+02  0.45594000000E+02  0.51100000000E-03 0.  1.
         11   -1    0    0    0    0 -0.00000000000E+00 -0.00000000000E+00 -0.45593999997E+02  0.45594000000E+02  0.51100000000E-03 0. -1.
    9900012    2    1    2    0    0 -0.28230062006E+02 -0.26313420816E+02  0.23233186097E+02  0.46142318163E+02  0.10000003664E+02 0.  0.
         12    1    1    2    0    0  0.28230062006E+02  0.26313420816E+02 -0.23233186097E+02  0.45045681837E+02  0.00000000000E+00 0. -1.
         11    1    3    3    0    0 -0.16444174059E+02 -0.11788964165E+02  0.89445044091E+01  0.22122266971E+02  0.51100000000E-03 0. -1.
        -11    1    3    3    0    0 -0.89934708046E+01 -0.76982087486E+01  0.99413453184E+01  0.15458825377E+02  0.51100000000E-03 0.  1.
         12    1    3    3    0    0 -0.27924171428E+01 -0.68262479030E+01  0.43473363698E+01  0.85612258144E+01  0.00000000000E+00 0. -1.
</event>
<event>
 7    1  0.1485408E-008  0.4614232E+02  0.7816164E-02  0.1320468E+00
        -11   -1    0    0    0    0  0.00000000000E+00  0.00000000000E+00  0.45593999997E+02  0.45594000000E+02  0.51100000000E-03 0.  1.
         11   -1    0    0    0    0 -0.00000000000E+00 -0.00000000000E+00 -0.45593999997E+02  0.45594000000E+02  0.51100000000E-03 0. -1.
    9900012    2    1    2    0    0 -0.96095103518E+01 -0.74479378239E+01  0.43373946358E+02  0.46142315527E+02  0.99999796261E+01 0.  0.
         12    1    1    2    0    0  0.96095103518E+01  0.74479378239E+01 -0.43373946358E+02  0.45045684473E+02  0.00000000000E+00 0. -1.
         11    1    3    3    0    0  0.35219111168E+00 -0.39048515174E+01  0.13759192553E+02  0.14306896376E+02  0.51100000000E-03 0.  1.
        -11    1    3    3    0    0 -0.53189441662E+01  0.45187347020E+00  0.10770807354E+02  0.12021050204E+02  0.51100000000E-03 0. -1.
         12    1    3    3    0    0 -0.46427572973E+01 -0.39949597767E+01  0.18843946450E+02  0.19814368947E+02  0.00000000000E+00 0. -1.
</event>
<event>
 7    1  0.1485408E-008  0.4614232E+02  0.7816164E-02  0.1320468E+00
        -11   -1    0    0    0    0  0.00000000000E+00  0.00000000000E+00  0.45593999997E+02  0.45594000000E+02  0.51100000000E-03 0.  1.
         11   -1    0    0    0    0 -0.00000000000E+00 -0.00000000000E+00 -0.45593999997E+02  0.45594000000E+02  0.51100000000E-03 0. -1.
    9900012    2    1    2    0    0  0.10837154586E+02 -0.33296786446E+02  0.28337143404E+02  0.46142316484E+02  0.99999883509E+01 0.  0.
         12    1    1    2    0    0 -0.10837154586E+02  0.33296786446E+02 -0.28337143404E+02  0.45045683516E+02  0.00000000000E+00 0. -1.
         11    1    3    3    0    0  0.87473414561E+01 -0.13896543620E+02  0.12035722642E+02  0.20358991304E+02  0.51100000000E-03 0. -1.
        -11    1    3    3    0    0  0.29328624899E+01 -0.89936968057E+01  0.88712832496E+01  0.12968728981E+02  0.51100000000E-03 0.  1.
        -12    1    3    3    0    0 -0.84304935965E+00 -0.10406546020E+02  0.74301375120E+01  0.12814596199E+02  0.00000000000E+00 0.  1.
</event>
<event>
 7    1  0.1485408E-008  0.4614232E+02  0.7816164E-02  0.1320468E+00
        -11   -1    0    0    0    0  0.00000000000E+00  0.00000000000E+00  0.45593999997E+02  0.45594000000E+02  0.51100000000E-03 0. -1.
         11   -1    0    0    0    0 -0.00000000000E+00 -0.00000000000E+00 -0.45593999997E+02  0.45594000000E+02  0.51100000000E-03 0.  1.
    9900012    2    1    2    0    0  0.31369120378E+02 -0.93937459194E+01 -0.30932980468E+02  0.46142318117E+02  0.10000003243E+02 0.  0.
         12    1    1    2    0    0 -0.31369120378E+02  0.93937459194E+01  0.30932980468E+02  0.45045681883E+02  0.00000000000E+00 0. -1.
         11    1    3    3    0    0  0.65926776396E+01 -0.63525741515E+01 -0.81896044371E+01  0.12283656536E+02  0.51100000000E-03 0. -1.
        -11    1    3    3    0    0  0.16463574447E+02 -0.92441940831E+00 -0.15515022852E+02  0.22641107949E+02  0.51100000000E-03 0.  1.
        -12    1    3    3    0    0  0.83128682922E+01 -0.21167523596E+01 -0.72283531791E+01  0.11217553632E+02  0.00000000000E+00 0.  1.
</event>
<event>
 7    1  0.1485408E-008  0.4614232E+02  0.7816164E-02  0.1320468E+00
        -11   -1    0    0    0    0  0.00000000000E+00  0.00000000000E+00  0.45593999997E+02  0.45594000000E+02  0.51100000000E-03 0. -1.
         11   -1    0    0    0    0 -0.00000000000E+00 -0.00000000000E+00 -0.45593999997E+02  0.45594000000E+02  0.51100000000E-03 0.  1.
    9900012    2    1    2    0    0  0.32513870452E+02 -0.29000301968E+02 -0.11443089947E+02  0.46142316594E+02  0.99999893575E+01 0.  0.
         12    1    1    2    0    0 -0.32513870452E+02  0.29000301968E+02  0.11443089947E+02  0.45045683406E+02  0.00000000000E+00 0. -1.
         11    1    3    3    0    0  0.52744914806E+01 -0.40466044869E+01 -0.47868267476E+01  0.81920070084E+01  0.51100000000E-03 0. -1.
        -11    1    3    3    0    0  0.23462457167E+02 -0.23778373070E+02 -0.58506948314E+01  0.33913545265E+02  0.51100000000E-03 0.  1.
        -12    1    3    3    0    0  0.37769218037E+01 -0.11753244108E+01 -0.80556836819E+00  0.40367643203E+01  0.00000000000E+00 0.  1.
</event>
<event>
 7    1  0.1485408E-008  0.4614232E+02  0.7816164E-02  0.1320468E+00
        -11   -1    0    0    0    0  0.00000000000E+00  0.00000000000E+00  0.45593999997E+02  0.45594000000E+02  0.51100000000E-03 0.  1.
         11   -1    0    0    0    0 -0.00000000000E+00 -0.00000000000E+00 -0.45593999997E+02  0.45594000000E+02  0.51100000000E-03 0. -1.
    9900012    2    1    2    0    0 -0.19263905719E+02  0.32827880861E+02  0.24090363920E+02  0.46142318086E+02  0.10000002959E+02 0.  0.
         12    1    1    2    0    0  0.19263905719E+02 -0.32827880861E+02 -0.24090363920E+02  0.45045681914E+02  0.00000000000E+00 0. -1.
         11    1    3    3    0    0 -0.72577216253E+01  0.10478782432E+02  0.34863879686E+01  0.13214927385E+02  0.51100000000E-03 0. -1.
        -11    1    3    3    0    0 -0.90165285329E+01  0.18580983817E+02  0.14904670604E+02  0.25469588777E+02  0.51100000000E-03 0.  1.
         12    1    3    3    0    0 -0.29896555605E+01  0.37681146111E+01  0.56993053474E+01  0.74578019239E+01  0.00000000000E+00 0. -1.
</event>
<event>
 7    1  0.1485408E-008  0.4614232E+02  0.7816164E-02  0.1320468E+00
        -11   -1    0    0    0    0  0.00000000000E+00  0.00000000000E+00  0.45593999997E+02  0.45594000000E+02  0.51100000000E-03 0.  1.
         11   -1    0    0    0    0 -0.00000000000E+00 -0.00000000000E+00 -0.45593999997E+02  0.45594000000E+02  0.51100000000E-03 0. -1.
    9900012    2    1    2    0    0  0.28752138506E+02 -0.34673548305E+02  0.41604823462E+00  0.46142317445E+02  0.99999971204E+01 0.  0.
         12    1    1    2    0    0 -0.28752138506E+02  0.34673548305E+02 -0.41604823462E+00  0.45045682555E+02  0.00000000000E+00 0. -1.
         11    1    3    3    0    0 -0.37221699248E+00 -0.26288956907E+01 -0.59172775423E+00  0.27202536716E+01  0.51100000000E-03 0. -1.
        -11    1    3    3    0    0  0.27780167089E+02 -0.31040855227E+02  0.46629613543E+00  0.41659210375E+02  0.51100000000E-03 0.  1.
         12    1    3    3    0    0  0.13441884094E+01 -0.10037973865E+01  0.54147985341E+00  0.17628533986E+01  0.00000000000E+00 0. -1.
</event>
<event>
 7    1  0.1485408E-008  0.4614232E+02  0.7816164E-02  0.1320468E+00
        -11   -1    0    0    0    0  0.00000000000E+00  0.00000000000E+00  0.45593999997E+02  0.45594000000E+02  0.51100000000E-03 0.  1.
         11   -1    0    0    0    0 -0.00000000000E+00 -0.00000000000E+00 -0.45593999997E+02  0.45594000000E+02  0.51100000000E-03 0. -1.
    9900012    2    1    2    0    0 -0.23649405379E+01  0.10977455683E+02  0.43623571754E+02  0.46142317748E+02  0.99999998768E+01 0.  0.
         12    1    1    2    0    0  0.23649405379E+01 -0.10977455683E+02 -0.43623571754E+02  0.45045682252E+02  0.00000000000E+00 0. -1.
         11    1    3    3    0    0  0.20428480747E+00  0.24088925576E+01  0.88722666451E+01  0.91957387587E+01  0.51100000000E-03 0. -1.
        -11    1    3    3    0    0  0.61470726505E+00  0.26726394139E+01  0.17082053720E+01  0.32309181841E+01  0.51100000000E-03 0.  1.
        -12    1    3    3    0    0 -0.31839326104E+01  0.58959237110E+01  0.33043099737E+02  0.33715660805E+02  0.00000000000E+00 0.  1.
</event>
<event>
 7    1  0.1485408E-008  0.4614232E+02  0.7816164E-02  0.1320468E+00
        -11   -1    0    0    0    0  0.00000000000E+00  0.00000000000E+00  0.45593999997E+02  0.45594000000E+02  0.51100000000E-03 0.  1.
         11   -1    0    0    0    0 -0.00000000000E+00 -0.00000000000E+00 -0.45593999997E+02  0.45594000000E+02  0.51100000000E-03 0. -1.
    9900012    2    1    2    0    0 -0.42350522486E+02 -0.66662805682E+01  0.13824161153E+02  0.46142317820E+02  0.10000000541E+02 0.  0.
         12    1    1    2    0    0  0.42350522486E+02  0.66662805682E+01 -0.13824161153E+02  0.45045682180E+02  0.00000000000E+00 0. -1.
         11    1    3    3    0    0 -0.20882295580E+02 -0.48438216688E+01  0.53091827773E+01  0.22084390394E+02  0.51100000000E-03 0. -1.
        -11    1    3    3    0    0 -0.17471913319E+02 -0.39667669454E+01  0.61471987923E+01  0.18941780494E+02  0.51100000000E-03 0.  1.
        -12    1    3    3    0    0 -0.39963135875E+01  0.21443080460E+01  0.23677795838E+01  0.51161469333E+01  0.00000000000E+00 0.  1.
</event>
<event>
 7    1  0.1485408E-008  0.4614232E+02  0.7816164E-02  0.1320468E+00
        -11   -1    0    0    0    0  0.00000000000E+00  0.00000000000E+00  0.45593999997E+02  0.45594000000E+02  0.51100000000E-03 0.  1.
         11   -1    0    0    0    0 -0.00000000000E+00 -0.00000000000E+00 -0.45593999997E+02  0.45594000000E+02  0.51100000000E-03 0. -1.
    9900012    2    1    2    0    0  0.23853112101E+02 -0.37828858414E+02  0.53962874496E+01  0.46142318697E+02  0.10000008531E+02 0.  0.
         12    1    1    2    0    0 -0.23853112101E+02  0.37828858414E+02 -0.53962874496E+01  0.45045681303E+02  0.00000000000E+00 0. -1.
         11    1    3    3    0    0  0.19218362080E+01 -0.55440591144E+01  0.35680816311E+01  0.68674050894E+01  0.51100000000E-03 0. -1.
        -11    1    3    3    0    0  0.77447868238E+01 -0.13452642157E+02 -0.84778693262E+00  0.15545869127E+02  0.51100000000E-03 0.  1.
         12    1    3    3    0    0  0.14186489070E+02 -0.18832157142E+02  0.26759927511E+01  0.23729044481E+02  0.00000000000E+00 0. -1.
</event>
<event>
 7    1  0.1485408E-008  0.4614232E+02  0.7816164E-02  0.1320468E+00
        -11   -1    0    0    0    0  0.00000000000E+00  0.00000000000E+00  0.45593999997E+02  0.45594000000E+02  0.51100000000E-03 0.  1.
         11   -1    0    0    0    0 -0.00000000000E+00 -0.00000000000E+00 -0.45593999997E+02  0.45594000000E+02  0.51100000000E-03 0. -1.
    9900012    2    1    2    0    0 -0.32650232556E+02  0.12160894674E+02  0.28551504676E+02  0.46142318026E+02  0.10000002414E+02 0.  0.
         12    1    1    2    0    0  0.32650232556E+02 -0.12160894674E+02 -0.28551504676E+02  0.45045681974E+02  0.00000000000E+00 0. -1.
         11    1    3    3    0    0  0.47552800569E+00  0.10195895003E+01  0.43258869999E+00  0.12053310242E+01  0.51100000000E-03 0. -1.
        -11    1    3    3    0    0 -0.31292505959E+02  0.98872645513E+01  0.26019793681E+02  0.41880885771E+02  0.51100000000E-03 0.  1.
        -12    1    3    3    0    0 -0.18332546029E+01  0.12540406226E+01  0.20991222950E+01  0.30561012306E+01  0.00000000000E+00 0.  1.
</event>
<event>
 7    1  0.1485408E-008  0.4614232E+02  0.7816164E-02  0.1320468E+00
        -11   -1    0    0    0    0  0.00000000000E+00  0.00000000000E+00  0.45593999997E+02  0.45594000000E+02  0.51100000000E-03 0.  1.
         11   -1    0    0    0    0 -0.00000000000E+00 -0.00000000000E+00 -0.45593999997E+02  0.45594000000E+02  0.51100000000E-03 0. -1.
    9900012    2    1    2    0    0  0.16112884857E+01 -0.44818382030E+02  0.42225282662E+01  0.46142319149E+02  0.10000012658E+02 0.  0.
         12    1    1    2    0    0 -0.16112884857E+01  0.44818382030E+02 -0.42225282662E+01  0.45045680851E+02  0.00000000000E+00 0. -1.
         11    1    3    3    0    0  0.17794620406E+01 -0.13501235950E+02 -0.24401134662E+01  0.13834883856E+02  0.51100000000E-03 0. -1.
        -11    1    3    3    0    0 -0.25960344333E-01 -0.12916073040E+02  0.49278168952E+01  0.13824217747E+02  0.51100000000E-03 0.  1.
         12    1    3    3    0    0 -0.14221321059E+00 -0.18401073040E+02  0.17348248372E+01  0.18483217546E+02  0.00000000000E+00 0. -1.
</event>
<event>
 7    1  0.1485408E-008  0.4614232E+02  0.7816164E-02  0.1320468E+00
        -11   -1    0    0    0    0  0.00000000000E+00  0.00000000000E+00  0.45593999997E+02  0.45594000000E+02  0.51100000000E-03 0.  1.
         11   -1    0    0    0    0 -0.00000000000E+00 -0.00000000000E+00 -0.45593999997E+02  0.45594000000E+02  0.51100000000E-03 0. -1.
    9900012    2    1    2    0    0 -0.25554036763E+02 -0.36104057056E+02  0.85206670631E+01  0.46142317654E+02  0.99999990215E+01 0.  0.
         12    1    1    2    0    0  0.25554036763E+02  0.36104057056E+02 -0.85206670631E+01  0.45045682346E+02  0.00000000000E+00 0. -1.
         11    1    3    3    0    0 -0.10165918572E+02 -0.13369241952E+02  0.45257135155E+01  0.17394384550E+02  0.51100000000E-03 0. -1.
        -11    1    3    3    0    0 -0.15318926436E+02 -0.19022563350E+02  0.49358692650E+01  0.24917669016E+02  0.51100000000E-03 0.  1.
         12    1    3    3    0    0 -0.69191754589E-01 -0.37122517551E+01 -0.94091571744E+00  0.38302640874E+01  0.00000000000E+00 0. -1.
</event>
<event>
 7    1  0.1485408E-008  0.4614232E+02  0.7816164E-02  0.1320468E+00
        -11   -1    0    0    0    0  0.00000000000E+00  0.00000000000E+00  0.45593999997E+02  0.45594000000E+02  0.51100000000E-03 0.  1.
         11   -1    0    0    0    0 -0.00000000000E+00 -0.00000000000E+00 -0.45593999997E+02  0.45594000000E+02  0.51100000000E-03 0. -1.
    9900012    2    1    2    0    0 -0.37948541551E+02 -0.24023594932E+02  0.34479799356E+01  0.46142317799E+02  0.10000000344E+02 0.  0.
         12    1    1    2    0    0  0.37948541551E+02  0.24023594932E+02 -0.34479799356E+01  0.45045682201E+02  0.00000000000E+00 0. -1.
         11    1    3    3    0    0 -0.10059827335E+02 -0.85347348951E+01 -0.22310001487E+01  0.13379805218E+02  0.51100000000E-03 0. -1.
        -11    1    3    3    0    0 -0.49661502262E+01 -0.97530709030E+00  0.89530916517E-01  0.50618067955E+01  0.51100000000E-03 0.  1.
         12    1    3    3    0    0 -0.22922563990E+02 -0.14513552947E+02  0.55894491678E+01  0.27700705785E+02  0.00000000000E+00 0. -1.
</event>
<event>
 7    1  0.1485408E-008  0.4614232E+02  0.7816164E-02  0.1320468E+00
        -11   -1    0    0    0    0  0.00000000000E+00  0.00000000000E+00  0.45593999997E+02  0.45594000000E+02  0.51100000000E-03 0.  1.
         11   -1    0    0    0    0 -0.00000000000E+00 -0.00000000000E+00 -0.45593999997E+02  0.45594000000E+02  0.51100000000E-03 0. -1.
    9900012    2    1    2    0    0  0.31224770424E+02  0.30992744422E+02  0.96735264661E+01  0.46142316421E+02  0.99999877805E+01 0.  0.
         12    1    1    2    0    0 -0.31224770424E+02 -0.30992744422E+02 -0.96735264661E+01  0.45045683579E+02  0.00000000000E+00 0. -1.
         11    1    3    3    0    0  0.96430685954E-01  0.10607997920E+01  0.15709437041E+01  0.18980146096E+01  0.51100000000E-03 0. -1.
        -11    1    3    3    0    0  0.29566886162E+02  0.27707845757E+02  0.63617558941E+01  0.41017038072E+02  0.51100000000E-03 0.  1.
        -12    1    3    3    0    0  0.15614535754E+01  0.22240988722E+01  0.17408268680E+01  0.32272637398E+01  0.00000000000E+00 0.  1.
</event>
<event>
 7    1  0.1485408E-008  0.4614232E+02  0.7816164E-02  0.1320468E+00
        -11   -1    0    0    0    0  0.00000000000E+00  0.00000000000E+00  0.45593999997E+02  0.45594000000E+02  0.51100000000E-03 0. -1.
         11   -1    0    0    0    0 -0.00000000000E+00 -0.00000000000E+00 -0.45593999997E+02  0.45594000000E+02  0.51100000000E-03 0.  1.
    9900012    2    1    2    0    0 -0.42126340812E+02 -0.12652776887E+02 -0.97155636837E+01  0.46142317289E+02  0.99999956961E+01 0.  0.
         12    1    1    2    0    0  0.42126340812E+02  0.12652776887E+02  0.97155636837E+01  0.45045682711E+02  0.00000000000E+00 0. -1.
         11    1    3    3    0    0 -0.41925958469E+01 -0.47821614322E+01 -0.16017362115E+01  0.65583905840E+01  0.51100000000E-03 0. -1.
        -11    1    3    3    0    0 -0.26794681695E+02 -0.54842924719E+01 -0.55725392004E+01  0.27912105339E+02  0.51100000000E-03 0.  1.
         12    1    3    3    0    0 -0.11139063271E+02 -0.23863229827E+01 -0.25412882718E+01  0.11671821367E+02  0.00000000000E+00 0. -1.
</event>
<event>
 7    1  0.1485408E-008  0.4614232E+02  0.7816164E-02  0.1320468E+00
        -11   -1    0    0    0    0  0.00000000000E+00  0.00000000000E+00  0.45593999997E+02  0.45594000000E+02  0.51100000000E-03 0. -1.
         11   -1    0    0    0    0 -0.00000000000E+00 -0.00000000000E+00 -0.45593999997E+02  0.45594000000E+02  0.51100000000E-03 0.  1.
    9900012    2    1    2    0    0 -0.29234299834E+02  0.71743454377E+01 -0.33511161373E+02  0.46142318122E+02  0.10000003291E+02 0.  0.
         12    1    1    2    0    0  0.29234299834E+02 -0.71743454377E+01  0.33511161373E+02  0.45045681878E+02  0.00000000000E+00 0. -1.
         11    1    3    3    0    0 -0.26696252615E+01  0.22240831813E+00 -0.70526909018E+00  0.27701568994E+01  0.51100000000E-03 0. -1.
        -11    1    3    3    0    0 -0.89826682525E+01  0.41798339208E+01 -0.16428497370E+02  0.19184756100E+02  0.51100000000E-03 0.  1.
        -12    1    3    3    0    0 -0.17582006320E+02  0.27721031987E+01 -0.16377394913E+02  0.24187405122E+02  0.00000000000E+00 0.  1.
</event>
<event>
 7    1  0.1485408E-008  0.4614232E+02  0.7816164E-02  0.1320468E+00
        -11   -1    0    0    0    0  0.00000000000E+00  0.00000000000E+00  0.45593999997E+02  0.45594000000E+02  0.51100000000E-03 0.  1.
         11   -1    0    0    0    0 -0.00000000000E+00 -0.00000000000E+00 -0.45593999997E+02  0.45594000000E+02  0.51100000000E-03 0. -1.
    9900012    2    1    2    0    0 -0.13650879640E+02  0.85351461251E+01  0.42070397099E+02  0.46142317117E+02  0.99999941297E+01 0.  0.
         12    1    1    2    0    0  0.13650879640E+02 -0.85351461251E+01 -0.42070397099E+02  0.45045682883E+02  0.00000000000E+00 0. -1.
         11    1    3    3    0    0 -0.10351204646E+02  0.92160519939E+01  0.27369907605E+02  0.30678899827E+02  0.51100000000E-03 0. -1.
        -11    1    3    3    0    0 -0.65080603406E+00  0.12276033356E+01  0.62866292198E+01  0.64383433935E+01  0.51100000000E-03 0.  1.
         12    1    3    3    0    0 -0.26488689598E+01 -0.19085092045E+01  0.84138602735E+01  0.90250738973E+01  0.00000000000E+00 0. -1.
</event>
<event>
 7    1  0.1485408E-008  0.4614232E+02  0.7816164E-02  0.1320468E+00
        -11   -1    0    0    0    0  0.00000000000E+00  0.00000000000E+00  0.45593999997E+02  0.45594000000E+02  0.51100000000E-03 0.  1.
         11   -1    0    0    0    0 -0.00000000000E+00 -0.00000000000E+00 -0.45593999997E+02  0.45594000000E+02  0.51100000000E-03 0. -1.
    9900012    2    1    2    0    0  0.42250338895E+02 -0.64252581300E+01  0.14238620715E+02  0.46142318757E+02  0.10000009085E+02 0.  0.
         12    1    1    2    0    0 -0.42250338895E+02  0.64252581300E+01 -0.14238620715E+02  0.45045681243E+02  0.00000000000E+00 0. -1.
         11    1    3    3    0    0  0.20124736532E+02 -0.36746094121E+01  0.11333411735E+02  0.23387047625E+02  0.51100000000E-03 0. -1.
        -11    1    3    3    0    0  0.10379636874E+02 -0.12207026790E+01 -0.39599484649E+00  0.10458670510E+02  0.51100000000E-03 0.  1.
        -12    1    3    3    0    0  0.11745965489E+02 -0.15299460389E+01  0.33012038263E+01  0.12296600622E+02  0.00000000000E+00 0.  1.
</event>
<event>
 7    1  0.1485408E-008  0.4614232E+02  0.7816164E-02  0.1320468E+00
        -11   -1    0    0    0    0  0.00000000000E+00  0.00000000000E+00  0.45593999997E+02  0.45594000000E+02  0.51100000000E-03 0. -1.
         11   -1    0    0    0    0 -0.00000000000E+00 -0.00000000000E+00 -0.45593999997E+02  0.45594000000E+02  0.51100000000E-03 0.  1.
    9900012    2    1    2    0    0  0.20677033077E+01  0.89499968362E+01 -0.44099156301E+02  0.46142318445E+02  0.10000006235E+02 0.  0.
         12    1    1    2    0    0 -0.20677033077E+01 -0.89499968362E+01  0.44099156301E+02  0.45045681555E+02  0.00000000000E+00 0. -1.
         11    1    3    3    0    0 -0.20227638213E+01  0.11214357684E+01 -0.25056097366E+01  0.34098786008E+01  0.51100000000E-03 0. -1.
        -11    1    3    3    0    0 -0.29653327403E+00  0.33875534909E+01 -0.18507221343E+02  0.18817031985E+02  0.51100000000E-03 0.  1.
         12    1    3    3    0    0  0.43870004030E+01  0.44410075769E+01 -0.23086325221E+02  0.23915407859E+02  0.00000000000E+00 0. -1.
</event>
<event>
 7    1  0.1485408E-008  0.4614232E+02  0.7816164E-02  0.1320468E+00
        -11   -1    0    0    0    0  0.00000000000E+00  0.00000000000E+00  0.45593999997E+02  0.45594000000E+02  0.51100000000E-03 0.  1.
         11   -1    0    0    0    0 -0.00000000000E+00 -0.00000000000E+00 -0.45593999997E+02  0.45594000000E+02  0.51100000000E-03 0. -1.
    9900012    2    1    2    0    0 -0.13425980036E+02 -0.26810178442E+02  0.33616527420E+02  0.46142317368E+02  0.99999964170E+01 0.  0.
         12    1    1    2    0    0  0.13425980036E+02  0.26810178442E+02 -0.33616527420E+02  0.45045682632E+02  0.00000000000E+00 0. -1.
         11    1    3    3    0    0 -0.59099989784E+01 -0.11592450557E+02  0.76928782310E+01  0.15115997274E+02  0.51100000000E-03 0. -1.
        -11    1    3    3    0    0 -0.75414216168E+01 -0.15215880096E+02  0.25717481498E+02  0.30818580466E+02  0.51100000000E-03 0.  1.
        -12    1    3    3    0    0  0.25440559098E-01 -0.18477887798E-02  0.20616769085E+00  0.20773962819E+00  0.00000000000E+00 0.  1.
</event>
<event>
 7    1  0.1485408E-008  0.4614232E+02  0.7816164E-02  0.1320468E+00
        -11   -1    0    0    0    0  0.00000000000E+00  0.00000000000E+00  0.45593999997E+02  0.45594000000E+02  0.51100000000E-03 0.  1.
         11   -1    0    0    0    0 -0.00000000000E+00 -0.00000000000E+00 -0.45593999997E+02  0.45594000000E+02  0.51100000000E-03 0. -1.
    9900012    2    1    2    0    0 -0.14168607989E+02 -0.42491471788E+02  0.47790006582E+01  0.46142317917E+02  0.10000001421E+02 0.  0.
         12    1    1    2    0    0  0.14168607989E+02  0.42491471788E+02 -0.47790006582E+01  0.45045682083E+02  0.00000000000E+00 0. -1.
         11    1    3    3    0    0 -0.35848961716E+01 -0.12368633089E+02 -0.23438677474E+01  0.13089242963E+02  0.51100000000E-03 0. -1.
        -11    1    3    3    0    0 -0.34096186347E+01 -0.80143322929E+01  0.40582319292E+01  0.96085518154E+01  0.51100000000E-03 0.  1.
        -12    1    3    3    0    0 -0.71740931829E+01 -0.22108506406E+02  0.30646364763E+01  0.23444523139E+02  0.00000000000E+00 0.  1.
</event>
<event>
 7    1  0.1485408E-008  0.4614232E+02  0.7816164E-02  0.1320468E+00
        -11   -1    0    0    0    0  0.00000000000E+00  0.00000000000E+00  0.45593999997E+02  0.45594000000E+02  0.51100000000E-03 0. -1.
         11   -1    0    0    0    0 -0.00000000000E+00 -0.00000000000E+00 -0.45593999997E+02  0.45594000000E+02  0.51100000000E-03 0.  1.
    9900012    2    1    2    0    0  0.91434257427E+01  0.41990730520E+02  0.13501473534E+02  0.46142317948E+02  0.10000001705E+02 0.  0.
         12    1    1    2    0    0 -0.91434257427E+01 -0.41990730520E+02 -0.13501473534E+02  0.45045682052E+02  0.00000000000E+00 0. -1.
         11    1    3    3    0    0 -0.27074559660E+00  0.62220531859E+01  0.26004617824E+01  0.67490481380E+01  0.51100000000E-03 0. -1.
        -11    1    3    3    0    0  0.35393240709E+01  0.32578526996E+01  0.16419534362E+01  0.50829548925E+01  0.51100000000E-03 0.  1.
         12    1    3    3    0    0  0.58748472684E+01  0.32510824635E+02  0.92590583151E+01  0.34310314918E+02  0.00000000000E+00 0. -1.
</event>
<event>
 7    1  0.1485408E-008  0.4614232E+02  0.7816164E-02  0.1320468E+00
        -11   -1    0    0    0    0  0.00000000000E+00  0.00000000000E+00  0.45593999997E+02  0.45594000000E+02  0.51100000000E-03 0. -1.
         11   -1    0    0    0    0 -0.00000000000E+00 -0.00000000000E+00 -0.45593999997E+02  0.45594000000E+02  0.51100000000E-03 0.  1.
    9900012    2    1    2    0    0 -0.43104980788E+02 -0.36678602924E+01  0.12554720192E+02  0.46142316888E+02  0.99999920418E+01 0.  0.
         12    1    1    2    0    0  0.43104980788E+02  0.36678602924E+01 -0.12554720192E+02  0.45045683112E+02  0.00000000000E+00 0. -1.
         11    1    3    3    0    0 -0.16936313683E+02 -0.30072340472E+01  0.45184666788E+01  0.17784788983E+02  0.51100000000E-03 0. -1.
        -11    1    3    3    0    0 -0.25134631239E+02  0.98298525719E+00  0.80660564906E+01  0.26415473024E+02  0.51100000000E-03 0.  1.
        -12    1    3    3    0    0 -0.10340358669E+01 -0.16436115024E+01 -0.29802977151E-01  0.19420548814E+01  0.00000000000E+00 0.  1.
</event>
<event>
 7    1  0.1485408E-008  0.4614232E+02  0.7816164E-02  0.1320468E+00
        -11   -1    0    0    0    0  0.00000000000E+00  0.00000000000E+00  0.45593999997E+02  0.45594000000E+02  0.51100000000E-03 0.  1.
         11   -1    0    0    0    0 -0.00000000000E+00 -0.00000000000E+00 -0.45593999997E+02  0.45594000000E+02  0.51100000000E-03 0. -1.
    9900012    2    1    2    0    0  0.10219089516E+02 -0.47578032901E+01  0.43612465422E+02  0.46142316268E+02  0.99999863859E+01 0.  0.
         12    1    1    2    0    0 -0.10219089516E+02  0.47578032901E+01 -0.43612465422E+02  0.45045683732E+02  0.00000000000E+00 0. -1.
         11    1    3    3    0    0  0.28963660804E+00 -0.40897396151E+01  0.17659381785E+02  0.18129082293E+02  0.51100000000E-03 0.  1.
        -11    1    3    3    0    0  0.48088185169E+01  0.67022103970E-01  0.80446472040E+01  0.93725970995E+01  0.51100000000E-03 0. -1.
        -12    1    3    3    0    0  0.51206343906E+01 -0.73508577892E+00  0.17908436433E+02  0.18640636876E+02  0.00000000000E+00 0.  1.
</event>
<event>
 7    1  0.1485408E-008  0.4614232E+02  0.7816164E-02  0.1320468E+00
        -11   -1    0    0    0    0  0.00000000000E+00  0.00000000000E+00  0.45593999997E+02  0.45594000000E+02  0.51100000000E-03 0. -1.
         11   -1    0    0    0    0 -0.00000000000E+00 -0.00000000000E+00 -0.45593999997E+02  0.45594000000E+02  0.51100000000E-03 0.  1.
    9900012    2    1    2    0    0  0.32101453613E+02  0.30762604812E+02 -0.72299541190E+01  0.46142318571E+02  0.10000007384E+02 0.  0.
         12    1    1    2    0    0 -0.32101453613E+02 -0.30762604812E+02  0.72299541190E+01  0.45045681429E+02  0.00000000000E+00 0. -1.
         11    1    3    3    0    0  0.61118127772E+01  0.93196327427E+01 -0.22339080041E+01  0.11366624614E+02  0.51100000000E-03 0. -1.
        -11    1    3    3    0    0  0.89495218544E+01  0.33421012345E+01 -0.15548194233E+01  0.96788969301E+01  0.51100000000E-03 0.  1.
        -12    1    3    3    0    0  0.17040118981E+02  0.18100870835E+02 -0.34412266917E+01  0.25096797027E+02  0.00000000000E+00 0.  1.
</event>
<event>
 7    1  0.1485408E-008  0.4614231E+02  0.7816164E-02  0.1320468E+00
        -11   -1    0    0    0    0  0.00000000000E+00  0.00000000000E+00  0.45593999997E+02  0.45594000000E+02  0.51100000000E-03 0.  1.
         11   -1    0    0    0    0 -0.00000000000E+00 -0.00000000000E+00 -0.45593999997E+02  0.45594000000E+02  0.51100000000E-03 0. -1.
    9900012    2    1    2    0    0  0.42242850369E+02 -0.93867717471E+01 -0.12511762048E+02  0.46142311187E+02  0.99999400515E+01 0.  0.
         12    1    1    2    0    0 -0.42242850369E+02  0.93867717471E+01  0.12511762048E+02  0.45045688813E+02  0.00000000000E+00 0. -1.
         11    1    3    3    0    0  0.83986072719E+01 -0.29505911607E+01 -0.44041348243E+01  0.99317166753E+01  0.51100000000E-03 0. -1.
        -11    1    3    3    0    0  0.48443364479E+01  0.57998512864E+00  0.10690699587E+01  0.49946860970E+01  0.51100000000E-03 0.  1.
        -12    1    3    3    0    0  0.28999906649E+02 -0.70161657150E+01 -0.91766971824E+01  0.31215908415E+02  0.00000000000E+00 0.  1.
</event>
<event>
 7    1  0.1485408E-008  0.4614232E+02  0.7816164E-02  0.1320468E+00
        -11   -1    0    0    0    0  0.00000000000E+00  0.00000000000E+00  0.45593999997E+02  0.45594000000E+02  0.51100000000E-03 0. -1.
         11   -1    0    0    0    0 -0.00000000000E+00 -0.00000000000E+00 -0.45593999997E+02  0.45594000000E+02  0.51100000000E-03 0.  1.
    9900012    2    1    2    0    0  0.24492878303E+02  0.66600420186E+01 -0.37213657134E+02  0.46142317360E+02  0.99999963380E+01 0.  0.
         12    1    1    2    0    0 -0.24492878303E+02 -0.66600420186E+01  0.37213657134E+02  0.45045682640E+02  0.00000000000E+00 0. -1.
         11    1    3    3    0    0  0.10022559387E+01 -0.27657513572E+00 -0.91989172619E-01  0.10437782529E+01  0.51100000000E-03 0. -1.
        -11    1    3    3    0    0  0.15098337001E+02  0.92804863727E+00 -0.19538607673E+02  0.24709881516E+02  0.51100000000E-03 0.  1.
         12    1    3    3    0    0  0.83922853634E+01  0.60085685170E+01 -0.17583060288E+02  0.20388657591E+02  0.00000000000E+00 0. -1.
</event>
<event>
 7    1  0.1485408E-008  0.4614232E+02  0.7816164E-02  0.1320468E+00
        -11   -1    0    0    0    0  0.00000000000E+00  0.00000000000E+00  0.45593999997E+02  0.45594000000E+02  0.51100000000E-03 0.  1.
         11   -1    0    0    0    0 -0.00000000000E+00 -0.00000000000E+00 -0.45593999997E+02  0.45594000000E+02  0.51100000000E-03 0. -1.
    9900012    2    1    2    0    0  0.44645340738E+02 -0.33091605202E+01 -0.49956431940E+01  0.46142318255E+02  0.10000004507E+02 0.  0.
         12    1    1    2    0    0 -0.44645340738E+02  0.33091605202E+01  0.49956431940E+01  0.45045681745E+02  0.00000000000E+00 0. -1.
         11    1    3    3    0    0  0.92269526867E+01 -0.28581941285E+01 -0.24377063136E+01  0.99623462042E+01  0.51100000000E-03 0. -1.
        -11    1    3    3    0    0  0.17055044175E+02 -0.29334919155E+01 -0.33752419863E+01  0.17631567297E+02  0.51100000000E-03 0.  1.
        -12    1    3    3    0    0  0.18363343876E+02  0.24825255238E+01  0.81730510586E+00  0.18548404754E+02  0.00000000000E+00 0.  1.
</event>
<event>
 7    1  0.1485408E-008  0.4614232E+02  0.7816164E-02  0.1320468E+00
        -11   -1    0    0    0    0  0.00000000000E+00  0.00000000000E+00  0.45593999997E+02  0.45594000000E+02  0.51100000000E-03 0. -1.
         11   -1    0    0    0    0 -0.00000000000E+00 -0.00000000000E+00 -0.45593999997E+02  0.45594000000E+02  0.51100000000E-03 0.  1.
    9900012    2    1    2    0    0  0.43931932693E+02 -0.99480179378E+01  0.36845643036E+00  0.46142317286E+02  0.99999956696E+01 0.  0.
         12    1    1    2    0    0 -0.43931932693E+02  0.99480179378E+01 -0.36845643036E+00  0.45045682714E+02  0.00000000000E+00 0. -1.
         11    1    3    3    0    0  0.86160413437E+01  0.13394569752E+01 -0.51380386079E+00  0.87346613039E+01  0.51100000000E-03 0. -1.
        -11    1    3    3    0    0  0.20379056792E+02 -0.82367794209E+01  0.22795324394E+01  0.22098569170E+02  0.51100000000E-03 0.  1.
         12    1    3    3    0    0  0.14936834557E+02 -0.30506954921E+01 -0.13972721483E+01  0.15309086813E+02  0.00000000000E+00 0. -1.
</event>
<event>
 7    1  0.1485408E-008  0.4614232E+02  0.7816164E-02  0.1320468E+00
        -11   -1    0    0    0    0  0.00000000000E+00  0.00000000000E+00  0.45593999997E+02  0.45594000000E+02  0.51100000000E-03 0.  1.
         11   -1    0    0    0    0 -0.00000000000E+00 -0.00000000000E+00 -0.45593999997E+02  0.45594000000E+02  0.51100000000E-03 0. -1.
    9900012    2    1    2    0    0 -0.38609259042E+02  0.16472327211E+01  0.23145740638E+02  0.46142316864E+02  0.99999918238E+01 0.  0.
         12    1    1    2    0    0  0.38609259042E+02 -0.16472327211E+01 -0.23145740638E+02  0.45045683136E+02  0.00000000000E+00 0. -1.
         11    1    3    3    0    0 -0.18448653829E+02  0.25235131723E+01  0.60184683484E+01  0.19568927113E+02  0.51100000000E-03 0. -1.
        -11    1    3    3    0    0 -0.13918549818E+02 -0.16136669351E+01  0.11268023488E+02  0.17980497869E+02  0.51100000000E-03 0.  1.
         12    1    3    3    0    0 -0.62420553952E+01  0.73738648383E+00  0.58592488018E+01  0.85928918825E+01  0.00000000000E+00 0. -1.
</event>
<event>
 7    1  0.1485408E-008  0.4614232E+02  0.7816164E-02  0.1320468E+00
        -11   -1    0    0    0    0  0.00000000000E+00  0.00000000000E+00  0.45593999997E+02  0.45594000000E+02  0.51100000000E-03 0.  1.
         11   -1    0    0    0    0 -0.00000000000E+00 -0.00000000000E+00 -0.45593999997E+02  0.45594000000E+02  0.51100000000E-03 0. -1.
    9900012    2    1    2    0    0  0.31936225202E+02 -0.28169190219E+02  0.14686310384E+02  0.46142317960E+02  0.10000001818E+02 0.  0.
         12    1    1    2    0    0 -0.31936225202E+02  0.28169190219E+02 -0.14686310384E+02  0.45045682040E+02  0.00000000000E+00 0. -1.
         11    1    3    3    0    0  0.11182805782E+01 -0.19329875615E+01  0.23209743596E+01  0.32208561911E+01  0.51100000000E-03 0. -1.
        -11    1    3    3    0    0  0.24725504532E+02 -0.21368991344E+02  0.69041523210E+01  0.33401372501E+02  0.51100000000E-03 0.  1.
         12    1    3    3    0    0  0.60924400914E+01 -0.48672113129E+01  0.54611837032E+01  0.95200892680E+01  0.00000000000E+00 0. -1.
</event>
<event>
 7    1  0.1485408E-008  0.4614232E+02  0.7816164E-02  0.1320468E+00
        -11   -1    0    0    0    0  0.00000000000E+00  0.00000000000E+00  0.45593999997E+02  0.45594000000E+02  0.51100000000E-03 0. -1.
         11   -1    0    0    0    0 -0.00000000000E+00 -0.00000000000E+00 -0.45593999997E+02  0.45594000000E+02  0.51100000000E-03 0.  1.
    9900012    2    1    2    0    0  0.14562862086E+02 -0.44900925277E+01 -0.42389568281E+02  0.46142318941E+02  0.10000010758E+02 0.  0.
         12    1    1    2    0    0 -0.14562862086E+02  0.44900925277E+01  0.42389568281E+02  0.45045681059E+02  0.00000000000E+00 0. -1.
         11    1    3    3    0    0  0.46119192512E+01 -0.32474136944E+01 -0.93509738546E+01  0.10920449037E+02  0.51100000000E-03 0. -1.
        -11    1    3    3    0    0  0.48322796927E+01  0.54379635225E+00 -0.25361394891E+02  0.25823380735E+02  0.51100000000E-03 0.  1.
        -12    1    3    3    0    0  0.51186631426E+01 -0.17864751856E+01 -0.76771995350E+01  0.93984891688E+01  0.00000000000E+00 0.  1.
</event>
<event>
 7    1  0.1560101E-008  0.4614232E+02  0.7816164E-02  0.1320468E+00
        -11   -1    0    0    0    0  0.00000000000E+00  0.00000000000E+00  0.45593999997E+02  0.45594000000E+02  0.51100000000E-03 0. -1.
         11   -1    0    0    0    0 -0.00000000000E+00 -0.00000000000E+00 -0.45593999997E+02  0.45594000000E+02  0.51100000000E-03 0.  1.
    9900012    2    1    2    0    0 -0.13696055276E+02 -0.37474811082E+02 -0.20908614809E+02  0.46142316867E+02  0.99999918440E+01 0.  0.
         12    1    1    2    0    0  0.13696055276E+02  0.37474811082E+02  0.20908614809E+02  0.45045683133E+02  0.00000000000E+00 0. -1.
         11    1    3    3    0    0  0.47526339299E+00 -0.68287180473E+01 -0.59760811825E+01  0.90868482997E+01  0.51100000000E-03 0. -1.
        -11    1    3    3    0    0 -0.55527960490E+01 -0.14975787157E+02 -0.59699476555E+01  0.17051334851E+02  0.51100000000E-03 0.  1.
         12    1    3    3    0    0 -0.86185226195E+01 -0.15670305877E+02 -0.89625859706E+01  0.20004133716E+02  0.00000000000E+00 0. -1.
</event>
<event>
 7    1  0.1485408E-008  0.4614232E+02  0.7816164E-02  0.1320468E+00
        -11   -1    0    0    0    0  0.00000000000E+00  0.00000000000E+00  0.45593999997E+02  0.45594000000E+02  0.51100000000E-03 0.  1.
         11   -1    0    0    0    0 -0.00000000000E+00 -0.00000000000E+00 -0.45593999997E+02  0.45594000000E+02  0.51100000000E-03 0. -1.
    9900012    2    1    2    0    0  0.23709311070E+02 -0.30813353203E+02  0.22749050884E+02  0.46142317819E+02  0.10000000529E+02 0.  0.
         12    1    1    2    0    0 -0.23709311070E+02  0.30813353203E+02 -0.22749050884E+02  0.45045682181E+02  0.00000000000E+00 0. -1.
         11    1    3    3    0    0  0.11242727832E+02 -0.95904353354E+01  0.48067322797E+01  0.15539628519E+02  0.51100000000E-03 0. -1.
        -11    1    3    3    0    0  0.10031133249E+02 -0.19017360212E+02  0.15361721871E+02  0.26424725595E+02  0.51100000000E-03 0.  1.
        -12    1    3    3    0    0  0.24354499895E+01 -0.22055576557E+01  0.25805967333E+01  0.41779637055E+01  0.00000000000E+00 0.  1.
</event>
<event>
 7    1  0.1485408E-008  0.4614232E+02  0.7816164E-02  0.1320468E+00
        -11   -1    0    0    0    0  0.00000000000E+00  0.00000000000E+00  0.45593999997E+02  0.45594000000E+02  0.51100000000E-03 0.  1.
         11   -1    0    0    0    0 -0.00000000000E+00 -0.00000000000E+00 -0.45593999997E+02  0.45594000000E+02  0.51100000000E-03 0. -1.
    9900012    2    1    2    0    0  0.16180313519E+02  0.30040013799E+02  0.29409327133E+02  0.46142317665E+02  0.99999991215E+01 0.  0.
         12    1    1    2    0    0 -0.16180313519E+02 -0.30040013799E+02 -0.29409327133E+02  0.45045682335E+02  0.00000000000E+00 0. -1.
         11    1    3    3    0    0  0.89289894585E+00  0.58361160998E+01  0.41565558691E+01  0.72204208058E+01  0.51100000000E-03 0. -1.
        -11    1    3    3    0    0  0.13399234504E+02  0.14710582658E+02  0.17928648492E+02  0.26783897484E+02  0.51100000000E-03 0.  1.
        -12    1    3    3    0    0  0.18881800690E+01  0.94933150409E+01  0.73241227720E+01  0.12137999375E+02  0.00000000000E+00 0.  1.
</event>
<event>
 7    1  0.1485408E-008  0.4614232E+02  0.7816164E-02  0.1320468E+00
        -11   -1    0    0    0    0  0.00000000000E+00  0.00000000000E+00  0.45593999997E+02  0.45594000000E+02  0.51100000000E-03 0.  1.
         11   -1    0    0    0    0 -0.00000000000E+00 -0.00000000000E+00 -0.45593999997E+02  0.45594000000E+02  0.51100000000E-03 0. -1.
    9900012    2    1    2    0    0  0.35043608151E+02  0.16955870534E+02  0.22661802989E+02  0.46142319491E+02  0.10000015777E+02 0.  0.
         12    1    1    2    0    0 -0.35043608151E+02 -0.16955870534E+02 -0.22661802989E+02  0.45045680509E+02  0.00000000000E+00 0. -1.
         11    1    3    3    0    0 -0.30370140840E+00 -0.61884977663E-02 -0.34346626875E+00  0.45852173542E+00  0.51100000000E-03 0. -1.
        -11    1    3    3    0    0  0.22899919263E+02  0.10816773588E+02  0.17324770009E+02  0.30684793452E+02  0.51100000000E-03 0.  1.
         12    1    3    3    0    0  0.12447390297E+02  0.61452854442E+01  0.56804992485E+01  0.14999004304E+02  0.00000000000E+00 0. -1.
</event>
<event>
 7    1  0.1485408E-008  0.4614232E+02  0.7816164E-02  0.1320468E+00
        -11   -1    0    0    0    0  0.00000000000E+00  0.00000000000E+00  0.45593999997E+02  0.45594000000E+02  0.51100000000E-03 0. -1.
         11   -1    0    0    0    0 -0.00000000000E+00 -0.00000000000E+00 -0.45593999997E+02  0.45594000000E+02  0.51100000000E-03 0.  1.
    9900012    2    1    2    0    0  0.18529376083E+02 -0.38141804438E+02  0.15197972257E+02  0.46142318914E+02  0.10000010512E+02 0.  0.
         12    1    1    2    0    0 -0.18529376083E+02  0.38141804438E+02 -0.15197972257E+02  0.45045681086E+02  0.00000000000E+00 0. -1.
         11    1    3    3    0    0  0.41149299207E+01 -0.82710235425E+01  0.62332626137E+01  0.11144327784E+02  0.51100000000E-03 0. -1.
        -11    1    3    3    0    0  0.85252118188E+01 -0.24185226578E+02  0.67000777749E+01  0.26504630985E+02  0.51100000000E-03 0.  1.
        -12    1    3    3    0    0  0.58892343436E+01 -0.56855543168E+01  0.22646318682E+01  0.84933601444E+01  0.00000000000E+00 0.  1.
</event>
<event>
 7    1  0.1485408E-008  0.4614232E+02  0.7816164E-02  0.1320468E+00
        -11   -1    0    0    0    0  0.00000000000E+00  0.00000000000E+00  0.45593999997E+02  0.45594000000E+02  0.51100000000E-03 0. -1.
         11   -1    0    0    0    0 -0.00000000000E+00 -0.00000000000E+00 -0.45593999997E+02  0.45594000000E+02  0.51100000000E-03 0.  1.
    9900012    2    1    2    0    0  0.39402764769E+02  0.20262414814E+02 -0.81222030867E+01  0.46142317537E+02  0.99999979586E+01 0.  0.
         12    1    1    2    0    0 -0.39402764769E+02 -0.20262414814E+02  0.81222030867E+01  0.45045682463E+02  0.00000000000E+00 0. -1.
         11    1    3    3    0    0  0.10674481158E+02  0.40469858037E+01  0.12046119497E+01  0.11479274032E+02  0.51100000000E-03 0. -1.
        -11    1    3    3    0    0  0.10979254390E+02  0.60629598108E+01 -0.61551279020E+01  0.13971009569E+02  0.51100000000E-03 0.  1.
         12    1    3    3    0    0  0.17749029221E+02  0.10152469199E+02 -0.31716871344E+01  0.20692033936E+02  0.00000000000E+00 0. -1.
</event>
<event>
 7    1  0.1485408E-008  0.4614232E+02  0.7816164E-02  0.1320468E+00
        -11   -1    0    0    0    0  0.00000000000E+00  0.00000000000E+00  0.45593999997E+02  0.45594000000E+02  0.51100000000E-03 0.  1.
         11   -1    0    0    0    0 -0.00000000000E+00 -0.00000000000E+00 -0.45593999997E+02  0.45594000000E+02  0.51100000000E-03 0. -1.
    9900012    2    1    2    0    0 -0.25297710770E+02 -0.24270670978E+02  0.28285578633E+02  0.46142316538E+02  0.99999888477E+01 0.  0.
         12    1    1    2    0    0  0.25297710770E+02  0.24270670978E+02 -0.28285578633E+02  0.45045683462E+02  0.00000000000E+00 0. -1.
         11    1    3    3    0    0 -0.12751553276E+01 -0.66853420380E-01 -0.20666943130E+00  0.12935234842E+01  0.51100000000E-03 0. -1.
        -11    1    3    3    0    0 -0.16027401542E+02 -0.19909206146E+02  0.21168948769E+02  0.33187022792E+02  0.51100000000E-03 0.  1.
        -12    1    3    3    0    0 -0.79951539006E+01 -0.42946114120E+01  0.73232992952E+01  0.11661770262E+02  0.00000000000E+00 0.  1.
</event>
<event>
 7    1  0.1485408E-008  0.4614232E+02  0.7816164E-02  0.1320468E+00
        -11   -1    0    0    0    0  0.00000000000E+00  0.00000000000E+00  0.45593999997E+02  0.45594000000E+02  0.51100000000E-03 0.  1.
         11   -1    0    0    0    0 -0.00000000000E+00 -0.00000000000E+00 -0.45593999997E+02  0.45594000000E+02  0.51100000000E-03 0. -1.
    9900012    2    1    2    0    0  0.75368329948E+01 -0.27006607620E+02  0.35255535892E+02  0.46142317434E+02  0.99999970214E+01 0.  0.
         12    1    1    2    0    0 -0.75368329948E+01  0.27006607620E+02 -0.35255535892E+02  0.45045682566E+02  0.00000000000E+00 0. -1.
         11    1    3    3    0    0  0.12958786744E+01 -0.99942838702E+01  0.14603261458E+02  0.17743174944E+02  0.51100000000E-03 0. -1.
        -11    1    3    3    0    0 -0.25639205143E+00 -0.78002269899E+01  0.11399730833E+02  0.13815322700E+02  0.51100000000E-03 0.  1.
        -12    1    3    3    0    0  0.64973463718E+01 -0.92120967600E+01  0.92525436013E+01  0.14583819791E+02  0.00000000000E+00 0.  1.
</event>
<event>
 7    1  0.1485408E-008  0.4614232E+02  0.7816164E-02  0.1320468E+00
        -11   -1    0    0    0    0  0.00000000000E+00  0.00000000000E+00  0.45593999997E+02  0.45594000000E+02  0.51100000000E-03 0. -1.
         11   -1    0    0    0    0 -0.00000000000E+00 -0.00000000000E+00 -0.45593999997E+02  0.45594000000E+02  0.51100000000E-03 0.  1.
    9900012    2    1    2    0    0 -0.34527480267E+02 -0.27716898697E+02 -0.82909648598E+01  0.46142318018E+02  0.10000002341E+02 0.  0.
         12    1    1    2    0    0  0.34527480267E+02  0.27716898697E+02  0.82909648598E+01  0.45045681982E+02  0.00000000000E+00 0. -1.
         11    1    3    3    0    0 -0.18339992794E+02 -0.13699062372E+02 -0.86874573596E+00  0.22907954186E+02  0.51100000000E-03 0. -1.
        -11    1    3    3    0    0 -0.11135838093E+01 -0.28473349546E+01  0.13397287183E-02  0.30573497183E+01  0.51100000000E-03 0.  1.
        -12    1    3    3    0    0 -0.15073903663E+02 -0.11170501370E+02 -0.74235588526E+01  0.20177014114E+02  0.00000000000E+00 0.  1.
</event>
<event>
 7    1  0.1485408E-008  0.4614232E+02  0.7816164E-02  0.1320468E+00
        -11   -1    0    0    0    0  0.00000000000E+00  0.00000000000E+00  0.45593999997E+02  0.45594000000E+02  0.51100000000E-03 0.  1.
         11   -1    0    0    0    0 -0.00000000000E+00 -0.00000000000E+00 -0.45593999997E+02  0.45594000000E+02  0.51100000000E-03 0. -1.
    9900012    2    1    2    0    0 -0.16146887133E+02  0.17253960242E+02  0.38349608143E+02  0.46142317046E+02  0.99999934786E+01 0.  0.
         12    1    1    2    0    0  0.16146887133E+02 -0.17253960242E+02 -0.38349608143E+02  0.45045682954E+02  0.00000000000E+00 0. -1.
         11    1    3    3    0    0 -0.27675082967E+01 -0.39381068403E+00  0.26217551306E+01  0.38324651666E+01  0.51100000000E-03 0. -1.
        -11    1    3    3    0    0 -0.10358375567E+02  0.14522468850E+02  0.24797471321E+02  0.30546892314E+02  0.51100000000E-03 0.  1.
        -12    1    3    3    0    0 -0.30210032686E+01  0.31253020761E+01  0.10930381691E+02  0.11762959565E+02  0.00000000000E+00 0.  1.
</event>
<event>
 7    1  0.1485408E-008  0.4614232E+02  0.7816164E-02  0.1320468E+00
        -11   -1    0    0    0    0  0.00000000000E+00  0.00000000000E+00  0.45593999997E+02  0.45594000000E+02  0.51100000000E-03 0. -1.
         11   -1    0    0    0    0 -0.00000000000E+00 -0.00000000000E+00 -0.45593999997E+02  0.45594000000E+02  0.51100000000E-03 0.  1.
    9900012    2    1    2    0    0 -0.98571020301E+01  0.15138026062E+02 -0.41264890485E+02  0.46142317851E+02  0.10000000821E+02 0.  0.
         12    1    1    2    0    0  0.98571020301E+01 -0.15138026062E+02  0.41264890485E+02  0.45045682149E+02  0.00000000000E+00 0. -1.
         11    1    3    3    0    0 -0.81420350589E+01  0.44894004158E+01 -0.17277015436E+02  0.19619957024E+02  0.51100000000E-03 0. -1.
        -11    1    3    3    0    0 -0.29037187287E+00  0.77245198138E+01 -0.19528577021E+02  0.21002805596E+02  0.51100000000E-03 0.  1.
         12    1    3    3    0    0 -0.14246950983E+01  0.29241058324E+01 -0.44592980282E+01  0.55195552308E+01  0.00000000000E+00 0. -1.
</event>
<event>
 7    1  0.1485408E-008  0.4614232E+02  0.7816164E-02  0.1320468E+00
        -11   -1    0    0    0    0  0.00000000000E+00  0.00000000000E+00  0.45593999997E+02  0.45594000000E+02  0.51100000000E-03 0.  1.
         11   -1    0    0    0    0 -0.00000000000E+00 -0.00000000000E+00 -0.45593999997E+02  0.45594000000E+02  0.51100000000E-03 0. -1.
    9900012    2    1    2    0    0  0.11353314530E+02  0.34502905787E+02  0.26641419060E+02  0.46142317986E+02  0.10000002053E+02 0.  0.
         12    1    1    2    0    0 -0.11353314530E+02 -0.34502905787E+02 -0.26641419060E+02  0.45045682014E+02  0.00000000000E+00 0. -1.
         11    1    3    3    0    0  0.10643446594E+01 -0.25400257262E+00  0.27222399493E+00  0.11275872584E+01  0.51100000000E-03 0. -1.
        -11    1    3    3    0    0  0.79121703709E+01  0.29318400552E+02  0.23630221739E+02  0.38478025295E+02  0.51100000000E-03 0.  1.
         12    1    3    3    0    0  0.23767995000E+01  0.54385078079E+01  0.27389733258E+01  0.65367054331E+01  0.00000000000E+00 0. -1.
</event>
<event>
 7    1  0.1485408E-008  0.4614232E+02  0.7816164E-02  0.1320468E+00
        -11   -1    0    0    0    0  0.00000000000E+00  0.00000000000E+00  0.45593999997E+02  0.45594000000E+02  0.51100000000E-03 0.  1.
         11   -1    0    0    0    0 -0.00000000000E+00 -0.00000000000E+00 -0.45593999997E+02  0.45594000000E+02  0.51100000000E-03 0. -1.
    9900012    2    1    2    0    0 -0.17496920489E+02 -0.21712335112E+02  0.35377192522E+02  0.46142317928E+02  0.10000001522E+02 0.  0.
         12    1    1    2    0    0  0.17496920489E+02  0.21712335112E+02 -0.35377192522E+02  0.45045682072E+02  0.00000000000E+00 0. -1.
         11    1    3    3    0    0 -0.12380243985E+02 -0.12446858553E+02  0.14904311979E+02  0.23028965344E+02  0.51100000000E-03 0. -1.
        -11    1    3    3    0    0 -0.50273502790E+01 -0.92366402882E+01  0.20476891229E+02  0.23019401584E+02  0.51100000000E-03 0.  1.
        -12    1    3    3    0    0 -0.89326224310E-01 -0.28836270661E-01 -0.40106855118E-02  0.93951000279E-01  0.00000000000E+00 0.  1.
</event>
<event>
 7    1  0.1485408E-008  0.4614232E+02  0.7816164E-02  0.1320468E+00
        -11   -1    0    0    0    0  0.00000000000E+00  0.00000000000E+00  0.45593999997E+02  0.45594000000E+02  0.51100000000E-03 0.  1.
         11   -1    0    0    0    0 -0.00000000000E+00 -0.00000000000E+00 -0.45593999997E+02  0.45594000000E+02  0.51100000000E-03 0. -1.
    9900012    2    1    2    0    0  0.38681809088E+02  0.16359003099E+02  0.16285387615E+02  0.46142321112E+02  0.10000030557E+02 0.  0.
         12    1    1    2    0    0 -0.38681809088E+02 -0.16359003099E+02 -0.16285387615E+02  0.45045678888E+02  0.00000000000E+00 0. -1.
         11    1    3    3    0    0  0.70629331042E+01  0.29804181280E+01 -0.81613967037E+00  0.77093450094E+01  0.51100000000E-03 0. -1.
        -11    1    3    3    0    0  0.19345585760E+02  0.91191998802E+01  0.11531374789E+02  0.24297820882E+02  0.51100000000E-03 0.  1.
         12    1    3    3    0    0  0.12273290224E+02  0.42593850911E+01  0.55701524967E+01  0.14135155220E+02  0.00000000000E+00 0. -1.
</event>
<event>
 7    1  0.1485408E-008  0.4614232E+02  0.7816164E-02  0.1320468E+00
        -11   -1    0    0    0    0  0.00000000000E+00  0.00000000000E+00  0.45593999997E+02  0.45594000000E+02  0.51100000000E-03 0. -1.
         11   -1    0    0    0    0 -0.00000000000E+00 -0.00000000000E+00 -0.45593999997E+02  0.45594000000E+02  0.51100000000E-03 0.  1.
    9900012    2    1    2    0    0  0.28836373670E+02  0.32917408199E+02 -0.10678075623E+02  0.46142317544E+02  0.99999980166E+01 0.  0.
         12    1    1    2    0    0 -0.28836373670E+02 -0.32917408199E+02  0.10678075623E+02  0.45045682456E+02  0.00000000000E+00 0. -1.
         11    1    3    3    0    0  0.10690377675E+02  0.10570379409E+02 -0.84979744921E+01  0.17269414189E+02  0.51100000000E-03 0. -1.
        -11    1    3    3    0    0  0.96315732396E+01  0.11749516125E+02 -0.92394830735E+00  0.15220775702E+02  0.51100000000E-03 0.  1.
         12    1    3    3    0    0  0.85144227549E+01  0.10597512665E+02 -0.12561528235E+01  0.13652127653E+02  0.00000000000E+00 0. -1.
</event>
<event>
 7    1  0.1485408E-008  0.4614232E+02  0.7816164E-02  0.1320468E+00
        -11   -1    0    0    0    0  0.00000000000E+00  0.00000000000E+00  0.45593999997E+02  0.45594000000E+02  0.51100000000E-03 0.  1.
         11   -1    0    0    0    0 -0.00000000000E+00 -0.00000000000E+00 -0.45593999997E+02  0.45594000000E+02  0.51100000000E-03 0. -1.
    9900012    2    1    2    0    0  0.38578227078E+02 -0.10470063397E+02  0.20765640684E+02  0.46142315800E+02  0.99999821172E+01 0.  0.
         12    1    1    2    0    0 -0.38578227078E+02  0.10470063397E+02 -0.20765640684E+02  0.45045684200E+02  0.00000000000E+00 0. -1.
         11    1    3    3    0    0  0.16277478554E+02 -0.42193461211E+01  0.12205676652E+02  0.20778299559E+02  0.51100000000E-03 0. -1.
        -11    1    3    3    0    0  0.80482505853E+01 -0.50071056783E+01  0.44987753789E+01  0.10492112510E+02  0.51100000000E-03 0.  1.
         12    1    3    3    0    0  0.14252497939E+02 -0.12436115980E+01  0.40611886529E+01  0.14871903731E+02  0.00000000000E+00 0. -1.
</event>
<event>
 7    1  0.1485408E-008  0.4614232E+02  0.7816164E-02  0.1320468E+00
        -11   -1    0    0    0    0  0.00000000000E+00  0.00000000000E+00  0.45593999997E+02  0.45594000000E+02  0.51100000000E-03 0.  1.
         11   -1    0    0    0    0 -0.00000000000E+00 -0.00000000000E+00 -0.45593999997E+02  0.45594000000E+02  0.51100000000E-03 0. -1.
    9900012    2    1    2    0    0  0.15094244685E+01 -0.45711549104E+00  0.45018065211E+02  0.46142317497E+02  0.99999975908E+01 0.  0.
         12    1    1    2    0    0 -0.15094244685E+01  0.45711549104E+00 -0.45018065211E+02  0.45045682503E+02  0.00000000000E+00 0. -1.
         11    1    3    3    0    0  0.23569531517E+01  0.23032362783E+01  0.57861791142E+01  0.66588283140E+01  0.51100000000E-03 0. -1.
        -11    1    3    3    0    0 -0.18293697531E+00 -0.20929253947E+01  0.37018052918E+02  0.37077621886E+02  0.51100000000E-03 0.  1.
        -12    1    3    3    0    0 -0.66459170791E+00 -0.66742637466E+00  0.22138331796E+01  0.24058672970E+01  0.00000000000E+00 0.  1.
</event>
<event>
 7    1  0.1485408E-008  0.4614232E+02  0.7816164E-02  0.1320468E+00
        -11   -1    0    0    0    0  0.00000000000E+00  0.00000000000E+00  0.45593999997E+02  0.45594000000E+02  0.51100000000E-03 0.  1.
         11   -1    0    0    0    0 -0.00000000000E+00 -0.00000000000E+00 -0.45593999997E+02  0.45594000000E+02  0.51100000000E-03 0. -1.
    9900012    2    1    2    0    0  0.14903565834E+02  0.20996565954E+02  0.36961351292E+02  0.46142317124E+02  0.99999941938E+01 0.  0.
         12    1    1    2    0    0 -0.14903565834E+02 -0.20996565954E+02 -0.36961351292E+02  0.45045682876E+02  0.00000000000E+00 0. -1.
         11    1    3    3    0    0  0.99366516586E+01  0.11820720862E+02  0.18177042657E+02  0.23851024462E+02  0.51100000000E-03 0. -1.
        -11    1    3    3    0    0  0.40652032407E+01  0.55527371974E+01  0.65523874771E+01  0.95022391931E+01  0.51100000000E-03 0.  1.
         12    1    3    3    0    0  0.90171093425E+00  0.36231078941E+01  0.12231921158E+02  0.12789053469E+02  0.00000000000E+00 0. -1.
</event>
<event>
 7    1  0.1485408E-008  0.4614232E+02  0.7816164E-02  0.1320468E+00
        -11   -1    0    0    0    0  0.00000000000E+00  0.00000000000E+00  0.45593999997E+02  0.45594000000E+02  0.51100000000E-03 0.  1.
         11   -1    0    0    0    0 -0.00000000000E+00 -0.00000000000E+00 -0.45593999997E+02  0.45594000000E+02  0.51100000000E-03 0. -1.
    9900012    2    1    2    0    0 -0.31250711913E+00 -0.43280203833E+02  0.12483584341E+02  0.46142316716E+02  0.99999904680E+01 0.  0.
         12    1    1    2    0    0  0.31250711913E+00  0.43280203833E+02 -0.12483584341E+02  0.45045683284E+02  0.00000000000E+00 0. -1.
         11    1    3    3    0    0 -0.22878389659E+01 -0.33806939249E+01  0.20796011251E+01  0.45812705278E+01  0.51100000000E-03 0. -1.
        -11    1    3    3    0    0  0.14517869376E+01 -0.34793506055E+02  0.10668903534E+02  0.36421439453E+02  0.51100000000E-03 0.  1.
        -12    1    3    3    0    0  0.52354490913E+00 -0.51060038529E+01 -0.26492031814E+00  0.51396067352E+01  0.00000000000E+00 0.  1.
</event>
<event>
 7    1  0.1485408E-008  0.4614232E+02  0.7816164E-02  0.1320468E+00
        -11   -1    0    0    0    0  0.00000000000E+00  0.00000000000E+00  0.45593999997E+02  0.45594000000E+02  0.51100000000E-03 0.  1.
         11   -1    0    0    0    0 -0.00000000000E+00 -0.00000000000E+00 -0.45593999997E+02  0.45594000000E+02  0.51100000000E-03 0. -1.
    9900012    2    1    2    0    0 -0.35537809654E+02  0.27678660081E+02 -0.26341644385E+00  0.46142317331E+02  0.99999960765E+01 0.  0.
         12    1    1    2    0    0  0.35537809654E+02 -0.27678660081E+02  0.26341644385E+00  0.45045682669E+02  0.00000000000E+00 0. -1.
         11    1    3    3    0    0 -0.56024179745E+01  0.85524024619E+01 -0.21231521982E+01  0.10442147794E+02  0.51100000000E-03 0. -1.
        -11    1    3    3    0    0 -0.25173291120E+02  0.15779373339E+02  0.45955388057E+00  0.29713538981E+02  0.51100000000E-03 0.  1.
         12    1    3    3    0    0 -0.47621005603E+01  0.33468842803E+01  0.14001818738E+01  0.59866305559E+01  0.00000000000E+00 0. -1.
</event>
<event>
 7    1  0.1485408E-008  0.4614232E+02  0.7816164E-02  0.1320468E+00
        -11   -1    0    0    0    0  0.00000000000E+00  0.00000000000E+00  0.45593999997E+02  0.45594000000E+02  0.51100000000E-03 0.  1.
         11   -1    0    0    0    0 -0.00000000000E+00 -0.00000000000E+00 -0.45593999997E+02  0.45594000000E+02  0.51100000000E-03 0. -1.
    9900012    2    1    2    0    0  0.34607356111E+02  0.15706238148E+02  0.24181778139E+02  0.46142318656E+02  0.10000008164E+02 0.  0.
         12    1    1    2    0    0 -0.34607356111E+02 -0.15706238148E+02 -0.24181778139E+02  0.45045681344E+02  0.00000000000E+00 0. -1.
         11    1    3    3    0    0  0.17141574995E+02  0.59218052046E+01  0.15557203370E+02  0.23894098584E+02  0.51100000000E-03 0. -1.
        -11    1    3    3    0    0  0.76528317487E+01  0.67556965113E+01  0.49079203738E+01  0.11326647862E+02  0.51100000000E-03 0.  1.
         12    1    3    3    0    0  0.98129493670E+01  0.30287364316E+01  0.37166543951E+01  0.10921572210E+02  0.00000000000E+00 0. -1.
</event>
<event>
 7    1  0.1485408E-008  0.4614231E+02  0.7816164E-02  0.1320468E+00
        -11   -1    0    0    0    0  0.00000000000E+00  0.00000000000E+00  0.45593999997E+02  0.45594000000E+02  0.51100000000E-03 0.  1.
         11   -1    0    0    0    0 -0.00000000000E+00 -0.00000000000E+00 -0.45593999997E+02  0.45594000000E+02  0.51100000000E-03 0. -1.
    9900012    2    1    2    0    0 -0.88681583154E+01 -0.47983888109E+00  0.44161519175E+02  0.46142309273E+02  0.99999225944E+01 0.  0.
         12    1    1    2    0    0  0.88681583154E+01  0.47983888109E+00 -0.44161519175E+02  0.45045690727E+02  0.00000000000E+00 0. -1.
         11    1    3    3    0    0 -0.35702126533E+00 -0.12801074158E+01  0.43045278582E+01  0.45050082711E+01  0.51100000000E-03 0. -1.
        -11    1    3    3    0    0 -0.60238925788E+01  0.45459977284E+01  0.24601793609E+02  0.25733278574E+02  0.51100000000E-03 0.  1.
        -12    1    3    3    0    0 -0.24872444713E+01 -0.37457291936E+01  0.15255197708E+02  0.15904022427E+02  0.00000000000E+00 0.  1.
</event>
<event>
 7    1  0.1485408E-008  0.4614232E+02  0.7816164E-02  0.1320468E+00
        -11   -1    0    0    0    0  0.00000000000E+00  0.00000000000E+00  0.45593999997E+02  0.45594000000E+02  0.51100000000E-03 0.  1.
         11   -1    0    0    0    0 -0.00000000000E+00 -0.00000000000E+00 -0.45593999997E+02  0.45594000000E+02  0.51100000000E-03 0. -1.
    9900012    2    1    2    0    0 -0.30166799003E+02  0.33445113279E+02  0.70860378422E+00  0.46142317813E+02  0.10000000474E+02 0.  0.
         12    1    1    2    0    0  0.30166799003E+02 -0.33445113279E+02 -0.70860378422E+00  0.45045682187E+02  0.00000000000E+00 0. -1.
         11    1    3    3    0    0 -0.13895990175E+02  0.19163180985E+02 -0.25886136360E+01  0.23812328093E+02  0.51100000000E-03 0.  1.
        -11    1    3    3    0    0 -0.14800700994E+02  0.11790955183E+02  0.40269320871E+01  0.19346926276E+02  0.51100000000E-03 0. -1.
         12    1    3    3    0    0 -0.14701078343E+01  0.24909771109E+01 -0.72971466680E+00  0.29830634433E+01  0.00000000000E+00 0. -1.
</event>
<event>
 7    1  0.1485408E-008  0.4614232E+02  0.7816164E-02  0.1320468E+00
        -11   -1    0    0    0    0  0.00000000000E+00  0.00000000000E+00  0.45593999997E+02  0.45594000000E+02  0.51100000000E-03 0.  1.
         11   -1    0    0    0    0 -0.00000000000E+00 -0.00000000000E+00 -0.45593999997E+02  0.45594000000E+02  0.51100000000E-03 0. -1.
    9900012    2    1    2    0    0 -0.18666827440E+02 -0.36302713328E+02  0.19046681171E+02  0.46142317573E+02  0.99999982883E+01 0.  0.
         12    1    1    2    0    0  0.18666827440E+02  0.36302713328E+02 -0.19046681171E+02  0.45045682427E+02  0.00000000000E+00 0. -1.
         11    1    3    3    0    0 -0.12234050230E+02 -0.21061123673E+02  0.97549408680E+01  0.26237411973E+02  0.51100000000E-03 0. -1.
        -11    1    3    3    0    0 -0.54804776294E+01 -0.58208775896E+01  0.30139728333E+01  0.85441373737E+01  0.51100000000E-03 0.  1.
         12    1    3    3    0    0 -0.95229957998E+00 -0.94207120651E+01  0.62777674700E+01  0.11360768227E+02  0.00000000000E+00 0. -1.
</event>
<event>
 7    1  0.1485408E-008  0.4614232E+02  0.7816164E-02  0.1320468E+00
        -11   -1    0    0    0    0  0.00000000000E+00  0.00000000000E+00  0.45593999997E+02  0.45594000000E+02  0.51100000000E-03 0.  1.
         11   -1    0    0    0    0 -0.00000000000E+00 -0.00000000000E+00 -0.45593999997E+02  0.45594000000E+02  0.51100000000E-03 0. -1.
    9900012    2    1    2    0    0  0.11310161385E+02  0.28325389684E+02  0.33149151255E+02  0.46142315632E+02  0.99999805851E+01 0.  0.
         12    1    1    2    0    0 -0.11310161385E+02 -0.28325389684E+02 -0.33149151255E+02  0.45045684368E+02  0.00000000000E+00 0. -1.
         11    1    3    3    0    0  0.72375487608E+01  0.96033681492E+01  0.17055568807E+02  0.20868618053E+02  0.51100000000E-03 0. -1.
        -11    1    3    3    0    0 -0.65879208261E+00  0.20397658939E+01  0.16210671418E+01  0.26874729486E+01  0.51100000000E-03 0.  1.
         12    1    3    3    0    0  0.47314047066E+01  0.16682255641E+02  0.14472515306E+02  0.22586224630E+02  0.00000000000E+00 0. -1.
</event>
<event>
 7    1  0.1485408E-008  0.4614232E+02  0.7816164E-02  0.1320468E+00
        -11   -1    0    0    0    0  0.00000000000E+00  0.00000000000E+00  0.45593999997E+02  0.45594000000E+02  0.51100000000E-03 0.  1.
         11   -1    0    0    0    0 -0.00000000000E+00 -0.00000000000E+00 -0.45593999997E+02  0.45594000000E+02  0.51100000000E-03 0. -1.
    9900012    2    1    2    0    0  0.11120189798E+02 -0.34931660638E+01  0.43511524888E+02  0.46142316207E+02  0.99999858298E+01 0.  0.
         12    1    1    2    0    0 -0.11120189798E+02  0.34931660638E+01 -0.43511524888E+02  0.45045683793E+02  0.00000000000E+00 0. -1.
         11    1    3    3    0    0 -0.11528975069E+01 -0.83949561217E-01  0.30227855374E+01  0.32362714436E+01  0.51100000000E-03 0. -1.
        -11    1    3    3    0    0  0.55482911045E+01  0.16270443791E+01  0.15552895273E+02  0.16592870735E+02  0.51100000000E-03 0.  1.
        -12    1    3    3    0    0  0.67247962000E+01 -0.50362608816E+01  0.24935844078E+02  0.26313174029E+02  0.00000000000E+00 0.  1.
</event>
<event>
 7    1  0.1485408E-008  0.4614232E+02  0.7816164E-02  0.1320468E+00
        -11   -1    0    0    0    0  0.00000000000E+00  0.00000000000E+00  0.45593999997E+02  0.45594000000E+02  0.51100000000E-03 0.  1.
         11   -1    0    0    0    0 -0.00000000000E+00 -0.00000000000E+00 -0.45593999997E+02  0.45594000000E+02  0.51100000000E-03 0. -1.
    9900012    2    1    2    0    0 -0.29331473981E+02  0.13510680656E+02  0.31404454947E+02  0.46142315987E+02  0.99999838191E+01 0.  0.
         12    1    1    2    0    0  0.29331473981E+02 -0.13510680656E+02 -0.31404454947E+02  0.45045684013E+02  0.00000000000E+00 0. -1.
         11    1    3    3    0    0 -0.84865220939E+01  0.93391381459E+00  0.43383530933E+01  0.95767719033E+01  0.51100000000E-03 0. -1.
        -11    1    3    3    0    0 -0.18362460198E+02  0.97052914851E+01  0.23408997484E+02  0.31294628785E+02  0.51100000000E-03 0.  1.
         12    1    3    3    0    0 -0.24824916892E+01  0.28714753562E+01  0.36571043702E+01  0.52709152984E+01  0.00000000000E+00 0. -1.
</event>
<event>
 7    1  0.1485408E-008  0.4614232E+02  0.7816164E-02  0.1320468E+00
        -11   -1    0    0    0    0  0.00000000000E+00  0.00000000000E+00  0.45593999997E+02  0.45594000000E+02  0.51100000000E-03 0.  1.
         11   -1    0    0    0    0 -0.00000000000E+00 -0.00000000000E+00 -0.45593999997E+02  0.45594000000E+02  0.51100000000E-03 0. -1.
    9900012    2    1    2    0    0 -0.12103318222E+01  0.25447475286E+02  0.37149353574E+02  0.46142319047E+02  0.10000011728E+02 0.  0.
         12    1    1    2    0    0  0.12103318222E+01 -0.25447475286E+02 -0.37149353574E+02  0.45045680953E+02  0.00000000000E+00 0. -1.
         11    1    3    3    0    0 -0.23226952263E-02  0.82266550138E+01  0.12697317765E+02  0.15129432798E+02  0.51100000000E-03 0. -1.
        -11    1    3    3    0    0  0.73531753986E-02  0.11777801284E+02  0.21928897503E+02  0.24891629177E+02  0.51100000000E-03 0.  1.
         12    1    3    3    0    0 -0.12153623024E+01  0.54430189879E+01  0.25231383066E+01  0.61212570721E+01  0.00000000000E+00 0. -1.
</event>
<event>
 7    1  0.1485408E-008  0.4614232E+02  0.7816164E-02  0.1320468E+00
        -11   -1    0    0    0    0  0.00000000000E+00  0.00000000000E+00  0.45593999997E+02  0.45594000000E+02  0.51100000000E-03 0.  1.
         11   -1    0    0    0    0 -0.00000000000E+00 -0.00000000000E+00 -0.45593999997E+02  0.45594000000E+02  0.51100000000E-03 0. -1.
    9900012    2    1    2    0    0  0.13277958048E+02  0.27001508840E+02  0.33522051769E+02  0.46142316474E+02  0.99999882631E+01 0.  0.
         12    1    1    2    0    0 -0.13277958048E+02 -0.27001508840E+02 -0.33522051769E+02  0.45045683526E+02  0.00000000000E+00 0. -1.
         11    1    3    3    0    0  0.18257076333E-01  0.22192821225E+01  0.53055379702E+01  0.57510242457E+01  0.51100000000E-03 0. -1.
        -11    1    3    3    0    0  0.13043834811E+02  0.20144250593E+02  0.21465793882E+02  0.32198024253E+02  0.51100000000E-03 0.  1.
         12    1    3    3    0    0  0.21586616042E+00  0.46379761242E+01  0.67507199168E+01  0.81932679758E+01  0.00000000000E+00 0. -1.
</event>
<event>
 7    1  0.1485408E-008  0.4614232E+02  0.7816164E-02  0.1320468E+00
        -11   -1    0    0    0    0  0.00000000000E+00  0.00000000000E+00  0.45593999997E+02  0.45594000000E+02  0.51100000000E-03 0.  1.
         11   -1    0    0    0    0 -0.00000000000E+00 -0.00000000000E+00 -0.45593999997E+02  0.45594000000E+02  0.51100000000E-03 0. -1.
    9900012    2    1    2    0    0 -0.30396486510E+02  0.18287415928E+02  0.27762160522E+02  0.46142317296E+02  0.99999957554E+01 0.  0.
         12    1    1    2    0    0  0.30396486510E+02 -0.18287415928E+02 -0.27762160522E+02  0.45045682704E+02  0.00000000000E+00 0. -1.
         11    1    3    3    0    0 -0.11805829705E+02  0.85576461220E+01  0.13808423627E+02  0.20081919368E+02  0.51100000000E-03 0.  1.
        -11    1    3    3    0    0 -0.48100016537E+01  0.55400805299E+01  0.28384416472E+01  0.78667248224E+01  0.51100000000E-03 0. -1.
        -12    1    3    3    0    0 -0.13780655151E+02  0.41896892762E+01  0.11115295248E+02  0.18193673106E+02  0.00000000000E+00 0.  1.
</event>
<event>
 7    1  0.1485408E-008  0.4614232E+02  0.7816164E-02  0.1320468E+00
        -11   -1    0    0    0    0  0.00000000000E+00  0.00000000000E+00  0.45593999997E+02  0.45594000000E+02  0.51100000000E-03 0. -1.
         11   -1    0    0    0    0 -0.00000000000E+00 -0.00000000000E+00 -0.45593999997E+02  0.45594000000E+02  0.51100000000E-03 0.  1.
    9900012    2    1    2    0    0 -0.34403506149E+02  0.22608577288E+02 -0.18285634748E+02  0.46142318293E+02  0.10000004851E+02 0.  0.
         12    1    1    2    0    0  0.34403506149E+02 -0.22608577288E+02  0.18285634748E+02  0.45045681707E+02  0.00000000000E+00 0. -1.
         11    1    3    3    0    0 -0.76980182171E+01  0.21395645154E+01 -0.59185010433E+01  0.99431320844E+01  0.51100000000E-03 0. -1.
        -11    1    3    3    0    0 -0.75865433344E+01  0.44976470476E+01 -0.12081823349E+01  0.89019196551E+01  0.51100000000E-03 0.  1.
         12    1    3    3    0    0 -0.19118944597E+02  0.15971365725E+02 -0.11158951370E+02  0.27297266554E+02  0.00000000000E+00 0. -1.
</event>
<event>
 7    1  0.1485408E-008  0.4614232E+02  0.7816164E-02  0.1320468E+00
        -11   -1    0    0    0    0  0.00000000000E+00  0.00000000000E+00  0.45593999997E+02  0.45594000000E+02  0.51100000000E-03 0. -1.
         11   -1    0    0    0    0 -0.00000000000E+00 -0.00000000000E+00 -0.45593999997E+02  0.45594000000E+02  0.51100000000E-03 0.  1.
    9900012    2    1    2    0    0 -0.42573006003E+02  0.35720155264E+01  0.14279124541E+02  0.46142317269E+02  0.99999955155E+01 0.  0.
         12    1    1    2    0    0  0.42573006003E+02 -0.35720155264E+01 -0.14279124541E+02  0.45045682731E+02  0.00000000000E+00 0. -1.
         11    1    3    3    0    0 -0.14023026302E+02  0.40890702802E+01  0.44469797322E+01  0.15268968250E+02  0.51100000000E-03 0. -1.
        -11    1    3    3    0    0 -0.24913572123E+02 -0.94912668339E+00  0.61472837339E+01  0.25678317993E+02  0.51100000000E-03 0.  1.
         12    1    3    3    0    0 -0.36364075776E+01  0.43207192961E+00  0.36848610745E+01  0.51950310260E+01  0.00000000000E+00 0. -1.
</event>
<event>
 7    1  0.1485408E-008  0.4614232E+02  0.7816164E-02  0.1320468E+00
        -11   -1    0    0    0    0  0.00000000000E+00  0.00000000000E+00  0.45593999997E+02  0.45594000000E+02  0.51100000000E-03 0.  1.
         11   -1    0    0    0    0 -0.00000000000E+00 -0.00000000000E+00 -0.45593999997E+02  0.45594000000E+02  0.51100000000E-03 0. -1.
    9900012    2    1    2    0    0 -0.25613225680E+01 -0.44382359632E+02 -0.72635553357E+01  0.46142318121E+02  0.10000003282E+02 0.  0.
         12    1    1    2    0    0  0.25613225680E+01  0.44382359632E+02  0.72635553357E+01  0.45045681879E+02  0.00000000000E+00 0. -1.
         11    1    3    3    0    0  0.49732951116E+00 -0.21471591044E+00 -0.38777523199E+00  0.66619025551E+00  0.51100000000E-03 0. -1.
        -11    1    3    3    0    0 -0.50792576452E+01 -0.39648202452E+02 -0.66397028640E+01  0.40519926830E+02  0.51100000000E-03 0.  1.
        -12    1    3    3    0    0  0.20206055660E+01 -0.45194412695E+01 -0.23607723966E+00  0.49562010356E+01  0.00000000000E+00 0.  1.
</event>
<event>
 7    1  0.1485408E-008  0.4614232E+02  0.7816164E-02  0.1320468E+00
        -11   -1    0    0    0    0  0.00000000000E+00  0.00000000000E+00  0.45593999997E+02  0.45594000000E+02  0.51100000000E-03 0. -1.
         11   -1    0    0    0    0 -0.00000000000E+00 -0.00000000000E+00 -0.45593999997E+02  0.45594000000E+02  0.51100000000E-03 0.  1.
    9900012    2    1    2    0    0  0.48076299250E+01  0.15301398103E+02 -0.42093555041E+02  0.46142318016E+02  0.10000002328E+02 0.  0.
         12    1    1    2    0    0 -0.48076299250E+01 -0.15301398103E+02  0.42093555041E+02  0.45045681984E+02  0.00000000000E+00 0. -1.
         11    1    3    3    0    0 -0.22004245754E+01  0.30965656902E+01 -0.16375324264E+02  0.16810170505E+02  0.51100000000E-03 0. -1.
        -11    1    3    3    0    0  0.46978796357E+01  0.87411375150E+01 -0.17430291183E+02  0.20057233337E+02  0.51100000000E-03 0.  1.
         12    1    3    3    0    0  0.23101748647E+01  0.34636948974E+01 -0.82879395934E+01  0.92749141749E+01  0.00000000000E+00 0. -1.
</event>
<event>
 7    1  0.1485408E-008  0.4614232E+02  0.7816164E-02  0.1320468E+00
        -11   -1    0    0    0    0  0.00000000000E+00  0.00000000000E+00  0.45593999997E+02  0.45594000000E+02  0.51100000000E-03 0.  1.
         11   -1    0    0    0    0 -0.00000000000E+00 -0.00000000000E+00 -0.45593999997E+02  0.45594000000E+02  0.51100000000E-03 0. -1.
    9900012    2    1    2    0    0 -0.34336050303E+02  0.27974702750E+02 -0.82198026216E+01  0.46142317638E+02  0.99999988734E+01 0.  0.
         12    1    1    2    0    0  0.34336050303E+02 -0.27974702750E+02  0.82198026216E+01  0.45045682362E+02  0.00000000000E+00 0. -1.
         11    1    3    3    0    0 -0.17803047569E+01  0.21613083351E+01  0.95297113173E+00  0.29578527661E+01  0.51100000000E-03 0. -1.
        -11    1    3    3    0    0 -0.43072001222E+01  0.69593074509E+01 -0.26372008466E+01  0.85987651239E+01  0.51100000000E-03 0.  1.
        -12    1    3    3    0    0 -0.28248545424E+02  0.18854086964E+02 -0.65355729067E+01  0.34585699748E+02  0.00000000000E+00 0.  1.
</event>
<event>
 7    1  0.1485408E-008  0.4614232E+02  0.7816164E-02  0.1320468E+00
        -11   -1    0    0    0    0  0.00000000000E+00  0.00000000000E+00  0.45593999997E+02  0.45594000000E+02  0.51100000000E-03 0.  1.
         11   -1    0    0    0    0 -0.00000000000E+00 -0.00000000000E+00 -0.45593999997E+02  0.45594000000E+02  0.51100000000E-03 0. -1.
    9900012    2    1    2    0    0  0.10514709879E+02 -0.40544986293E+02  0.16572810685E+02  0.46142322168E+02  0.10000040189E+02 0.  0.
         12    1    1    2    0    0 -0.10514709879E+02  0.40544986293E+02 -0.16572810685E+02  0.45045677832E+02  0.00000000000E+00 0. -1.
         11    1    3    3    0    0 -0.31524091275E+00 -0.30962380839E+01 -0.93057669530E+00  0.32483904248E+01  0.51100000000E-03 0. -1.
        -11    1    3    3    0    0  0.10284952113E+02 -0.35970686201E+02  0.15914253319E+02  0.40656290592E+02  0.51100000000E-03 0.  1.
        -12    1    3    3    0    0  0.54499867850E+00 -0.14780620074E+01  0.15891340611E+01  0.22376411512E+01  0.00000000000E+00 0.  1.
</event>
<event>
 7    1  0.1485408E-008  0.4614232E+02  0.7816164E-02  0.1320468E+00
        -11   -1    0    0    0    0  0.00000000000E+00  0.00000000000E+00  0.45593999997E+02  0.45594000000E+02  0.51100000000E-03 0. -1.
         11   -1    0    0    0    0 -0.00000000000E+00 -0.00000000000E+00 -0.45593999997E+02  0.45594000000E+02  0.51100000000E-03 0.  1.
    9900012    2    1    2    0    0 -0.43599926494E+02  0.68711803115E+01 -0.89970506387E+01  0.46142316196E+02  0.99999857313E+01 0.  0.
         12    1    1    2    0    0  0.43599926494E+02 -0.68711803115E+01  0.89970506387E+01  0.45045683804E+02  0.00000000000E+00 0. -1.
         11    1    3    3    0    0 -0.99877271098E+01 -0.63223659270E+00  0.22042564870E-01  0.10007742106E+02  0.51100000000E-03 0. -1.
        -11    1    3    3    0    0 -0.10059781786E+02  0.38365752363E+01 -0.35427223540E+00  0.10772373379E+02  0.51100000000E-03 0.  1.
        -12    1    3    3    0    0 -0.23552417598E+02  0.36668416679E+01 -0.86648209681E+01  0.25362200711E+02  0.00000000000E+00 0.  1.
</event>
<event>
 7    1  0.1485408E-008  0.4614232E+02  0.7816164E-02  0.1320468E+00
        -11   -1    0    0    0    0  0.00000000000E+00  0.00000000000E+00  0.45593999997E+02  0.45594000000E+02  0.51100000000E-03 0.  1.
         11   -1    0    0    0    0 -0.00000000000E+00 -0.00000000000E+00 -0.45593999997E+02  0.45594000000E+02  0.51100000000E-03 0. -1.
    9900012    2    1    2    0    0 -0.71147424280E+01 -0.24379854470E+02  0.37203718418E+02  0.46142317323E+02  0.99999960016E+01 0.  0.
         12    1    1    2    0    0  0.71147424280E+01  0.24379854470E+02 -0.37203718418E+02  0.45045682677E+02  0.00000000000E+00 0. -1.
         11    1    3    3    0    0  0.94497159870E+00 -0.54159606587E+00  0.14538388987E+01  0.18165751913E+01  0.51100000000E-03 0. -1.
        -11    1    3    3    0    0 -0.44728561787E+01 -0.39252970268E+01  0.73990561635E+01  0.94952846990E+01  0.51100000000E-03 0.  1.
        -12    1    3    3    0    0 -0.35868578480E+01 -0.19912961377E+02  0.28350823355E+02  0.34830457432E+02  0.00000000000E+00 0.  1.
</event>
<event>
 7    1  0.1485408E-008  0.4614232E+02  0.7816164E-02  0.1320468E+00
        -11   -1    0    0    0    0  0.00000000000E+00  0.00000000000E+00  0.45593999997E+02  0.45594000000E+02  0.51100000000E-03 0. -1.
         11   -1    0    0    0    0 -0.00000000000E+00 -0.00000000000E+00 -0.45593999997E+02  0.45594000000E+02  0.51100000000E-03 0.  1.
    9900012    2    1    2    0    0  0.25120266851E+02  0.11280714666E+02 -0.35648719374E+02  0.46142317377E+02  0.99999964942E+01 0.  0.
         12    1    1    2    0    0 -0.25120266851E+02 -0.11280714666E+02  0.35648719374E+02  0.45045682623E+02  0.00000000000E+00 0. -1.
         11    1    3    3    0    0  0.16059975081E+02  0.10968690693E+02 -0.25081333288E+02  0.31738119902E+02  0.51100000000E-03 0. -1.
        -11    1    3    3    0    0  0.74115293095E+01 -0.49193397789E-02 -0.59927822937E+01  0.95312239920E+01  0.51100000000E-03 0.  1.
        -12    1    3    3    0    0  0.16487624603E+01  0.31694331264E+00 -0.45746037918E+01  0.48729734830E+01  0.00000000000E+00 0.  1.
</event>
<event>
 7    1  0.1485408E-008  0.4614232E+02  0.7816164E-02  0.1320468E+00
        -11   -1    0    0    0    0  0.00000000000E+00  0.00000000000E+00  0.45593999997E+02  0.45594000000E+02  0.51100000000E-03 0. -1.
         11   -1    0    0    0    0 -0.00000000000E+00 -0.00000000000E+00 -0.45593999997E+02  0.45594000000E+02  0.51100000000E-03 0.  1.
    9900012    2    1    2    0    0 -0.32440346920E+01  0.28446037777E+02 -0.34776611564E+02  0.46142317208E+02  0.99999949580E+01 0.  0.
         12    1    1    2    0    0  0.32440346920E+01 -0.28446037777E+02  0.34776611564E+02  0.45045682792E+02  0.00000000000E+00 0. -1.
         11    1    3    3    0    0 -0.14133214467E+01  0.29296100115E+01 -0.13226025204E+01  0.35113202673E+01  0.51100000000E-03 0. -1.
        -11    1    3    3    0    0  0.10808102279E+00  0.23896547263E+02 -0.30353562631E+02  0.38631533975E+02  0.51100000000E-03 0.  1.
        -12    1    3    3    0    0 -0.19387942681E+01  0.16198805018E+01 -0.31004464129E+01  0.39994629657E+01  0.00000000000E+00 0.  1.
</event>
<event>
 7    1  0.1485408E-008  0.4614232E+02  0.7816164E-02  0.1320468E+00
        -11   -1    0    0    0    0  0.00000000000E+00  0.00000000000E+00  0.45593999997E+02  0.45594000000E+02  0.51100000000E-03 0.  1.
         11   -1    0    0    0    0 -0.00000000000E+00 -0.00000000000E+00 -0.45593999997E+02  0.45594000000E+02  0.51100000000E-03 0. -1.
    9900012    2    1    2    0    0 -0.44637621577E+02  0.13184004955E+00  0.60480415150E+01  0.46142318209E+02  0.10000004086E+02 0.  0.
         12    1    1    2    0    0  0.44637621577E+02 -0.13184004955E+00 -0.60480415150E+01  0.45045681791E+02  0.00000000000E+00 0. -1.
         11    1    3    3    0    0 -0.37406041424E+02 -0.94752461724E+00  0.31552635098E+01  0.37550837887E+02  0.51100000000E-03 0. -1.
        -11    1    3    3    0    0 -0.74629721054E+01  0.78363396074E+00  0.31478878320E+01  0.81375200703E+01  0.51100000000E-03 0.  1.
         12    1    3    3    0    0  0.23139195301E+00  0.29573070605E+00 -0.25510982690E+00  0.45396025178E+00  0.00000000000E+00 0. -1.
</event>
<event>
 7    1  0.1485408E-008  0.4614231E+02  0.7816164E-02  0.1320468E+00
        -11   -1    0    0    0    0  0.00000000000E+00  0.00000000000E+00  0.45593999997E+02  0.45594000000E+02  0.51100000000E-03 0. -1.
         11   -1    0    0    0    0 -0.00000000000E+00 -0.00000000000E+00 -0.45593999997E+02  0.45594000000E+02  0.51100000000E-03 0.  1.
    9900012    2    1    2    0    0 -0.51206210958E+01  0.24302891254E+02 -0.37580081548E+02  0.46142314159E+02  0.99999671539E+01 0.  0.
         12    1    1    2    0    0  0.51206210958E+01 -0.24302891254E+02  0.37580081548E+02  0.45045685841E+02  0.00000000000E+00 0. -1.
         11    1    3    3    0    0 -0.97806247896E+00  0.27688756326E+01 -0.51884119267E+00  0.29820253061E+01  0.51100000000E-03 0. -1.
        -11    1    3    3    0    0 -0.44738003652E+01  0.18921222698E+02 -0.33458648584E+02  0.38697657855E+02  0.51100000000E-03 0.  1.
        -12    1    3    3    0    0  0.33124174832E+00  0.26127929240E+01 -0.36025917711E+01  0.44626309985E+01  0.00000000000E+00 0.  1.
</event>
<event>
 7    1  0.1485408E-008  0.4614232E+02  0.7816164E-02  0.1320468E+00
        -11   -1    0    0    0    0  0.00000000000E+00  0.00000000000E+00  0.45593999997E+02  0.45594000000E+02  0.51100000000E-03 0.  1.
         11   -1    0    0    0    0 -0.00000000000E+00 -0.00000000000E+00 -0.45593999997E+02  0.45594000000E+02  0.51100000000E-03 0. -1.
    9900012    2    1    2    0    0  0.23881053233E+02 -0.25752991168E+02 -0.28206244493E+02  0.46142317787E+02  0.10000000239E+02 0.  0.
         12    1    1    2    0    0 -0.23881053233E+02  0.25752991168E+02  0.28206244493E+02  0.45045682213E+02  0.00000000000E+00 0. -1.
         11    1    3    3    0    0 -0.32912237833E+00  0.45646467195E+00 -0.31429343682E+00  0.64456354396E+00  0.51100000000E-03 0. -1.
        -11    1    3    3    0    0  0.85136673292E+01 -0.63169713419E+01 -0.85677951988E+01  0.13630618957E+02  0.51100000000E-03 0.  1.
         12    1    3    3    0    0  0.15696508282E+02 -0.19892484498E+02 -0.19324155857E+02  0.31867135286E+02  0.00000000000E+00 0. -1.
</event>
<event>
 7    1  0.1485408E-008  0.4614232E+02  0.7816164E-02  0.1320468E+00
        -11   -1    0    0    0    0  0.00000000000E+00  0.00000000000E+00  0.45593999997E+02  0.45594000000E+02  0.51100000000E-03 0.  1.
         11   -1    0    0    0    0 -0.00000000000E+00 -0.00000000000E+00 -0.45593999997E+02  0.45594000000E+02  0.51100000000E-03 0. -1.
    9900012    2    1    2    0    0  0.49616629627E+01  0.36227975265E+01  0.44624777183E+02  0.46142317633E+02  0.99999988295E+01 0.  0.
         12    1    1    2    0    0 -0.49616629627E+01 -0.36227975265E+01 -0.44624777183E+02  0.45045682367E+02  0.00000000000E+00 0. -1.
         11    1    3    3    0    0  0.11051912451E-01  0.21123575541E+01  0.33706835029E+01  0.39778994606E+01  0.51100000000E-03 0. -1.
        -11    1    3    3    0    0  0.45183006825E+01 -0.13488984191E+01  0.14339053623E+02  0.15094470082E+02  0.51100000000E-03 0.  1.
        -12    1    3    3    0    0  0.43231036777E+00  0.28593383915E+01  0.26915040058E+02  0.27069948090E+02  0.00000000000E+00 0.  1.
</event>
<event>
 7    1  0.1485408E-008  0.4614232E+02  0.7816164E-02  0.1320468E+00
        -11   -1    0    0    0    0  0.00000000000E+00  0.00000000000E+00  0.45593999997E+02  0.45594000000E+02  0.51100000000E-03 0. -1.
         11   -1    0    0    0    0 -0.00000000000E+00 -0.00000000000E+00 -0.45593999997E+02  0.45594000000E+02  0.51100000000E-03 0.  1.
    9900012    2    1    2    0    0  0.42360186503E+02  0.84468176813E+01 -0.12781987688E+02  0.46142319422E+02  0.10000015143E+02 0.  0.
         12    1    1    2    0    0 -0.42360186503E+02 -0.84468176813E+01  0.12781987688E+02  0.45045680578E+02  0.00000000000E+00 0. -1.
         11    1    3    3    0    0  0.56479955208E+01 -0.15168798743E+01 -0.99238740210E+00  0.59317460307E+01  0.51100000000E-03 0. -1.
        -11    1    3    3    0    0  0.55820502569E+01  0.32592167403E+01 -0.74960663153E+00  0.65072028702E+01  0.51100000000E-03 0.  1.
        -12    1    3    3    0    0  0.31130140725E+02  0.67044808154E+01 -0.11039993654E+02  0.33703370521E+02  0.00000000000E+00 0.  1.
</event>
<event>
 7    1  0.1485408E-008  0.4614232E+02  0.7816164E-02  0.1320468E+00
        -11   -1    0    0    0    0  0.00000000000E+00  0.00000000000E+00  0.45593999997E+02  0.45594000000E+02  0.51100000000E-03 0.  1.
         11   -1    0    0    0    0 -0.00000000000E+00 -0.00000000000E+00 -0.45593999997E+02  0.45594000000E+02  0.51100000000E-03 0. -1.
    9900012    2    1    2    0    0  0.26092655006E+02 -0.16132735973E+01  0.36683567940E+02  0.46142318145E+02  0.10000003502E+02 0.  0.
         12    1    1    2    0    0 -0.26092655006E+02  0.16132735973E+01 -0.36683567940E+02  0.45045681855E+02  0.00000000000E+00 0. -1.
         11    1    3    3    0    0  0.29682789181E+00  0.38832448324E+00 -0.42229026055E+00  0.64593500208E+00  0.51100000000E-03 0. -1.
        -11    1    3    3    0    0  0.22377516381E+02 -0.95028455914E+00  0.34232861281E+02  0.40908985222E+02  0.51100000000E-03 0.  1.
        -12    1    3    3    0    0  0.34183107332E+01 -0.10513135214E+01  0.28729969194E+01  0.45873979212E+01  0.00000000000E+00 0.  1.
</event>
<event>
 7    1  0.1485408E-008  0.4614232E+02  0.7816164E-02  0.1320468E+00
        -11   -1    0    0    0    0  0.00000000000E+00  0.00000000000E+00  0.45593999997E+02  0.45594000000E+02  0.51100000000E-03 0.  1.
         11   -1    0    0    0    0 -0.00000000000E+00 -0.00000000000E+00 -0.45593999997E+02  0.45594000000E+02  0.51100000000E-03 0. -1.
    9900012    2    1    2    0    0 -0.25771940047E+01 -0.23307251969E+01  0.44911461558E+02  0.46142316653E+02  0.99999898997E+01 0.  0.
         12    1    1    2    0    0  0.25771940047E+01  0.23307251969E+01 -0.44911461558E+02  0.45045683347E+02  0.00000000000E+00 0. -1.
         11    1    3    3    0    0  0.25168827820E+00  0.69193814929E+00  0.20977840972E-01  0.73659060730E+00  0.51100000000E-03 0. -1.
        -11    1    3    3    0    0 -0.28379009966E+01 -0.25886767832E+01  0.14148017363E+02  0.14660195262E+02  0.51100000000E-03 0.  1.
         12    1    3    3    0    0  0.90187137069E-02 -0.43398656301E+00  0.30742466354E+02  0.30745530785E+02  0.00000000000E+00 0. -1.
</event>
<event>
 7    1  0.1485408E-008  0.4614232E+02  0.7816164E-02  0.1320468E+00
        -11   -1    0    0    0    0  0.00000000000E+00  0.00000000000E+00  0.45593999997E+02  0.45594000000E+02  0.51100000000E-03 0.  1.
         11   -1    0    0    0    0 -0.00000000000E+00 -0.00000000000E+00 -0.45593999997E+02  0.45594000000E+02  0.51100000000E-03 0. -1.
    9900012    2    1    2    0    0  0.43249071810E+02 -0.92219883851E+01  0.85782359155E+01  0.46142318591E+02  0.10000007568E+02 0.  0.
         12    1    1    2    0    0 -0.43249071810E+02  0.92219883851E+01 -0.85782359155E+01  0.45045681409E+02  0.00000000000E+00 0. -1.
         11    1    3    3    0    0  0.79461608812E+00 -0.17757135785E+01  0.11161078181E+00  0.19485971025E+01  0.51100000000E-03 0. -1.
        -11    1    3    3    0    0  0.29189391337E+02 -0.34263710862E+01  0.73068367271E+01  0.30284491883E+02  0.51100000000E-03 0.  1.
         12    1    3    3    0    0  0.13265064385E+02 -0.40199037204E+01  0.11597884066E+01  0.13909229605E+02  0.00000000000E+00 0. -1.
</event>
<event>
 7    1  0.1485408E-008  0.4614232E+02  0.7816164E-02  0.1320468E+00
        -11   -1    0    0    0    0  0.00000000000E+00  0.00000000000E+00  0.45593999997E+02  0.45594000000E+02  0.51100000000E-03 0.  1.
         11   -1    0    0    0    0 -0.00000000000E+00 -0.00000000000E+00 -0.45593999997E+02  0.45594000000E+02  0.51100000000E-03 0. -1.
    9900012    2    1    2    0    0  0.27517922731E+02 -0.61187360763E+01  0.35134577493E+02  0.46142317208E+02  0.99999949535E+01 0.  0.
         12    1    1    2    0    0 -0.27517922731E+02  0.61187360763E+01 -0.35134577493E+02  0.45045682792E+02  0.00000000000E+00 0. -1.
         11    1    3    3    0    0  0.17082683701E+02 -0.19367006720E+01  0.20781880641E+02  0.26971382152E+02  0.51100000000E-03 0. -1.
        -11    1    3    3    0    0  0.73900645888E+01 -0.42113783299E+01  0.13588666869E+02  0.16031239179E+02  0.51100000000E-03 0.  1.
         12    1    3    3    0    0  0.30451744415E+01  0.29342925511E-01  0.76402998215E+00  0.31396958770E+01  0.00000000000E+00 0. -1.
</event>
<event>
 7    1  0.1485408E-008  0.4614232E+02  0.7816164E-02  0.1320468E+00
        -11   -1    0    0    0    0  0.00000000000E+00  0.00000000000E+00  0.45593999997E+02  0.45594000000E+02  0.51100000000E-03 0.  1.
         11   -1    0    0    0    0 -0.00000000000E+00 -0.00000000000E+00 -0.45593999997E+02  0.45594000000E+02  0.51100000000E-03 0. -1.
    9900012    2    1    2    0    0 -0.19486307288E+02 -0.30641996613E+02  0.26654556248E+02  0.46142317666E+02  0.99999991324E+01 0.  0.
         12    1    1    2    0    0  0.19486307288E+02  0.30641996613E+02 -0.26654556248E+02  0.45045682334E+02  0.00000000000E+00 0. -1.
         11    1    3    3    0    0 -0.10694527747E+02 -0.13703375081E+02  0.10304749717E+02  0.20207505519E+02  0.51100000000E-03 0. -1.
        -11    1    3    3    0    0 -0.85316784234E+01 -0.16890937700E+02  0.16869954523E+02  0.25351305272E+02  0.51100000000E-03 0.  1.
         12    1    3    3    0    0 -0.26010111735E+00 -0.47683833248E-01 -0.52014799229E+00  0.58350687492E+00  0.00000000000E+00 0. -1.
</event>
<event>
 7    1  0.1485408E-008  0.4614232E+02  0.7816164E-02  0.1320468E+00
        -11   -1    0    0    0    0  0.00000000000E+00  0.00000000000E+00  0.45593999997E+02  0.45594000000E+02  0.51100000000E-03 0.  1.
         11   -1    0    0    0    0 -0.00000000000E+00 -0.00000000000E+00 -0.45593999997E+02  0.45594000000E+02  0.51100000000E-03 0. -1.
    9900012    2    1    2    0    0 -0.44468519491E+02  0.87257195881E+00 -0.71346258232E+01  0.46142317708E+02  0.99999995136E+01 0.  0.
         12    1    1    2    0    0  0.44468519491E+02 -0.87257195881E+00  0.71346258232E+01  0.45045682292E+02  0.00000000000E+00 0. -1.
         11    1    3    3    0    0 -0.10123580119E+02  0.30881365063E+00  0.12682181442E+01  0.10207380556E+02  0.51100000000E-03 0. -1.
        -11    1    3    3    0    0 -0.23766836602E+02 -0.18833742781E+00 -0.87430650075E+01  0.25324675300E+02  0.51100000000E-03 0.  1.
        -12    1    3    3    0    0 -0.10578102770E+02  0.75209573598E+00  0.34022104011E+00  0.10610261852E+02  0.00000000000E+00 0.  1.
</event>
<event>
 7    1  0.1485408E-008  0.4614232E+02  0.7816164E-02  0.1320468E+00
        -11   -1    0    0    0    0  0.00000000000E+00  0.00000000000E+00  0.45593999997E+02  0.45594000000E+02  0.51100000000E-03 0. -1.
         11   -1    0    0    0    0 -0.00000000000E+00 -0.00000000000E+00 -0.45593999997E+02  0.45594000000E+02  0.51100000000E-03 0.  1.
    9900012    2    1    2    0    0  0.31095048660E+01  0.43019175551E+02 -0.12992114571E+02  0.46142317336E+02  0.99999961257E+01 0.  0.
         12    1    1    2    0    0 -0.31095048660E+01 -0.43019175551E+02  0.12992114571E+02  0.45045682664E+02  0.00000000000E+00 0. -1.
         11    1    3    3    0    0  0.93938998829E+00  0.10013083894E+02  0.45831797953E+00  0.10067490167E+02  0.51100000000E-03 0. -1.
        -11    1    3    3    0    0  0.22680373517E+01  0.23289051162E+02 -0.11841864886E+02  0.26225057897E+02  0.51100000000E-03 0.  1.
        -12    1    3    3    0    0 -0.97922474002E-01  0.97170404947E+01 -0.16085676636E+01  0.98497692721E+01  0.00000000000E+00 0.  1.
</event>
<event>
 7    1  0.1485408E-008  0.4614232E+02  0.7816164E-02  0.1320468E+00
        -11   -1    0    0    0    0  0.00000000000E+00  0.00000000000E+00  0.45593999997E+02  0.45594000000E+02  0.51100000000E-03 0.  1.
         11   -1    0    0    0    0 -0.00000000000E+00 -0.00000000000E+00 -0.45593999997E+02  0.45594000000E+02  0.51100000000E-03 0. -1.
    9900012    2    1    2    0    0  0.33312769690E+02  0.14321927963E+02  0.26725553076E+02  0.46142318385E+02  0.10000005686E+02 0.  0.
         12    1    1    2    0    0 -0.33312769690E+02 -0.14321927963E+02 -0.26725553076E+02  0.45045681615E+02  0.00000000000E+00 0. -1.
         11    1    3    3    0    0  0.61957338481E+01  0.60814733331E+01  0.42743445099E+01  0.96768516093E+01  0.51100000000E-03 0. -1.
        -11    1    3    3    0    0  0.16708445393E+01  0.18063445994E+01  0.23842503177E+01  0.34262592028E+01  0.51100000000E-03 0.  1.
         12    1    3    3    0    0  0.25446191303E+02  0.64341100302E+01  0.20066958248E+02  0.33039207573E+02  0.00000000000E+00 0. -1.
</event>
<event>
 7    1  0.1485408E-008  0.4614232E+02  0.7816164E-02  0.1320468E+00
        -11   -1    0    0    0    0  0.00000000000E+00  0.00000000000E+00  0.45593999997E+02  0.45594000000E+02  0.51100000000E-03 0.  1.
         11   -1    0    0    0    0 -0.00000000000E+00 -0.00000000000E+00 -0.45593999997E+02  0.45594000000E+02  0.51100000000E-03 0. -1.
    9900012    2    1    2    0    0  0.20891443933E+02  0.51736789497E+01  0.39571379759E+02  0.46142317859E+02  0.10000000896E+02 0.  0.
         12    1    1    2    0    0 -0.20891443933E+02 -0.51736789497E+01 -0.39571379759E+02  0.45045682141E+02  0.00000000000E+00 0. -1.
         11    1    3    3    0    0  0.11442321272E+02  0.65044830236E+01  0.22824849469E+02  0.26347841829E+02  0.51100000000E-03 0. -1.
        -11    1    3    3    0    0  0.99005208774E+01 -0.98231608323E+00  0.16154751628E+02  0.18972645018E+02  0.51100000000E-03 0.  1.
        -12    1    3    3    0    0 -0.45139821625E+00 -0.34848799070E+00  0.59177866187E+00  0.82183101300E+00  0.00000000000E+00 0.  1.
</event>
<event>
 7    1  0.1485408E-008  0.4614232E+02  0.7816164E-02  0.1320468E+00
        -11   -1    0    0    0    0  0.00000000000E+00  0.00000000000E+00  0.45593999997E+02  0.45594000000E+02  0.51100000000E-03 0.  1.
         11   -1    0    0    0    0 -0.00000000000E+00 -0.00000000000E+00 -0.45593999997E+02  0.45594000000E+02  0.51100000000E-03 0. -1.
    9900012    2    1    2    0    0  0.89636232142E+01  0.39992167819E+01  0.43963316532E+02  0.46142317893E+02  0.10000001202E+02 0.  0.
         12    1    1    2    0    0 -0.89636232142E+01 -0.39992167819E+01 -0.43963316532E+02  0.45045682107E+02  0.00000000000E+00 0. -1.
         11    1    3    3    0    0 -0.12009113107E+01  0.29869296237E+01  0.15566742903E+02  0.15896144861E+02  0.51100000000E-03 0. -1.
        -11    1    3    3    0    0  0.39276346168E+01  0.10974368361E+01  0.92460547148E+01  0.10105454435E+02  0.51100000000E-03 0.  1.
         12    1    3    3    0    0  0.62368999081E+01 -0.85149677902E-01  0.19150518914E+02  0.20140718597E+02  0.00000000000E+00 0. -1.
</event>
<event>
 7    1  0.1485408E-008  0.4614232E+02  0.7816164E-02  0.1320468E+00
        -11   -1    0    0    0    0  0.00000000000E+00  0.00000000000E+00  0.45593999997E+02  0.45594000000E+02  0.51100000000E-03 0. -1.
         11   -1    0    0    0    0 -0.00000000000E+00 -0.00000000000E+00 -0.45593999997E+02  0.45594000000E+02  0.51100000000E-03 0.  1.
    9900012    2    1    2    0    0 -0.18929450056E+02  0.15923845091E+02 -0.37645989773E+02  0.46142317988E+02  0.10000002071E+02 0.  0.
         12    1    1    2    0    0  0.18929450056E+02 -0.15923845091E+02  0.37645989773E+02  0.45045682012E+02  0.00000000000E+00 0. -1.
         11    1    3    3    0    0 -0.84189717353E+00 -0.80951980738E-01 -0.63151136108E+01  0.63714993724E+01  0.51100000000E-03 0. -1.
        -11    1    3    3    0    0 -0.15256477701E+02  0.14659562687E+02 -0.28831068585E+02  0.35761619175E+02  0.51100000000E-03 0.  1.
        -12    1    3    3    0    0 -0.28310751810E+01  0.13452343848E+01 -0.24998075779E+01  0.40091994409E+01  0.00000000000E+00 0.  1.
</event>
<event>
 7    1  0.1485408E-008  0.4614232E+02  0.7816164E-02  0.1320468E+00
        -11   -1    0    0    0    0  0.00000000000E+00  0.00000000000E+00  0.45593999997E+02  0.45594000000E+02  0.51100000000E-03 0. -1.
         11   -1    0    0    0    0 -0.00000000000E+00 -0.00000000000E+00 -0.45593999997E+02  0.45594000000E+02  0.51100000000E-03 0.  1.
    9900012    2    1    2    0    0  0.14264933759E+02 -0.26532417993E+02 -0.33491129994E+02  0.46142319542E+02  0.10000016235E+02 0.  0.
         12    1    1    2    0    0 -0.14264933759E+02  0.26532417993E+02  0.33491129994E+02  0.45045680458E+02  0.00000000000E+00 0. -1.
         11    1    3    3    0    0  0.93198780326E+00 -0.86792845023E+01 -0.11688006637E+02  0.14587942971E+02  0.51100000000E-03 0. -1.
        -11    1    3    3    0    0  0.22612469127E+01 -0.65216777166E+00 -0.23156967090E+01  0.33016680499E+01  0.51100000000E-03 0.  1.
         12    1    3    3    0    0  0.11071699043E+02 -0.17200965719E+02 -0.19487426649E+02  0.28252708520E+02  0.00000000000E+00 0. -1.
</event>
<event>
 7    1  0.1485408E-008  0.4614232E+02  0.7816164E-02  0.1320468E+00
        -11   -1    0    0    0    0  0.00000000000E+00  0.00000000000E+00  0.45593999997E+02  0.45594000000E+02  0.51100000000E-03 0. -1.
         11   -1    0    0    0    0 -0.00000000000E+00 -0.00000000000E+00 -0.45593999997E+02  0.45594000000E+02  0.51100000000E-03 0.  1.
    9900012    2    1    2    0    0 -0.29887865404E+02 -0.26706117218E+02 -0.20557537206E+02  0.46142317285E+02  0.99999956578E+01 0.  0.
         12    1    1    2    0    0  0.29887865404E+02  0.26706117218E+02  0.20557537206E+02  0.45045682715E+02  0.00000000000E+00 0. -1.
         11    1    3    3    0    0 -0.94090993352E+01 -0.12972324432E+02 -0.99261323754E+01  0.18850476271E+02  0.51100000000E-03 0. -1.
        -11    1    3    3    0    0 -0.17924456682E+02 -0.99150432693E+01 -0.93844157445E+01  0.22531344600E+02  0.51100000000E-03 0.  1.
        -12    1    3    3    0    0 -0.25543093870E+01 -0.38187495171E+01 -0.12469890862E+01  0.47604964132E+01  0.00000000000E+00 0.  1.
</event>
<event>
 7    1  0.1485408E-008  0.4614232E+02  0.7816164E-02  0.1320468E+00
        -11   -1    0    0    0    0  0.00000000000E+00  0.00000000000E+00  0.45593999997E+02  0.45594000000E+02  0.51100000000E-03 0. -1.
         11   -1    0    0    0    0 -0.00000000000E+00 -0.00000000000E+00 -0.45593999997E+02  0.45594000000E+02  0.51100000000E-03 0.  1.
    9900012    2    1    2    0    0 -0.53252825962E+01  0.44563604127E+02 -0.38522490454E+01  0.46142320182E+02  0.10000022077E+02 0.  0.
         12    1    1    2    0    0  0.53252825962E+01 -0.44563604127E+02  0.38522490454E+01  0.45045679818E+02  0.00000000000E+00 0. -1.
         11    1    3    3    0    0  0.41091877868E+00  0.17309219291E+02 -0.51997706571E+01  0.18078040321E+02  0.51100000000E-03 0. -1.
        -11    1    3    3    0    0 -0.42264949510E+01  0.24374149178E+02  0.69555590227E+00  0.24747650515E+02  0.51100000000E-03 0.  1.
         12    1    3    3    0    0 -0.15097064238E+01  0.28802356577E+01  0.65196570940E+00  0.33166293457E+01  0.00000000000E+00 0. -1.
</event>
<event>
 7    1  0.1485408E-008  0.4614231E+02  0.7816164E-02  0.1320468E+00
        -11   -1    0    0    0    0  0.00000000000E+00  0.00000000000E+00  0.45593999997E+02  0.45594000000E+02  0.51100000000E-03 0.  1.
         11   -1    0    0    0    0 -0.00000000000E+00 -0.00000000000E+00 -0.45593999997E+02  0.45594000000E+02  0.51100000000E-03 0. -1.
    9900012    2    1    2    0    0  0.17317793183E+02 -0.27376346372E+02  0.31300859123E+02  0.46142311158E+02  0.99999397872E+01 0.  0.
         12    1    1    2    0    0 -0.17317793183E+02  0.27376346372E+02 -0.31300859123E+02  0.45045688842E+02  0.00000000000E+00 0. -1.
         11    1    3    3    0    0  0.16002542899E+01  0.57965176574E+00  0.14847586537E+01  0.22586098563E+01  0.51100000000E-03 0. -1.
        -11    1    3    3    0    0  0.99921949912E+01 -0.20399980014E+02  0.21318357042E+02  0.31152455642E+02  0.51100000000E-03 0.  1.
         12    1    3    3    0    0  0.57253439024E+01 -0.75560181229E+01  0.84977434278E+01  0.12731245659E+02  0.00000000000E+00 0. -1.
</event>
<event>
 7    1  0.1485408E-008  0.4614232E+02  0.7816164E-02  0.1320468E+00
        -11   -1    0    0    0    0  0.00000000000E+00  0.00000000000E+00  0.45593999997E+02  0.45594000000E+02  0.51100000000E-03 0. -1.
         11   -1    0    0    0    0 -0.00000000000E+00 -0.00000000000E+00 -0.45593999997E+02  0.45594000000E+02  0.51100000000E-03 0.  1.
    9900012    2    1    2    0    0 -0.42399773732E+02 -0.14058230642E+02 -0.58085216546E+01  0.46142316687E+02  0.99999902089E+01 0.  0.
         12    1    1    2    0    0  0.42399773732E+02  0.14058230642E+02  0.58085216546E+01  0.45045683313E+02  0.00000000000E+00 0. -1.
         11    1    3    3    0    0 -0.32498927959E+01 -0.22389369913E+01  0.12006786681E+01  0.41250783703E+01  0.51100000000E-03 0.  1.
        -11    1    3    3    0    0 -0.28591105015E+01  0.34981510466E+00 -0.17772630753E+01  0.33846045215E+01  0.51100000000E-03 0. -1.
        -12    1    3    3    0    0 -0.36290770435E+02 -0.12169108755E+02 -0.52319372473E+01  0.38632633796E+02  0.00000000000E+00 0.  1.
</event>
<event>
 7    1  0.1485408E-008  0.4614232E+02  0.7816164E-02  0.1320468E+00
        -11   -1    0    0    0    0  0.00000000000E+00  0.00000000000E+00  0.45593999997E+02  0.45594000000E+02  0.51100000000E-03 0.  1.
         11   -1    0    0    0    0 -0.00000000000E+00 -0.00000000000E+00 -0.45593999997E+02  0.45594000000E+02  0.51100000000E-03 0. -1.
    9900012    2    1    2    0    0 -0.13639659490E+00 -0.38910516012E+02  0.22695076609E+02  0.46142319157E+02  0.10000012727E+02 0.  0.
         12    1    1    2    0    0  0.13639659490E+00  0.38910516012E+02 -0.22695076609E+02  0.45045680843E+02  0.00000000000E+00 0. -1.
         11    1    3    3    0    0  0.13874082425E+01 -0.48858163177E+01  0.60883532320E+00  0.51153478312E+01  0.51100000000E-03 0. -1.
        -11    1    3    3    0    0  0.22215215556E+01 -0.15490853286E+02  0.93645340740E+01  0.18237219970E+02  0.51100000000E-03 0.  1.
        -12    1    3    3    0    0 -0.37453263929E+01 -0.18533846408E+02  0.12721707212E+02  0.22789751356E+02  0.00000000000E+00 0.  1.
</event>
<event>
 7    1  0.1485408E-008  0.4614232E+02  0.7816164E-02  0.1320468E+00
        -11   -1    0    0    0    0  0.00000000000E+00  0.00000000000E+00  0.45593999997E+02  0.45594000000E+02  0.51100000000E-03 0.  1.
         11   -1    0    0    0    0 -0.00000000000E+00 -0.00000000000E+00 -0.45593999997E+02  0.45594000000E+02  0.51100000000E-03 0. -1.
    9900012    2    1    2    0    0 -0.37481772752E+01 -0.25010223761E+02  0.37276713555E+02  0.46142317644E+02  0.99999989330E+01 0.  0.
         12    1    1    2    0    0  0.37481772752E+01  0.25010223761E+02 -0.37276713555E+02  0.45045682356E+02  0.00000000000E+00 0. -1.
         11    1    3    3    0    0  0.32695358452E+01 -0.97787195088E+01  0.15404996394E+02  0.18537182473E+02  0.51100000000E-03 0. -1.
        -11    1    3    3    0    0 -0.53390299386E+01 -0.10237530895E+02  0.14268277754E+02  0.18354727724E+02  0.51100000000E-03 0.  1.
         12    1    3    3    0    0 -0.16786831818E+01 -0.49939733578E+01  0.76034394069E+01  0.92504074472E+01  0.00000000000E+00 0. -1.
</event>
<event>
 7    1  0.1485408E-008  0.4614232E+02  0.7816164E-02  0.1320468E+00
        -11   -1    0    0    0    0  0.00000000000E+00  0.00000000000E+00  0.45593999997E+02  0.45594000000E+02  0.51100000000E-03 0.  1.
         11   -1    0    0    0    0 -0.00000000000E+00 -0.00000000000E+00 -0.45593999997E+02  0.45594000000E+02  0.51100000000E-03 0. -1.
    9900012    2    1    2    0    0 -0.18513811243E+02 -0.74188006507E+01  0.40389525675E+02  0.46142316588E+02  0.99999893015E+01 0.  0.
         12    1    1    2    0    0  0.18513811243E+02  0.74188006507E+01 -0.40389525675E+02  0.45045683412E+02  0.00000000000E+00 0. -1.
         11    1    3    3    0    0  0.17154877861E+00  0.75089414592E-02 -0.48530633794E+00  0.51478915141E+00  0.51100000000E-03 0. -1.
        -11    1    3    3    0    0 -0.11191803918E+02 -0.54659072955E+01  0.27074978293E+02  0.29802467471E+02  0.51100000000E-03 0.  1.
         12    1    3    3    0    0 -0.74935561033E+01 -0.19604022967E+01  0.13799853720E+02  0.15825059966E+02  0.00000000000E+00 0. -1.
</event>
<event>
 7    1  0.1485408E-008  0.4614232E+02  0.7816164E-02  0.1320468E+00
        -11   -1    0    0    0    0  0.00000000000E+00  0.00000000000E+00  0.45593999997E+02  0.45594000000E+02  0.51100000000E-03 0. -1.
         11   -1    0    0    0    0 -0.00000000000E+00 -0.00000000000E+00 -0.45593999997E+02  0.45594000000E+02  0.51100000000E-03 0.  1.
    9900012    2    1    2    0    0 -0.17730337496E+02  0.22707394195E+02 -0.34628353522E+02  0.46142317782E+02  0.10000000191E+02 0.  0.
         12    1    1    2    0    0  0.17730337496E+02 -0.22707394195E+02  0.34628353522E+02  0.45045682218E+02  0.00000000000E+00 0. -1.
         11    1    3    3    0    0  0.26388432634E+00  0.57896896559E+01 -0.66201171430E+01  0.87986415143E+01  0.51100000000E-03 0. -1.
        -11    1    3    3    0    0 -0.36062828879E+01  0.34960523284E+01 -0.55581238057E+01  0.74913549276E+01  0.51100000000E-03 0.  1.
         12    1    3    3    0    0 -0.14387938934E+02  0.13421652210E+02 -0.22450112574E+02  0.29852321340E+02  0.00000000000E+00 0. -1.
</event>
<event>
 7    1  0.1485408E-008  0.4614232E+02  0.7816164E-02  0.1320468E+00
        -11   -1    0    0    0    0  0.00000000000E+00  0.00000000000E+00  0.45593999997E+02  0.45594000000E+02  0.51100000000E-03 0.  1.
         11   -1    0    0    0    0 -0.00000000000E+00 -0.00000000000E+00 -0.45593999997E+02  0.45594000000E+02  0.51100000000E-03 0. -1.
    9900012    2    1    2    0    0  0.23792084031E+02  0.12625390118E+02  0.36106090405E+02  0.46142317604E+02  0.99999985710E+01 0.  0.
         12    1    1    2    0    0 -0.23792084031E+02 -0.12625390118E+02 -0.36106090405E+02  0.45045682396E+02  0.00000000000E+00 0. -1.
         11    1    3    3    0    0  0.53019938852E+01  0.33544850022E+01  0.40476490515E+01  0.74664028751E+01  0.51100000000E-03 0. -1.
        -11    1    3    3    0    0  0.10513555822E+02  0.80939648266E+01  0.22967328194E+02  0.26524428123E+02  0.51100000000E-03 0.  1.
        -12    1    3    3    0    0  0.79765343232E+01  0.11769402891E+01  0.90911131595E+01  0.12151486606E+02  0.00000000000E+00 0.  1.
</event>
<event>
 7    1  0.1485408E-008  0.4614232E+02  0.7816164E-02  0.1320468E+00
        -11   -1    0    0    0    0  0.00000000000E+00  0.00000000000E+00  0.45593999997E+02  0.45594000000E+02  0.51100000000E-03 0.  1.
         11   -1    0    0    0    0 -0.00000000000E+00 -0.00000000000E+00 -0.45593999997E+02  0.45594000000E+02  0.51100000000E-03 0. -1.
    9900012    2    1    2    0    0 -0.36692142204E+02  0.81557773788E+01  0.24825059032E+02  0.46142316965E+02  0.99999927382E+01 0.  0.
         12    1    1    2    0    0  0.36692142204E+02 -0.81557773788E+01 -0.24825059032E+02  0.45045683035E+02  0.00000000000E+00 0. -1.
         11    1    3    3    0    0 -0.33173114150E+00 -0.10020128236E+01  0.10794861179E+01  0.15097568642E+01  0.51100000000E-03 0. -1.
        -11    1    3    3    0    0 -0.30065312883E+02  0.64528085121E+01  0.17611382099E+02  0.35436175811E+02  0.51100000000E-03 0.  1.
         12    1    3    3    0    0 -0.62950981793E+01  0.27049816903E+01  0.61341908158E+01  0.91963842893E+01  0.00000000000E+00 0. -1.
</event>
<event>
 7    1  0.1485408E-008  0.4614231E+02  0.7816164E-02  0.1320468E+00
        -11   -1    0    0    0    0  0.00000000000E+00  0.00000000000E+00  0.45593999997E+02  0.45594000000E+02  0.51100000000E-03 0.  1.
         11   -1    0    0    0    0 -0.00000000000E+00 -0.00000000000E+00 -0.45593999997E+02  0.45594000000E+02  0.51100000000E-03 0. -1.
    9900012    2    1    2    0    0 -0.90753180478E+01  0.29048109479E+02  0.33210837449E+02  0.46142314457E+02  0.99999698690E+01 0.  0.
         12    1    1    2    0    0  0.90753180478E+01 -0.29048109479E+02 -0.33210837449E+02  0.45045685543E+02  0.00000000000E+00 0. -1.
         11    1    3    3    0    0 -0.70278567075E+01  0.26736145092E+02  0.26823448269E+02  0.38518951200E+02  0.51100000000E-03 0. -1.
        -11    1    3    3    0    0 -0.63163394364E+00  0.14248717498E+01  0.55299819911E+01  0.57454261830E+01  0.51100000000E-03 0.  1.
         12    1    3    3    0    0 -0.14158273967E+01  0.88709263794E+00  0.85740718936E+00  0.18779370740E+01  0.00000000000E+00 0. -1.
</event>
<event>
 7    1  0.1485408E-008  0.4614232E+02  0.7816164E-02  0.1320468E+00
        -11   -1    0    0    0    0  0.00000000000E+00  0.00000000000E+00  0.45593999997E+02  0.45594000000E+02  0.51100000000E-03 0.  1.
         11   -1    0    0    0    0 -0.00000000000E+00 -0.00000000000E+00 -0.45593999997E+02  0.45594000000E+02  0.51100000000E-03 0. -1.
    9900012    2    1    2    0    0  0.11752904670E+00  0.20556209906E+02  0.40081688826E+02  0.46142319209E+02  0.10000013201E+02 0.  0.
         12    1    1    2    0    0 -0.11752904670E+00 -0.20556209906E+02 -0.40081688826E+02  0.45045680791E+02  0.00000000000E+00 0. -1.
         11    1    3    3    0    0 -0.59643024484E+00  0.10540976021E+01  0.10252367820E+02  0.10323657150E+02  0.51100000000E-03 0. -1.
        -11    1    3    3    0    0 -0.10861060541E+01  0.13060114552E+02  0.20738896677E+02  0.24532591671E+02  0.51100000000E-03 0.  1.
         12    1    3    3    0    0  0.18000653457E+01  0.64419977514E+01  0.90904243300E+01  0.11286070387E+02  0.00000000000E+00 0. -1.
</event>
<event>
 7    1  0.1485408E-008  0.4614232E+02  0.7816164E-02  0.1320468E+00
        -11   -1    0    0    0    0  0.00000000000E+00  0.00000000000E+00  0.45593999997E+02  0.45594000000E+02  0.51100000000E-03 0. -1.
         11   -1    0    0    0    0 -0.00000000000E+00 -0.00000000000E+00 -0.45593999997E+02  0.45594000000E+02  0.51100000000E-03 0.  1.
    9900012    2    1    2    0    0 -0.37015190391E+02 -0.24036067481E+02  0.90142591094E+01  0.46142315113E+02  0.99999758565E+01 0.  0.
         12    1    1    2    0    0  0.37015190391E+02  0.24036067481E+02 -0.90142591094E+01  0.45045684887E+02  0.00000000000E+00 0. -1.
         11    1    3    3    0    0 -0.96106134942E+01 -0.24093256934E+01  0.33926287992E-01  0.99080721276E+01  0.51100000000E-03 0. -1.
        -11    1    3    3    0    0 -0.24998032665E+02 -0.20486548204E+02  0.74682232357E+01  0.33171895529E+02  0.51100000000E-03 0.  1.
        -12    1    3    3    0    0 -0.24065442316E+01 -0.11401935831E+01  0.15121095857E+01  0.30623474565E+01  0.00000000000E+00 0.  1.
</event>
<event>
 7    1  0.1485408E-008  0.4614232E+02  0.7816164E-02  0.1320468E+00
        -11   -1    0    0    0    0  0.00000000000E+00  0.00000000000E+00  0.45593999997E+02  0.45594000000E+02  0.51100000000E-03 0. -1.
         11   -1    0    0    0    0 -0.00000000000E+00 -0.00000000000E+00 -0.45593999997E+02  0.45594000000E+02  0.51100000000E-03 0.  1.
    9900012    2    1    2    0    0 -0.18663013673E+02 -0.19787752388E+02 -0.35906133452E+02  0.46142316040E+02  0.99999843074E+01 0.  0.
         12    1    1    2    0    0  0.18663013673E+02  0.19787752388E+02  0.35906133452E+02  0.45045683960E+02  0.00000000000E+00 0. -1.
         11    1    3    3    0    0 -0.13182427144E+02 -0.10434852428E+02 -0.20860269962E+02  0.26792039746E+02  0.51100000000E-03 0.  1.
        -11    1    3    3    0    0 -0.37483492873E+01 -0.97012837224E+01 -0.12929616980E+02  0.16593372887E+02  0.51100000000E-03 0. -1.
         12    1    3    3    0    0 -0.17322372419E+01  0.34838376242E+00 -0.21162465097E+01  0.27569034075E+01  0.00000000000E+00 0. -1.
</event>
<event>
 7    1  0.1485408E-008  0.4614232E+02  0.7816164E-02  0.1320468E+00
        -11   -1    0    0    0    0  0.00000000000E+00  0.00000000000E+00  0.45593999997E+02  0.45594000000E+02  0.51100000000E-03 0. -1.
         11   -1    0    0    0    0 -0.00000000000E+00 -0.00000000000E+00 -0.45593999997E+02  0.45594000000E+02  0.51100000000E-03 0.  1.
    9900012    2    1    2    0    0  0.30061433197E+02  0.32817533920E+02 -0.69593958352E+01  0.46142317756E+02  0.99999999522E+01 0.  0.
         12    1    1    2    0    0 -0.30061433197E+02 -0.32817533920E+02  0.69593958352E+01  0.45045682244E+02  0.00000000000E+00 0. -1.
         11    1    3    3    0    0  0.58148414074E+01  0.32069222437E+01  0.12949755251E+01  0.67656258205E+01  0.51100000000E-03 0. -1.
        -11    1    3    3    0    0  0.27003470456E+01  0.51563449701E+01 -0.22254293466E+01  0.62315570812E+01  0.51100000000E-03 0.  1.
         12    1    3    3    0    0  0.21546244744E+02  0.24454266706E+02 -0.60289420136E+01  0.33145134854E+02  0.00000000000E+00 0. -1.
</event>
<event>
 7    1  0.1485408E-008  0.4614232E+02  0.7816164E-02  0.1320468E+00
        -11   -1    0    0    0    0  0.00000000000E+00  0.00000000000E+00  0.45593999997E+02  0.45594000000E+02  0.51100000000E-03 0.  1.
         11   -1    0    0    0    0 -0.00000000000E+00 -0.00000000000E+00 -0.45593999997E+02  0.45594000000E+02  0.51100000000E-03 0. -1.
    9900012    2    1    2    0    0 -0.21487504902E+02 -0.23579695700E+02  0.31802493736E+02  0.46142317365E+02  0.99999963923E+01 0.  0.
         12    1    1    2    0    0  0.21487504902E+02  0.23579695700E+02 -0.31802493736E+02  0.45045682635E+02  0.00000000000E+00 0. -1.
         11    1    3    3    0    0 -0.12929008489E+01  0.58547976533E-01 -0.27376291363E+00  0.13228631315E+01  0.51100000000E-03 0. -1.
        -11    1    3    3    0    0 -0.19250993862E+02 -0.21639309760E+02  0.28629515391E+02  0.40724803786E+02  0.51100000000E-03 0.  1.
        -12    1    3    3    0    0 -0.94361019034E+00 -0.19989339163E+01  0.34467412583E+01  0.40946504484E+01  0.00000000000E+00 0.  1.
</event>
<event>
 7    1  0.1485408E-008  0.4614232E+02  0.7816164E-02  0.1320468E+00
        -11   -1    0    0    0    0  0.00000000000E+00  0.00000000000E+00  0.45593999997E+02  0.45594000000E+02  0.51100000000E-03 0.  1.
         11   -1    0    0    0    0 -0.00000000000E+00 -0.00000000000E+00 -0.45593999997E+02  0.45594000000E+02  0.51100000000E-03 0. -1.
    9900012    2    1    2    0    0  0.85180521385E+01  0.90482213605E+01  0.43297644507E+02  0.46142317167E+02  0.99999945856E+01 0.  0.
         12    1    1    2    0    0 -0.85180521385E+01 -0.90482213605E+01 -0.43297644507E+02  0.45045682833E+02  0.00000000000E+00 0. -1.
         11    1    3    3    0    0  0.19694914630E+01  0.26646972077E+01  0.36511584006E+01  0.49305644463E+01  0.51100000000E-03 0. -1.
        -11    1    3    3    0    0  0.75304361096E+01  0.37470247578E+01  0.30868034789E+02  0.31993487377E+02  0.51100000000E-03 0.  1.
         12    1    3    3    0    0 -0.98187543412E+00  0.26364993951E+01  0.87784513175E+01  0.92182653445E+01  0.00000000000E+00 0. -1.
</event>
<event>
 7    1  0.1485408E-008  0.4614232E+02  0.7816164E-02  0.1320468E+00
        -11   -1    0    0    0    0  0.00000000000E+00  0.00000000000E+00  0.45593999997E+02  0.45594000000E+02  0.51100000000E-03 0. -1.
         11   -1    0    0    0    0 -0.00000000000E+00 -0.00000000000E+00 -0.45593999997E+02  0.45594000000E+02  0.51100000000E-03 0.  1.
    9900012    2    1    2    0    0  0.42443868434E+01 -0.42616154707E+02 -0.13962881144E+02  0.46142317504E+02  0.99999976545E+01 0.  0.
         12    1    1    2    0    0 -0.42443868434E+01  0.42616154707E+02  0.13962881144E+02  0.45045682496E+02  0.00000000000E+00 0. -1.
         11    1    3    3    0    0 -0.15657621242E+01 -0.22226872096E+01 -0.70967411345E+00  0.28099087298E+01  0.51100000000E-03 0. -1.
        -11    1    3    3    0    0  0.36295135913E+01 -0.26249875686E+02 -0.55292698419E+01  0.27070318943E+02  0.51100000000E-03 0.  1.
        -12    1    3    3    0    0  0.21806353762E+01 -0.14143591812E+02 -0.77239371885E+01  0.16262089831E+02  0.00000000000E+00 0.  1.
</event>
<event>
 7    1  0.1485408E-008  0.4614232E+02  0.7816164E-02  0.1320468E+00
        -11   -1    0    0    0    0  0.00000000000E+00  0.00000000000E+00  0.45593999997E+02  0.45594000000E+02  0.51100000000E-03 0.  1.
         11   -1    0    0    0    0 -0.00000000000E+00 -0.00000000000E+00 -0.45593999997E+02  0.45594000000E+02  0.51100000000E-03 0. -1.
    9900012    2    1    2    0    0  0.32725293230E+02  0.22766710663E+02  0.20972498962E+02  0.46142316033E+02  0.99999842403E+01 0.  0.
         12    1    1    2    0    0 -0.32725293230E+02 -0.22766710663E+02 -0.20972498962E+02  0.45045683967E+02  0.00000000000E+00 0. -1.
         11    1    3    3    0    0  0.17678470866E+02  0.16817731751E+02  0.10697565746E+02  0.26642116030E+02  0.51100000000E-03 0. -1.
        -11    1    3    3    0    0  0.46294224284E+01  0.17515091280E+01  0.51887860528E+01  0.71709718454E+01  0.51100000000E-03 0.  1.
         12    1    3    3    0    0  0.10417399935E+02  0.41974697842E+01  0.50861471631E+01  0.12329228157E+02  0.00000000000E+00 0. -1.
</event>
<event>
 7    1  0.1485408E-008  0.4614232E+02  0.7816164E-02  0.1320468E+00
        -11   -1    0    0    0    0  0.00000000000E+00  0.00000000000E+00  0.45593999997E+02  0.45594000000E+02  0.51100000000E-03 0.  1.
         11   -1    0    0    0    0 -0.00000000000E+00 -0.00000000000E+00 -0.45593999997E+02  0.45594000000E+02  0.51100000000E-03 0. -1.
    9900012    2    1    2    0    0  0.22715038881E+02 -0.37554339804E+02  0.10139628855E+02  0.46142317601E+02  0.99999985397E+01 0.  0.
         12    1    1    2    0    0 -0.22715038881E+02  0.37554339804E+02 -0.10139628855E+02  0.45045682399E+02  0.00000000000E+00 0. -1.
         11    1    3    3    0    0  0.76621998122E+01 -0.84551456175E+01  0.83684717755E-01  0.11410775467E+02  0.51100000000E-03 0. -1.
        -11    1    3    3    0    0  0.10270531232E+02 -0.17845332734E+02  0.89594280580E+01  0.22454644588E+02  0.51100000000E-03 0.  1.
        -12    1    3    3    0    0  0.47823078368E+01 -0.11253861453E+02  0.10965160794E+01  0.12276897546E+02  0.00000000000E+00 0.  1.
</event>
<event>
 7    1  0.1485408E-008  0.4614233E+02  0.7816164E-02  0.1320468E+00
        -11   -1    0    0    0    0  0.00000000000E+00  0.00000000000E+00  0.45593999997E+02  0.45594000000E+02  0.51100000000E-03 0. -1.
         11   -1    0    0    0    0 -0.00000000000E+00 -0.00000000000E+00 -0.45593999997E+02  0.45594000000E+02  0.51100000000E-03 0.  1.
    9900012    2    1    2    0    0  0.40829903537E+02 -0.17113639478E+02  0.83159320327E+01  0.46142329791E+02  0.10000109694E+02 0.  0.
         12    1    1    2    0    0 -0.40829903537E+02  0.17113639478E+02 -0.83159320327E+01  0.45045670209E+02  0.00000000000E+00 0. -1.
         11    1    3    3    0    0  0.53630199934E+01 -0.41982489891E+01  0.24378212255E+01  0.72339650685E+01  0.51100000000E-03 0. -1.
        -11    1    3    3    0    0  0.10605087463E+02 -0.21993904332E+01 -0.12773766638E+01  0.10905819079E+02  0.51100000000E-03 0.  1.
        -12    1    3    3    0    0  0.24861796081E+02 -0.10716000056E+02  0.71554874710E+01  0.28002545643E+02  0.00000000000E+00 0.  1.
</event>
<event>
 7    1  0.1485408E-008  0.4614232E+02  0.7816164E-02  0.1320468E+00
        -11   -1    0    0    0    0  0.00000000000E+00  0.00000000000E+00  0.45593999997E+02  0.45594000000E+02  0.51100000000E-03 0. -1.
         11   -1    0    0    0    0 -0.00000000000E+00 -0.00000000000E+00 -0.45593999997E+02  0.45594000000E+02  0.51100000000E-03 0.  1.
    9900012    2    1    2    0    0 -0.45228613980E+01 -0.42854269538E+02 -0.13121306176E+02  0.46142319090E+02  0.10000012122E+02 0.  0.
         12    1    1    2    0    0  0.45228613980E+01  0.42854269538E+02  0.13121306176E+02  0.45045680910E+02  0.00000000000E+00 0. -1.
         11    1    3    3    0    0 -0.24664419874E+01 -0.29253429966E+02 -0.10418539535E+02  0.31151123048E+02  0.51100000000E-03 0.  1.
        -11    1    3    3    0    0 -0.23561606975E+01 -0.97034271496E+01 -0.41629959468E+01  0.10818434600E+02  0.51100000000E-03 0. -1.
         12    1    3    3    0    0  0.29974128699E+00 -0.38974124225E+01  0.14602293062E+01  0.41727614425E+01  0.00000000000E+00 0. -1.
</event>
<event>
 7    1  0.1485408E-008  0.4614232E+02  0.7816164E-02  0.1320468E+00
        -11   -1    0    0    0    0  0.00000000000E+00  0.00000000000E+00  0.45593999997E+02  0.45594000000E+02  0.51100000000E-03 0.  1.
         11   -1    0    0    0    0 -0.00000000000E+00 -0.00000000000E+00 -0.45593999997E+02  0.45594000000E+02  0.51100000000E-03 0. -1.
    9900012    2    1    2    0    0 -0.44853979707E+02  0.16458806283E+01  0.38111711835E+01  0.46142318249E+02  0.10000004449E+02 0.  0.
         12    1    1    2    0    0  0.44853979707E+02 -0.16458806283E+01 -0.38111711835E+01  0.45045681751E+02  0.00000000000E+00 0. -1.
         11    1    3    3    0    0 -0.29900031828E+02 -0.20283033124E+01  0.54572607874E-01  0.29968798709E+02  0.51100000000E-03 0. -1.
        -11    1    3    3    0    0 -0.11938883963E+02  0.19138281165E+01  0.38238136678E+01  0.12681531437E+02  0.51100000000E-03 0.  1.
         12    1    3    3    0    0 -0.30150639161E+01  0.17603558242E+01 -0.67215092203E-01  0.34919881035E+01  0.00000000000E+00 0. -1.
</event>
<event>
 7    1  0.1485408E-008  0.4614232E+02  0.7816164E-02  0.1320468E+00
        -11   -1    0    0    0    0  0.00000000000E+00  0.00000000000E+00  0.45593999997E+02  0.45594000000E+02  0.51100000000E-03 0. -1.
         11   -1    0    0    0    0 -0.00000000000E+00 -0.00000000000E+00 -0.45593999997E+02  0.45594000000E+02  0.51100000000E-03 0.  1.
    9900012    2    1    2    0    0 -0.17298729988E+01 -0.43662215169E+02 -0.10942215437E+02  0.46142316825E+02  0.99999914640E+01 0.  0.
         12    1    1    2    0    0  0.17298729988E+01  0.43662215169E+02  0.10942215437E+02  0.45045683175E+02  0.00000000000E+00 0. -1.
         11    1    3    3    0    0 -0.13460860131E+01 -0.13045077254E+02 -0.72206321715E+01  0.14970755403E+02  0.51100000000E-03 0. -1.
        -11    1    3    3    0    0 -0.13633890274E+01 -0.16725117124E+02 -0.96099951898E-01  0.16780870297E+02  0.51100000000E-03 0.  1.
        -12    1    3    3    0    0  0.97960204168E+00 -0.13892020790E+02 -0.36254833137E+01  0.14390691125E+02  0.00000000000E+00 0.  1.
</event>
<event>
 7    1  0.1485408E-008  0.4614232E+02  0.7816164E-02  0.1320468E+00
        -11   -1    0    0    0    0  0.00000000000E+00  0.00000000000E+00  0.45593999997E+02  0.45594000000E+02  0.51100000000E-03 0.  1.
         11   -1    0    0    0    0 -0.00000000000E+00 -0.00000000000E+00 -0.45593999997E+02  0.45594000000E+02  0.51100000000E-03 0. -1.
    9900012    2    1    2    0    0  0.38338328171E+02  0.96048060578E+01  0.21610963780E+02  0.46142318055E+02  0.10000002679E+02 0.  0.
         12    1    1    2    0    0 -0.38338328171E+02 -0.96048060578E+01 -0.21610963780E+02  0.45045681945E+02  0.00000000000E+00 0. -1.
         11    1    3    3    0    0  0.97167117860E+01  0.14215628150E+01  0.66668676388E+01  0.11869391439E+02  0.51100000000E-03 0. -1.
        -11    1    3    3    0    0  0.67308583112E+01  0.54973843314E+01  0.30156958719E+01  0.91989189552E+01  0.51100000000E-03 0.  1.
        -12    1    3    3    0    0  0.21890758074E+02  0.26858589114E+01  0.11928400270E+02  0.25074007660E+02  0.00000000000E+00 0.  1.
</event>
<event>
 7    1  0.1485408E-008  0.4614232E+02  0.7816164E-02  0.1320468E+00
        -11   -1    0    0    0    0  0.00000000000E+00  0.00000000000E+00  0.45593999997E+02  0.45594000000E+02  0.51100000000E-03 0.  1.
         11   -1    0    0    0    0 -0.00000000000E+00 -0.00000000000E+00 -0.45593999997E+02  0.45594000000E+02  0.51100000000E-03 0. -1.
    9900012    2    1    2    0    0  0.17641151306E+02 -0.75140637041E+01  0.40760791950E+02  0.46142317264E+02  0.99999954678E+01 0.  0.
         12    1    1    2    0    0 -0.17641151306E+02  0.75140637041E+01 -0.40760791950E+02  0.45045682736E+02  0.00000000000E+00 0. -1.
         11    1    3    3    0    0  0.39470353651E+01  0.14500472547E+01  0.11249973403E+02  0.12010146837E+02  0.51100000000E-03 0. -1.
        -11    1    3    3    0    0  0.11863050919E+02 -0.63355937032E+01  0.20041957082E+02  0.24136109227E+02  0.51100000000E-03 0.  1.
        -12    1    3    3    0    0  0.18310650225E+01 -0.26285172556E+01  0.94688614653E+01  0.99960612007E+01  0.00000000000E+00 0.  1.
</event>
<event>
 7    1  0.1485408E-008  0.4614232E+02  0.7816164E-02  0.1320468E+00
        -11   -1    0    0    0    0  0.00000000000E+00  0.00000000000E+00  0.45593999997E+02  0.45594000000E+02  0.51100000000E-03 0. -1.
         11   -1    0    0    0    0 -0.00000000000E+00 -0.00000000000E+00 -0.45593999997E+02  0.45594000000E+02  0.51100000000E-03 0.  1.
    9900012    2    1    2    0    0 -0.40381658646E+02 -0.52329744886E+01 -0.19262686940E+02  0.46142317797E+02  0.10000000323E+02 0.  0.
         12    1    1    2    0    0  0.40381658646E+02  0.52329744886E+01  0.19262686940E+02  0.45045682203E+02  0.00000000000E+00 0. -1.
         11    1    3    3    0    0 -0.15577385208E+01  0.76956341421E+00  0.40170337681E+00  0.17832955480E+01  0.51100000000E-03 0.  1.
        -11    1    3    3    0    0 -0.32848890176E+02 -0.71511061213E+01 -0.17505750249E+02  0.37903023581E+02  0.51100000000E-03 0. -1.
        -12    1    3    3    0    0 -0.59750299499E+01  0.11485682185E+01 -0.21586400674E+01  0.64559986675E+01  0.00000000000E+00 0.  1.
</event>
<event>
 7    1  0.1485408E-008  0.4614232E+02  0.7816164E-02  0.1320468E+00
        -11   -1    0    0    0    0  0.00000000000E+00  0.00000000000E+00  0.45593999997E+02  0.45594000000E+02  0.51100000000E-03 0.  1.
         11   -1    0    0    0    0 -0.00000000000E+00 -0.00000000000E+00 -0.45593999997E+02  0.45594000000E+02  0.51100000000E-03 0. -1.
    9900012    2    1    2    0    0 -0.16541659381E+01 -0.30034498261E+02  0.33530672111E+02  0.46142319597E+02  0.10000016745E+02 0.  0.
         12    1    1    2    0    0  0.16541659381E+01  0.30034498261E+02 -0.33530672111E+02  0.45045680403E+02  0.00000000000E+00 0. -1.
         11    1    3    3    0    0 -0.19004445591E+01 -0.11088564894E+02  0.16589833649E+02  0.20044713560E+02  0.51100000000E-03 0. -1.
        -11    1    3    3    0    0 -0.53273595733E+00 -0.54979022196E+01  0.87026278787E+01  0.10307592768E+02  0.51100000000E-03 0.  1.
         12    1    3    3    0    0  0.77901457836E+00 -0.13448031147E+02  0.82382105837E+01  0.15790013270E+02  0.00000000000E+00 0. -1.
</event>
<event>
 7    1  0.1485408E-008  0.4614232E+02  0.7816164E-02  0.1320468E+00
        -11   -1    0    0    0    0  0.00000000000E+00  0.00000000000E+00  0.45593999997E+02  0.45594000000E+02  0.51100000000E-03 0.  1.
         11   -1    0    0    0    0 -0.00000000000E+00 -0.00000000000E+00 -0.45593999997E+02  0.45594000000E+02  0.51100000000E-03 0. -1.
    9900012    2    1    2    0    0  0.32756702388E+01  0.41853676377E+02  0.16329519896E+02  0.46142318056E+02  0.10000002686E+02 0.  0.
         12    1    1    2    0    0 -0.32756702388E+01 -0.41853676377E+02 -0.16329519896E+02  0.45045681944E+02  0.00000000000E+00 0. -1.
         11    1    3    3    0    0 -0.59448167630E+00  0.12431132162E+02  0.24216327385E+01  0.12678752331E+02  0.51100000000E-03 0. -1.
        -11    1    3    3    0    0  0.55597077909E+01  0.25257775942E+02  0.10961807275E+02  0.28089621130E+02  0.51100000000E-03 0.  1.
         12    1    3    3    0    0 -0.16895558757E+01  0.41647682735E+01  0.29460798827E+01  0.53739445945E+01  0.00000000000E+00 0. -1.
</event>
<event>
 7    1  0.1723227E-008  0.4614232E+02  0.7816164E-02  0.1320468E+00
        -11   -1    0    0    0    0  0.00000000000E+00  0.00000000000E+00  0.45593999997E+02  0.45594000000E+02  0.51100000000E-03 0. -1.
         11   -1    0    0    0    0 -0.00000000000E+00 -0.00000000000E+00 -0.45593999997E+02  0.45594000000E+02  0.51100000000E-03 0.  1.
    9900012    2    1    2    0    0 -0.41871829160E+02 -0.15333184218E+02 -0.63841146300E+01  0.46142317243E+02  0.99999952717E+01 0.  0.
         12    1    1    2    0    0  0.41871829160E+02  0.15333184218E+02  0.63841146300E+01  0.45045682757E+02  0.00000000000E+00 0. -1.
         11    1    3    3    0    0 -0.55533288137E+01 -0.18525960654E+01 -0.44323977584E+01  0.73428688702E+01  0.51100000000E-03 0. -1.
        -11    1    3    3    0    0 -0.28698610129E+02 -0.10910090225E+02 -0.18257398818E+01  0.30756684126E+02  0.51100000000E-03 0.  1.
         12    1    3    3    0    0 -0.76198902177E+01 -0.25704979273E+01 -0.12597698981E+00  0.80427642465E+01  0.00000000000E+00 0. -1.
</event>
<event>
 7    1  0.1485408E-008  0.4614231E+02  0.7816164E-02  0.1320468E+00
        -11   -1    0    0    0    0  0.00000000000E+00  0.00000000000E+00  0.45593999997E+02  0.45594000000E+02  0.51100000000E-03 0. -1.
         11   -1    0    0    0    0 -0.00000000000E+00 -0.00000000000E+00 -0.45593999997E+02  0.45594000000E+02  0.51100000000E-03 0.  1.
    9900012    2    1    2    0    0  0.87939721928E+00  0.23918969989E+02 -0.38160494040E+02  0.46142314633E+02  0.99999714760E+01 0.  0.
         12    1    1    2    0    0 -0.87939721928E+00 -0.23918969989E+02  0.38160494040E+02  0.45045685367E+02  0.00000000000E+00 0. -1.
         11    1    3    3    0    0  0.93743873284E+00  0.39340924719E+01 -0.13697043135E+02  0.14281626863E+02  0.51100000000E-03 0. -1.
        -11    1    3    3    0    0  0.17753757054E+01  0.81804051505E+01 -0.11610647563E+02  0.14313564351E+02  0.51100000000E-03 0.  1.
         12    1    3    3    0    0 -0.18334172190E+01  0.11804472367E+02 -0.12852803342E+02  0.17547123420E+02  0.00000000000E+00 0. -1.
</event>
<event>
 7    1  0.1485408E-008  0.4614232E+02  0.7816164E-02  0.1320468E+00
        -11   -1    0    0    0    0  0.00000000000E+00  0.00000000000E+00  0.45593999997E+02  0.45594000000E+02  0.51100000000E-03 0. -1.
         11   -1    0    0    0    0 -0.00000000000E+00 -0.00000000000E+00 -0.45593999997E+02  0.45594000000E+02  0.51100000000E-03 0.  1.
    9900012    2    1    2    0    0  0.19709349402E+02  0.36560524395E+02 -0.17435107899E+02  0.46142318905E+02  0.10000010428E+02 0.  0.
         12    1    1    2    0    0 -0.19709349402E+02 -0.36560524395E+02  0.17435107899E+02  0.45045681095E+02  0.00000000000E+00 0. -1.
         11    1    3    3    0    0  0.37485530558E+01  0.49362757711E+01 -0.65442652994E+01  0.90136494868E+01  0.51100000000E-03 0. -1.
        -11    1    3    3    0    0  0.10438805588E+02  0.21527543692E+02 -0.63160195900E+01  0.24744613620E+02  0.51100000000E-03 0.  1.
         12    1    3    3    0    0  0.55219907587E+01  0.10096704933E+02 -0.45748230093E+01  0.12384055798E+02  0.00000000000E+00 0. -1.
</event>
<event>
 7    1  0.1485408E-008  0.4614231E+02  0.7816164E-02  0.1320468E+00
        -11   -1    0    0    0    0  0.00000000000E+00  0.00000000000E+00  0.45593999997E+02  0.45594000000E+02  0.51100000000E-03 0.  1.
         11   -1    0    0    0    0 -0.00000000000E+00 -0.00000000000E+00 -0.45593999997E+02  0.45594000000E+02  0.51100000000E-03 0. -1.
    9900012    2    1    2    0    0  0.32361610505E+02 -0.49938090454E+01  0.30933833476E+02  0.46142311896E+02  0.99999465180E+01 0.  0.
         12    1    1    2    0    0 -0.32361610505E+02  0.49938090454E+01 -0.30933833476E+02  0.45045688104E+02  0.00000000000E+00 0. -1.
         11    1    3    3    0    0  0.43803044921E+01  0.80616194648E+00  0.13736033742E+01  0.46608744907E+01  0.51100000000E-03 0. -1.
        -11    1    3    3    0    0  0.26857752092E+02 -0.64981410739E+01  0.27188146073E+02  0.38765448172E+02  0.51100000000E-03 0.  1.
        -12    1    3    3    0    0  0.11235539209E+01  0.69817008200E+00  0.23720840284E+01  0.27159892331E+01  0.00000000000E+00 0.  1.
</event>
<event>
 7    1  0.1485408E-008  0.4614231E+02  0.7816164E-02  0.1320468E+00
        -11   -1    0    0    0    0  0.00000000000E+00  0.00000000000E+00  0.45593999997E+02  0.45594000000E+02  0.51100000000E-03 0.  1.
         11   -1    0    0    0    0 -0.00000000000E+00 -0.00000000000E+00 -0.45593999997E+02  0.45594000000E+02  0.51100000000E-03 0. -1.
    9900012    2    1    2    0    0 -0.38180060007E+02  0.98071861454E+01  0.21799449461E+02  0.46142313424E+02  0.99999604527E+01 0.  0.
         12    1    1    2    0    0  0.38180060007E+02 -0.98071861454E+01 -0.21799449461E+02  0.45045686576E+02  0.00000000000E+00 0. -1.
         11    1    3    3    0    0 -0.15409547086E+02  0.14009294264E+01  0.12341819232E+02  0.19792353243E+02  0.51100000000E-03 0. -1.
        -11    1    3    3    0    0 -0.11552144872E+02  0.23672852937E+01  0.54770022421E+01  0.13002063091E+02  0.51100000000E-03 0.  1.
         12    1    3    3    0    0 -0.11218368049E+02  0.60389714253E+01  0.39806279870E+01  0.13347897090E+02  0.00000000000E+00 0. -1.
</event>
<event>
 7    1  0.1485408E-008  0.4614232E+02  0.7816164E-02  0.1320468E+00
        -11   -1    0    0    0    0  0.00000000000E+00  0.00000000000E+00  0.45593999997E+02  0.45594000000E+02  0.51100000000E-03 0.  1.
         11   -1    0    0    0    0 -0.00000000000E+00 -0.00000000000E+00 -0.45593999997E+02  0.45594000000E+02  0.51100000000E-03 0. -1.
    9900012    2    1    2    0    0  0.39725758064E+02 -0.18864697721E+02  0.97519643557E+01  0.46142317824E+02  0.10000000577E+02 0.  0.
         12    1    1    2    0    0 -0.39725758064E+02  0.18864697721E+02 -0.97519643557E+01  0.45045682176E+02  0.00000000000E+00 0. -1.
         11    1    3    3    0    0  0.11824474435E+01 -0.20223101463E+01  0.55522807587E+00  0.24075295973E+01  0.51100000000E-03 0. -1.
        -11    1    3    3    0    0  0.38839858213E+02 -0.16471677351E+02  0.87566749921E+01  0.43087470313E+02  0.51100000000E-03 0.  1.
        -12    1    3    3    0    0 -0.29654759291E+00 -0.37071022376E+00  0.44006128767E+00  0.64731791398E+00  0.00000000000E+00 0.  1.
</event>
<event>
 7    1  0.1485408E-008  0.4614232E+02  0.7816164E-02  0.1320468E+00
        -11   -1    0    0    0    0  0.00000000000E+00  0.00000000000E+00  0.45593999997E+02  0.45594000000E+02  0.51100000000E-03 0. -1.
         11   -1    0    0    0    0 -0.00000000000E+00 -0.00000000000E+00 -0.45593999997E+02  0.45594000000E+02  0.51100000000E-03 0.  1.
    9900012    2    1    2    0    0 -0.10879088849E+02  0.40059424690E+02 -0.17492898099E+02  0.46142316915E+02  0.99999922834E+01 0.  0.
         12    1    1    2    0    0  0.10879088849E+02 -0.40059424690E+02  0.17492898099E+02  0.45045683085E+02  0.00000000000E+00 0. -1.
         11    1    3    3    0    0 -0.19816901843E+01  0.26720875054E+01 -0.55064575618E+00  0.33719962386E+01  0.51100000000E-03 0. -1.
        -11    1    3    3    0    0 -0.10232395814E+02  0.28836497711E+02 -0.13754834514E+02  0.33547593014E+02  0.51100000000E-03 0.  1.
        -12    1    3    3    0    0  0.13349971495E+01  0.85508394745E+01 -0.31874178290E+01  0.92227276618E+01  0.00000000000E+00 0.  1.
</event>
<event>
 7    1  0.1485408E-008  0.4614232E+02  0.7816164E-02  0.1320468E+00
        -11   -1    0    0    0    0  0.00000000000E+00  0.00000000000E+00  0.45593999997E+02  0.45594000000E+02  0.51100000000E-03 0.  1.
         11   -1    0    0    0    0 -0.00000000000E+00 -0.00000000000E+00 -0.45593999997E+02  0.45594000000E+02  0.51100000000E-03 0. -1.
    9900012    2    1    2    0    0 -0.28825717696E+02 -0.22877642251E+02  0.25977008588E+02  0.46142317734E+02  0.99999997511E+01 0.  0.
         12    1    1    2    0    0  0.28825717696E+02  0.22877642251E+02 -0.25977008588E+02  0.45045682266E+02  0.00000000000E+00 0. -1.
         11    1    3    3    0    0 -0.10810193760E+02 -0.55149898508E+01  0.69537022763E+01  0.13986757229E+02  0.51100000000E-03 0. -1.
        -11    1    3    3    0    0 -0.40566712159E+01 -0.62442792868E+01  0.25552297046E+01  0.78725348059E+01  0.51100000000E-03 0.  1.
        -12    1    3    3    0    0 -0.13958852720E+02 -0.11118373113E+02  0.16468076607E+02  0.24283025699E+02  0.00000000000E+00 0.  1.
</event>
<event>
 7    1  0.1485408E-008  0.4614232E+02  0.7816164E-02  0.1320468E+00
        -11   -1    0    0    0    0  0.00000000000E+00  0.00000000000E+00  0.45593999997E+02  0.45594000000E+02  0.51100000000E-03 0.  1.
         11   -1    0    0    0    0 -0.00000000000E+00 -0.00000000000E+00 -0.45593999997E+02  0.45594000000E+02  0.51100000000E-03 0. -1.
    9900012    2    1    2    0    0 -0.42871260511E+02 -0.11942979323E+02  0.69666180410E+01  0.46142317634E+02  0.99999988414E+01 0.  0.
         12    1    1    2    0    0  0.42871260511E+02  0.11942979323E+02 -0.69666180410E+01  0.45045682366E+02  0.00000000000E+00 0. -1.
         11    1    3    3    0    0 -0.15259272874E+01 -0.15460054861E+01  0.20449049728E+01  0.29833242630E+01  0.51100000000E-03 0. -1.
        -11    1    3    3    0    0 -0.11494651327E+02 -0.46251111266E+01  0.26513294860E+01  0.12670762028E+02  0.51100000000E-03 0.  1.
         12    1    3    3    0    0 -0.29850681897E+02 -0.57718627099E+01  0.22703835823E+01  0.30488231343E+02  0.00000000000E+00 0. -1.
</event>
<event>
 7    1  0.1485408E-008  0.4614232E+02  0.7816164E-02  0.1320468E+00
        -11   -1    0    0    0    0  0.00000000000E+00  0.00000000000E+00  0.45593999997E+02  0.45594000000E+02  0.51100000000E-03 0.  1.
         11   -1    0    0    0    0 -0.00000000000E+00 -0.00000000000E+00 -0.45593999997E+02  0.45594000000E+02  0.51100000000E-03 0. -1.
    9900012    2    1    2    0    0 -0.27205779986E+02 -0.17669686630E+02  0.31252859815E+02  0.46142317222E+02  0.99999950876E+01 0.  0.
         12    1    1    2    0    0  0.27205779986E+02  0.17669686630E+02 -0.31252859815E+02  0.45045682778E+02  0.00000000000E+00 0. -1.
         11    1    3    3    0    0 -0.10180783662E+02 -0.22439728283E+01  0.11323967844E+02  0.15392076469E+02  0.51100000000E-03 0.  1.
        -11    1    3    3    0    0 -0.16930933300E+02 -0.15382687285E+02  0.18780336887E+02  0.29597037426E+02  0.51100000000E-03 0. -1.
         12    1    3    3    0    0 -0.94063023656E-01 -0.43026516841E-01  0.11485550841E+01  0.11532033276E+01  0.00000000000E+00 0. -1.
</event>
<event>
 7    1  0.1485408E-008  0.4614231E+02  0.7816164E-02  0.1320468E+00
        -11   -1    0    0    0    0  0.00000000000E+00  0.00000000000E+00  0.45593999997E+02  0.45594000000E+02  0.51100000000E-03 0.  1.
         11   -1    0    0    0    0 -0.00000000000E+00 -0.00000000000E+00 -0.45593999997E+02  0.45594000000E+02  0.51100000000E-03 0. -1.
    9900012    2    1    2    0    0 -0.73161200555E+01  0.26367965298E+02  0.35781543621E+02  0.46142311299E+02  0.99999410719E+01 0.  0.
         12    1    1    2    0    0  0.73161200555E+01 -0.26367965298E+02 -0.35781543621E+02  0.45045688701E+02  0.00000000000E+00 0. -1.
         11    1    3    3    0    0 -0.55611511655E+01  0.66634666052E+01  0.80933308762E+01  0.11867189828E+02  0.51100000000E-03 0. -1.
        -11    1    3    3    0    0  0.26166163622E+00  0.45217243705E+01  0.38700809963E+01  0.59575150250E+01  0.51100000000E-03 0.  1.
         12    1    3    3    0    0 -0.20166305262E+01  0.15182774322E+02  0.23818131749E+02  0.28317606446E+02  0.00000000000E+00 0. -1.
</event>
<event>
 7    1  0.1485408E-008  0.4614232E+02  0.7816164E-02  0.1320468E+00
        -11   -1    0    0    0    0  0.00000000000E+00  0.00000000000E+00  0.45593999997E+02  0.45594000000E+02  0.51100000000E-03 0.  1.
         11   -1    0    0    0    0 -0.00000000000E+00 -0.00000000000E+00 -0.45593999997E+02  0.45594000000E+02  0.51100000000E-03 0. -1.
    9900012    2    1    2    0    0 -0.16747295735E+02 -0.19569509576E+02  0.36955051713E+02  0.46142318003E+02  0.10000002207E+02 0.  0.
         12    1    1    2    0    0  0.16747295735E+02  0.19569509576E+02 -0.36955051713E+02  0.45045681997E+02  0.00000000000E+00 0. -1.
         11    1    3    3    0    0 -0.13100251115E+01 -0.23923610461E+01  0.87850096675E+01  0.91986929662E+01  0.51100000000E-03 0. -1.
        -11    1    3    3    0    0  0.48808684019E+00 -0.11922871519E+01  0.10335192468E+01  0.16516475746E+01  0.51100000000E-03 0.  1.
        -12    1    3    3    0    0 -0.15925357464E+02 -0.15984861378E+02  0.27136522798E+02  0.35291977462E+02  0.00000000000E+00 0.  1.
</event>
<event>
 7    1  0.1485408E-008  0.4614232E+02  0.7816164E-02  0.1320468E+00
        -11   -1    0    0    0    0  0.00000000000E+00  0.00000000000E+00  0.45593999997E+02  0.45594000000E+02  0.51100000000E-03 0. -1.
         11   -1    0    0    0    0 -0.00000000000E+00 -0.00000000000E+00 -0.45593999997E+02  0.45594000000E+02  0.51100000000E-03 0.  1.
    9900012    2    1    2    0    0  0.39020922138E+02 -0.69974372915E+01 -0.21389643684E+02  0.46142319296E+02  0.10000013999E+02 0.  0.
         12    1    1    2    0    0 -0.39020922138E+02  0.69974372915E+01  0.21389643684E+02  0.45045680704E+02  0.00000000000E+00 0. -1.
         11    1    3    3    0    0  0.20479532509E+02 -0.74505857681E+01 -0.10886299799E+02  0.24360500890E+02  0.51100000000E-03 0.  1.
        -11    1    3    3    0    0  0.88194133912E+01  0.17336325229E+01 -0.31467399745E+01  0.95231038542E+01  0.51100000000E-03 0. -1.
        -12    1    3    3    0    0  0.97219762383E+01 -0.12804840464E+01 -0.73566039100E+01  0.12258714552E+02  0.00000000000E+00 0.  1.
</event>
<event>
 7    1  0.1485408E-008  0.4614232E+02  0.7816164E-02  0.1320468E+00
        -11   -1    0    0    0    0  0.00000000000E+00  0.00000000000E+00  0.45593999997E+02  0.45594000000E+02  0.51100000000E-03 0. -1.
         11   -1    0    0    0    0 -0.00000000000E+00 -0.00000000000E+00 -0.45593999997E+02  0.45594000000E+02  0.51100000000E-03 0.  1.
    9900012    2    1    2    0    0 -0.25908670545E+02  0.36846889439E+02  0.40094751802E+00  0.46142320633E+02  0.10000026186E+02 0.  0.
         12    1    1    2    0    0  0.25908670545E+02 -0.36846889439E+02 -0.40094751802E+00  0.45045679367E+02  0.00000000000E+00 0. -1.
         11    1    3    3    0    0 -0.40869182185E+01  0.15455946770E+01 -0.45809378360E+00  0.43933601726E+01  0.51100000000E-03 0. -1.
        -11    1    3    3    0    0 -0.15561549595E+02  0.21100812794E+02  0.76249434890E+00  0.26229516280E+02  0.51100000000E-03 0.  1.
         12    1    3    3    0    0 -0.62602027313E+01  0.14200481968E+02  0.96546952719E-01  0.15519444180E+02  0.00000000000E+00 0. -1.
</event>
<event>
 7    1  0.1485408E-008  0.4614232E+02  0.7816164E-02  0.1320468E+00
        -11   -1    0    0    0    0  0.00000000000E+00  0.00000000000E+00  0.45593999997E+02  0.45594000000E+02  0.51100000000E-03 0. -1.
         11   -1    0    0    0    0 -0.00000000000E+00 -0.00000000000E+00 -0.45593999997E+02  0.45594000000E+02  0.51100000000E-03 0.  1.
    9900012    2    1    2    0    0  0.21976063057E+02 -0.24985763524E+02 -0.30362440257E+02  0.46142317579E+02  0.99999983402E+01 0.  0.
         12    1    1    2    0    0 -0.21976063057E+02  0.24985763524E+02  0.30362440257E+02  0.45045682421E+02  0.00000000000E+00 0. -1.
         11    1    3    3    0    0 -0.51914782249E+00 -0.55866990522E+00 -0.84087237499E-01  0.76726621796E+00  0.51100000000E-03 0. -1.
        -11    1    3    3    0    0  0.16727869490E+02 -0.16771362256E+02 -0.24970975663E+02  0.34418742502E+02  0.51100000000E-03 0.  1.
        -12    1    3    3    0    0  0.57673413892E+01 -0.76557313631E+01 -0.53073773568E+01  0.10956308859E+02  0.00000000000E+00 0.  1.
</event>
<event>
 7    1  0.1485408E-008  0.4614232E+02  0.7816164E-02  0.1320468E+00
        -11   -1    0    0    0    0  0.00000000000E+00  0.00000000000E+00  0.45593999997E+02  0.45594000000E+02  0.51100000000E-03 0. -1.
         11   -1    0    0    0    0 -0.00000000000E+00 -0.00000000000E+00 -0.45593999997E+02  0.45594000000E+02  0.51100000000E-03 0.  1.
    9900012    2    1    2    0    0  0.18392013940E+01  0.25559560635E+01 -0.44935486282E+02  0.46142317626E+02  0.99999987670E+01 0.  0.
         12    1    1    2    0    0 -0.18392013940E+01 -0.25559560635E+01  0.44935486282E+02  0.45045682374E+02  0.00000000000E+00 0. -1.
         11    1    3    3    0    0  0.10076461641E+01 -0.26566080240E+01 -0.88350244255E+01  0.92806558953E+01  0.51100000000E-03 0. -1.
        -11    1    3    3    0    0 -0.42384304375E+00  0.59248176352E+01 -0.30837110965E+02  0.31403988916E+02  0.51100000000E-03 0.  1.
        -12    1    3    3    0    0  0.12553982737E+01 -0.71225354773E+00 -0.52633508914E+01  0.54576728143E+01  0.00000000000E+00 0.  1.
</event>
<event>
 7    1  0.1485408E-008  0.4614232E+02  0.7816164E-02  0.1320468E+00
        -11   -1    0    0    0    0  0.00000000000E+00  0.00000000000E+00  0.45593999997E+02  0.45594000000E+02  0.51100000000E-03 0.  1.
         11   -1    0    0    0    0 -0.00000000000E+00 -0.00000000000E+00 -0.45593999997E+02  0.45594000000E+02  0.51100000000E-03 0. -1.
    9900012    2    1    2    0    0  0.36733106347E+02 -0.94132203094E+00  0.26055831260E+02  0.46142317281E+02  0.99999956179E+01 0.  0.
         12    1    1    2    0    0 -0.36733106347E+02  0.94132203094E+00 -0.26055831260E+02  0.45045682719E+02  0.00000000000E+00 0. -1.
         11    1    3    3    0    0  0.26682840054E+01  0.14878173985E+01  0.50149270344E+00  0.30959385229E+01  0.51100000000E-03 0. -1.
        -11    1    3    3    0    0  0.12251066844E+02  0.87808871638E+00  0.11889227497E+02  0.17094250769E+02  0.51100000000E-03 0.  1.
         12    1    3    3    0    0  0.21813755497E+02 -0.33072281458E+01  0.13665111059E+02  0.25952127989E+02  0.00000000000E+00 0. -1.
</event>
<event>
 7    1  0.1485408E-008  0.4614232E+02  0.7816164E-02  0.1320468E+00
        -11   -1    0    0    0    0  0.00000000000E+00  0.00000000000E+00  0.45593999997E+02  0.45594000000E+02  0.51100000000E-03 0.  1.
         11   -1    0    0    0    0 -0.00000000000E+00 -0.00000000000E+00 -0.45593999997E+02  0.45594000000E+02  0.51100000000E-03 0. -1.
    9900012    2    1    2    0    0  0.42226984095E+02  0.25589599909E+01 -0.15474078293E+02  0.46142316954E+02  0.99999926446E+01 0.  0.
         12    1    1    2    0    0 -0.42226984095E+02 -0.25589599909E+01  0.15474078293E+02  0.45045683046E+02  0.00000000000E+00 0. -1.
         11    1    3    3    0    0  0.10101656306E+02 -0.10574641912E+01 -0.25740700548E+01  0.10477954359E+02  0.51100000000E-03 0. -1.
        -11    1    3    3    0    0  0.12268964114E+02 -0.19957057583E+01 -0.66886211040E+01  0.14115522465E+02  0.51100000000E-03 0.  1.
        -12    1    3    3    0    0  0.19856363675E+02  0.56121299405E+01 -0.62113871342E+01  0.21548840131E+02  0.00000000000E+00 0.  1.
</event>
<event>
 7    1  0.1485408E-008  0.4614232E+02  0.7816164E-02  0.1320468E+00
        -11   -1    0    0    0    0  0.00000000000E+00  0.00000000000E+00  0.45593999997E+02  0.45594000000E+02  0.51100000000E-03 0.  1.
         11   -1    0    0    0    0 -0.00000000000E+00 -0.00000000000E+00 -0.45593999997E+02  0.45594000000E+02  0.51100000000E-03 0. -1.
    9900012    2    1    2    0    0  0.25659642262E+01 -0.36598194119E+02  0.26136212403E+02  0.46142316700E+02  0.99999903276E+01 0.  0.
         12    1    1    2    0    0 -0.25659642262E+01  0.36598194119E+02 -0.26136212403E+02  0.45045683300E+02  0.00000000000E+00 0. -1.
         11    1    3    3    0    0 -0.71523730904E+00 -0.82250528950E-02  0.21117579756E+01  0.22296085011E+01  0.51100000000E-03 0. -1.
        -11    1    3    3    0    0  0.11911152988E+01 -0.11531964710E+02  0.69182778015E+01  0.13500649382E+02  0.51100000000E-03 0.  1.
         12    1    3    3    0    0  0.20900862365E+01 -0.25058004356E+02  0.17106176626E+02  0.30412058818E+02  0.00000000000E+00 0. -1.
</event>
<event>
 7    1  0.1485408E-008  0.4614232E+02  0.7816164E-02  0.1320468E+00
        -11   -1    0    0    0    0  0.00000000000E+00  0.00000000000E+00  0.45593999997E+02  0.45594000000E+02  0.51100000000E-03 0. -1.
         11   -1    0    0    0    0 -0.00000000000E+00 -0.00000000000E+00 -0.45593999997E+02  0.45594000000E+02  0.51100000000E-03 0.  1.
    9900012    2    1    2    0    0  0.33250065353E+02 -0.29884696730E+02 -0.55182859422E+01  0.46142318472E+02  0.10000006479E+02 0.  0.
         12    1    1    2    0    0 -0.33250065353E+02  0.29884696730E+02  0.55182859422E+01  0.45045681528E+02  0.00000000000E+00 0. -1.
         11    1    3    3    0    0 -0.35186164857E+00 -0.40450968568E+00  0.74705254807E+00  0.91952296124E+00  0.51100000000E-03 0. -1.
        -11    1    3    3    0    0  0.20441457395E+02 -0.17503158395E+02 -0.24393555713E+01  0.27021550476E+02  0.51100000000E-03 0.  1.
         12    1    3    3    0    0  0.13160469606E+02 -0.11977028649E+02 -0.38259829189E+01  0.18201245035E+02  0.00000000000E+00 0. -1.
</event>
<event>
 7    1  0.1485408E-008  0.4614232E+02  0.7816164E-02  0.1320468E+00
        -11   -1    0    0    0    0  0.00000000000E+00  0.00000000000E+00  0.45593999997E+02  0.45594000000E+02  0.51100000000E-03 0.  1.
         11   -1    0    0    0    0 -0.00000000000E+00 -0.00000000000E+00 -0.45593999997E+02  0.45594000000E+02  0.51100000000E-03 0. -1.
    9900012    2    1    2    0    0 -0.37905750964E+02 -0.16494168566E+02  0.17894411018E+02  0.46142317649E+02  0.99999989757E+01 0.  0.
         12    1    1    2    0    0  0.37905750964E+02  0.16494168566E+02 -0.17894411018E+02  0.45045682351E+02  0.00000000000E+00 0. -1.
         11    1    3    3    0    0 -0.95546407524E+01 -0.70517664708E+01  0.23169774160E+01  0.12099047685E+02  0.51100000000E-03 0.  1.
        -11    1    3    3    0    0 -0.73519919522E+01 -0.27775887154E+00  0.39134054259E+01  0.83332873432E+01  0.51100000000E-03 0. -1.
        -12    1    3    3    0    0 -0.20999118259E+02 -0.91646432232E+01  0.11664028177E+02  0.25709982621E+02  0.00000000000E+00 0.  1.
</event>
<event>
 7    1  0.1485408E-008  0.4614232E+02  0.7816164E-02  0.1320468E+00
        -11   -1    0    0    0    0  0.00000000000E+00  0.00000000000E+00  0.45593999997E+02  0.45594000000E+02  0.51100000000E-03 0.  1.
         11   -1    0    0    0    0 -0.00000000000E+00 -0.00000000000E+00 -0.45593999997E+02  0.45594000000E+02  0.51100000000E-03 0. -1.
    9900012    2    1    2    0    0  0.43176466212E+02  0.11890377441E+01  0.12786417425E+02  0.46142317456E+02  0.99999972145E+01 0.  0.
         12    1    1    2    0    0 -0.43176466212E+02 -0.11890377441E+01 -0.12786417425E+02  0.45045682544E+02  0.00000000000E+00 0. -1.
         11    1    3    3    0    0  0.50919748517E+01  0.16052491326E+01 -0.85761735564E-01  0.53396992429E+01  0.51100000000E-03 0.  1.
        -11    1    3    3    0    0  0.57611797829E+01 -0.24481081971E+01  0.30197856417E+01  0.69500742311E+01  0.51100000000E-03 0. -1.
        -12    1    3    3    0    0  0.32323311578E+02  0.20318968086E+01  0.98523935184E+01  0.33852543982E+02  0.00000000000E+00 0.  1.
</event>
<event>
 7    1  0.1485408E-008  0.4614232E+02  0.7816164E-02  0.1320468E+00
        -11   -1    0    0    0    0  0.00000000000E+00  0.00000000000E+00  0.45593999997E+02  0.45594000000E+02  0.51100000000E-03 0.  1.
         11   -1    0    0    0    0 -0.00000000000E+00 -0.00000000000E+00 -0.45593999997E+02  0.45594000000E+02  0.51100000000E-03 0. -1.
    9900012    2    1    2    0    0  0.18050104861E+02  0.41611372762E+01  0.41060826796E+02  0.46142324890E+02  0.10000065009E+02 0.  0.
         12    1    1    2    0    0 -0.18050104861E+02 -0.41611372762E+01 -0.41060826796E+02  0.45045675110E+02  0.00000000000E+00 0. -1.
         11    1    3    3    0    0  0.68008692115E+01  0.42892547533E+01  0.10574040514E+02  0.13283819534E+02  0.51100000000E-03 0. -1.
        -11    1    3    3    0    0  0.10670189947E+02 -0.13093248629E+01  0.24947294592E+02  0.27164955233E+02  0.51100000000E-03 0.  1.
         12    1    3    3    0    0  0.57904570249E+00  0.11812073858E+01  0.55394916904E+01  0.56935501229E+01  0.00000000000E+00 0. -1.
</event>
<event>
 7    1  0.1485408E-008  0.4614232E+02  0.7816164E-02  0.1320468E+00
        -11   -1    0    0    0    0  0.00000000000E+00  0.00000000000E+00  0.45593999997E+02  0.45594000000E+02  0.51100000000E-03 0. -1.
         11   -1    0    0    0    0 -0.00000000000E+00 -0.00000000000E+00 -0.45593999997E+02  0.45594000000E+02  0.51100000000E-03 0.  1.
    9900012    2    1    2    0    0 -0.34861100612E+01  0.55745891378E+01 -0.44563264118E+02  0.46142317451E+02  0.99999971752E+01 0.  0.
         12    1    1    2    0    0  0.34861100612E+01 -0.55745891378E+01  0.44563264118E+02  0.45045682549E+02  0.00000000000E+00 0. -1.
         11    1    3    3    0    0 -0.31787437949E+01  0.70890966653E+01 -0.23187226073E+02  0.24454184854E+02  0.51100000000E-03 0. -1.
        -11    1    3    3    0    0  0.96709303010E+00 -0.16878275743E+01 -0.17419692079E+02  0.17527969170E+02  0.51100000000E-03 0.  1.
        -12    1    3    3    0    0 -0.12744592964E+01  0.17332004682E+00 -0.39563459661E+01  0.41601634271E+01  0.00000000000E+00 0.  1.
</event>
<event>
 7    1  0.1485408E-008  0.4614232E+02  0.7816164E-02  0.1320468E+00
        -11   -1    0    0    0    0  0.00000000000E+00  0.00000000000E+00  0.45593999997E+02  0.45594000000E+02  0.51100000000E-03 0.  1.
         11   -1    0    0    0    0 -0.00000000000E+00 -0.00000000000E+00 -0.45593999997E+02  0.45594000000E+02  0.51100000000E-03 0. -1.
    9900012    2    1    2    0    0 -0.42309125899E+02 -0.19456302921E+01  0.15338378424E+02  0.46142318029E+02  0.10000002439E+02 0.  0.
         12    1    1    2    0    0  0.42309125899E+02  0.19456302921E+01 -0.15338378424E+02  0.45045681971E+02  0.00000000000E+00 0. -1.
         11    1    3    3    0    0 -0.23361099544E+02 -0.41695210215E+00  0.12790773661E+02  0.26636792450E+02  0.51100000000E-03 0. -1.
        -11    1    3    3    0    0 -0.90553477928E+01 -0.19685288176E+01 -0.54082363893E-01  0.92670035350E+01  0.51100000000E-03 0.  1.
         12    1    3    3    0    0 -0.98926785628E+01  0.43985062769E+00  0.26016871276E+01  0.10238522043E+02  0.00000000000E+00 0. -1.
</event>
<event>
 7    1  0.1485408E-008  0.4614232E+02  0.7816164E-02  0.1320468E+00
        -11   -1    0    0    0    0  0.00000000000E+00  0.00000000000E+00  0.45593999997E+02  0.45594000000E+02  0.51100000000E-03 0.  1.
         11   -1    0    0    0    0 -0.00000000000E+00 -0.00000000000E+00 -0.45593999997E+02  0.45594000000E+02  0.51100000000E-03 0. -1.
    9900012    2    1    2    0    0 -0.21102527523E+01  0.44751718306E+02 -0.46844399927E+01  0.46142318341E+02  0.10000005290E+02 0.  0.
         12    1    1    2    0    0  0.21102527523E+01 -0.44751718306E+02  0.46844399927E+01  0.45045681659E+02  0.00000000000E+00 0. -1.
         11    1    3    3    0    0 -0.48887781492E+01  0.25454667111E+02 -0.40570958681E+01  0.26235477062E+02  0.51100000000E-03 0. -1.
        -11    1    3    3    0    0  0.36169976914E+01  0.17945605837E+02 -0.56558801531E+00  0.18315221298E+02  0.51100000000E-03 0.  1.
        -12    1    3    3    0    0 -0.83847229452E+00  0.13514453591E+01 -0.61756109207E-01  0.15916199811E+01  0.00000000000E+00 0.  1.
</event>
<event>
 7    1  0.1485408E-008  0.4614232E+02  0.7816164E-02  0.1320468E+00
        -11   -1    0    0    0    0  0.00000000000E+00  0.00000000000E+00  0.45593999997E+02  0.45594000000E+02  0.51100000000E-03 0. -1.
         11   -1    0    0    0    0 -0.00000000000E+00 -0.00000000000E+00 -0.45593999997E+02  0.45594000000E+02  0.51100000000E-03 0.  1.
    9900012    2    1    2    0    0  0.38929958635E+02 -0.19639115038E+02 -0.11308272852E+02  0.46142317036E+02  0.99999933847E+01 0.  0.
         12    1    1    2    0    0 -0.38929958635E+02  0.19639115038E+02  0.11308272852E+02  0.45045682964E+02  0.00000000000E+00 0. -1.
         11    1    3    3    0    0  0.66971826748E+01 -0.30934524113E+01 -0.40684798540E+01  0.84246205959E+01  0.51100000000E-03 0.  1.
        -11    1    3    3    0    0  0.44193820281E+01  0.40978803050E+00 -0.69074270095E+00  0.44917690814E+01  0.51100000000E-03 0. -1.
         12    1    3    3    0    0  0.27813393932E+02 -0.16955450657E+02 -0.65490502967E+01  0.33225927358E+02  0.00000000000E+00 0. -1.
</event>
<event>
 7    1  0.1485408E-008  0.4614232E+02  0.7816164E-02  0.1320468E+00
        -11   -1    0    0    0    0  0.00000000000E+00  0.00000000000E+00  0.45593999997E+02  0.45594000000E+02  0.51100000000E-03 0. -1.
         11   -1    0    0    0    0 -0.00000000000E+00 -0.00000000000E+00 -0.45593999997E+02  0.45594000000E+02  0.51100000000E-03 0.  1.
    9900012    2    1    2    0    0 -0.26478167000E+02 -0.32919264397E+02  0.15631452075E+02  0.46142316632E+02  0.99999897003E+01 0.  0.
         12    1    1    2    0    0  0.26478167000E+02  0.32919264397E+02 -0.15631452075E+02  0.45045683368E+02  0.00000000000E+00 0. -1.
         11    1    3    3    0    0 -0.82206686817E+00 -0.38194993172E+01 -0.65633248512E+00  0.39617094243E+01  0.51100000000E-03 0. -1.
        -11    1    3    3    0    0 -0.14204695644E+02 -0.17751150058E+02  0.84531820758E+01  0.24255576559E+02  0.51100000000E-03 0.  1.
        -12    1    3    3    0    0 -0.11451404488E+02 -0.11348615022E+02  0.78346024847E+01  0.17925030649E+02  0.00000000000E+00 0.  1.
</event>
<event>
 7    1  0.1485408E-008  0.4614232E+02  0.7816164E-02  0.1320468E+00
        -11   -1    0    0    0    0  0.00000000000E+00  0.00000000000E+00  0.45593999997E+02  0.45594000000E+02  0.51100000000E-03 0.  1.
         11   -1    0    0    0    0 -0.00000000000E+00 -0.00000000000E+00 -0.45593999997E+02  0.45594000000E+02  0.51100000000E-03 0. -1.
    9900012    2    1    2    0    0 -0.31678899067E+02 -0.20103349592E+01  0.31961217010E+02  0.46142317793E+02  0.10000000289E+02 0.  0.
         12    1    1    2    0    0  0.31678899067E+02  0.20103349592E+01 -0.31961217010E+02  0.45045682207E+02  0.00000000000E+00 0. -1.
         11    1    3    3    0    0 -0.19009343226E+01 -0.18151655470E+01  0.42848269709E+01  0.50267404641E+01  0.51100000000E-03 0. -1.
        -11    1    3    3    0    0 -0.16630708554E+02  0.19648485532E+01  0.18406442071E+02  0.24884497319E+02  0.51100000000E-03 0.  1.
         12    1    3    3    0    0 -0.13147256190E+02 -0.21600179654E+01  0.92699479685E+01  0.16231080010E+02  0.00000000000E+00 0. -1.
</event>
<event>
 7    1  0.1485408E-008  0.4614232E+02  0.7816164E-02  0.1320468E+00
        -11   -1    0    0    0    0  0.00000000000E+00  0.00000000000E+00  0.45593999997E+02  0.45594000000E+02  0.51100000000E-03 0.  1.
         11   -1    0    0    0    0 -0.00000000000E+00 -0.00000000000E+00 -0.45593999997E+02  0.45594000000E+02  0.51100000000E-03 0. -1.
    9900012    2    1    2    0    0  0.33951031297E+02 -0.31208750710E+01  0.29439786831E+02  0.46142318342E+02  0.10000005300E+02 0.  0.
         12    1    1    2    0    0 -0.33951031297E+02  0.31208750710E+01 -0.29439786831E+02  0.45045681658E+02  0.00000000000E+00 0. -1.
         11    1    3    3    0    0  0.14838480106E+02  0.22033825991E+01  0.17191560345E+02  0.22816334808E+02  0.51100000000E-03 0. -1.
        -11    1    3    3    0    0  0.53229052161E+01 -0.12934436852E+01  0.36601562731E+01  0.65880999318E+01  0.51100000000E-03 0.  1.
         12    1    3    3    0    0  0.13789645975E+02 -0.40308139849E+01  0.85880702130E+01  0.16737883602E+02  0.00000000000E+00 0. -1.
</event>
<event>
 7    1  0.1485408E-008  0.4614232E+02  0.7816164E-02  0.1320468E+00
        -11   -1    0    0    0    0  0.00000000000E+00  0.00000000000E+00  0.45593999997E+02  0.45594000000E+02  0.51100000000E-03 0.  1.
         11   -1    0    0    0    0 -0.00000000000E+00 -0.00000000000E+00 -0.45593999997E+02  0.45594000000E+02  0.51100000000E-03 0. -1.
    9900012    2    1    2    0    0  0.25909813386E+02 -0.13729702049E+02  0.34194887775E+02  0.46142317655E+02  0.99999990297E+01 0.  0.
         12    1    1    2    0    0 -0.25909813386E+02  0.13729702049E+02 -0.34194887775E+02  0.45045682345E+02  0.00000000000E+00 0. -1.
         11    1    3    3    0    0  0.31633512016E+01 -0.16180911651E+00  0.27665068430E+01  0.42055360406E+01  0.51100000000E-03 0. -1.
        -11    1    3    3    0    0  0.82400914266E+01 -0.83296370379E+01  0.18051919578E+02  0.21521007426E+02  0.51100000000E-03 0.  1.
        -12    1    3    3    0    0  0.14506370757E+02 -0.52382558943E+01  0.13376461353E+02  0.20415774188E+02  0.00000000000E+00 0.  1.
</event>
<event>
 7    1  0.1485408E-008  0.4614232E+02  0.7816164E-02  0.1320468E+00
        -11   -1    0    0    0    0  0.00000000000E+00  0.00000000000E+00  0.45593999997E+02  0.45594000000E+02  0.51100000000E-03 0. -1.
         11   -1    0    0    0    0 -0.00000000000E+00 -0.00000000000E+00 -0.45593999997E+02  0.45594000000E+02  0.51100000000E-03 0.  1.
    9900012    2    1    2    0    0 -0.60626780720E+01 -0.33896614900E+02 -0.29040952396E+02  0.46142317819E+02  0.10000000524E+02 0.  0.
         12    1    1    2    0    0  0.60626780720E+01  0.33896614900E+02  0.29040952396E+02  0.45045682181E+02  0.00000000000E+00 0. -1.
         11    1    3    3    0    0 -0.35924586006E+01 -0.45791667434E+01 -0.58210614417E+01  0.82316027254E+01  0.51100000000E-03 0. -1.
        -11    1    3    3    0    0 -0.40039899847E+01 -0.14730125064E+02 -0.10921576076E+02  0.18769372510E+02  0.51100000000E-03 0.  1.
        -12    1    3    3    0    0  0.15337705133E+01 -0.14587323093E+02 -0.12298314879E+02  0.19141342583E+02  0.00000000000E+00 0.  1.
</event>
<event>
 7    1  0.1485408E-008  0.4614232E+02  0.7816164E-02  0.1320468E+00
        -11   -1    0    0    0    0  0.00000000000E+00  0.00000000000E+00  0.45593999997E+02  0.45594000000E+02  0.51100000000E-03 0.  1.
         11   -1    0    0    0    0 -0.00000000000E+00 -0.00000000000E+00 -0.45593999997E+02  0.45594000000E+02  0.51100000000E-03 0. -1.
    9900012    2    1    2    0    0 -0.77499574310E+01 -0.38520739985E+02  0.22027350820E+02  0.46142318372E+02  0.10000005570E+02 0.  0.
         12    1    1    2    0    0  0.77499574310E+01  0.38520739985E+02 -0.22027350820E+02  0.45045681628E+02  0.00000000000E+00 0. -1.
         11    1    3    3    0    0 -0.62900686886E+00 -0.10615913623E+02  0.71145655690E+01  0.12794933184E+02  0.51100000000E-03 0. -1.
        -11    1    3    3    0    0 -0.60372107337E+01 -0.10420902537E+02  0.82852841988E+01  0.14618107184E+02  0.51100000000E-03 0.  1.
        -12    1    3    3    0    0 -0.10837398284E+01 -0.17483923825E+02  0.66275010523E+01  0.18729278003E+02  0.00000000000E+00 0.  1.
</event>
<event>
 7    1  0.1485408E-008  0.4614232E+02  0.7816164E-02  0.1320468E+00
        -11   -1    0    0    0    0  0.00000000000E+00  0.00000000000E+00  0.45593999997E+02  0.45594000000E+02  0.51100000000E-03 0.  1.
         11   -1    0    0    0    0 -0.00000000000E+00 -0.00000000000E+00 -0.45593999997E+02  0.45594000000E+02  0.51100000000E-03 0. -1.
    9900012    2    1    2    0    0  0.21408592851E+01 -0.24221394457E+01  0.44929539544E+02  0.46142316948E+02  0.99999925892E+01 0.  0.
         12    1    1    2    0    0 -0.21408592851E+01  0.24221394457E+01 -0.44929539544E+02  0.45045683052E+02  0.00000000000E+00 0. -1.
         11    1    3    3    0    0 -0.34086843096E+00  0.36812944777E+00 -0.29812117840E+00  0.58359838560E+00  0.51100000000E-03 0. -1.
        -11    1    3    3    0    0  0.11228291994E+01 -0.35090720737E+01  0.37435106987E+02  0.37615974899E+02  0.51100000000E-03 0.  1.
        -12    1    3    3    0    0  0.13588985167E+01  0.71880318026E+00  0.77925537351E+01  0.79427436636E+01  0.00000000000E+00 0.  1.
</event>
<event>
 7    1  0.1485408E-008  0.4614232E+02  0.7816164E-02  0.1320468E+00
        -11   -1    0    0    0    0  0.00000000000E+00  0.00000000000E+00  0.45593999997E+02  0.45594000000E+02  0.51100000000E-03 0.  1.
         11   -1    0    0    0    0 -0.00000000000E+00 -0.00000000000E+00 -0.45593999997E+02  0.45594000000E+02  0.51100000000E-03 0. -1.
    9900012    2    1    2    0    0 -0.23604858911E+02 -0.16089815268E+02  0.34828753876E+02  0.46142316343E+02  0.99999870702E+01 0.  0.
         12    1    1    2    0    0  0.23604858911E+02  0.16089815268E+02 -0.34828753876E+02  0.45045683657E+02  0.00000000000E+00 0. -1.
         11    1    3    3    0    0 -0.33213595966E+01 -0.17749776979E+01  0.30642770590E+01  0.48550766785E+01  0.51100000000E-03 0. -1.
        -11    1    3    3    0    0 -0.77641782527E+01 -0.61889026621E+01  0.62633206490E+01  0.11739427836E+02  0.51100000000E-03 0.  1.
        -12    1    3    3    0    0 -0.12519321062E+02 -0.81259349075E+01  0.25501156168E+02  0.29547811829E+02  0.00000000000E+00 0.  1.
</event>
<event>
 7    1  0.1485408E-008  0.4614232E+02  0.7816164E-02  0.1320468E+00
        -11   -1    0    0    0    0  0.00000000000E+00  0.00000000000E+00  0.45593999997E+02  0.45594000000E+02  0.51100000000E-03 0.  1.
         11   -1    0    0    0    0 -0.00000000000E+00 -0.00000000000E+00 -0.45593999997E+02  0.45594000000E+02  0.51100000000E-03 0. -1.
    9900012    2    1    2    0    0 -0.18306047926E+02 -0.45868507413E+01  0.40901868740E+02  0.46142318112E+02  0.10000003196E+02 0.  0.
         12    1    1    2    0    0  0.18306047926E+02  0.45868507413E+01 -0.40901868740E+02  0.45045681888E+02  0.00000000000E+00 0. -1.
         11    1    3    3    0    0 -0.12387657216E+02 -0.60906153704E+01  0.25650881519E+02  0.29129321479E+02  0.51100000000E-03 0. -1.
        -11    1    3    3    0    0 -0.44150125134E+01 -0.20310141114E+00  0.13304124518E+02  0.14019034030E+02  0.51100000000E-03 0.  1.
         12    1    3    3    0    0 -0.15033781966E+01  0.17068660403E+01  0.19468627029E+01  0.29939626026E+01  0.00000000000E+00 0. -1.
</event>
<event>
 7    1  0.1485408E-008  0.4614232E+02  0.7816164E-02  0.1320468E+00
        -11   -1    0    0    0    0  0.00000000000E+00  0.00000000000E+00  0.45593999997E+02  0.45594000000E+02  0.51100000000E-03 0. -1.
         11   -1    0    0    0    0 -0.00000000000E+00 -0.00000000000E+00 -0.45593999997E+02  0.45594000000E+02  0.51100000000E-03 0.  1.
    9900012    2    1    2    0    0 -0.20463888441E+02 -0.29017624127E+02 -0.27718590878E+02  0.46142317406E+02  0.99999967629E+01 0.  0.
         12    1    1    2    0    0  0.20463888441E+02  0.29017624127E+02  0.27718590878E+02  0.45045682594E+02  0.00000000000E+00 0. -1.
         11    1    3    3    0    0 -0.78361286137E+00 -0.21281907848E+01 -0.46137046033E+01  0.51409644582E+01  0.51100000000E-03 0. -1.
        -11    1    3    3    0    0 -0.19685247627E+02 -0.25129715891E+02 -0.22768159641E+02  0.39209701460E+02  0.51100000000E-03 0.  1.
        -12    1    3    3    0    0  0.49720475406E-02 -0.17597174506E+01 -0.33672663417E+00  0.17916514877E+01  0.00000000000E+00 0.  1.
</event>
<event>
 7    1  0.1485408E-008  0.4614232E+02  0.7816164E-02  0.1320468E+00
        -11   -1    0    0    0    0  0.00000000000E+00  0.00000000000E+00  0.45593999997E+02  0.45594000000E+02  0.51100000000E-03 0.  1.
         11   -1    0    0    0    0 -0.00000000000E+00 -0.00000000000E+00 -0.45593999997E+02  0.45594000000E+02  0.51100000000E-03 0. -1.
    9900012    2    1    2    0    0 -0.44354037263E+02 -0.77908302402E+01 -0.10657956984E+01  0.46142316768E+02  0.99999909423E+01 0.  0.
         12    1    1    2    0    0  0.44354037263E+02  0.77908302402E+01  0.10657956984E+01  0.45045683232E+02  0.00000000000E+00 0. -1.
         11    1    3    3    0    0 -0.61949583825E+00  0.42535617793E+00  0.52788707784E+00  0.91835069542E+00  0.51100000000E-03 0. -1.
        -11    1    3    3    0    0 -0.30609617677E+02 -0.29679030760E+01  0.13603831194E+01  0.30783238710E+02  0.51100000000E-03 0.  1.
        -12    1    3    3    0    0 -0.13124923748E+02 -0.52482833421E+01 -0.29540658957E+01  0.14440727362E+02  0.00000000000E+00 0.  1.
</event>
<event>
 7    1  0.1485408E-008  0.4614232E+02  0.7816164E-02  0.1320468E+00
        -11   -1    0    0    0    0  0.00000000000E+00  0.00000000000E+00  0.45593999997E+02  0.45594000000E+02  0.51100000000E-03 0.  1.
         11   -1    0    0    0    0 -0.00000000000E+00 -0.00000000000E+00 -0.45593999997E+02  0.45594000000E+02  0.51100000000E-03 0. -1.
    9900012    2    1    2    0    0  0.17156739977E+02  0.24320860871E+02  0.33812061856E+02  0.46142317332E+02  0.99999960845E+01 0.  0.
         12    1    1    2    0    0 -0.17156739977E+02 -0.24320860871E+02 -0.33812061856E+02  0.45045682668E+02  0.00000000000E+00 0. -1.
         11    1    3    3    0    0  0.23833423965E+01  0.22741524195E+01  0.15931877950E+01  0.36592810519E+01  0.51100000000E-03 0. -1.
        -11    1    3    3    0    0 -0.35290925209E-01  0.47841508251E+01  0.74679914842E+01  0.88690609219E+01  0.51100000000E-03 0.  1.
        -12    1    3    3    0    0  0.14808688506E+02  0.17262557626E+02  0.24750882576E+02  0.33613975358E+02  0.00000000000E+00 0.  1.
</event>
<event>
 7    1  0.1485408E-008  0.4614232E+02  0.7816164E-02  0.1320468E+00
        -11   -1    0    0    0    0  0.00000000000E+00  0.00000000000E+00  0.45593999997E+02  0.45594000000E+02  0.51100000000E-03 0.  1.
         11   -1    0    0    0    0 -0.00000000000E+00 -0.00000000000E+00 -0.45593999997E+02  0.45594000000E+02  0.51100000000E-03 0. -1.
    9900012    2    1    2    0    0  0.39634184291E+02  0.17631108034E+02  0.12140383135E+02  0.46142318325E+02  0.10000005141E+02 0.  0.
         12    1    1    2    0    0 -0.39634184291E+02 -0.17631108034E+02 -0.12140383135E+02  0.45045681675E+02  0.00000000000E+00 0. -1.
         11    1    3    3    0    0  0.26584724145E+02  0.89400275126E+01  0.11707207591E+02  0.30392932725E+02  0.51100000000E-03 0. -1.
        -11    1    3    3    0    0  0.91552600451E+01  0.59914039003E+01  0.95095893587E+00  0.10982715072E+02  0.51100000000E-03 0.  1.
         12    1    3    3    0    0  0.38942001011E+01  0.26996766207E+01 -0.51778339179E+00  0.47666705282E+01  0.00000000000E+00 0. -1.
</event>
<event>
 7    1  0.1485408E-008  0.4614232E+02  0.7816164E-02  0.1320468E+00
        -11   -1    0    0    0    0  0.00000000000E+00  0.00000000000E+00  0.45593999997E+02  0.45594000000E+02  0.51100000000E-03 0. -1.
         11   -1    0    0    0    0 -0.00000000000E+00 -0.00000000000E+00 -0.45593999997E+02  0.45594000000E+02  0.51100000000E-03 0.  1.
    9900012    2    1    2    0    0  0.42056263053E+02  0.44011167665E+00 -0.16130421589E+02  0.46142318066E+02  0.10000002782E+02 0.  0.
         12    1    1    2    0    0 -0.42056263053E+02 -0.44011167665E+00  0.16130421589E+02  0.45045681934E+02  0.00000000000E+00 0. -1.
         11    1    3    3    0    0  0.11812479923E+02  0.20865156995E+01 -0.13579379362E+01  0.12071960296E+02  0.51100000000E-03 0. -1.
        -11    1    3    3    0    0  0.27680652713E+02 -0.93380640563E+00 -0.14814766183E+02  0.31409677273E+02  0.51100000000E-03 0.  1.
        -12    1    3    3    0    0  0.25631304167E+01 -0.71259761721E+00  0.42282531012E-01  0.26606804974E+01  0.00000000000E+00 0.  1.
</event>
<event>
 7    1  0.1485408E-008  0.4614232E+02  0.7816164E-02  0.1320468E+00
        -11   -1    0    0    0    0  0.00000000000E+00  0.00000000000E+00  0.45593999997E+02  0.45594000000E+02  0.51100000000E-03 0. -1.
         11   -1    0    0    0    0 -0.00000000000E+00 -0.00000000000E+00 -0.45593999997E+02  0.45594000000E+02  0.51100000000E-03 0.  1.
    9900012    2    1    2    0    0 -0.12104193544E+02 -0.29268824707E+02 -0.32030263182E+02  0.46142319179E+02  0.10000012930E+02 0.  0.
         12    1    1    2    0    0  0.12104193544E+02  0.29268824707E+02  0.32030263182E+02  0.45045680821E+02  0.00000000000E+00 0. -1.
         11    1    3    3    0    0 -0.41838504648E+01 -0.14680766397E+02 -0.11050944998E+02  0.18845500586E+02  0.51100000000E-03 0. -1.
        -11    1    3    3    0    0  0.79000985068E+00 -0.10061854671E+01 -0.10516947389E+01  0.16560757360E+01  0.51100000000E-03 0.  1.
        -12    1    3    3    0    0 -0.87103529304E+01 -0.13581872843E+02 -0.19927623445E+02  0.25640742857E+02  0.00000000000E+00 0.  1.
</event>
<event>
 7    1  0.1485408E-008  0.4614232E+02  0.7816164E-02  0.1320468E+00
        -11   -1    0    0    0    0  0.00000000000E+00  0.00000000000E+00  0.45593999997E+02  0.45594000000E+02  0.51100000000E-03 0. -1.
         11   -1    0    0    0    0 -0.00000000000E+00 -0.00000000000E+00 -0.45593999997E+02  0.45594000000E+02  0.51100000000E-03 0.  1.
    9900012    2    1    2    0    0  0.51096465259E+01  0.43025066979E+02 -0.12322685897E+02  0.46142318033E+02  0.10000002477E+02 0.  0.
         12    1    1    2    0    0 -0.51096465259E+01 -0.43025066979E+02  0.12322685897E+02  0.45045681967E+02  0.00000000000E+00 0. -1.
         11    1    3    3    0    0  0.17062721593E+01  0.15569565276E+02 -0.79728070846E+01  0.17575220642E+02  0.51100000000E-03 0.  1.
        -11    1    3    3    0    0  0.32103702181E+01  0.10575528630E+02  0.30403811106E+00  0.11056252628E+02  0.51100000000E-03 0. -1.
         12    1    3    3    0    0  0.19300414847E+00  0.16879973073E+02 -0.46539169239E+01  0.17510844762E+02  0.00000000000E+00 0. -1.
</event>
<event>
 7    1  0.1485408E-008  0.4614232E+02  0.7816164E-02  0.1320468E+00
        -11   -1    0    0    0    0  0.00000000000E+00  0.00000000000E+00  0.45593999997E+02  0.45594000000E+02  0.51100000000E-03 0.  1.
         11   -1    0    0    0    0 -0.00000000000E+00 -0.00000000000E+00 -0.45593999997E+02  0.45594000000E+02  0.51100000000E-03 0. -1.
    9900012    2    1    2    0    0  0.97175832017E+01  0.39663334700E+02  0.19013202990E+02  0.46142318401E+02  0.10000005836E+02 0.  0.
         12    1    1    2    0    0 -0.97175832017E+01 -0.39663334700E+02 -0.19013202990E+02  0.45045681599E+02  0.00000000000E+00 0. -1.
         11    1    3    3    0    0  0.56019138847E+01  0.22553207384E+02  0.68194353810E+01  0.24218449613E+02  0.51100000000E-03 0.  1.
        -11    1    3    3    0    0  0.38175536390E-01  0.37900505846E+01  0.49148483638E+01  0.62065832393E+01  0.51100000000E-03 0. -1.
         12    1    3    3    0    0  0.40774937806E+01  0.13320076731E+02  0.72789192451E+01  0.15717285549E+02  0.00000000000E+00 0. -1.
</event>
<event>
 7    1  0.1485408E-008  0.4614232E+02  0.7816164E-02  0.1320468E+00
        -11   -1    0    0    0    0  0.00000000000E+00  0.00000000000E+00  0.45593999997E+02  0.45594000000E+02  0.51100000000E-03 0.  1.
         11   -1    0    0    0    0 -0.00000000000E+00 -0.00000000000E+00 -0.45593999997E+02  0.45594000000E+02  0.51100000000E-03 0. -1.
    9900012    2    1    2    0    0  0.26336528432E+02  0.13466476182E+02  0.33972853605E+02  0.46142317714E+02  0.99999995679E+01 0.  0.
         12    1    1    2    0    0 -0.26336528432E+02 -0.13466476182E+02 -0.33972853605E+02  0.45045682286E+02  0.00000000000E+00 0. -1.
         11    1    3    3    0    0  0.51753722360E+01  0.61758489141E+00  0.81965252522E+01  0.97133369833E+01  0.51100000000E-03 0. -1.
        -11    1    3    3    0    0  0.10967635478E+02  0.76533220994E+01  0.89910315545E+01  0.16115241724E+02  0.51100000000E-03 0.  1.
        -12    1    3    3    0    0  0.10193520717E+02  0.51955691915E+01  0.16785296798E+02  0.20313739007E+02  0.00000000000E+00 0.  1.
</event>
<event>
 7    1  0.1485408E-008  0.4614232E+02  0.7816164E-02  0.1320468E+00
        -11   -1    0    0    0    0  0.00000000000E+00  0.00000000000E+00  0.45593999997E+02  0.45594000000E+02  0.51100000000E-03 0.  1.
         11   -1    0    0    0    0 -0.00000000000E+00 -0.00000000000E+00 -0.45593999997E+02  0.45594000000E+02  0.51100000000E-03 0. -1.
    9900012    2    1    2    0    0  0.23688780060E+02 -0.38311478833E+02 -0.43107219149E+00  0.46142317251E+02  0.99999953475E+01 0.  0.
         12    1    1    2    0    0 -0.23688780060E+02  0.38311478833E+02  0.43107219149E+00  0.45045682749E+02  0.00000000000E+00 0. -1.
         11    1    3    3    0    0  0.17941758514E+01 -0.16428160265E+01 -0.10474099503E+01  0.26485806289E+01  0.51100000000E-03 0. -1.
        -11    1    3    3    0    0  0.17436025620E+01 -0.25940522732E+01 -0.21756756169E+01  0.38082570477E+01  0.51100000000E-03 0.  1.
        -12    1    3    3    0    0  0.20151001647E+02 -0.34074610533E+02  0.27920133757E+01  0.39685479574E+02  0.00000000000E+00 0.  1.
</event>
<event>
 7    1  0.1485408E-008  0.4614232E+02  0.7816164E-02  0.1320468E+00
        -11   -1    0    0    0    0  0.00000000000E+00  0.00000000000E+00  0.45593999997E+02  0.45594000000E+02  0.51100000000E-03 0.  1.
         11   -1    0    0    0    0 -0.00000000000E+00 -0.00000000000E+00 -0.45593999997E+02  0.45594000000E+02  0.51100000000E-03 0. -1.
    9900012    2    1    2    0    0 -0.19141000497E+02 -0.11617822735E+02  0.39086592982E+02  0.46142318119E+02  0.10000003268E+02 0.  0.
         12    1    1    2    0    0  0.19141000497E+02  0.11617822735E+02 -0.39086592982E+02  0.45045681881E+02  0.00000000000E+00 0. -1.
         11    1    3    3    0    0 -0.37263312215E+01 -0.45231882370E+00  0.81466575182E+01  0.89698475835E+01  0.51100000000E-03 0.  1.
        -11    1    3    3    0    0 -0.11165128885E+02 -0.57296822339E+01  0.13575240376E+02  0.18487198627E+02  0.51100000000E-03 0. -1.
        -12    1    3    3    0    0 -0.42495403902E+01 -0.54358216777E+01  0.17364695088E+02  0.18685271909E+02  0.00000000000E+00 0.  1.
</event>
<event>
 7    1  0.1485408E-008  0.4614232E+02  0.7816164E-02  0.1320468E+00
        -11   -1    0    0    0    0  0.00000000000E+00  0.00000000000E+00  0.45593999997E+02  0.45594000000E+02  0.51100000000E-03 0. -1.
         11   -1    0    0    0    0 -0.00000000000E+00 -0.00000000000E+00 -0.45593999997E+02  0.45594000000E+02  0.51100000000E-03 0.  1.
    9900012    2    1    2    0    0 -0.41659847853E+02  0.16812543351E+02 -0.33028247579E+01  0.46142321090E+02  0.10000030357E+02 0.  0.
         12    1    1    2    0    0  0.41659847853E+02 -0.16812543351E+02  0.33028247579E+01  0.45045678910E+02  0.00000000000E+00 0. -1.
         11    1    3    3    0    0 -0.11324879538E+01  0.10445513386E+01 -0.40009710624E+00  0.15917582794E+01  0.51100000000E-03 0. -1.
        -11    1    3    3    0    0 -0.40507689213E+02  0.16271815568E+02 -0.34702561930E+01  0.43791409496E+02  0.51100000000E-03 0.  1.
        -12    1    3    3    0    0 -0.19670685542E-01 -0.50382355542E+00  0.56752854133E+00  0.75915331527E+00  0.00000000000E+00 0.  1.
</event>
<event>
 7    1  0.1485408E-008  0.4614232E+02  0.7816164E-02  0.1320468E+00
        -11   -1    0    0    0    0  0.00000000000E+00  0.00000000000E+00  0.45593999997E+02  0.45594000000E+02  0.51100000000E-03 0.  1.
         11   -1    0    0    0    0 -0.00000000000E+00 -0.00000000000E+00 -0.45593999997E+02  0.45594000000E+02  0.51100000000E-03 0. -1.
    9900012    2    1    2    0    0  0.96366865101E+01 -0.43446463694E+02  0.69751394987E+01  0.46142317572E+02  0.99999982737E+01 0.  0.
         12    1    1    2    0    0 -0.96366865101E+01  0.43446463694E+02 -0.69751394987E+01  0.45045682428E+02  0.00000000000E+00 0. -1.
         11    1    3    3    0    0 -0.42936984865E+00 -0.11464286113E+02 -0.13684308402E+01  0.11553649543E+02  0.51100000000E-03 0. -1.
        -11    1    3    3    0    0  0.47188129039E+01 -0.14881251759E+02  0.30613479485E+01  0.15908824616E+02  0.51100000000E-03 0.  1.
         12    1    3    3    0    0  0.53472434549E+01 -0.17100925822E+02  0.52822223905E+01  0.18679843412E+02  0.00000000000E+00 0. -1.
</event>
<event>
 7    1  0.1485408E-008  0.4614232E+02  0.7816164E-02  0.1320468E+00
        -11   -1    0    0    0    0  0.00000000000E+00  0.00000000000E+00  0.45593999997E+02  0.45594000000E+02  0.51100000000E-03 0. -1.
         11   -1    0    0    0    0 -0.00000000000E+00 -0.00000000000E+00 -0.45593999997E+02  0.45594000000E+02  0.51100000000E-03 0.  1.
    9900012    2    1    2    0    0 -0.19695629199E+01 -0.32042659674E+02 -0.31599086863E+02  0.46142317547E+02  0.99999980472E+01 0.  0.
         12    1    1    2    0    0  0.19695629199E+01  0.32042659674E+02  0.31599086863E+02  0.45045682453E+02  0.00000000000E+00 0. -1.
         11    1    3    3    0    0 -0.59849048728E+00 -0.11461177975E+02 -0.69811465315E+01  0.13433286961E+02  0.51100000000E-03 0. -1.
        -11    1    3    3    0    0 -0.12873518633E+01 -0.15769891243E+02 -0.14312206928E+02  0.21335088752E+02  0.51100000000E-03 0.  1.
         12    1    3    3    0    0 -0.83720569323E-01 -0.48115904565E+01 -0.10305733404E+02  0.11373941834E+02  0.00000000000E+00 0. -1.
</event>
<event>
 7    1  0.1485408E-008  0.4614232E+02  0.7816164E-02  0.1320468E+00
        -11   -1    0    0    0    0  0.00000000000E+00  0.00000000000E+00  0.45593999997E+02  0.45594000000E+02  0.51100000000E-03 0.  1.
         11   -1    0    0    0    0 -0.00000000000E+00 -0.00000000000E+00 -0.45593999997E+02  0.45594000000E+02  0.51100000000E-03 0. -1.
    9900012    2    1    2    0    0 -0.22163780225E+02 -0.62789290479E+01  0.38709885506E+02  0.46142319411E+02  0.10000015043E+02 0.  0.
         12    1    1    2    0    0  0.22163780225E+02  0.62789290479E+01 -0.38709885506E+02  0.45045680589E+02  0.00000000000E+00 0. -1.
         11    1    3    3    0    0 -0.65914503505E+01 -0.65265149983E+01  0.14361628308E+02  0.17096753600E+02  0.51100000000E-03 0. -1.
        -11    1    3    3    0    0 -0.69015974782E+01  0.12520079966E+01  0.92938132794E+01  0.11643647938E+02  0.51100000000E-03 0.  1.
         12    1    3    3    0    0 -0.86707323959E+01 -0.10044220461E+01  0.15054443919E+02  0.17401917872E+02  0.00000000000E+00 0. -1.
</event>
<event>
 7    1  0.1485408E-008  0.4614232E+02  0.7816164E-02  0.1320468E+00
        -11   -1    0    0    0    0  0.00000000000E+00  0.00000000000E+00  0.45593999997E+02  0.45594000000E+02  0.51100000000E-03 0. -1.
         11   -1    0    0    0    0 -0.00000000000E+00 -0.00000000000E+00 -0.45593999997E+02  0.45594000000E+02  0.51100000000E-03 0.  1.
    9900012    2    1    2    0    0 -0.20574953260E+02 -0.21209774066E+02 -0.33998975097E+02  0.46142317352E+02  0.99999962715E+01 0.  0.
         12    1    1    2    0    0  0.20574953260E+02  0.21209774066E+02  0.33998975097E+02  0.45045682648E+02  0.00000000000E+00 0. -1.
         11    1    3    3    0    0 -0.21164625424E+01 -0.67780975148E+01 -0.98234957731E+01  0.12121183485E+02  0.51100000000E-03 0. -1.
        -11    1    3    3    0    0 -0.15586621045E+02 -0.96632749654E+01 -0.17790616142E+02  0.25550492395E+02  0.51100000000E-03 0.  1.
        -12    1    3    3    0    0 -0.28718696720E+01 -0.47684015857E+01 -0.63848631821E+01  0.84706414722E+01  0.00000000000E+00 0.  1.
</event>
<event>
 7    1  0.1485408E-008  0.4614232E+02  0.7816164E-02  0.1320468E+00
        -11   -1    0    0    0    0  0.00000000000E+00  0.00000000000E+00  0.45593999997E+02  0.45594000000E+02  0.51100000000E-03 0. -1.
         11   -1    0    0    0    0 -0.00000000000E+00 -0.00000000000E+00 -0.45593999997E+02  0.45594000000E+02  0.51100000000E-03 0.  1.
    9900012    2    1    2    0    0  0.26053897035E+02 -0.50523656835E+01 -0.36397547900E+02  0.46142318266E+02  0.10000004605E+02 0.  0.
         12    1    1    2    0    0 -0.26053897035E+02  0.50523656835E+01  0.36397547900E+02  0.45045681734E+02  0.00000000000E+00 0. -1.
         11    1    3    3    0    0  0.16497051182E+01  0.13450923593E+01 -0.13520185171E+01  0.25216571464E+01  0.51100000000E-03 0. -1.
        -11    1    3    3    0    0  0.18639432014E+02 -0.57082862985E+01 -0.22326834739E+02  0.29639509240E+02  0.51100000000E-03 0.  1.
        -12    1    3    3    0    0  0.57647599034E+01 -0.68917174437E+00 -0.12718694644E+02  0.13981151880E+02  0.00000000000E+00 0.  1.
</event>
<event>
 7    1  0.1485408E-008  0.4614232E+02  0.7816164E-02  0.1320468E+00
        -11   -1    0    0    0    0  0.00000000000E+00  0.00000000000E+00  0.45593999997E+02  0.45594000000E+02  0.51100000000E-03 0.  1.
         11   -1    0    0    0    0 -0.00000000000E+00 -0.00000000000E+00 -0.45593999997E+02  0.45594000000E+02  0.51100000000E-03 0. -1.
    9900012    2    1    2    0    0  0.18215681707E+02  0.11125987115E+01  0.41183304065E+02  0.46142317969E+02  0.10000001895E+02 0.  0.
         12    1    1    2    0    0 -0.18215681707E+02 -0.11125987115E+01 -0.41183304065E+02  0.45045682031E+02  0.00000000000E+00 0. -1.
         11    1    3    3    0    0  0.53052824605E+01  0.38854224048E+01  0.87774079377E+01  0.10967470976E+02  0.51100000000E-03 0. -1.
        -11    1    3    3    0    0  0.30401566043E+01 -0.18440009516E+00  0.11717526154E+02  0.12106897828E+02  0.51100000000E-03 0.  1.
         12    1    3    3    0    0  0.98702426422E+01 -0.25884235981E+01  0.20688369973E+02  0.23067949165E+02  0.00000000000E+00 0. -1.
</event>
<event>
 7    1  0.1485408E-008  0.4614232E+02  0.7816164E-02  0.1320468E+00
        -11   -1    0    0    0    0  0.00000000000E+00  0.00000000000E+00  0.45593999997E+02  0.45594000000E+02  0.51100000000E-03 0.  1.
         11   -1    0    0    0    0 -0.00000000000E+00 -0.00000000000E+00 -0.45593999997E+02  0.45594000000E+02  0.51100000000E-03 0. -1.
    9900012    2    1    2    0    0  0.33224315295E+01  0.35498675663E+02  0.27530327534E+02  0.46142318085E+02  0.10000002954E+02 0.  0.
         12    1    1    2    0    0 -0.33224315295E+01 -0.35498675663E+02 -0.27530327534E+02  0.45045681915E+02  0.00000000000E+00 0. -1.
         11    1    3    3    0    0 -0.22619905437E+01  0.93196459673E+01  0.89508182788E+01  0.13118290677E+02  0.51100000000E-03 0. -1.
        -11    1    3    3    0    0  0.55900542245E+01  0.18508651471E+02  0.11019215811E+02  0.22254033407E+02  0.51100000000E-03 0.  1.
        -12    1    3    3    0    0 -0.56321513051E-02  0.76703782245E+01  0.75602934436E+01  0.10769994001E+02  0.00000000000E+00 0.  1.
</event>
<event>
 7    1  0.1485408E-008  0.4614232E+02  0.7816164E-02  0.1320468E+00
        -11   -1    0    0    0    0  0.00000000000E+00  0.00000000000E+00  0.45593999997E+02  0.45594000000E+02  0.51100000000E-03 0.  1.
         11   -1    0    0    0    0 -0.00000000000E+00 -0.00000000000E+00 -0.45593999997E+02  0.45594000000E+02  0.51100000000E-03 0. -1.
    9900012    2    1    2    0    0 -0.38327980436E+02 -0.23605333296E+02  0.16934082195E+01  0.46142317902E+02  0.10000001281E+02 0.  0.
         12    1    1    2    0    0  0.38327980436E+02  0.23605333296E+02 -0.16934082195E+01  0.45045682098E+02  0.00000000000E+00 0. -1.
         11    1    3    3    0    0 -0.12546918976E+01 -0.18243147603E+01 -0.19819792695E+01  0.29716356083E+01  0.51100000000E-03 0. -1.
        -11    1    3    3    0    0 -0.36615760605E+02 -0.21614981053E+02  0.35472178241E+01  0.42667365575E+02  0.51100000000E-03 0.  1.
         12    1    3    3    0    0 -0.45752793344E+00 -0.16603748310E+00  0.12816966493E+00  0.50331671807E+00  0.00000000000E+00 0. -1.
</event>
<event>
 7    1  0.1485408E-008  0.4614232E+02  0.7816164E-02  0.1320468E+00
        -11   -1    0    0    0    0  0.00000000000E+00  0.00000000000E+00  0.45593999997E+02  0.45594000000E+02  0.51100000000E-03 0.  1.
         11   -1    0    0    0    0 -0.00000000000E+00 -0.00000000000E+00 -0.45593999997E+02  0.45594000000E+02  0.51100000000E-03 0. -1.
    9900012    2    1    2    0    0 -0.41118283268E+02  0.13699030912E+02  0.12277495998E+02  0.46142316801E+02  0.99999912468E+01 0.  0.
         12    1    1    2    0    0  0.41118283268E+02 -0.13699030912E+02 -0.12277495998E+02  0.45045683199E+02  0.00000000000E+00 0. -1.
         11    1    3    3    0    0 -0.78981350019E+01 -0.11716225130E+01  0.26711353918E+01  0.84195130716E+01  0.51100000000E-03 0. -1.
        -11    1    3    3    0    0 -0.21857552867E+02  0.90351311240E+01  0.52512975315E+01  0.24227305624E+02  0.51100000000E-03 0.  1.
         12    1    3    3    0    0 -0.11362595399E+02  0.58355223014E+01  0.43550630748E+01  0.13495498106E+02  0.00000000000E+00 0. -1.
</event>
<event>
 7    1  0.1485408E-008  0.4614232E+02  0.7816164E-02  0.1320468E+00
        -11   -1    0    0    0    0  0.00000000000E+00  0.00000000000E+00  0.45593999997E+02  0.45594000000E+02  0.51100000000E-03 0.  1.
         11   -1    0    0    0    0 -0.00000000000E+00 -0.00000000000E+00 -0.45593999997E+02  0.45594000000E+02  0.51100000000E-03 0. -1.
    9900012    2    1    2    0    0 -0.17866682341E+02  0.26392872025E+02  0.31832552877E+02  0.46142318139E+02  0.10000003448E+02 0.  0.
         12    1    1    2    0    0  0.17866682341E+02 -0.26392872025E+02 -0.31832552877E+02  0.45045681861E+02  0.00000000000E+00 0. -1.
         11    1    3    3    0    0 -0.70487846826E+00 -0.84354751764E-01  0.11607725867E+01  0.13606478745E+01  0.51100000000E-03 0. -1.
        -11    1    3    3    0    0 -0.64584591556E+00  0.69758973454E+01  0.78212948817E+01  0.10500138790E+02  0.51100000000E-03 0.  1.
        -12    1    3    3    0    0 -0.16515957957E+02  0.19501329432E+02  0.22850485409E+02  0.34281531475E+02  0.00000000000E+00 0.  1.
</event>
<event>
 7    1  0.1485408E-008  0.4614232E+02  0.7816164E-02  0.1320468E+00
        -11   -1    0    0    0    0  0.00000000000E+00  0.00000000000E+00  0.45593999997E+02  0.45594000000E+02  0.51100000000E-03 0. -1.
         11   -1    0    0    0    0 -0.00000000000E+00 -0.00000000000E+00 -0.45593999997E+02  0.45594000000E+02  0.51100000000E-03 0.  1.
    9900012    2    1    2    0    0 -0.42940617961E+02 -0.16559257104E+01 -0.13508320820E+02  0.46142317718E+02  0.99999996078E+01 0.  0.
         12    1    1    2    0    0  0.42940617961E+02  0.16559257104E+01  0.13508320820E+02  0.45045682282E+02  0.00000000000E+00 0. -1.
         11    1    3    3    0    0 -0.74207400795E+01 -0.12537030783E+01 -0.46128355392E+01  0.88270837036E+01  0.51100000000E-03 0. -1.
        -11    1    3    3    0    0 -0.50688574666E+00  0.10720906515E+01 -0.14072475384E+00  0.11942006710E+01  0.51100000000E-03 0.  1.
        -12    1    3    3    0    0 -0.35012992135E+02 -0.14743132836E+01 -0.87547605270E+01  0.36121033344E+02  0.00000000000E+00 0.  1.
</event>
<event>
 7    1  0.1485408E-008  0.4614230E+02  0.7816164E-02  0.1320468E+00
        -11   -1    0    0    0    0  0.00000000000E+00  0.00000000000E+00  0.45593999997E+02  0.45594000000E+02  0.51100000000E-03 0.  1.
         11   -1    0    0    0    0 -0.00000000000E+00 -0.00000000000E+00 -0.45593999997E+02  0.45594000000E+02  0.51100000000E-03 0. -1.
    9900012    2    1    2    0    0 -0.20566779488E+02  0.11899969850E+02  0.38268955273E+02  0.46142304994E+02  0.99998835750E+01 0.  0.
         12    1    1    2    0    0  0.20566779488E+02 -0.11899969850E+02 -0.38268955273E+02  0.45045695006E+02  0.00000000000E+00 0. -1.
         11    1    3    3    0    0 -0.99075221365E+01  0.64275049521E+01  0.15765912656E+02  0.19698624747E+02  0.51100000000E-03 0.  1.
        -11    1    3    3    0    0 -0.46215054874E+00 -0.14546482534E+01  0.19377832815E+01  0.24666959639E+01  0.51100000000E-03 0. -1.
        -12    1    3    3    0    0 -0.10197106803E+02  0.69271131509E+01  0.20565259335E+02  0.23976984283E+02  0.00000000000E+00 0.  1.
</event>
<event>
 7    1  0.1485408E-008  0.4614232E+02  0.7816164E-02  0.1320468E+00
        -11   -1    0    0    0    0  0.00000000000E+00  0.00000000000E+00  0.45593999997E+02  0.45594000000E+02  0.51100000000E-03 0.  1.
         11   -1    0    0    0    0 -0.00000000000E+00 -0.00000000000E+00 -0.45593999997E+02  0.45594000000E+02  0.51100000000E-03 0. -1.
    9900012    2    1    2    0    0  0.16475054745E+02 -0.39496638780E+02  0.14060639660E+02  0.46142317728E+02  0.99999996944E+01 0.  0.
         12    1    1    2    0    0 -0.16475054745E+02  0.39496638780E+02 -0.14060639660E+02  0.45045682272E+02  0.00000000000E+00 0. -1.
         11    1    3    3    0    0  0.35351685522E+01 -0.19994188744E+02  0.74446560490E+01  0.21626093133E+02  0.51100000000E-03 0. -1.
        -11    1    3    3    0    0  0.12092826823E+02 -0.17443850933E+02  0.51204903380E+01  0.21834463985E+02  0.51100000000E-03 0.  1.
        -12    1    3    3    0    0  0.84705936978E+00 -0.20585991025E+01  0.14954932729E+01  0.26817606102E+01  0.00000000000E+00 0.  1.
</event>
<event>
 7    1  0.1485408E-008  0.4614232E+02  0.7816164E-02  0.1320468E+00
        -11   -1    0    0    0    0  0.00000000000E+00  0.00000000000E+00  0.45593999997E+02  0.45594000000E+02  0.51100000000E-03 0. -1.
         11   -1    0    0    0    0 -0.00000000000E+00 -0.00000000000E+00 -0.45593999997E+02  0.45594000000E+02  0.51100000000E-03 0.  1.
    9900012    2    1    2    0    0 -0.37154314559E+02  0.14978522802E+02 -0.20598894591E+02  0.46142315478E+02  0.99999791804E+01 0.  0.
         12    1    1    2    0    0  0.37154314559E+02 -0.14978522802E+02  0.20598894591E+02  0.45045684522E+02  0.00000000000E+00 0. -1.
         11    1    3    3    0    0 -0.22843340581E+02  0.75865732988E+01 -0.76706005770E+01  0.25262866362E+02  0.51100000000E-03 0. -1.
        -11    1    3    3    0    0 -0.11728248911E+02  0.53950557623E+01 -0.88335934110E+01  0.15642596396E+02  0.51100000000E-03 0.  1.
         12    1    3    3    0    0 -0.25827250665E+01  0.19968937413E+01 -0.40947006034E+01  0.52368527203E+01  0.00000000000E+00 0. -1.
</event>
<event>
 7    1  0.1485408E-008  0.4614232E+02  0.7816164E-02  0.1320468E+00
        -11   -1    0    0    0    0  0.00000000000E+00  0.00000000000E+00  0.45593999997E+02  0.45594000000E+02  0.51100000000E-03 0.  1.
         11   -1    0    0    0    0 -0.00000000000E+00 -0.00000000000E+00 -0.45593999997E+02  0.45594000000E+02  0.51100000000E-03 0. -1.
    9900012    2    1    2    0    0  0.36918707088E+02 -0.19584828445E+02  0.16809433528E+02  0.46142317701E+02  0.99999994515E+01 0.  0.
         12    1    1    2    0    0 -0.36918707088E+02  0.19584828445E+02 -0.16809433528E+02  0.45045682299E+02  0.00000000000E+00 0. -1.
         11    1    3    3    0    0  0.19200640636E+01  0.34308676028E+00 -0.26316306788E+00  0.19681487735E+01  0.51100000000E-03 0. -1.
        -11    1    3    3    0    0  0.10235186312E+02 -0.40009126576E+01  0.71204144973E+01  0.13094527246E+02  0.51100000000E-03 0.  1.
        -12    1    3    3    0    0  0.24763456712E+02 -0.15927002548E+02  0.99521820988E+01  0.31079641681E+02  0.00000000000E+00 0.  1.
</event>
<event>
 7    1  0.1485408E-008  0.4614232E+02  0.7816164E-02  0.1320468E+00
        -11   -1    0    0    0    0  0.00000000000E+00  0.00000000000E+00  0.45593999997E+02  0.45594000000E+02  0.51100000000E-03 0.  1.
         11   -1    0    0    0    0 -0.00000000000E+00 -0.00000000000E+00 -0.45593999997E+02  0.45594000000E+02  0.51100000000E-03 0. -1.
    9900012    2    1    2    0    0 -0.15770828771E+02  0.14523790178E+02  0.39616333850E+02  0.46142318420E+02  0.10000006009E+02 0.  0.
         12    1    1    2    0    0  0.15770828771E+02 -0.14523790178E+02 -0.39616333850E+02  0.45045681580E+02  0.00000000000E+00 0. -1.
         11    1    3    3    0    0  0.77409363208E-02  0.30676274630E+01  0.24503199970E+01  0.39261261471E+01  0.51100000000E-03 0. -1.
        -11    1    3    3    0    0 -0.94311556148E+01  0.40716809473E+01  0.19816525110E+02  0.22320841151E+02  0.51100000000E-03 0.  1.
        -12    1    3    3    0    0 -0.63474140924E+01  0.73844817673E+01  0.17349488743E+02  0.19895351122E+02  0.00000000000E+00 0.  1.
</event>
<event>
 7    1  0.1485408E-008  0.4614232E+02  0.7816164E-02  0.1320468E+00
        -11   -1    0    0    0    0  0.00000000000E+00  0.00000000000E+00  0.45593999997E+02  0.45594000000E+02  0.51100000000E-03 0. -1.
         11   -1    0    0    0    0 -0.00000000000E+00 -0.00000000000E+00 -0.45593999997E+02  0.45594000000E+02  0.51100000000E-03 0.  1.
    9900012    2    1    2    0    0  0.34839324236E+00  0.38260301308E+02 -0.23772703938E+02  0.46142317781E+02  0.10000000181E+02 0.  0.
         12    1    1    2    0    0 -0.34839324236E+00 -0.38260301308E+02  0.23772703938E+02  0.45045682219E+02  0.00000000000E+00 0. -1.
         11    1    3    3    0    0  0.12412438863E+00  0.86573221527E+00  0.75014661091E+00  0.11522236464E+01  0.51100000000E-03 0. -1.
        -11    1    3    3    0    0  0.15524979416E+01  0.32298889535E+02 -0.19800550713E+02  0.37916887054E+02  0.51100000000E-03 0.  1.
         12    1    3    3    0    0 -0.13282290878E+01  0.50956795581E+01 -0.47222998353E+01  0.70732070805E+01  0.00000000000E+00 0. -1.
</event>
<event>
 7    1  0.1485408E-008  0.4614232E+02  0.7816164E-02  0.1320468E+00
        -11   -1    0    0    0    0  0.00000000000E+00  0.00000000000E+00  0.45593999997E+02  0.45594000000E+02  0.51100000000E-03 0.  1.
         11   -1    0    0    0    0 -0.00000000000E+00 -0.00000000000E+00 -0.45593999997E+02  0.45594000000E+02  0.51100000000E-03 0. -1.
    9900012    2    1    2    0    0  0.27651913748E+01 -0.27354490064E+02  0.35681915456E+02  0.46142317625E+02  0.99999987602E+01 0.  0.
         12    1    1    2    0    0 -0.27651913748E+01  0.27354490064E+02 -0.35681915456E+02  0.45045682375E+02  0.00000000000E+00 0. -1.
         11    1    3    3    0    0 -0.26759188854E+01 -0.89271094004E+01  0.14992050428E+02  0.17652631544E+02  0.51100000000E-03 0. -1.
        -11    1    3    3    0    0  0.34827653094E+01 -0.15797856965E+02  0.18344123544E+02  0.24458307541E+02  0.51100000000E-03 0.  1.
        -12    1    3    3    0    0  0.19583449508E+01 -0.26295236986E+01  0.23457414837E+01  0.40313785404E+01  0.00000000000E+00 0.  1.
</event>
<event>
 7    1  0.1485408E-008  0.4614232E+02  0.7816164E-02  0.1320468E+00
        -11   -1    0    0    0    0  0.00000000000E+00  0.00000000000E+00  0.45593999997E+02  0.45594000000E+02  0.51100000000E-03 0.  1.
         11   -1    0    0    0    0 -0.00000000000E+00 -0.00000000000E+00 -0.45593999997E+02  0.45594000000E+02  0.51100000000E-03 0. -1.
    9900012    2    1    2    0    0 -0.24526200783E+02  0.60941992015E+01  0.37288598709E+02  0.46142318937E+02  0.10000010724E+02 0.  0.
         12    1    1    2    0    0  0.24526200783E+02 -0.60941992015E+01 -0.37288598709E+02  0.45045681063E+02  0.00000000000E+00 0. -1.
         11    1    3    3    0    0  0.48642284864E+00  0.12055319691E+01  0.33699626202E+01  0.36120026078E+01  0.51100000000E-03 0. -1.
        -11    1    3    3    0    0 -0.48551583675E+01  0.99789339724E+00  0.47803529115E+01  0.68862274306E+01  0.51100000000E-03 0.  1.
         12    1    3    3    0    0 -0.20157465264E+02  0.38907738351E+01  0.29138283177E+02  0.35644088899E+02  0.00000000000E+00 0. -1.
</event>
<event>
 7    1  0.1485408E-008  0.4614232E+02  0.7816164E-02  0.1320468E+00
        -11   -1    0    0    0    0  0.00000000000E+00  0.00000000000E+00  0.45593999997E+02  0.45594000000E+02  0.51100000000E-03 0.  1.
         11   -1    0    0    0    0 -0.00000000000E+00 -0.00000000000E+00 -0.45593999997E+02  0.45594000000E+02  0.51100000000E-03 0. -1.
    9900012    2    1    2    0    0 -0.93656749166E+01  0.24772038090E+02  0.36438217658E+02  0.46142318255E+02  0.10000004506E+02 0.  0.
         12    1    1    2    0    0  0.93656749166E+01 -0.24772038090E+02 -0.36438217658E+02  0.45045681745E+02  0.00000000000E+00 0. -1.
         11    1    3    3    0    0 -0.14768533746E+01  0.91329475758E+01  0.93796520378E+01  0.13174585380E+02  0.51100000000E-03 0. -1.
        -11    1    3    3    0    0 -0.22164163431E+01  0.92041126255E+01  0.18854852442E+02  0.21098190716E+02  0.51100000000E-03 0.  1.
        -12    1    3    3    0    0 -0.56724051989E+01  0.64349778884E+01  0.82037131781E+01  0.11869542159E+02  0.00000000000E+00 0.  1.
</event>
<event>
 7    1  0.1485408E-008  0.4614232E+02  0.7816164E-02  0.1320468E+00
        -11   -1    0    0    0    0  0.00000000000E+00  0.00000000000E+00  0.45593999997E+02  0.45594000000E+02  0.51100000000E-03 0.  1.
         11   -1    0    0    0    0 -0.00000000000E+00 -0.00000000000E+00 -0.45593999997E+02  0.45594000000E+02  0.51100000000E-03 0. -1.
    9900012    2    1    2    0    0  0.39447678777E+02 -0.46094549889E+01  0.21254345719E+02  0.46142315988E+02  0.99999838329E+01 0.  0.
         12    1    1    2    0    0 -0.39447678777E+02  0.46094549889E+01 -0.21254345719E+02  0.45045684012E+02  0.00000000000E+00 0. -1.
         11    1    3    3    0    0  0.48246810069E+01  0.22366835453E+01  0.22171544161E+01  0.57616034284E+01  0.51100000000E-03 0. -1.
        -11    1    3    3    0    0  0.19982738048E+02 -0.58077796793E+01  0.94873037719E+01  0.22870265801E+02  0.51100000000E-03 0.  1.
        -12    1    3    3    0    0  0.14640259722E+02 -0.10383588549E+01  0.95498875310E+01  0.17510446759E+02  0.00000000000E+00 0.  1.
</event>
<event>
 7    1  0.1485408E-008  0.4614232E+02  0.7816164E-02  0.1320468E+00
        -11   -1    0    0    0    0  0.00000000000E+00  0.00000000000E+00  0.45593999997E+02  0.45594000000E+02  0.51100000000E-03 0.  1.
         11   -1    0    0    0    0 -0.00000000000E+00 -0.00000000000E+00 -0.45593999997E+02  0.45594000000E+02  0.51100000000E-03 0. -1.
    9900012    2    1    2    0    0  0.23836534398E+02  0.37240610549E+02  0.86063956132E+01  0.46142317726E+02  0.99999996757E+01 0.  0.
         12    1    1    2    0    0 -0.23836534398E+02 -0.37240610549E+02 -0.86063956132E+01  0.45045682274E+02  0.00000000000E+00 0. -1.
         11    1    3    3    0    0  0.99252404360E+01  0.20873233224E+02  0.53624878012E+00  0.23119036008E+02  0.51100000000E-03 0. -1.
        -11    1    3    3    0    0  0.71792393634E+00  0.55156482047E+00  0.80842219433E-02  0.90537514066E+00  0.51100000000E-03 0.  1.
         12    1    3    3    0    0  0.13193370025E+02  0.15815812504E+02  0.80620626112E+01  0.22117906577E+02  0.00000000000E+00 0. -1.
</event>
<event>
 7    1  0.1485408E-008  0.4614232E+02  0.7816164E-02  0.1320468E+00
        -11   -1    0    0    0    0  0.00000000000E+00  0.00000000000E+00  0.45593999997E+02  0.45594000000E+02  0.51100000000E-03 0.  1.
         11   -1    0    0    0    0 -0.00000000000E+00 -0.00000000000E+00 -0.45593999997E+02  0.45594000000E+02  0.51100000000E-03 0. -1.
    9900012    2    1    2    0    0  0.17474566062E+01 -0.21424941299E+02  0.39585751879E+02  0.46142318008E+02  0.10000002253E+02 0.  0.
         12    1    1    2    0    0 -0.17474566062E+01  0.21424941299E+02 -0.39585751879E+02  0.45045681992E+02  0.00000000000E+00 0. -1.
         11    1    3    3    0    0  0.13055668786E+01 -0.19929791301E+02  0.34654155398E+02  0.39997644590E+02  0.51100000000E-03 0. -1.
        -11    1    3    3    0    0 -0.11261199838E+01 -0.95260832414E+00  0.39510086714E+01  0.42173544574E+01  0.51100000000E-03 0.  1.
         12    1    3    3    0    0  0.15680097114E+01 -0.54254167453E+00  0.98058781017E+00  0.19273189609E+01  0.00000000000E+00 0. -1.
</event>
<event>
 7    1  0.1485408E-008  0.4614232E+02  0.7816164E-02  0.1320468E+00
        -11   -1    0    0    0    0  0.00000000000E+00  0.00000000000E+00  0.45593999997E+02  0.45594000000E+02  0.51100000000E-03 0.  1.
         11   -1    0    0    0    0 -0.00000000000E+00 -0.00000000000E+00 -0.45593999997E+02  0.45594000000E+02  0.51100000000E-03 0. -1.
    9900012    2    1    2    0    0  0.39180665565E+02 -0.12453371460E+02  0.18409301716E+02  0.46142318692E+02  0.10000008484E+02 0.  0.
         12    1    1    2    0    0 -0.39180665565E+02  0.12453371460E+02 -0.18409301716E+02  0.45045681308E+02  0.00000000000E+00 0. -1.
         11    1    3    3    0    0  0.83380089565E+01 -0.43475643996E+01  0.73093113432E+01  0.11910068939E+02  0.51100000000E-03 0. -1.
        -11    1    3    3    0    0  0.19625001684E+02 -0.76520811715E+01  0.84580250154E+01  0.22698749410E+02  0.51100000000E-03 0.  1.
         12    1    3    3    0    0  0.11217654925E+02 -0.45372588905E+00  0.26419653577E+01  0.11533500342E+02  0.00000000000E+00 0. -1.
</event>
<event>
 7    1  0.1485408E-008  0.4614232E+02  0.7816164E-02  0.1320468E+00
        -11   -1    0    0    0    0  0.00000000000E+00  0.00000000000E+00  0.45593999997E+02  0.45594000000E+02  0.51100000000E-03 0.  1.
         11   -1    0    0    0    0 -0.00000000000E+00 -0.00000000000E+00 -0.45593999997E+02  0.45594000000E+02  0.51100000000E-03 0. -1.
    9900012    2    1    2    0    0 -0.44919758862E+02  0.33626376293E+01  0.14638411390E+00  0.46142317672E+02  0.99999991890E+01 0.  0.
         12    1    1    2    0    0  0.44919758862E+02 -0.33626376293E+01 -0.14638411390E+00  0.45045682328E+02  0.00000000000E+00 0. -1.
         11    1    3    3    0    0 -0.12093265009E+02 -0.71292635320E+00  0.29030677955E+01  0.12457251922E+02  0.51100000000E-03 0. -1.
        -11    1    3    3    0    0 -0.18864594681E+02  0.35532225087E+01  0.98334850527E+00  0.19221480100E+02  0.51100000000E-03 0.  1.
         12    1    3    3    0    0 -0.13961899172E+02  0.52234147384E+00 -0.37400321869E+01  0.14463585650E+02  0.00000000000E+00 0. -1.
</event>
<event>
 7    1  0.1485408E-008  0.4614232E+02  0.7816164E-02  0.1320468E+00
        -11   -1    0    0    0    0  0.00000000000E+00  0.00000000000E+00  0.45593999997E+02  0.45594000000E+02  0.51100000000E-03 0.  1.
         11   -1    0    0    0    0 -0.00000000000E+00 -0.00000000000E+00 -0.45593999997E+02  0.45594000000E+02  0.51100000000E-03 0. -1.
    9900012    2    1    2    0    0  0.22872571085E+02 -0.38803954058E+02 -0.46050183198E+00  0.46142318514E+02  0.10000006867E+02 0.  0.
         12    1    1    2    0    0 -0.22872571085E+02  0.38803954058E+02  0.46050183198E+00  0.45045681486E+02  0.00000000000E+00 0. -1.
         11    1    3    3    0    0  0.16176504965E+02 -0.26678783619E+02 -0.38666925872E+00  0.31202344810E+02  0.51100000000E-03 0. -1.
        -11    1    3    3    0    0  0.47196928756E+01 -0.29815003498E+01  0.10243551873E+00  0.55834880203E+01  0.51100000000E-03 0.  1.
         12    1    3    3    0    0  0.19763732437E+01 -0.91436700898E+01 -0.17626809199E+00  0.93564856838E+01  0.00000000000E+00 0. -1.
</event>
<event>
 7    1  0.1485408E-008  0.4614232E+02  0.7816164E-02  0.1320468E+00
        -11   -1    0    0    0    0  0.00000000000E+00  0.00000000000E+00  0.45593999997E+02  0.45594000000E+02  0.51100000000E-03 0.  1.
         11   -1    0    0    0    0 -0.00000000000E+00 -0.00000000000E+00 -0.45593999997E+02  0.45594000000E+02  0.51100000000E-03 0. -1.
    9900012    2    1    2    0    0 -0.42664121693E+02 -0.10781675648E+02  0.96250665360E+01  0.46142315240E+02  0.99999770134E+01 0.  0.
         12    1    1    2    0    0  0.42664121693E+02  0.10781675648E+02 -0.96250665360E+01  0.45045684760E+02  0.00000000000E+00 0. -1.
         11    1    3    3    0    0 -0.78937801066E+01 -0.51457574475E+01  0.16308254793E+01  0.95629585425E+01  0.51100000000E-03 0. -1.
        -11    1    3    3    0    0 -0.17542965014E+01  0.95162808196E+00  0.81382340478E+00  0.21553331567E+01  0.51100000000E-03 0.  1.
        -12    1    3    3    0    0 -0.33016045085E+02 -0.65875462824E+01  0.71804176519E+01  0.34424023541E+02  0.00000000000E+00 0.  1.
</event>
<event>
 7    1  0.1485408E-008  0.4614232E+02  0.7816164E-02  0.1320468E+00
        -11   -1    0    0    0    0  0.00000000000E+00  0.00000000000E+00  0.45593999997E+02  0.45594000000E+02  0.51100000000E-03 0. -1.
         11   -1    0    0    0    0 -0.00000000000E+00 -0.00000000000E+00 -0.45593999997E+02  0.45594000000E+02  0.51100000000E-03 0.  1.
    9900012    2    1    2    0    0  0.28577320844E+02  0.29905756486E+02 -0.17835246850E+02  0.46142316879E+02  0.99999919588E+01 0.  0.
         12    1    1    2    0    0 -0.28577320844E+02 -0.29905756486E+02  0.17835246850E+02  0.45045683121E+02  0.00000000000E+00 0. -1.
         11    1    3    3    0    0  0.50964718628E+00  0.24409450367E+01 -0.54554175688E+00  0.25525612620E+01  0.51100000000E-03 0. -1.
        -11    1    3    3    0    0  0.18577204413E+02  0.22872020914E+02 -0.12433780567E+02  0.31981881807E+02  0.51100000000E-03 0.  1.
        -12    1    3    3    0    0  0.94904692449E+01  0.45927905356E+01 -0.48559245257E+01  0.11607873810E+02  0.00000000000E+00 0.  1.
</event>
<event>
 7    1  0.1485408E-008  0.4614232E+02  0.7816164E-02  0.1320468E+00
        -11   -1    0    0    0    0  0.00000000000E+00  0.00000000000E+00  0.45593999997E+02  0.45594000000E+02  0.51100000000E-03 0. -1.
         11   -1    0    0    0    0 -0.00000000000E+00 -0.00000000000E+00 -0.45593999997E+02  0.45594000000E+02  0.51100000000E-03 0.  1.
    9900012    2    1    2    0    0 -0.24036124091E+02 -0.19231399292E+02 -0.32886644817E+02  0.46142318882E+02  0.10000010225E+02 0.  0.
         12    1    1    2    0    0  0.24036124091E+02  0.19231399292E+02  0.32886644817E+02  0.45045681118E+02  0.00000000000E+00 0. -1.
         11    1    3    3    0    0 -0.80967523846E+01 -0.61868205938E+01 -0.57669555704E+01  0.11708626096E+02  0.51100000000E-03 0. -1.
        -11    1    3    3    0    0 -0.12846925074E+02 -0.10911526587E+02 -0.24905271987E+02  0.30072869324E+02  0.51100000000E-03 0.  1.
        -12    1    3    3    0    0 -0.30924466321E+01 -0.21330521106E+01 -0.22144172592E+01  0.43608234632E+01  0.00000000000E+00 0.  1.
</event>
<event>
 7    1  0.1485408E-008  0.4614232E+02  0.7816164E-02  0.1320468E+00
        -11   -1    0    0    0    0  0.00000000000E+00  0.00000000000E+00  0.45593999997E+02  0.45594000000E+02  0.51100000000E-03 0. -1.
         11   -1    0    0    0    0 -0.00000000000E+00 -0.00000000000E+00 -0.45593999997E+02  0.45594000000E+02  0.51100000000E-03 0.  1.
    9900012    2    1    2    0    0 -0.11614481803E+02  0.35753821172E+02  0.24816962214E+02  0.46142317305E+02  0.99999958374E+01 0.  0.
         12    1    1    2    0    0  0.11614481803E+02 -0.35753821172E+02 -0.24816962214E+02  0.45045682695E+02  0.00000000000E+00 0. -1.
         11    1    3    3    0    0 -0.36535706648E+01  0.77579109322E+01  0.89464869887E+01  0.12392473132E+02  0.51100000000E-03 0. -1.
        -11    1    3    3    0    0 -0.65661027381E+01  0.12181521250E+02  0.62294280700E+01  0.15175932903E+02  0.51100000000E-03 0.  1.
         12    1    3    3    0    0 -0.13948084005E+01  0.15814388990E+02  0.96410471552E+01  0.18573911270E+02  0.00000000000E+00 0. -1.
</event>
<event>
 7    1  0.1485408E-008  0.4614232E+02  0.7816164E-02  0.1320468E+00
        -11   -1    0    0    0    0  0.00000000000E+00  0.00000000000E+00  0.45593999997E+02  0.45594000000E+02  0.51100000000E-03 0.  1.
         11   -1    0    0    0    0 -0.00000000000E+00 -0.00000000000E+00 -0.45593999997E+02  0.45594000000E+02  0.51100000000E-03 0. -1.
    9900012    2    1    2    0    0 -0.28797941247E+01 -0.21328669234E+01  0.44902909082E+02  0.46142316749E+02  0.99999907741E+01 0.  0.
         12    1    1    2    0    0  0.28797941247E+01  0.21328669234E+01 -0.44902909082E+02  0.45045683251E+02  0.00000000000E+00 0. -1.
         11    1    3    3    0    0 -0.18861088111E+00 -0.35844384066E+01  0.26642970402E+02  0.26883668739E+02  0.51100000000E-03 0. -1.
        -11    1    3    3    0    0 -0.15379212020E+01  0.18357483523E+01  0.17797796416E+02  0.17958193984E+02  0.51100000000E-03 0.  1.
         12    1    3    3    0    0 -0.11532620416E+01 -0.38417686918E+00  0.46214226364E+00  0.13004540266E+01  0.00000000000E+00 0. -1.
</event>
<event>
 7    1  0.1485408E-008  0.4614232E+02  0.7816164E-02  0.1320468E+00
        -11   -1    0    0    0    0  0.00000000000E+00  0.00000000000E+00  0.45593999997E+02  0.45594000000E+02  0.51100000000E-03 0.  1.
         11   -1    0    0    0    0 -0.00000000000E+00 -0.00000000000E+00 -0.45593999997E+02  0.45594000000E+02  0.51100000000E-03 0. -1.
    9900012    2    1    2    0    0  0.32195732593E+02  0.31429628243E+02  0.21740310199E+01  0.46142321632E+02  0.10000035301E+02 0.  0.
         12    1    1    2    0    0 -0.32195732593E+02 -0.31429628243E+02 -0.21740310199E+01  0.45045678368E+02  0.00000000000E+00 0. -1.
         11    1    3    3    0    0  0.16857817714E+02  0.13620669510E+02 -0.23541067029E+01  0.21800240242E+02  0.51100000000E-03 0.  1.
        -11    1    3    3    0    0  0.62051057145E+01  0.71474245614E+01  0.40509150414E+01  0.10295578067E+02  0.51100000000E-03 0. -1.
         12    1    3    3    0    0  0.91328091653E+01  0.10661534172E+02  0.47722268135E+00  0.14046503324E+02  0.00000000000E+00 0. -1.
</event>
<event>
 7    1  0.1485408E-008  0.4614232E+02  0.7816164E-02  0.1320468E+00
        -11   -1    0    0    0    0  0.00000000000E+00  0.00000000000E+00  0.45593999997E+02  0.45594000000E+02  0.51100000000E-03 0. -1.
         11   -1    0    0    0    0 -0.00000000000E+00 -0.00000000000E+00 -0.45593999997E+02  0.45594000000E+02  0.51100000000E-03 0.  1.
    9900012    2    1    2    0    0 -0.30731937758E+02 -0.32074365702E+02  0.74763967918E+01  0.46142318270E+02  0.10000004639E+02 0.  0.
         12    1    1    2    0    0  0.30731937758E+02  0.32074365702E+02 -0.74763967918E+01  0.45045681730E+02  0.00000000000E+00 0. -1.
         11    1    3    3    0    0 -0.49396303940E+01 -0.53550671083E+01  0.38485332937E+01  0.82394114436E+01  0.51100000000E-03 0. -1.
        -11    1    3    3    0    0 -0.23493874475E+02 -0.23190498191E+02  0.51783801632E+01  0.33415220567E+02  0.51100000000E-03 0.  1.
        -12    1    3    3    0    0 -0.22984328891E+01 -0.35288004035E+01 -0.15505166651E+01  0.44876862593E+01  0.00000000000E+00 0.  1.
</event>
<event>
 7    1  0.1485408E-008  0.4614232E+02  0.7816164E-02  0.1320468E+00
        -11   -1    0    0    0    0  0.00000000000E+00  0.00000000000E+00  0.45593999997E+02  0.45594000000E+02  0.51100000000E-03 0.  1.
         11   -1    0    0    0    0 -0.00000000000E+00 -0.00000000000E+00 -0.45593999997E+02  0.45594000000E+02  0.51100000000E-03 0. -1.
    9900012    2    1    2    0    0 -0.35034003477E+02 -0.15018455731E+02  0.24003710025E+02  0.46142317552E+02  0.99999980976E+01 0.  0.
         12    1    1    2    0    0  0.35034003477E+02  0.15018455731E+02 -0.24003710025E+02  0.45045682448E+02  0.00000000000E+00 0. -1.
         11    1    3    3    0    0  0.62158173057E+00 -0.99392814256E-01  0.33427254763E-01  0.63036530820E+00  0.51100000000E-03 0. -1.
        -11    1    3    3    0    0 -0.11731164961E+02 -0.45291380266E+01  0.86406962732E+01  0.15257619570E+02  0.51100000000E-03 0.  1.
         12    1    3    3    0    0 -0.23924420247E+02 -0.10389924890E+02  0.15329586497E+02  0.30254332674E+02  0.00000000000E+00 0. -1.
</event>
<event>
 7    1  0.1485408E-008  0.4614232E+02  0.7816164E-02  0.1320468E+00
        -11   -1    0    0    0    0  0.00000000000E+00  0.00000000000E+00  0.45593999997E+02  0.45594000000E+02  0.51100000000E-03 0.  1.
         11   -1    0    0    0    0 -0.00000000000E+00 -0.00000000000E+00 -0.45593999997E+02  0.45594000000E+02  0.51100000000E-03 0. -1.
    9900012    2    1    2    0    0 -0.12981867031E+02  0.24624548347E+02  0.35414915337E+02  0.46142317840E+02  0.10000000724E+02 0.  0.
         12    1    1    2    0    0  0.12981867031E+02 -0.24624548347E+02 -0.35414915337E+02  0.45045682160E+02  0.00000000000E+00 0. -1.
         11    1    3    3    0    0 -0.21545278214E+01  0.18934972524E+01  0.28755818602E+00  0.28827091337E+01  0.51100000000E-03 0. -1.
        -11    1    3    3    0    0 -0.48288761125E+01  0.11669393239E+02  0.18743284781E+02  0.22600962539E+02  0.51100000000E-03 0.  1.
         12    1    3    3    0    0 -0.59984630975E+01  0.11061657856E+02  0.16384072370E+02  0.20658646167E+02  0.00000000000E+00 0. -1.
</event>
<event>
 7    1  0.1485408E-008  0.4614232E+02  0.7816164E-02  0.1320468E+00
        -11   -1    0    0    0    0  0.00000000000E+00  0.00000000000E+00  0.45593999997E+02  0.45594000000E+02  0.51100000000E-03 0. -1.
         11   -1    0    0    0    0 -0.00000000000E+00 -0.00000000000E+00 -0.45593999997E+02  0.45594000000E+02  0.51100000000E-03 0.  1.
    9900012    2    1    2    0    0 -0.38368481615E+02 -0.15745453768E+02 -0.17579915469E+02  0.46142321809E+02  0.10000036913E+02 0.  0.
         12    1    1    2    0    0  0.38368481615E+02  0.15745453768E+02  0.17579915469E+02  0.45045678191E+02  0.00000000000E+00 0. -1.
         11    1    3    3    0    0 -0.79732980728E+01 -0.41886896480E+01 -0.11281854800E+01  0.90769711834E+01  0.51100000000E-03 0. -1.
        -11    1    3    3    0    0 -0.26289133962E+02 -0.77198495753E+01 -0.15102998572E+02  0.31286022567E+02  0.51100000000E-03 0.  1.
        -12    1    3    3    0    0 -0.41060495800E+01 -0.38369145447E+01 -0.13487314174E+01  0.57793280590E+01  0.00000000000E+00 0.  1.
</event>
<event>
 7    1  0.1485408E-008  0.4614232E+02  0.7816164E-02  0.1320468E+00
        -11   -1    0    0    0    0  0.00000000000E+00  0.00000000000E+00  0.45593999997E+02  0.45594000000E+02  0.51100000000E-03 0. -1.
         11   -1    0    0    0    0 -0.00000000000E+00 -0.00000000000E+00 -0.45593999997E+02  0.45594000000E+02  0.51100000000E-03 0.  1.
    9900012    2    1    2    0    0  0.23503300870E+02  0.37928519777E+02  0.61754182121E+01  0.46142317028E+02  0.99999933158E+01 0.  0.
         12    1    1    2    0    0 -0.23503300870E+02 -0.37928519777E+02 -0.61754182121E+01  0.45045682972E+02  0.00000000000E+00 0. -1.
         11    1    3    3    0    0  0.21934482228E+01  0.11407208149E+01 -0.11665291529E+01  0.27337244940E+01  0.51100000000E-03 0. -1.
        -11    1    3    3    0    0  0.17788899663E+02  0.30765166052E+02  0.79154790878E+01  0.36408724269E+02  0.51100000000E-03 0.  1.
        -12    1    3    3    0    0  0.35209529844E+01  0.60226329103E+01 -0.57353172280E+00  0.69998682650E+01  0.00000000000E+00 0.  1.
</event>
<event>
 7    1  0.1485408E-008  0.4614232E+02  0.7816164E-02  0.1320468E+00
        -11   -1    0    0    0    0  0.00000000000E+00  0.00000000000E+00  0.45593999997E+02  0.45594000000E+02  0.51100000000E-03 0. -1.
         11   -1    0    0    0    0 -0.00000000000E+00 -0.00000000000E+00 -0.45593999997E+02  0.45594000000E+02  0.51100000000E-03 0.  1.
    9900012    2    1    2    0    0  0.29144811273E+02 -0.24594032818E+02 -0.23975548697E+02  0.46142318634E+02  0.10000007964E+02 0.  0.
         12    1    1    2    0    0 -0.29144811273E+02  0.24594032818E+02  0.23975548697E+02  0.45045681366E+02  0.00000000000E+00 0. -1.
         11    1    3    3    0    0  0.13314355276E+02 -0.16691071342E+02 -0.10135472841E+02  0.23634545245E+02  0.51100000000E-03 0. -1.
        -11    1    3    3    0    0  0.11098670605E+02 -0.62256559316E+01 -0.10135888986E+02  0.16268851428E+02  0.51100000000E-03 0.  1.
         12    1    3    3    0    0  0.47317853914E+01 -0.16773055448E+01 -0.37041868702E+01  0.62389219622E+01  0.00000000000E+00 0. -1.
</event>
<event>
 7    1  0.1485408E-008  0.4614232E+02  0.7816164E-02  0.1320468E+00
        -11   -1    0    0    0    0  0.00000000000E+00  0.00000000000E+00  0.45593999997E+02  0.45594000000E+02  0.51100000000E-03 0.  1.
         11   -1    0    0    0    0 -0.00000000000E+00 -0.00000000000E+00 -0.45593999997E+02  0.45594000000E+02  0.51100000000E-03 0. -1.
    9900012    2    1    2    0    0  0.26448838626E+02  0.26258279308E+01  0.36368632190E+02  0.46142318250E+02  0.10000004454E+02 0.  0.
         12    1    1    2    0    0 -0.26448838626E+02 -0.26258279308E+01 -0.36368632190E+02  0.45045681750E+02  0.00000000000E+00 0. -1.
         11    1    3    3    0    0  0.80273579302E+01 -0.26680836081E+01  0.11619962899E+02  0.14372914928E+02  0.51100000000E-03 0. -1.
        -11    1    3    3    0    0  0.28418605764E+01  0.25536183328E+01  0.29058503639E+01  0.48001150740E+01  0.51100000000E-03 0.  1.
        -12    1    3    3    0    0  0.15579620119E+02  0.27402932061E+01  0.21842818927E+02  0.26969288248E+02  0.00000000000E+00 0.  1.
</event>
<event>
 7    1  0.1485408E-008  0.4614232E+02  0.7816164E-02  0.1320468E+00
        -11   -1    0    0    0    0  0.00000000000E+00  0.00000000000E+00  0.45593999997E+02  0.45594000000E+02  0.51100000000E-03 0.  1.
         11   -1    0    0    0    0 -0.00000000000E+00 -0.00000000000E+00 -0.45593999997E+02  0.45594000000E+02  0.51100000000E-03 0. -1.
    9900012    2    1    2    0    0 -0.24185138120E+02 -0.29754936491E+02  0.23639719504E+02  0.46142317747E+02  0.99999998684E+01 0.  0.
         12    1    1    2    0    0  0.24185138120E+02  0.29754936491E+02 -0.23639719504E+02  0.45045682253E+02  0.00000000000E+00 0. -1.
         11    1    3    3    0    0 -0.21576667368E+01 -0.53401935116E+00  0.14006297249E+01  0.26272545179E+01  0.51100000000E-03 0. -1.
        -11    1    3    3    0    0 -0.18033267391E+02 -0.27362670727E+02  0.21061357164E+02  0.38955041368E+02  0.51100000000E-03 0.  1.
        -12    1    3    3    0    0 -0.39942039918E+01 -0.18582464124E+01  0.11777326146E+01  0.45600218605E+01  0.00000000000E+00 0.  1.
</event>
<event>
 7    1  0.1485408E-008  0.4614232E+02  0.7816164E-02  0.1320468E+00
        -11   -1    0    0    0    0  0.00000000000E+00  0.00000000000E+00  0.45593999997E+02  0.45594000000E+02  0.51100000000E-03 0. -1.
         11   -1    0    0    0    0 -0.00000000000E+00 -0.00000000000E+00 -0.45593999997E+02  0.45594000000E+02  0.51100000000E-03 0.  1.
    9900012    2    1    2    0    0  0.37559903479E+02 -0.66879507835E+01 -0.23950752112E+02  0.46142316946E+02  0.99999925709E+01 0.  0.
         12    1    1    2    0    0 -0.37559903479E+02  0.66879507835E+01  0.23950752112E+02  0.45045683054E+02  0.00000000000E+00 0. -1.
         11    1    3    3    0    0  0.15010449607E+02 -0.31587222172E+01 -0.11800742323E+02  0.19353259236E+02  0.51100000000E-03 0. -1.
        -11    1    3    3    0    0  0.18194477974E+02 -0.56200155910E+01 -0.98223587559E+01  0.21426673465E+02  0.51100000000E-03 0.  1.
         12    1    3    3    0    0  0.43549758987E+01  0.20907870247E+01 -0.23276510331E+01  0.53623842452E+01  0.00000000000E+00 0. -1.
</event>
<event>
 7    1  0.1485408E-008  0.4614232E+02  0.7816164E-02  0.1320468E+00
        -11   -1    0    0    0    0  0.00000000000E+00  0.00000000000E+00  0.45593999997E+02  0.45594000000E+02  0.51100000000E-03 0.  1.
         11   -1    0    0    0    0 -0.00000000000E+00 -0.00000000000E+00 -0.45593999997E+02  0.45594000000E+02  0.51100000000E-03 0. -1.
    9900012    2    1    2    0    0 -0.40138974994E+02  0.18134340872E+02  0.94404393573E+01  0.46142317325E+02  0.99999960233E+01 0.  0.
         12    1    1    2    0    0  0.40138974994E+02 -0.18134340872E+02 -0.94404393573E+01  0.45045682675E+02  0.00000000000E+00 0. -1.
         11    1    3    3    0    0 -0.65703062388E+01  0.43331859386E+01  0.52343724645E+01  0.94521997339E+01  0.51100000000E-03 0. -1.
        -11    1    3    3    0    0 -0.21238411531E+02  0.10394191925E+02  0.31484508000E+01  0.23854183969E+02  0.51100000000E-03 0.  1.
         12    1    3    3    0    0 -0.12330257224E+02  0.34069630076E+01  0.10576160927E+01  0.12835933622E+02  0.00000000000E+00 0. -1.
</event>
<event>
 7    1  0.1485408E-008  0.4614232E+02  0.7816164E-02  0.1320468E+00
        -11   -1    0    0    0    0  0.00000000000E+00  0.00000000000E+00  0.45593999997E+02  0.45594000000E+02  0.51100000000E-03 0.  1.
         11   -1    0    0    0    0 -0.00000000000E+00 -0.00000000000E+00 -0.45593999997E+02  0.45594000000E+02  0.51100000000E-03 0. -1.
    9900012    2    1    2    0    0  0.12621778586E+02 -0.14529845423E+02  0.40726990286E+02  0.46142318293E+02  0.10000004853E+02 0.  0.
         12    1    1    2    0    0 -0.12621778586E+02  0.14529845423E+02 -0.40726990286E+02  0.45045681707E+02  0.00000000000E+00 0. -1.
         11    1    3    3    0    0  0.75897277924E+00 -0.18466227312E+00  0.12942732902E+01  0.15117153984E+01  0.51100000000E-03 0. -1.
        -11    1    3    3    0    0  0.10752419589E+02 -0.14454062552E+02  0.29010550911E+02  0.34148887474E+02  0.51100000000E-03 0.  1.
        -12    1    3    3    0    0  0.11103862173E+01  0.10887940211E+00  0.10422166085E+02  0.10481715421E+02  0.00000000000E+00 0.  1.
</event>
<event>
 7    1  0.1485408E-008  0.4614232E+02  0.7816164E-02  0.1320468E+00
        -11   -1    0    0    0    0  0.00000000000E+00  0.00000000000E+00  0.45593999997E+02  0.45594000000E+02  0.51100000000E-03 0. -1.
         11   -1    0    0    0    0 -0.00000000000E+00 -0.00000000000E+00 -0.45593999997E+02  0.45594000000E+02  0.51100000000E-03 0.  1.
    9900012    2    1    2    0    0  0.20906422830E+02 -0.35124015230E+02 -0.18929829891E+02  0.46142318507E+02  0.10000006803E+02 0.  0.
         12    1    1    2    0    0 -0.20906422830E+02  0.35124015230E+02  0.18929829891E+02  0.45045681493E+02  0.00000000000E+00 0. -1.
         11    1    3    3    0    0  0.15906217789E+02 -0.23262039487E+02 -0.16798836397E+02  0.32807486188E+02  0.51100000000E-03 0.  1.
        -11    1    3    3    0    0  0.41448690925E+00 -0.19573553032E+01  0.59029555123E+00  0.20860221187E+01  0.51100000000E-03 0. -1.
        -12    1    3    3    0    0  0.45857181321E+01 -0.99046204401E+01 -0.27212890455E+01  0.11248810200E+02  0.00000000000E+00 0.  1.
</event>
<event>
 7    1  0.1485408E-008  0.4614232E+02  0.7816164E-02  0.1320468E+00
        -11   -1    0    0    0    0  0.00000000000E+00  0.00000000000E+00  0.45593999997E+02  0.45594000000E+02  0.51100000000E-03 0.  1.
         11   -1    0    0    0    0 -0.00000000000E+00 -0.00000000000E+00 -0.45593999997E+02  0.45594000000E+02  0.51100000000E-03 0. -1.
    9900012    2    1    2    0    0 -0.37500024829E+02  0.24862241054E+02  0.21749806503E+01  0.46142318373E+02  0.10000005580E+02 0.  0.
         12    1    1    2    0    0  0.37500024829E+02 -0.24862241054E+02 -0.21749806503E+01  0.45045681627E+02  0.00000000000E+00 0. -1.
         11    1    3    3    0    0 -0.22000130858E+02  0.11254946105E+02  0.41898118864E+01  0.25064598411E+02  0.51100000000E-03 0. -1.
        -11    1    3    3    0    0 -0.37577178097E+01  0.38658852256E+01  0.11093809516E+01  0.55042018560E+01  0.51100000000E-03 0.  1.
        -12    1    3    3    0    0 -0.11742176161E+02  0.97414097237E+01 -0.31242121877E+01  0.15573518106E+02  0.00000000000E+00 0.  1.
</event>
<event>
 7    1  0.1485408E-008  0.4614232E+02  0.7816164E-02  0.1320468E+00
        -11   -1    0    0    0    0  0.00000000000E+00  0.00000000000E+00  0.45593999997E+02  0.45594000000E+02  0.51100000000E-03 0.  1.
         11   -1    0    0    0    0 -0.00000000000E+00 -0.00000000000E+00 -0.45593999997E+02  0.45594000000E+02  0.51100000000E-03 0. -1.
    9900012    2    1    2    0    0  0.33533796187E+02 -0.23043718571E+02  0.19328345562E+02  0.46142318803E+02  0.10000009505E+02 0.  0.
         12    1    1    2    0    0 -0.33533796187E+02  0.23043718571E+02 -0.19328345562E+02  0.45045681197E+02  0.00000000000E+00 0. -1.
         11    1    3    3    0    0  0.12247204356E-01 -0.60615324724E+00  0.26749484986E+00  0.66266545781E+00  0.51100000000E-03 0. -1.
        -11    1    3    3    0    0  0.30660391009E+02 -0.23058777232E+02  0.17798430682E+02  0.42291262919E+02  0.51100000000E-03 0.  1.
        -12    1    3    3    0    0  0.28611579738E+01  0.62121190741E+00  0.12624200294E+01  0.31883904271E+01  0.00000000000E+00 0.  1.
</event>
<event>
 7    1  0.1485408E-008  0.4614231E+02  0.7816164E-02  0.1320468E+00
        -11   -1    0    0    0    0  0.00000000000E+00  0.00000000000E+00  0.45593999997E+02  0.45594000000E+02  0.51100000000E-03 0.  1.
         11   -1    0    0    0    0 -0.00000000000E+00 -0.00000000000E+00 -0.45593999997E+02  0.45594000000E+02  0.51100000000E-03 0. -1.
    9900012    2    1    2    0    0 -0.22541837115E+02 -0.12619809678E+02  0.36901488101E+02  0.46142313848E+02  0.99999643166E+01 0.  0.
         12    1    1    2    0    0  0.22541837115E+02  0.12619809678E+02 -0.36901488101E+02  0.45045686152E+02  0.00000000000E+00 0. -1.
         11    1    3    3    0    0 -0.11722048784E+02 -0.42844582150E+01  0.19397480811E+02  0.23065673022E+02  0.51100000000E-03 0. -1.
        -11    1    3    3    0    0 -0.78198766332E+01 -0.66677461545E+01  0.16606324690E+02  0.19528935693E+02  0.51100000000E-03 0.  1.
         12    1    3    3    0    0 -0.29999116975E+01 -0.16676053088E+01  0.89768260076E+00  0.35477051330E+01  0.00000000000E+00 0. -1.
</event>
<event>
 7    1  0.1485408E-008  0.4614232E+02  0.7816164E-02  0.1320468E+00
        -11   -1    0    0    0    0  0.00000000000E+00  0.00000000000E+00  0.45593999997E+02  0.45594000000E+02  0.51100000000E-03 0. -1.
         11   -1    0    0    0    0 -0.00000000000E+00 -0.00000000000E+00 -0.45593999997E+02  0.45594000000E+02  0.51100000000E-03 0.  1.
    9900012    2    1    2    0    0 -0.20237145557E+02  0.34837038246E+02 -0.20148255611E+02  0.46142317651E+02  0.99999989980E+01 0.  0.
         12    1    1    2    0    0  0.20237145557E+02 -0.34837038246E+02  0.20148255611E+02  0.45045682349E+02  0.00000000000E+00 0. -1.
         11    1    3    3    0    0 -0.51460286285E+01  0.14252032639E+02 -0.53972488306E+01  0.16085159005E+02  0.51100000000E-03 0. -1.
        -11    1    3    3    0    0 -0.42739108442E+01  0.10642995388E+02 -0.71516064849E+01  0.13516106699E+02  0.51100000000E-03 0.  1.
         12    1    3    3    0    0 -0.10817206085E+02  0.99420102194E+01 -0.75994002957E+01  0.16541051948E+02  0.00000000000E+00 0. -1.
</event>
<event>
 7    1  0.1485408E-008  0.4614232E+02  0.7816164E-02  0.1320468E+00
        -11   -1    0    0    0    0  0.00000000000E+00  0.00000000000E+00  0.45593999997E+02  0.45594000000E+02  0.51100000000E-03 0.  1.
         11   -1    0    0    0    0 -0.00000000000E+00 -0.00000000000E+00 -0.45593999997E+02  0.45594000000E+02  0.51100000000E-03 0. -1.
    9900012    2    1    2    0    0 -0.52808756879E+01 -0.75354256416E+01  0.44095836029E+02  0.46142322707E+02  0.10000045104E+02 0.  0.
         12    1    1    2    0    0  0.52808756879E+01  0.75354256416E+01 -0.44095836029E+02  0.45045677293E+02  0.00000000000E+00 0. -1.
         11    1    3    3    0    0  0.46844840952E+00 -0.10833038405E+01  0.15886290780E+00  0.11908941212E+01  0.51100000000E-03 0. -1.
        -11    1    3    3    0    0 -0.56481784854E+01 -0.53351393999E+01  0.30732254008E+02  0.31699165120E+02  0.51100000000E-03 0.  1.
        -12    1    3    3    0    0 -0.10114561197E+00 -0.11169824012E+01  0.13204719113E+02  0.13252263466E+02  0.00000000000E+00 0.  1.
</event>
<event>
 7    1  0.1485408E-008  0.4614232E+02  0.7816164E-02  0.1320468E+00
        -11   -1    0    0    0    0  0.00000000000E+00  0.00000000000E+00  0.45593999997E+02  0.45594000000E+02  0.51100000000E-03 0.  1.
         11   -1    0    0    0    0 -0.00000000000E+00 -0.00000000000E+00 -0.45593999997E+02  0.45594000000E+02  0.51100000000E-03 0. -1.
    9900012    2    1    2    0    0  0.26267202688E+02  0.44193913564E+01  0.36326529585E+02  0.46142315315E+02  0.99999776963E+01 0.  0.
         12    1    1    2    0    0 -0.26267202688E+02 -0.44193913564E+01 -0.36326529585E+02  0.45045684685E+02  0.00000000000E+00 0. -1.
         11    1    3    3    0    0 -0.29812661623E-01  0.93795355707E+00  0.74092254943E+00  0.11956638973E+01  0.51100000000E-03 0.  1.
        -11    1    3    3    0    0  0.44139880111E+01  0.29923488681E+01  0.48132248206E+01  0.71836324618E+01  0.51100000000E-03 0. -1.
        -12    1    3    3    0    0  0.21883027339E+02  0.48908893123E+00  0.30772382215E+02  0.37763018956E+02  0.00000000000E+00 0.  1.
</event>
<event>
 7    1  0.1485408E-008  0.4614232E+02  0.7816164E-02  0.1320468E+00
        -11   -1    0    0    0    0  0.00000000000E+00  0.00000000000E+00  0.45593999997E+02  0.45594000000E+02  0.51100000000E-03 0.  1.
         11   -1    0    0    0    0 -0.00000000000E+00 -0.00000000000E+00 -0.45593999997E+02  0.45594000000E+02  0.51100000000E-03 0. -1.
    9900012    2    1    2    0    0 -0.27884309222E+02 -0.31146185074E+01  0.35240285330E+02  0.46142320303E+02  0.10000023182E+02 0.  0.
         12    1    1    2    0    0  0.27884309222E+02  0.31146185074E+01 -0.35240285330E+02  0.45045679697E+02  0.00000000000E+00 0. -1.
         11    1    3    3    0    0 -0.12543872516E+02 -0.10707921461E+01  0.22732913549E+02  0.25986163477E+02  0.51100000000E-03 0. -1.
        -11    1    3    3    0    0 -0.10708290277E+02 -0.24921554802E+01  0.10039117942E+02  0.14888324584E+02  0.51100000000E-03 0.  1.
         12    1    3    3    0    0 -0.46321464282E+01  0.44832911895E+00  0.24682538382E+01  0.52678322430E+01  0.00000000000E+00 0. -1.
</event>
<event>
 7    1  0.1485408E-008  0.4614232E+02  0.7816164E-02  0.1320468E+00
        -11   -1    0    0    0    0  0.00000000000E+00  0.00000000000E+00  0.45593999997E+02  0.45594000000E+02  0.51100000000E-03 0.  1.
         11   -1    0    0    0    0 -0.00000000000E+00 -0.00000000000E+00 -0.45593999997E+02  0.45594000000E+02  0.51100000000E-03 0. -1.
    9900012    2    1    2    0    0  0.19008348366E+02 -0.40544469365E+02  0.48930756703E+01  0.46142317707E+02  0.99999995107E+01 0.  0.
         12    1    1    2    0    0 -0.19008348366E+02  0.40544469365E+02 -0.48930756703E+01  0.45045682293E+02  0.00000000000E+00 0. -1.
         11    1    3    3    0    0  0.15163228525E+02 -0.22769584040E+02  0.82219080457E+00  0.27368840945E+02  0.51100000000E-03 0. -1.
        -11    1    3    3    0    0  0.33834360979E+01 -0.16140788822E+02  0.29896350102E+01  0.16760388462E+02  0.51100000000E-03 0.  1.
         12    1    3    3    0    0  0.46168374289E+00 -0.16340965025E+01  0.10812498555E+01  0.20130883011E+01  0.00000000000E+00 0. -1.
</event>
<event>
 7    1  0.1485408E-008  0.4614232E+02  0.7816164E-02  0.1320468E+00
        -11   -1    0    0    0    0  0.00000000000E+00  0.00000000000E+00  0.45593999997E+02  0.45594000000E+02  0.51100000000E-03 0. -1.
         11   -1    0    0    0    0 -0.00000000000E+00 -0.00000000000E+00 -0.45593999997E+02  0.45594000000E+02  0.51100000000E-03 0.  1.
    9900012    2    1    2    0    0 -0.46392252530E+01 -0.44739940341E+02 -0.24349160642E+01  0.46142317755E+02  0.99999999448E+01 0.  0.
         12    1    1    2    0    0  0.46392252530E+01  0.44739940341E+02  0.24349160642E+01  0.45045682245E+02  0.00000000000E+00 0. -1.
         11    1    3    3    0    0 -0.15446992337E+01 -0.22480571910E+02  0.35102749544E+01  0.22805355503E+02  0.51100000000E-03 0. -1.
        -11    1    3    3    0    0 -0.21033286634E+01 -0.12162924264E+02 -0.22930962671E+01  0.12554640930E+02  0.51100000000E-03 0.  1.
         12    1    3    3    0    0 -0.99119735590E+00 -0.10096444167E+02 -0.36520947515E+01  0.10782321322E+02  0.00000000000E+00 0. -1.
</event>
<event>
 7    1  0.1485408E-008  0.4614232E+02  0.7816164E-02  0.1320468E+00
        -11   -1    0    0    0    0  0.00000000000E+00  0.00000000000E+00  0.45593999997E+02  0.45594000000E+02  0.51100000000E-03 0.  1.
         11   -1    0    0    0    0 -0.00000000000E+00 -0.00000000000E+00 -0.45593999997E+02  0.45594000000E+02  0.51100000000E-03 0. -1.
    9900012    2    1    2    0    0  0.21636914472E+02  0.36863805427E+02  0.14213266167E+02  0.46142321477E+02  0.10000033885E+02 0.  0.
         12    1    1    2    0    0 -0.21636914472E+02 -0.36863805427E+02 -0.14213266167E+02  0.45045678523E+02  0.00000000000E+00 0. -1.
         11    1    3    3    0    0  0.23753843871E+01  0.20124020996E+01 -0.70781047921E+00  0.31926805560E+01  0.51100000000E-03 0. -1.
        -11    1    3    3    0    0  0.16698266688E+02  0.31552364007E+02  0.15116777332E+02  0.38767263792E+02  0.51100000000E-03 0.  1.
        -12    1    3    3    0    0  0.25632633977E+01  0.32990393211E+01 -0.19570068640E+00  0.41823771287E+01  0.00000000000E+00 0.  1.
</event>
<event>
 7    1  0.1485408E-008  0.4614232E+02  0.7816164E-02  0.1320468E+00
        -11   -1    0    0    0    0  0.00000000000E+00  0.00000000000E+00  0.45593999997E+02  0.45594000000E+02  0.51100000000E-03 0. -1.
         11   -1    0    0    0    0 -0.00000000000E+00 -0.00000000000E+00 -0.45593999997E+02  0.45594000000E+02  0.51100000000E-03 0.  1.
    9900012    2    1    2    0    0  0.43934345692E+02  0.87585433304E+01 -0.47089910470E+01  0.46142318638E+02  0.10000007999E+02 0.  0.
         12    1    1    2    0    0 -0.43934345692E+02 -0.87585433304E+01  0.47089910470E+01  0.45045681362E+02  0.00000000000E+00 0. -1.
         11    1    3    3    0    0  0.11668554072E+02  0.17904321535E+00  0.11457704315E+01  0.11726039431E+02  0.51100000000E-03 0. -1.
        -11    1    3    3    0    0  0.13232571661E+02  0.10932552187E+01 -0.40629488849E+01  0.13885377692E+02  0.51100000000E-03 0.  1.
        -12    1    3    3    0    0  0.19033219959E+02  0.74862448963E+01 -0.17918125935E+01  0.20530901515E+02  0.00000000000E+00 0.  1.
</event>
<event>
 7    1  0.1485408E-008  0.4614232E+02  0.7816164E-02  0.1320468E+00
        -11   -1    0    0    0    0  0.00000000000E+00  0.00000000000E+00  0.45593999997E+02  0.45594000000E+02  0.51100000000E-03 0.  1.
         11   -1    0    0    0    0 -0.00000000000E+00 -0.00000000000E+00 -0.45593999997E+02  0.45594000000E+02  0.51100000000E-03 0. -1.
    9900012    2    1    2    0    0  0.18107522309E+02  0.28719754189E+02  0.29604168338E+02  0.46142318433E+02  0.10000006123E+02 0.  0.
         12    1    1    2    0    0 -0.18107522309E+02 -0.28719754189E+02 -0.29604168338E+02  0.45045681567E+02  0.00000000000E+00 0. -1.
         11    1    3    3    0    0  0.27315063734E+01  0.50081374878E+00  0.18642293150E+01  0.33447410481E+01  0.51100000000E-03 0. -1.
        -11    1    3    3    0    0  0.12187913303E+02  0.20619719103E+02  0.23392548666E+02  0.33480283451E+02  0.51100000000E-03 0.  1.
        -12    1    3    3    0    0  0.31881026327E+01  0.75992213372E+01  0.43473903567E+01  0.93172939334E+01  0.00000000000E+00 0.  1.
</event>
<event>
 7    1  0.1485408E-008  0.4614232E+02  0.7816164E-02  0.1320468E+00
        -11   -1    0    0    0    0  0.00000000000E+00  0.00000000000E+00  0.45593999997E+02  0.45594000000E+02  0.51100000000E-03 0.  1.
         11   -1    0    0    0    0 -0.00000000000E+00 -0.00000000000E+00 -0.45593999997E+02  0.45594000000E+02  0.51100000000E-03 0. -1.
    9900012    2    1    2    0    0 -0.11233268107E+02  0.86230277980E+00  0.43614030490E+02  0.46142317254E+02  0.99999953773E+01 0.  0.
         12    1    1    2    0    0  0.11233268107E+02 -0.86230277980E+00 -0.43614030490E+02  0.45045682746E+02  0.00000000000E+00 0. -1.
         11    1    3    3    0    0 -0.25604146220E+01 -0.19889367115E+01  0.14507578157E+02  0.14865443704E+02  0.51100000000E-03 0.  1.
        -11    1    3    3    0    0 -0.63501698556E+00 -0.75631481000E+00  0.13660234738E+00  0.99695492687E+00  0.51100000000E-03 0. -1.
        -12    1    3    3    0    0 -0.80378364990E+01  0.36075543013E+01  0.28969849986E+02  0.30279918623E+02  0.00000000000E+00 0.  1.
</event>
<event>
 7    1  0.1485408E-008  0.4614232E+02  0.7816164E-02  0.1320468E+00
        -11   -1    0    0    0    0  0.00000000000E+00  0.00000000000E+00  0.45593999997E+02  0.45594000000E+02  0.51100000000E-03 0.  1.
         11   -1    0    0    0    0 -0.00000000000E+00 -0.00000000000E+00 -0.45593999997E+02  0.45594000000E+02  0.51100000000E-03 0. -1.
    9900012    2    1    2    0    0  0.44858096679E+01  0.29053018483E+02 -0.34130824047E+02  0.46142317394E+02  0.99999966492E+01 0.  0.
         12    1    1    2    0    0 -0.44858096679E+01 -0.29053018483E+02  0.34130824047E+02  0.45045682606E+02  0.00000000000E+00 0. -1.
         11    1    3    3    0    0  0.30772556369E+01  0.64226331062E+01 -0.40979450367E+01  0.82166216937E+01  0.51100000000E-03 0. -1.
        -11    1    3    3    0    0  0.19327850261E+01  0.20427608699E+02 -0.24563045363E+02  0.32005719065E+02  0.51100000000E-03 0.  1.
         12    1    3    3    0    0 -0.52423099507E+00  0.22027766781E+01 -0.54698336473E+01  0.59199766350E+01  0.00000000000E+00 0. -1.
</event>
<event>
 7    1  0.1485408E-008  0.4614232E+02  0.7816164E-02  0.1320468E+00
        -11   -1    0    0    0    0  0.00000000000E+00  0.00000000000E+00  0.45593999997E+02  0.45594000000E+02  0.51100000000E-03 0.  1.
         11   -1    0    0    0    0 -0.00000000000E+00 -0.00000000000E+00 -0.45593999997E+02  0.45594000000E+02  0.51100000000E-03 0. -1.
    9900012    2    1    2    0    0  0.35092021890E+02  0.12253431817E+02  0.25446353091E+02  0.46142317884E+02  0.10000001123E+02 0.  0.
         12    1    1    2    0    0 -0.35092021890E+02 -0.12253431817E+02 -0.25446353091E+02  0.45045682116E+02  0.00000000000E+00 0. -1.
         11    1    3    3    0    0  0.10205546448E+02  0.48516512557E+01  0.35348906693E+01  0.11840065478E+02  0.51100000000E-03 0. -1.
        -11    1    3    3    0    0  0.21979856879E+02  0.63872646386E+01  0.21070860975E+02  0.31110969777E+02  0.51100000000E-03 0.  1.
        -12    1    3    3    0    0  0.29066185633E+01  0.10145159225E+01  0.84060144715E+00  0.31912826297E+01  0.00000000000E+00 0.  1.
</event>
<event>
 7    1  0.1485408E-008  0.4614232E+02  0.7816164E-02  0.1320468E+00
        -11   -1    0    0    0    0  0.00000000000E+00  0.00000000000E+00  0.45593999997E+02  0.45594000000E+02  0.51100000000E-03 0.  1.
         11   -1    0    0    0    0 -0.00000000000E+00 -0.00000000000E+00 -0.45593999997E+02  0.45594000000E+02  0.51100000000E-03 0. -1.
    9900012    2    1    2    0    0  0.81623766476E+01 -0.38416451303E+02  0.22060490382E+02  0.46142319195E+02  0.10000013080E+02 0.  0.
         12    1    1    2    0    0 -0.81623766476E+01  0.38416451303E+02 -0.22060490382E+02  0.45045680805E+02  0.00000000000E+00 0. -1.
         11    1    3    3    0    0  0.38668361518E+00 -0.97891483903E+01  0.81764788434E+01  0.12760554728E+02  0.51100000000E-03 0. -1.
        -11    1    3    3    0    0  0.79672490846E+01 -0.28915792685E+02  0.13594488723E+02  0.32930384882E+02  0.51100000000E-03 0.  1.
         12    1    3    3    0    0 -0.19155605224E+00  0.28848977203E+00  0.28952281567E+00  0.45137958583E+00  0.00000000000E+00 0. -1.
</event>
<event>
 7    1  0.1485408E-008  0.4614232E+02  0.7816164E-02  0.1320468E+00
        -11   -1    0    0    0    0  0.00000000000E+00  0.00000000000E+00  0.45593999997E+02  0.45594000000E+02  0.51100000000E-03 0.  1.
         11   -1    0    0    0    0 -0.00000000000E+00 -0.00000000000E+00 -0.45593999997E+02  0.45594000000E+02  0.51100000000E-03 0. -1.
    9900012    2    1    2    0    0 -0.71969944783E+01 -0.41718113751E+02  0.15392068131E+02  0.46142317568E+02  0.99999982360E+01 0.  0.
         12    1    1    2    0    0  0.71969944783E+01  0.41718113751E+02 -0.15392068131E+02  0.45045682432E+02  0.00000000000E+00 0. -1.
         11    1    3    3    0    0  0.75720299828E+00 -0.11236364501E+02  0.20224532047E+01  0.11442008601E+02  0.51100000000E-03 0. -1.
        -11    1    3    3    0    0 -0.13125955072E+01 -0.67087289555E+00  0.75197120188E+00  0.16548227570E+01  0.51100000000E-03 0.  1.
        -12    1    3    3    0    0 -0.66416019694E+01 -0.29810876354E+02  0.12617643725E+02  0.33045486210E+02  0.00000000000E+00 0.  1.
</event>
<event>
 7    1  0.1485408E-008  0.4614232E+02  0.7816164E-02  0.1320468E+00
        -11   -1    0    0    0    0  0.00000000000E+00  0.00000000000E+00  0.45593999997E+02  0.45594000000E+02  0.51100000000E-03 0.  1.
         11   -1    0    0    0    0 -0.00000000000E+00 -0.00000000000E+00 -0.45593999997E+02  0.45594000000E+02  0.51100000000E-03 0. -1.
    9900012    2    1    2    0    0  0.33583076707E+02  0.20941424812E+02  0.21511556912E+02  0.46142318797E+02  0.10000009450E+02 0.  0.
         12    1    1    2    0    0 -0.33583076707E+02 -0.20941424812E+02 -0.21511556912E+02  0.45045681203E+02  0.00000000000E+00 0. -1.
         11    1    3    3    0    0  0.43780796605E+01  0.17134256394E+01  0.18624799690E+00  0.47051139745E+01  0.51100000000E-03 0. -1.
        -11    1    3    3    0    0  0.10009074468E+02  0.80333667215E+01  0.46343803121E+01  0.13645293464E+02  0.51100000000E-03 0.  1.
        -12    1    3    3    0    0  0.19195922578E+02  0.11194632451E+02  0.16690928603E+02  0.27791911359E+02  0.00000000000E+00 0.  1.
</event>
<event>
 7    1  0.1485408E-008  0.4614232E+02  0.7816164E-02  0.1320468E+00
        -11   -1    0    0    0    0  0.00000000000E+00  0.00000000000E+00  0.45593999997E+02  0.45594000000E+02  0.51100000000E-03 0.  1.
         11   -1    0    0    0    0 -0.00000000000E+00 -0.00000000000E+00 -0.45593999997E+02  0.45594000000E+02  0.51100000000E-03 0. -1.
    9900012    2    1    2    0    0 -0.11016454160E+02  0.88057577922E+01  0.42780950505E+02  0.46142319201E+02  0.10000013127E+02 0.  0.
         12    1    1    2    0    0  0.11016454160E+02 -0.88057577922E+01 -0.42780950505E+02  0.45045680799E+02  0.00000000000E+00 0. -1.
         11    1    3    3    0    0 -0.66132770460E+01  0.55561017516E+01  0.17189499017E+02  0.19237582402E+02  0.51100000000E-03 0. -1.
        -11    1    3    3    0    0 -0.16740134666E+01  0.43845159771E+01  0.10144297574E+02  0.11177346508E+02  0.51100000000E-03 0.  1.
         12    1    3    3    0    0 -0.27291636473E+01 -0.11348599365E+01  0.15447153914E+02  0.15727390290E+02  0.00000000000E+00 0. -1.
</event>
<event>
 7    1  0.1485408E-008  0.4614233E+02  0.7816164E-02  0.1320468E+00
        -11   -1    0    0    0    0  0.00000000000E+00  0.00000000000E+00  0.45593999997E+02  0.45594000000E+02  0.51100000000E-03 0.  1.
         11   -1    0    0    0    0 -0.00000000000E+00 -0.00000000000E+00 -0.45593999997E+02  0.45594000000E+02  0.51100000000E-03 0. -1.
    9900012    2    1    2    0    0  0.44810366627E+02  0.37659708623E+01  0.26383693331E+01  0.46142328882E+02  0.10000101407E+02 0.  0.
         12    1    1    2    0    0 -0.44810366627E+02 -0.37659708623E+01 -0.26383693331E+01  0.45045671118E+02  0.00000000000E+00 0. -1.
         11    1    3    3    0    0  0.24547976679E+01  0.74032851514E+00  0.14975020957E+01  0.29692811736E+01  0.51100000000E-03 0. -1.
        -11    1    3    3    0    0  0.27753507101E+02  0.51941316060E+01 -0.10185907318E+01  0.28253737573E+02  0.51100000000E-03 0.  1.
        -12    1    3    3    0    0  0.14602061858E+02 -0.21684892588E+01  0.21594579692E+01  0.14919310135E+02  0.00000000000E+00 0.  1.
</event>
<event>
 7    1  0.1485408E-008  0.4614232E+02  0.7816164E-02  0.1320468E+00
        -11   -1    0    0    0    0  0.00000000000E+00  0.00000000000E+00  0.45593999997E+02  0.45594000000E+02  0.51100000000E-03 0. -1.
         11   -1    0    0    0    0 -0.00000000000E+00 -0.00000000000E+00 -0.45593999997E+02  0.45594000000E+02  0.51100000000E-03 0.  1.
    9900012    2    1    2    0    0 -0.11230007684E+01  0.30955253662E+02 -0.32705115914E+02  0.46142317999E+02  0.10000002171E+02 0.  0.
         12    1    1    2    0    0  0.11230007684E+01 -0.30955253662E+02  0.32705115914E+02  0.45045682001E+02  0.00000000000E+00 0. -1.
         11    1    3    3    0    0 -0.44599308046E+01  0.89074595094E+01 -0.10727426805E+02  0.14639381947E+02  0.51100000000E-03 0. -1.
        -11    1    3    3    0    0  0.38669355095E+01  0.19717150858E+02 -0.20433184585E+02  0.28657185150E+02  0.51100000000E-03 0.  1.
        -12    1    3    3    0    0 -0.53000547323E+00  0.23306432947E+01 -0.15445045239E+01  0.28457509015E+01  0.00000000000E+00 0.  1.
</event>
<event>
 7    1  0.1485408E-008  0.4614232E+02  0.7816164E-02  0.1320468E+00
        -11   -1    0    0    0    0  0.00000000000E+00  0.00000000000E+00  0.45593999997E+02  0.45594000000E+02  0.51100000000E-03 0.  1.
         11   -1    0    0    0    0 -0.00000000000E+00 -0.00000000000E+00 -0.45593999997E+02  0.45594000000E+02  0.51100000000E-03 0. -1.
    9900012    2    1    2    0    0  0.53089039887E+01 -0.38062962970E+02  0.23497656664E+02  0.46142317851E+02  0.10000000818E+02 0.  0.
         12    1    1    2    0    0 -0.53089039887E+01  0.38062962970E+02 -0.23497656664E+02  0.45045682149E+02  0.00000000000E+00 0. -1.
         11    1    3    3    0    0  0.75281457331E+00 -0.16125395063E+00 -0.36575136538E+00  0.85235376504E+00  0.51100000000E-03 0. -1.
        -11    1    3    3    0    0  0.54094498973E+01 -0.29042144754E+02  0.17338786714E+02  0.34254077788E+02  0.51100000000E-03 0.  1.
         12    1    3    3    0    0 -0.85336048198E+00 -0.88595642650E+01  0.65246213153E+01  0.11035886298E+02  0.00000000000E+00 0. -1.
</event>
<event>
 7    1  0.1485408E-008  0.4614232E+02  0.7816164E-02  0.1320468E+00
        -11   -1    0    0    0    0  0.00000000000E+00  0.00000000000E+00  0.45593999997E+02  0.45594000000E+02  0.51100000000E-03 0.  1.
         11   -1    0    0    0    0 -0.00000000000E+00 -0.00000000000E+00 -0.45593999997E+02  0.45594000000E+02  0.51100000000E-03 0. -1.
    9900012    2    1    2    0    0 -0.40297128963E+02  0.19253531481E+02  0.58784882742E+01  0.46142315395E+02  0.99999784266E+01 0.  0.
         12    1    1    2    0    0  0.40297128963E+02 -0.19253531481E+02 -0.58784882742E+01  0.45045684605E+02  0.00000000000E+00 0. -1.
         11    1    3    3    0    0 -0.17791973089E+02  0.40945877700E+01  0.39940775674E+01  0.18688836542E+02  0.51100000000E-03 0. -1.
        -11    1    3    3    0    0 -0.12694184405E+02  0.91859198479E+01  0.28519972523E+01  0.15926623301E+02  0.51100000000E-03 0.  1.
         12    1    3    3    0    0 -0.98109714682E+01  0.59730238629E+01 -0.96758654542E+00  0.11526855553E+02  0.00000000000E+00 0. -1.
</event>
<event>
 7    1  0.1485408E-008  0.4614232E+02  0.7816164E-02  0.1320468E+00
        -11   -1    0    0    0    0  0.00000000000E+00  0.00000000000E+00  0.45593999997E+02  0.45594000000E+02  0.51100000000E-03 0. -1.
         11   -1    0    0    0    0 -0.00000000000E+00 -0.00000000000E+00 -0.45593999997E+02  0.45594000000E+02  0.51100000000E-03 0.  1.
    9900012    2    1    2    0    0  0.45042296247E+02 -0.20589199665E+00 -0.51259299729E+00  0.46142316585E+02  0.99999892772E+01 0.  0.
         12    1    1    2    0    0 -0.45042296247E+02  0.20589199665E+00  0.51259299729E+00  0.45045683415E+02  0.00000000000E+00 0. -1.
         11    1    3    3    0    0  0.58243060907E+01 -0.28941833081E+01 -0.42001142673E+00  0.65173037614E+01  0.51100000000E-03 0. -1.
        -11    1    3    3    0    0  0.29649436806E+02 -0.11564165679E+00 -0.32325819134E+00  0.29651424451E+02  0.51100000000E-03 0.  1.
         12    1    3    3    0    0  0.95685533508E+01  0.28039329682E+01  0.23067662078E+00  0.99735883723E+01  0.00000000000E+00 0. -1.
</event>
<event>
 7    1  0.1485408E-008  0.4614232E+02  0.7816164E-02  0.1320468E+00
        -11   -1    0    0    0    0  0.00000000000E+00  0.00000000000E+00  0.45593999997E+02  0.45594000000E+02  0.51100000000E-03 0. -1.
         11   -1    0    0    0    0 -0.00000000000E+00 -0.00000000000E+00 -0.45593999997E+02  0.45594000000E+02  0.51100000000E-03 0.  1.
    9900012    2    1    2    0    0  0.32875634440E+02 -0.11071149696E+02 -0.28735622256E+02  0.46142315613E+02  0.99999804154E+01 0.  0.
         12    1    1    2    0    0 -0.32875634440E+02  0.11071149696E+02  0.28735622256E+02  0.45045684387E+02  0.00000000000E+00 0. -1.
         11    1    3    3    0    0  0.16539441235E+02 -0.25620624346E+01 -0.14339190747E+02  0.22039275665E+02  0.51100000000E-03 0. -1.
        -11    1    3    3    0    0  0.16213780819E+02 -0.69278371194E+01 -0.12410775838E+02  0.21561747906E+02  0.51100000000E-03 0.  1.
         12    1    3    3    0    0  0.12241238600E+00 -0.15812501417E+01 -0.19856556704E+01  0.25412920423E+01  0.00000000000E+00 0. -1.
</event>
<event>
 7    1  0.1485408E-008  0.4614231E+02  0.7816164E-02  0.1320468E+00
        -11   -1    0    0    0    0  0.00000000000E+00  0.00000000000E+00  0.45593999997E+02  0.45594000000E+02  0.51100000000E-03 0.  1.
         11   -1    0    0    0    0 -0.00000000000E+00 -0.00000000000E+00 -0.45593999997E+02  0.45594000000E+02  0.51100000000E-03 0. -1.
    9900012    2    1    2    0    0 -0.44832026042E+02  0.20733634354E+01 -0.38607051412E+01  0.46142307207E+02  0.99999037594E+01 0.  0.
         12    1    1    2    0    0  0.44832026042E+02 -0.20733634354E+01  0.38607051412E+01  0.45045692793E+02  0.00000000000E+00 0. -1.
         11    1    3    3    0    0 -0.11323062112E+01 -0.48833777340E+00  0.70421669728E+00  0.14200396314E+01  0.51100000000E-03 0. -1.
        -11    1    3    3    0    0 -0.18327669505E+02 -0.18770401229E+00 -0.56467919916E+01  0.19178763316E+02  0.51100000000E-03 0.  1.
        -12    1    3    3    0    0 -0.25372050326E+02  0.27494052211E+01  0.10818701531E+01  0.25543504259E+02  0.00000000000E+00 0.  1.
</event>
<event>
 7    1  0.1485408E-008  0.4614232E+02  0.7816164E-02  0.1320468E+00
        -11   -1    0    0    0    0  0.00000000000E+00  0.00000000000E+00  0.45593999997E+02  0.45594000000E+02  0.51100000000E-03 0.  1.
         11   -1    0    0    0    0 -0.00000000000E+00 -0.00000000000E+00 -0.45593999997E+02  0.45594000000E+02  0.51100000000E-03 0. -1.
    9900012    2    1    2    0    0  0.41099235992E+02  0.86743210520E+01 -0.16270292958E+02  0.46142317879E+02  0.10000001072E+02 0.  0.
         12    1    1    2    0    0 -0.41099235992E+02 -0.86743210520E+01  0.16270292958E+02  0.45045682121E+02  0.00000000000E+00 0. -1.
         11    1    3    3    0    0  0.75003675299E+01 -0.10343976956E+01 -0.60436897419E+01  0.96877075531E+01  0.51100000000E-03 0. -1.
        -11    1    3    3    0    0  0.24058392133E+02  0.68643842089E+01 -0.78236106160E+01  0.26213257827E+02  0.51100000000E-03 0.  1.
         12    1    3    3    0    0  0.95404763295E+01  0.28443345387E+01 -0.24029925999E+01  0.10241352498E+02  0.00000000000E+00 0. -1.
</event>
<event>
 7    1  0.1485408E-008  0.4614232E+02  0.7816164E-02  0.1320468E+00
        -11   -1    0    0    0    0  0.00000000000E+00  0.00000000000E+00  0.45593999997E+02  0.45594000000E+02  0.51100000000E-03 0. -1.
         11   -1    0    0    0    0 -0.00000000000E+00 -0.00000000000E+00 -0.45593999997E+02  0.45594000000E+02  0.51100000000E-03 0.  1.
    9900012    2    1    2    0    0  0.27889408923E+01 -0.34139378686E+02 -0.29254710553E+02  0.46142318099E+02  0.10000003079E+02 0.  0.
         12    1    1    2    0    0 -0.27889408923E+01  0.34139378686E+02  0.29254710553E+02  0.45045681901E+02  0.00000000000E+00 0. -1.
         11    1    3    3    0    0 -0.16726635681E+01 -0.12842262628E+02 -0.77768664281E+01  0.15106328625E+02  0.51100000000E-03 0.  1.
        -11    1    3    3    0    0  0.39017769572E+01 -0.69653510444E+01 -0.64650095416E+01  0.10273087522E+02  0.51100000000E-03 0. -1.
        -12    1    3    3    0    0  0.55982750317E+00 -0.14331765014E+02 -0.15012834584E+02  0.20762901952E+02  0.00000000000E+00 0.  1.
</event>
<event>
 7    1  0.1485408E-008  0.4614232E+02  0.7816164E-02  0.1320468E+00
        -11   -1    0    0    0    0  0.00000000000E+00  0.00000000000E+00  0.45593999997E+02  0.45594000000E+02  0.51100000000E-03 0.  1.
         11   -1    0    0    0    0 -0.00000000000E+00 -0.00000000000E+00 -0.45593999997E+02  0.45594000000E+02  0.51100000000E-03 0. -1.
    9900012    2    1    2    0    0 -0.18010456644E+02  0.25973579562E+02  0.32095329925E+02  0.46142316668E+02  0.99999900366E+01 0.  0.
         12    1    1    2    0    0  0.18010456644E+02 -0.25973579562E+02 -0.32095329925E+02  0.45045683332E+02  0.00000000000E+00 0. -1.
         11    1    3    3    0    0 -0.22738865658E+01  0.20770245158E+01  0.57790352042E+00  0.31334587429E+01  0.51100000000E-03 0. -1.
        -11    1    3    3    0    0 -0.13433387845E+01  0.58682983744E+01  0.47224402856E+01  0.76513350085E+01  0.51100000000E-03 0.  1.
         12    1    3    3    0    0 -0.14393231294E+02  0.18028256672E+02  0.26794986119E+02  0.35357522917E+02  0.00000000000E+00 0. -1.
</event>
<event>
 7    1  0.1485408E-008  0.4614232E+02  0.7816164E-02  0.1320468E+00
        -11   -1    0    0    0    0  0.00000000000E+00  0.00000000000E+00  0.45593999997E+02  0.45594000000E+02  0.51100000000E-03 0.  1.
         11   -1    0    0    0    0 -0.00000000000E+00 -0.00000000000E+00 -0.45593999997E+02  0.45594000000E+02  0.51100000000E-03 0. -1.
    9900012    2    1    2    0    0  0.30246681979E+02  0.29538456942E+02  0.15547709102E+02  0.46142317993E+02  0.10000002110E+02 0.  0.
         12    1    1    2    0    0 -0.30246681979E+02 -0.29538456942E+02 -0.15547709102E+02  0.45045682007E+02  0.00000000000E+00 0. -1.
         11    1    3    3    0    0  0.35893801528E+01  0.28752815446E+01  0.29040705483E+01  0.54391653636E+01  0.51100000000E-03 0. -1.
        -11    1    3    3    0    0  0.12618953124E+02  0.17190729134E+02  0.40274241456E+01  0.21702057313E+02  0.51100000000E-03 0.  1.
        -12    1    3    3    0    0  0.14038348702E+02  0.94724462627E+01  0.86162144077E+01  0.19001095316E+02  0.00000000000E+00 0.  1.
</event>
<event>
 7    1  0.1485408E-008  0.4614232E+02  0.7816164E-02  0.1320468E+00
        -11   -1    0    0    0    0  0.00000000000E+00  0.00000000000E+00  0.45593999997E+02  0.45594000000E+02  0.51100000000E-03 0. -1.
         11   -1    0    0    0    0 -0.00000000000E+00 -0.00000000000E+00 -0.45593999997E+02  0.45594000000E+02  0.51100000000E-03 0.  1.
    9900012    2    1    2    0    0 -0.34495063361E+02 -0.65523427983E+01 -0.28218273420E+02  0.46142317108E+02  0.99999940420E+01 0.  0.
         12    1    1    2    0    0  0.34495063361E+02  0.65523427983E+01  0.28218273420E+02  0.45045682892E+02  0.00000000000E+00 0. -1.
         11    1    3    3    0    0 -0.63244844607E+01 -0.32210502868E+01 -0.31992070115E+01  0.77851907111E+01  0.51100000000E-03 0. -1.
        -11    1    3    3    0    0 -0.39402573265E+01  0.69146586204E+00 -0.12853565748E+01  0.42018917910E+01  0.51100000000E-03 0.  1.
        -12    1    3    3    0    0 -0.24230321574E+02 -0.40227583736E+01 -0.23733709834E+02  0.34155234606E+02  0.00000000000E+00 0.  1.
</event>
<event>
 7    1  0.1485408E-008  0.4614232E+02  0.7816164E-02  0.1320468E+00
        -11   -1    0    0    0    0  0.00000000000E+00  0.00000000000E+00  0.45593999997E+02  0.45594000000E+02  0.51100000000E-03 0. -1.
         11   -1    0    0    0    0 -0.00000000000E+00 -0.00000000000E+00 -0.45593999997E+02  0.45594000000E+02  0.51100000000E-03 0.  1.
    9900012    2    1    2    0    0 -0.72096786582E+01 -0.15790685393E+01 -0.44436928814E+02  0.46142316897E+02  0.99999921223E+01 0.  0.
         12    1    1    2    0    0  0.72096786582E+01  0.15790685393E+01  0.44436928814E+02  0.45045683103E+02  0.00000000000E+00 0. -1.
         11    1    3    3    0    0 -0.10788715520E+01  0.28122382454E+01 -0.92789561681E+01  0.97555971425E+01  0.51100000000E-03 0. -1.
        -11    1    3    3    0    0 -0.37587527847E+01 -0.43970059323E+01 -0.31501595523E+02  0.32028306299E+02  0.51100000000E-03 0.  1.
        -12    1    3    3    0    0 -0.23720543214E+01  0.56991476397E-02 -0.36563771227E+01  0.43584134553E+01  0.00000000000E+00 0.  1.
</event>
<event>
 7    1  0.1485408E-008  0.4614232E+02  0.7816164E-02  0.1320468E+00
        -11   -1    0    0    0    0  0.00000000000E+00  0.00000000000E+00  0.45593999997E+02  0.45594000000E+02  0.51100000000E-03 0.  1.
         11   -1    0    0    0    0 -0.00000000000E+00 -0.00000000000E+00 -0.45593999997E+02  0.45594000000E+02  0.51100000000E-03 0. -1.
    9900012    2    1    2    0    0  0.23355960888E+02 -0.27884644670E+02  0.26571772719E+02  0.46142318488E+02  0.10000006631E+02 0.  0.
         12    1    1    2    0    0 -0.23355960888E+02  0.27884644670E+02 -0.26571772719E+02  0.45045681512E+02  0.00000000000E+00 0. -1.
         11    1    3    3    0    0  0.29976341085E+01 -0.36636380135E+00  0.77236497836E+00  0.31171430195E+01  0.51100000000E-03 0. -1.
        -11    1    3    3    0    0  0.14862405446E+02 -0.22559793813E+02  0.19735176696E+02  0.33456129364E+02  0.51100000000E-03 0.  1.
        -12    1    3    3    0    0  0.54959213340E+01 -0.49584870561E+01  0.60642310450E+01  0.95690461052E+01  0.00000000000E+00 0.  1.
</event>
<event>
 7    1  0.1485408E-008  0.4614232E+02  0.7816164E-02  0.1320468E+00
        -11   -1    0    0    0    0  0.00000000000E+00  0.00000000000E+00  0.45593999997E+02  0.45594000000E+02  0.51100000000E-03 0.  1.
         11   -1    0    0    0    0 -0.00000000000E+00 -0.00000000000E+00 -0.45593999997E+02  0.45594000000E+02  0.51100000000E-03 0. -1.
    9900012    2    1    2    0    0 -0.35743215349E+00 -0.31851025205E+02  0.31851183001E+02  0.46142318488E+02  0.10000006625E+02 0.  0.
         12    1    1    2    0    0  0.35743215349E+00  0.31851025205E+02 -0.31851183001E+02  0.45045681512E+02  0.00000000000E+00 0. -1.
         11    1    3    3    0    0 -0.95753729584E+00 -0.22924442307E+02  0.20399192884E+02  0.30701368102E+02  0.51100000000E-03 0. -1.
        -11    1    3    3    0    0 -0.65175833808E+00 -0.88076093823E+01  0.10995431299E+02  0.14103130209E+02  0.51100000000E-03 0.  1.
         12    1    3    3    0    0  0.12518634804E+01 -0.11897351490E+00  0.45655881801E+00  0.13378201767E+01  0.00000000000E+00 0. -1.
</event>
<event>
 7    1  0.1485408E-008  0.4614232E+02  0.7816164E-02  0.1320468E+00
        -11   -1    0    0    0    0  0.00000000000E+00  0.00000000000E+00  0.45593999997E+02  0.45594000000E+02  0.51100000000E-03 0.  1.
         11   -1    0    0    0    0 -0.00000000000E+00 -0.00000000000E+00 -0.45593999997E+02  0.45594000000E+02  0.51100000000E-03 0. -1.
    9900012    2    1    2    0    0  0.38086243680E+02 -0.21704866564E+01  0.23954970234E+02  0.46142316867E+02  0.99999918488E+01 0.  0.
         12    1    1    2    0    0 -0.38086243680E+02  0.21704866564E+01 -0.23954970234E+02  0.45045683133E+02  0.00000000000E+00 0. -1.
         11    1    3    3    0    0  0.38561797226E+01 -0.18265045138E+01  0.33484324128E+01  0.54238584675E+01  0.51100000000E-03 0. -1.
        -11    1    3    3    0    0  0.16415775672E+02  0.27723699303E+01  0.68778521513E+01  0.18013011309E+02  0.51100000000E-03 0.  1.
        -12    1    3    3    0    0  0.17814288286E+02 -0.31163520728E+01  0.13728685670E+02  0.22705447091E+02  0.00000000000E+00 0.  1.
</event>
<event>
 7    1  0.1485408E-008  0.4614232E+02  0.7816164E-02  0.1320468E+00
        -11   -1    0    0    0    0  0.00000000000E+00  0.00000000000E+00  0.45593999997E+02  0.45594000000E+02  0.51100000000E-03 0.  1.
         11   -1    0    0    0    0 -0.00000000000E+00 -0.00000000000E+00 -0.45593999997E+02  0.45594000000E+02  0.51100000000E-03 0. -1.
    9900012    2    1    2    0    0  0.20405803787E+02 -0.68842341491E+01  0.39564174974E+02  0.46142318194E+02  0.10000003948E+02 0.  0.
         12    1    1    2    0    0 -0.20405803787E+02  0.68842341491E+01 -0.39564174974E+02  0.45045681806E+02  0.00000000000E+00 0. -1.
         11    1    3    3    0    0  0.75177859024E+00  0.50214532614E+00  0.52885017891E+01  0.53652187664E+01  0.51100000000E-03 0. -1.
        -11    1    3    3    0    0  0.35380530064E+01  0.92258907644E+00  0.85958883938E+01  0.93412144403E+01  0.51100000000E-03 0.  1.
        -12    1    3    3    0    0  0.16115972190E+02 -0.83089685517E+01  0.25679784791E+02  0.31435884987E+02  0.00000000000E+00 0.  1.
</event>
<event>
 7    1  0.1485408E-008  0.4614232E+02  0.7816164E-02  0.1320468E+00
        -11   -1    0    0    0    0  0.00000000000E+00  0.00000000000E+00  0.45593999997E+02  0.45594000000E+02  0.51100000000E-03 0.  1.
         11   -1    0    0    0    0 -0.00000000000E+00 -0.00000000000E+00 -0.45593999997E+02  0.45594000000E+02  0.51100000000E-03 0. -1.
    9900012    2    1    2    0    0 -0.29100561283E+02 -0.13697929642E+02  0.31537875125E+02  0.46142317511E+02  0.99999977237E+01 0.  0.
         12    1    1    2    0    0  0.29100561283E+02  0.13697929642E+02 -0.31537875125E+02  0.45045682489E+02  0.00000000000E+00 0. -1.
         11    1    3    3    0    0 -0.21070615013E+00 -0.23368889664E+01  0.34009559084E+01  0.41318214476E+01  0.51100000000E-03 0. -1.
        -11    1    3    3    0    0 -0.20615036639E+02 -0.83966591200E+01  0.21950418517E+02  0.31261869639E+02  0.51100000000E-03 0.  1.
         12    1    3    3    0    0 -0.82748184936E+01 -0.29643815557E+01  0.61865006996E+01  0.10748626425E+02  0.00000000000E+00 0. -1.
</event>
<event>
 7    1  0.1485408E-008  0.4614232E+02  0.7816164E-02  0.1320468E+00
        -11   -1    0    0    0    0  0.00000000000E+00  0.00000000000E+00  0.45593999997E+02  0.45594000000E+02  0.51100000000E-03 0. -1.
         11   -1    0    0    0    0 -0.00000000000E+00 -0.00000000000E+00 -0.45593999997E+02  0.45594000000E+02  0.51100000000E-03 0.  1.
    9900012    2    1    2    0    0  0.43491589363E+02 -0.58750954974E+01 -0.10152749469E+02  0.46142318584E+02  0.10000007506E+02 0.  0.
         12    1    1    2    0    0 -0.43491589363E+02  0.58750954974E+01  0.10152749469E+02  0.45045681416E+02  0.00000000000E+00 0. -1.
         11    1    3    3    0    0  0.10849883880E+02  0.24155321102E+00 -0.50690890984E+01  0.11978062978E+02  0.51100000000E-03 0. -1.
        -11    1    3    3    0    0  0.51394986339E+01 -0.31746086374E+01 -0.18438218322E+01  0.63160324111E+01  0.51100000000E-03 0.  1.
         12    1    3    3    0    0  0.27502206849E+02 -0.29420400710E+01 -0.32398385389E+01  0.27848223195E+02  0.00000000000E+00 0. -1.
</event>
<event>
 7    1  0.1485408E-008  0.4614232E+02  0.7816164E-02  0.1320468E+00
        -11   -1    0    0    0    0  0.00000000000E+00  0.00000000000E+00  0.45593999997E+02  0.45594000000E+02  0.51100000000E-03 0.  1.
         11   -1    0    0    0    0 -0.00000000000E+00 -0.00000000000E+00 -0.45593999997E+02  0.45594000000E+02  0.51100000000E-03 0. -1.
    9900012    2    1    2    0    0  0.12402064462E+02 -0.40058635954E+02  0.16450171168E+02  0.46142315980E+02  0.99999837547E+01 0.  0.
         12    1    1    2    0    0 -0.12402064462E+02  0.40058635954E+02 -0.16450171168E+02  0.45045684020E+02  0.00000000000E+00 0. -1.
         11    1    3    3    0    0  0.24689845021E+00 -0.26329344530E+01  0.37320382710E+01  0.45739930691E+01  0.51100000000E-03 0. -1.
        -11    1    3    3    0    0  0.59202477276E+01 -0.17659735996E+02  0.38220843525E+01  0.19013782834E+02  0.51100000000E-03 0.  1.
        -12    1    3    3    0    0  0.62349182840E+01 -0.19765965505E+02  0.88960485446E+01  0.22554540077E+02  0.00000000000E+00 0.  1.
</event>
<event>
 7    1  0.1485408E-008  0.4614232E+02  0.7816164E-02  0.1320468E+00
        -11   -1    0    0    0    0  0.00000000000E+00  0.00000000000E+00  0.45593999997E+02  0.45594000000E+02  0.51100000000E-03 0.  1.
         11   -1    0    0    0    0 -0.00000000000E+00 -0.00000000000E+00 -0.45593999997E+02  0.45594000000E+02  0.51100000000E-03 0. -1.
    9900012    2    1    2    0    0  0.19552942703E+02 -0.15821828549E+01  0.40549876618E+02  0.46142319135E+02  0.10000012524E+02 0.  0.
         12    1    1    2    0    0 -0.19552942703E+02  0.15821828549E+01 -0.40549876618E+02  0.45045680865E+02  0.00000000000E+00 0. -1.
         11    1    3    3    0    0  0.20361989871E+01  0.14185326100E+01  0.65811365691E+01  0.70334699745E+01  0.51100000000E-03 0. -1.
        -11    1    3    3    0    0  0.12990625650E+02 -0.39935715201E+01  0.30266303998E+02  0.33177614836E+02  0.51100000000E-03 0.  1.
        -12    1    3    3    0    0  0.45261180664E+01  0.99285605522E+00  0.37024360507E+01  0.59312343241E+01  0.00000000000E+00 0.  1.
</event>
<event>
 7    1  0.1485408E-008  0.4614232E+02  0.7816164E-02  0.1320468E+00
        -11   -1    0    0    0    0  0.00000000000E+00  0.00000000000E+00  0.45593999997E+02  0.45594000000E+02  0.51100000000E-03 0.  1.
         11   -1    0    0    0    0 -0.00000000000E+00 -0.00000000000E+00 -0.45593999997E+02  0.45594000000E+02  0.51100000000E-03 0. -1.
    9900012    2    1    2    0    0 -0.38767398420E+02 -0.14570261228E+02  0.17717500697E+02  0.46142317372E+02  0.99999964510E+01 0.  0.
         12    1    1    2    0    0  0.38767398420E+02  0.14570261228E+02 -0.17717500697E+02  0.45045682628E+02  0.00000000000E+00 0. -1.
         11    1    3    3    0    0 -0.17074113046E+02 -0.55461234186E+01  0.36234855676E+01  0.18314324153E+02  0.51100000000E-03 0. -1.
        -11    1    3    3    0    0 -0.13968900030E+02 -0.32983157308E+01  0.77930594839E+01  0.16332202273E+02  0.51100000000E-03 0.  1.
         12    1    3    3    0    0 -0.77243853441E+01 -0.57258220783E+01  0.63009556458E+01  0.11495790946E+02  0.00000000000E+00 0. -1.
</event>
<event>
 7    1  0.1485408E-008  0.4614232E+02  0.7816164E-02  0.1320468E+00
        -11   -1    0    0    0    0  0.00000000000E+00  0.00000000000E+00  0.45593999997E+02  0.45594000000E+02  0.51100000000E-03 0.  1.
         11   -1    0    0    0    0 -0.00000000000E+00 -0.00000000000E+00 -0.45593999997E+02  0.45594000000E+02  0.51100000000E-03 0. -1.
    9900012    2    1    2    0    0  0.11882996028E+01  0.10380751902E+02  0.43817138031E+02  0.46142315954E+02  0.99999835189E+01 0.  0.
         12    1    1    2    0    0 -0.11882996028E+01 -0.10380751902E+02 -0.43817138031E+02  0.45045684046E+02  0.00000000000E+00 0. -1.
         11    1    3    3    0    0  0.15759419418E+00  0.56724301896E+01  0.91448863646E+01  0.10762446147E+02  0.51100000000E-03 0. -1.
        -11    1    3    3    0    0  0.15889875339E+01  0.52825069961E+01  0.33554007818E+02  0.34004429159E+02  0.51100000000E-03 0.  1.
         12    1    3    3    0    0 -0.55828212523E+00 -0.57418528322E+00  0.11182438483E+01  0.13754406476E+01  0.00000000000E+00 0. -1.
</event>
<event>
 7    1  0.1485408E-008  0.4614232E+02  0.7816164E-02  0.1320468E+00
        -11   -1    0    0    0    0  0.00000000000E+00  0.00000000000E+00  0.45593999997E+02  0.45594000000E+02  0.51100000000E-03 0. -1.
         11   -1    0    0    0    0 -0.00000000000E+00 -0.00000000000E+00 -0.45593999997E+02  0.45594000000E+02  0.51100000000E-03 0.  1.
    9900012    2    1    2    0    0  0.14659918572E+02  0.40014277678E+02 -0.14596508242E+02  0.46142315595E+02  0.99999802471E+01 0.  0.
         12    1    1    2    0    0 -0.14659918572E+02 -0.40014277678E+02  0.14596508242E+02  0.45045684405E+02  0.00000000000E+00 0. -1.
         11    1    3    3    0    0  0.88495600560E+01  0.24031817588E+02 -0.11300993506E+02  0.27992060021E+02  0.51100000000E-03 0. -1.
        -11    1    3    3    0    0  0.41631318196E+01  0.12025411218E+02 -0.48100031067E+01  0.13604348998E+02  0.51100000000E-03 0.  1.
         12    1    3    3    0    0  0.16472266966E+01  0.39570488722E+01  0.15144883707E+01  0.45459065753E+01  0.00000000000E+00 0. -1.
</event>
<event>
 7    1  0.1485408E-008  0.4614232E+02  0.7816164E-02  0.1320468E+00
        -11   -1    0    0    0    0  0.00000000000E+00  0.00000000000E+00  0.45593999997E+02  0.45594000000E+02  0.51100000000E-03 0. -1.
         11   -1    0    0    0    0 -0.00000000000E+00 -0.00000000000E+00 -0.45593999997E+02  0.45594000000E+02  0.51100000000E-03 0.  1.
    9900012    2    1    2    0    0 -0.43580065693E+02  0.11171557541E+02  0.22556318364E+01  0.46142315426E+02  0.99999787105E+01 0.  0.
         12    1    1    2    0    0  0.43580065693E+02 -0.11171557541E+02 -0.22556318364E+01  0.45045684574E+02  0.00000000000E+00 0. -1.
         11    1    3    3    0    0 -0.32341014652E+02  0.55371399992E+01  0.50493888520E+01  0.33197853487E+02  0.51100000000E-03 0. -1.
        -11    1    3    3    0    0 -0.77636261519E+01  0.37828472628E+01 -0.25234712116E+01  0.89973180258E+01  0.51100000000E-03 0.  1.
         12    1    3    3    0    0 -0.34754248890E+01  0.18515702794E+01 -0.27028580399E+00  0.39471439136E+01  0.00000000000E+00 0. -1.
</event>
<event>
 7    1  0.1485408E-008  0.4614232E+02  0.7816164E-02  0.1320468E+00
        -11   -1    0    0    0    0  0.00000000000E+00  0.00000000000E+00  0.45593999997E+02  0.45594000000E+02  0.51100000000E-03 0. -1.
         11   -1    0    0    0    0 -0.00000000000E+00 -0.00000000000E+00 -0.45593999997E+02  0.45594000000E+02  0.51100000000E-03 0.  1.
    9900012    2    1    2    0    0  0.11448166154E+02  0.43178258854E+02 -0.58043958726E+01  0.46142316995E+02  0.99999930146E+01 0.  0.
         12    1    1    2    0    0 -0.11448166154E+02 -0.43178258854E+02  0.58043958726E+01  0.45045683005E+02  0.00000000000E+00 0. -1.
         11    1    3    3    0    0  0.44909639551E+01  0.26722905718E+02 -0.27504498615E+01  0.27236876141E+02  0.51100000000E-03 0. -1.
        -11    1    3    3    0    0  0.50422530309E+01  0.11178170323E+02 -0.45762057708E+01  0.13088829853E+02  0.51100000000E-03 0.  1.
        -12    1    3    3    0    0  0.19149491685E+01  0.52771828130E+01  0.15222597597E+01  0.58166110009E+01  0.00000000000E+00 0.  1.
</event>
<event>
 7    1  0.1485408E-008  0.4614232E+02  0.7816164E-02  0.1320468E+00
        -11   -1    0    0    0    0  0.00000000000E+00  0.00000000000E+00  0.45593999997E+02  0.45594000000E+02  0.51100000000E-03 0.  1.
         11   -1    0    0    0    0 -0.00000000000E+00 -0.00000000000E+00 -0.45593999997E+02  0.45594000000E+02  0.51100000000E-03 0. -1.
    9900012    2    1    2    0    0  0.20133692140E+02  0.29616047846E+02  0.27324669633E+02  0.46142318522E+02  0.10000006942E+02 0.  0.
         12    1    1    2    0    0 -0.20133692140E+02 -0.29616047846E+02 -0.27324669633E+02  0.45045681478E+02  0.00000000000E+00 0. -1.
         11    1    3    3    0    0  0.14452187990E+02  0.20622034754E+02  0.24029745935E+02  0.34807509895E+02  0.51100000000E-03 0. -1.
        -11    1    3    3    0    0  0.52281745213E+01  0.79923930876E+01  0.35793013243E+01  0.10199193807E+02  0.51100000000E-03 0.  1.
        -12    1    3    3    0    0  0.45332962843E+00  0.10016200042E+01 -0.28437762629E+00  0.11356148199E+01  0.00000000000E+00 0.  1.
</event>
<event>
 7    1  0.1485408E-008  0.4614232E+02  0.7816164E-02  0.1320468E+00
        -11   -1    0    0    0    0  0.00000000000E+00  0.00000000000E+00  0.45593999997E+02  0.45594000000E+02  0.51100000000E-03 0.  1.
         11   -1    0    0    0    0 -0.00000000000E+00 -0.00000000000E+00 -0.45593999997E+02  0.45594000000E+02  0.51100000000E-03 0. -1.
    9900012    2    1    2    0    0  0.42998693616E+02  0.32446467552E+01  0.13026822765E+02  0.46142317670E+02  0.99999991683E+01 0.  0.
         12    1    1    2    0    0 -0.42998693616E+02 -0.32446467552E+01 -0.13026822765E+02  0.45045682330E+02  0.00000000000E+00 0. -1.
         11    1    3    3    0    0  0.10803892142E+02  0.11996898234E+01  0.14971643804E+00  0.10871327259E+02  0.51100000000E-03 0. -1.
        -11    1    3    3    0    0  0.28309341551E+02  0.18027133794E+01  0.89593393607E+01  0.29747913483E+02  0.51100000000E-03 0.  1.
        -12    1    3    3    0    0  0.38854599232E+01  0.24224355234E+00  0.39177669663E+01  0.55230769283E+01  0.00000000000E+00 0.  1.
</event>
<event>
 7    1  0.1485408E-008  0.4614232E+02  0.7816164E-02  0.1320468E+00
        -11   -1    0    0    0    0  0.00000000000E+00  0.00000000000E+00  0.45593999997E+02  0.45594000000E+02  0.51100000000E-03 0.  1.
         11   -1    0    0    0    0 -0.00000000000E+00 -0.00000000000E+00 -0.45593999997E+02  0.45594000000E+02  0.51100000000E-03 0. -1.
    9900012    2    1    2    0    0 -0.59491428001E+01  0.10350375216E+02  0.43434905653E+02  0.46142316563E+02  0.99999890768E+01 0.  0.
         12    1    1    2    0    0  0.59491428001E+01 -0.10350375216E+02 -0.43434905653E+02  0.45045683437E+02  0.00000000000E+00 0. -1.
         11    1    3    3    0    0 -0.45636324347E+01  0.23256444342E+01  0.14826540286E+02  0.15686352672E+02  0.51100000000E-03 0. -1.
        -11    1    3    3    0    0 -0.27410276654E-01  0.65147304894E+01  0.27237291871E+02  0.28005580398E+02  0.51100000000E-03 0.  1.
         12    1    3    3    0    0 -0.13581000888E+01  0.15100002924E+01  0.13710734962E+01  0.24503834937E+01  0.00000000000E+00 0. -1.
</event>
<event>
 7    1  0.1485408E-008  0.4614232E+02  0.7816164E-02  0.1320468E+00
        -11   -1    0    0    0    0  0.00000000000E+00  0.00000000000E+00  0.45593999997E+02  0.45594000000E+02  0.51100000000E-03 0.  1.
         11   -1    0    0    0    0 -0.00000000000E+00 -0.00000000000E+00 -0.45593999997E+02  0.45594000000E+02  0.51100000000E-03 0. -1.
    9900012    2    1    2    0    0  0.10112381802E+02  0.35995182244E+02  0.25123695198E+02  0.46142317955E+02  0.10000001771E+02 0.  0.
         12    1    1    2    0    0 -0.10112381802E+02 -0.35995182244E+02 -0.25123695198E+02  0.45045682045E+02  0.00000000000E+00 0. -1.
         11    1    3    3    0    0  0.24406290550E+01  0.23320250330E+01  0.17099538966E+01  0.37840393138E+01  0.51100000000E-03 0. -1.
        -11    1    3    3    0    0  0.19781984791E+01  0.23992455604E+02  0.15716340913E+02  0.28749862036E+02  0.51100000000E-03 0.  1.
        -12    1    3    3    0    0  0.56935542680E+01  0.96707016067E+01  0.76974003886E+01  0.13608416606E+02  0.00000000000E+00 0.  1.
</event>
<event>
 7    1  0.1485408E-008  0.4614232E+02  0.7816164E-02  0.1320468E+00
        -11   -1    0    0    0    0  0.00000000000E+00  0.00000000000E+00  0.45593999997E+02  0.45594000000E+02  0.51100000000E-03 0.  1.
         11   -1    0    0    0    0 -0.00000000000E+00 -0.00000000000E+00 -0.45593999997E+02  0.45594000000E+02  0.51100000000E-03 0. -1.
    9900012    2    1    2    0    0 -0.35616228035E+02  0.26502165322E+02 -0.76310530192E+01  0.46142318338E+02  0.10000005264E+02 0.  0.
         12    1    1    2    0    0  0.35616228035E+02 -0.26502165322E+02  0.76310530192E+01  0.45045681662E+02  0.00000000000E+00 0. -1.
         11    1    3    3    0    0 -0.80623561999E+01  0.21877044444E+01  0.13022564679E+00  0.83549145544E+01  0.51100000000E-03 0.  1.
        -11    1    3    3    0    0 -0.20228783247E+02  0.19836786181E+02 -0.68923348195E+01  0.29158292769E+02  0.51100000000E-03 0. -1.
        -12    1    3    3    0    0 -0.73250885882E+01  0.44776746958E+01 -0.86894384642E+00  0.86291110153E+01  0.00000000000E+00 0.  1.
</event>
<event>
 7    1  0.1485408E-008  0.4614232E+02  0.7816164E-02  0.1320468E+00
        -11   -1    0    0    0    0  0.00000000000E+00  0.00000000000E+00  0.45593999997E+02  0.45594000000E+02  0.51100000000E-03 0.  1.
         11   -1    0    0    0    0 -0.00000000000E+00 -0.00000000000E+00 -0.45593999997E+02  0.45594000000E+02  0.51100000000E-03 0. -1.
    9900012    2    1    2    0    0  0.35715190084E+02 -0.20096945172E+02 -0.18698971812E+02  0.46142317024E+02  0.99999932772E+01 0.  0.
         12    1    1    2    0    0 -0.35715190084E+02  0.20096945172E+02  0.18698971812E+02  0.45045682976E+02  0.00000000000E+00 0. -1.
         11    1    3    3    0    0  0.23763346628E+01  0.33723241781E+00 -0.30372050704E+01  0.38710860277E+01  0.51100000000E-03 0. -1.
        -11    1    3    3    0    0  0.16024330953E+02 -0.10097734932E+02 -0.56998722860E+01  0.19779584870E+02  0.51100000000E-03 0.  1.
         12    1    3    3    0    0  0.17314524468E+02 -0.10336442658E+02 -0.99618944552E+01  0.22491646127E+02  0.00000000000E+00 0. -1.
</event>
<event>
 7    1  0.1485408E-008  0.4614232E+02  0.7816164E-02  0.1320468E+00
        -11   -1    0    0    0    0  0.00000000000E+00  0.00000000000E+00  0.45593999997E+02  0.45594000000E+02  0.51100000000E-03 0.  1.
         11   -1    0    0    0    0 -0.00000000000E+00 -0.00000000000E+00 -0.45593999997E+02  0.45594000000E+02  0.51100000000E-03 0. -1.
    9900012    2    1    2    0    0  0.77051071925E+01 -0.17858412552E+02  0.40630308950E+02  0.46142316732E+02  0.99999906169E+01 0.  0.
         12    1    1    2    0    0 -0.77051071925E+01  0.17858412552E+02 -0.40630308950E+02  0.45045683268E+02  0.00000000000E+00 0. -1.
         11    1    3    3    0    0 -0.39492314957E+00 -0.38556040663E+01  0.12356910984E+02  0.12950478614E+02  0.51100000000E-03 0. -1.
        -11    1    3    3    0    0  0.11212489891E+01 -0.32861787500E+01  0.12013864506E+02  0.12505563190E+02  0.51100000000E-03 0.  1.
         12    1    3    3    0    0  0.69787813530E+01 -0.10716629736E+02  0.16259533460E+02  0.20686274928E+02  0.00000000000E+00 0. -1.
</event>
<event>
 7    1  0.1485408E-008  0.4614232E+02  0.7816164E-02  0.1320468E+00
        -11   -1    0    0    0    0  0.00000000000E+00  0.00000000000E+00  0.45593999997E+02  0.45594000000E+02  0.51100000000E-03 0.  1.
         11   -1    0    0    0    0 -0.00000000000E+00 -0.00000000000E+00 -0.45593999997E+02  0.45594000000E+02  0.51100000000E-03 0. -1.
    9900012    2    1    2    0    0  0.16580355321E+02  0.40407363474E+02  0.11020447870E+02  0.46142317890E+02  0.10000001177E+02 0.  0.
         12    1    1    2    0    0 -0.16580355321E+02 -0.40407363474E+02 -0.11020447870E+02  0.45045682110E+02  0.00000000000E+00 0. -1.
         11    1    3    3    0    0  0.10830998233E+01  0.78002240637E+01  0.38357645263E+01  0.87595485291E+01  0.51100000000E-03 0. -1.
        -11    1    3    3    0    0  0.46240689976E+01  0.17049414282E+02  0.25943505949E+01  0.17854836788E+02  0.51100000000E-03 0.  1.
        -12    1    3    3    0    0  0.10873186500E+02  0.15557725128E+02  0.45903327488E+01  0.19527932573E+02  0.00000000000E+00 0.  1.
</event>
<event>
 7    1  0.1485408E-008  0.4614232E+02  0.7816164E-02  0.1320468E+00
        -11   -1    0    0    0    0  0.00000000000E+00  0.00000000000E+00  0.45593999997E+02  0.45594000000E+02  0.51100000000E-03 0.  1.
         11   -1    0    0    0    0 -0.00000000000E+00 -0.00000000000E+00 -0.45593999997E+02  0.45594000000E+02  0.51100000000E-03 0. -1.
    9900012    2    1    2    0    0 -0.15245350065E+02 -0.25151182943E+01  0.42312728056E+02  0.46142317918E+02  0.10000001435E+02 0.  0.
         12    1    1    2    0    0  0.15245350065E+02  0.25151182943E+01 -0.42312728056E+02  0.45045682082E+02  0.00000000000E+00 0. -1.
         11    1    3    3    0    0  0.52962995676E+00 -0.11458175544E+01  0.20558250250E+01  0.24124308391E+01  0.51100000000E-03 0. -1.
        -11    1    3    3    0    0 -0.13469635174E+02 -0.10045418503E+01  0.38522935714E+02  0.40822258050E+02  0.51100000000E-03 0.  1.
        -12    1    3    3    0    0 -0.23053448475E+01 -0.36475888967E+00  0.17339673175E+01  0.29076290292E+01  0.00000000000E+00 0.  1.
</event>
<event>
 7    1  0.1485408E-008  0.4614232E+02  0.7816164E-02  0.1320468E+00
        -11   -1    0    0    0    0  0.00000000000E+00  0.00000000000E+00  0.45593999997E+02  0.45594000000E+02  0.51100000000E-03 0.  1.
         11   -1    0    0    0    0 -0.00000000000E+00 -0.00000000000E+00 -0.45593999997E+02  0.45594000000E+02  0.51100000000E-03 0. -1.
    9900012    2    1    2    0    0  0.10225215956E+02  0.17736863861E+02  0.40124334967E+02  0.46142316105E+02  0.99999849012E+01 0.  0.
         12    1    1    2    0    0 -0.10225215956E+02 -0.17736863861E+02 -0.40124334967E+02  0.45045683895E+02  0.00000000000E+00 0. -1.
         11    1    3    3    0    0  0.13507748989E+01 -0.23631196459E+00  0.28490745220E+01  0.31619079786E+01  0.51100000000E-03 0. -1.
        -11    1    3    3    0    0  0.21258700395E+01  0.12069617838E+02  0.18759643098E+02  0.22408016593E+02  0.51100000000E-03 0.  1.
        -12    1    3    3    0    0  0.67485710176E+01  0.59035579880E+01  0.18515617347E+02  0.20572391534E+02  0.00000000000E+00 0.  1.
</event>
<event>
 7    1  0.1485408E-008  0.4614232E+02  0.7816164E-02  0.1320468E+00
        -11   -1    0    0    0    0  0.00000000000E+00  0.00000000000E+00  0.45593999997E+02  0.45594000000E+02  0.51100000000E-03 0. -1.
         11   -1    0    0    0    0 -0.00000000000E+00 -0.00000000000E+00 -0.45593999997E+02  0.45594000000E+02  0.51100000000E-03 0.  1.
    9900012    2    1    2    0    0  0.46233502783E+01  0.44242143739E+02  0.70972468162E+01  0.46142316935E+02  0.99999924657E+01 0.  0.
         12    1    1    2    0    0 -0.46233502783E+01 -0.44242143739E+02 -0.70972468162E+01  0.45045683065E+02  0.00000000000E+00 0. -1.
         11    1    3    3    0    0 -0.11650095839E+01  0.54779949011E+01  0.25808624437E+01  0.61665652256E+01  0.51100000000E-03 0. -1.
        -11    1    3    3    0    0  0.42673365732E+01  0.16561650002E+02  0.46401299087E+01  0.17720869562E+02  0.51100000000E-03 0.  1.
        -12    1    3    3    0    0  0.15210232890E+01  0.22202498836E+02 -0.12374553616E+00  0.22254882147E+02  0.00000000000E+00 0.  1.
</event>
<event>
 7    1  0.1485408E-008  0.4614232E+02  0.7816164E-02  0.1320468E+00
        -11   -1    0    0    0    0  0.00000000000E+00  0.00000000000E+00  0.45593999997E+02  0.45594000000E+02  0.51100000000E-03 0.  1.
         11   -1    0    0    0    0 -0.00000000000E+00 -0.00000000000E+00 -0.45593999997E+02  0.45594000000E+02  0.51100000000E-03 0. -1.
    9900012    2    1    2    0    0  0.29103472559E+02 -0.25193378752E+02  0.23396474510E+02  0.46142317994E+02  0.10000002120E+02 0.  0.
         12    1    1    2    0    0 -0.29103472559E+02  0.25193378752E+02 -0.23396474510E+02  0.45045682006E+02  0.00000000000E+00 0. -1.
         11    1    3    3    0    0  0.26405371663E+01 -0.34658493957E+00  0.43659535495E+01  0.51141087497E+01  0.51100000000E-03 0. -1.
        -11    1    3    3    0    0  0.22343606234E+02 -0.20045694012E+02  0.15941949102E+02  0.33988414634E+02  0.51100000000E-03 0.  1.
        -12    1    3    3    0    0  0.41193291587E+01 -0.48010998009E+01  0.30885718591E+01  0.70397946096E+01  0.00000000000E+00 0.  1.
</event>
<event>
 7    1  0.1485408E-008  0.4614232E+02  0.7816164E-02  0.1320468E+00
        -11   -1    0    0    0    0  0.00000000000E+00  0.00000000000E+00  0.45593999997E+02  0.45594000000E+02  0.51100000000E-03 0.  1.
         11   -1    0    0    0    0 -0.00000000000E+00 -0.00000000000E+00 -0.45593999997E+02  0.45594000000E+02  0.51100000000E-03 0. -1.
    9900012    2    1    2    0    0 -0.39546833647E+02 -0.16316087527E+02  0.14104847078E+02  0.46142317912E+02  0.10000001376E+02 0.  0.
         12    1    1    2    0    0  0.39546833647E+02  0.16316087527E+02 -0.14104847078E+02  0.45045682088E+02  0.00000000000E+00 0. -1.
         11    1    3    3    0    0 -0.10408190509E+01 -0.42653495072E+00  0.17301060761E+01  0.20636142218E+01  0.51100000000E-03 0. -1.
        -11    1    3    3    0    0 -0.32908825071E+02 -0.15188056573E+02  0.12758807885E+02  0.38424666673E+02  0.51100000000E-03 0.  1.
        -12    1    3    3    0    0 -0.55971895247E+01 -0.70149600400E+00 -0.38406688374E+00  0.56540370170E+01  0.00000000000E+00 0.  1.
</event>
<event>
 7    1  0.1485408E-008  0.4614231E+02  0.7816164E-02  0.1320468E+00
        -11   -1    0    0    0    0  0.00000000000E+00  0.00000000000E+00  0.45593999997E+02  0.45594000000E+02  0.51100000000E-03 0.  1.
         11   -1    0    0    0    0 -0.00000000000E+00 -0.00000000000E+00 -0.45593999997E+02  0.45594000000E+02  0.51100000000E-03 0. -1.
    9900012    2    1    2    0    0 -0.23221920655E+02  0.30657119424E+02  0.23452019628E+02  0.46142314358E+02  0.99999689704E+01 0.  0.
         12    1    1    2    0    0  0.23221920655E+02 -0.30657119424E+02 -0.23452019628E+02  0.45045685642E+02  0.00000000000E+00 0. -1.
         11    1    3    3    0    0 -0.51083422487E+01  0.49662458844E+01  0.11030878150E+01  0.72094078608E+01  0.51100000000E-03 0. -1.
        -11    1    3    3    0    0 -0.23207095157E+01  0.71710220537E+01  0.50603281876E+01  0.90783352867E+01  0.51100000000E-03 0.  1.
         12    1    3    3    0    0 -0.15792868890E+02  0.18519851486E+02  0.17288603626E+02  0.29854571211E+02  0.00000000000E+00 0. -1.
</event>
<event>
 7    1  0.1485408E-008  0.4614232E+02  0.7816164E-02  0.1320468E+00
        -11   -1    0    0    0    0  0.00000000000E+00  0.00000000000E+00  0.45593999997E+02  0.45594000000E+02  0.51100000000E-03 0.  1.
         11   -1    0    0    0    0 -0.00000000000E+00 -0.00000000000E+00 -0.45593999997E+02  0.45594000000E+02  0.51100000000E-03 0. -1.
    9900012    2    1    2    0    0 -0.81422920136E+01  0.31002334382E+01  0.44195080409E+02  0.46142317644E+02  0.99999989315E+01 0.  0.
         12    1    1    2    0    0  0.81422920136E+01 -0.31002334382E+01 -0.44195080409E+02  0.45045682356E+02  0.00000000000E+00 0. -1.
         11    1    3    3    0    0 -0.49170350388E+01  0.16197115168E+01  0.13733630132E+02  0.14676964803E+02  0.51100000000E-03 0. -1.
        -11    1    3    3    0    0 -0.43293111148E+01 -0.53294829190E-01  0.97528813972E+01  0.10670729632E+02  0.51100000000E-03 0.  1.
        -12    1    3    3    0    0  0.11040541400E+01  0.15338167505E+01  0.20708568879E+02  0.20794623209E+02  0.00000000000E+00 0.  1.
</event>
<event>
 7    1  0.1485408E-008  0.4614232E+02  0.7816164E-02  0.1320468E+00
        -11   -1    0    0    0    0  0.00000000000E+00  0.00000000000E+00  0.45593999997E+02  0.45594000000E+02  0.51100000000E-03 0. -1.
         11   -1    0    0    0    0 -0.00000000000E+00 -0.00000000000E+00 -0.45593999997E+02  0.45594000000E+02  0.51100000000E-03 0.  1.
    9900012    2    1    2    0    0 -0.44830173661E+02 -0.36368511914E+01 -0.24783747409E+01  0.46142317650E+02  0.99999989825E+01 0.  0.
         12    1    1    2    0    0  0.44830173661E+02  0.36368511914E+01  0.24783747409E+01  0.45045682350E+02  0.00000000000E+00 0. -1.
         11    1    3    3    0    0 -0.34033762788E+02 -0.14715329029E+01 -0.14262545988E+01  0.34095404691E+02  0.51100000000E-03 0. -1.
        -11    1    3    3    0    0 -0.10703743907E+02 -0.26095874524E+01 -0.12871922635E+00  0.11018014758E+02  0.51100000000E-03 0.  1.
         12    1    3    3    0    0 -0.92666965814E-01  0.44426916394E+00 -0.92340091573E+00  0.10288982009E+01  0.00000000000E+00 0. -1.
</event>
<event>
 7    1  0.1485408E-008  0.4614232E+02  0.7816164E-02  0.1320468E+00
        -11   -1    0    0    0    0  0.00000000000E+00  0.00000000000E+00  0.45593999997E+02  0.45594000000E+02  0.51100000000E-03 0. -1.
         11   -1    0    0    0    0 -0.00000000000E+00 -0.00000000000E+00 -0.45593999997E+02  0.45594000000E+02  0.51100000000E-03 0.  1.
    9900012    2    1    2    0    0 -0.78218858958E+01  0.44331879628E+02 -0.16174138444E+01  0.46142317878E+02  0.10000001066E+02 0.  0.
         12    1    1    2    0    0  0.78218858958E+01 -0.44331879628E+02  0.16174138444E+01  0.45045682122E+02  0.00000000000E+00 0. -1.
         11    1    3    3    0    0 -0.28217598502E+01  0.32369072353E+02 -0.14751518143E+01  0.32525301640E+02  0.51100000000E-03 0.  1.
        -11    1    3    3    0    0 -0.15954135083E+01  0.74217913116E+00  0.62208344755E+00  0.18663231773E+01  0.51100000000E-03 0. -1.
        -12    1    3    3    0    0 -0.34047125373E+01  0.11220628144E+02 -0.76434547768E+00  0.11750693061E+02  0.00000000000E+00 0.  1.
</event>
<event>
 7    1  0.1485408E-008  0.4614232E+02  0.7816164E-02  0.1320468E+00
        -11   -1    0    0    0    0  0.00000000000E+00  0.00000000000E+00  0.45593999997E+02  0.45594000000E+02  0.51100000000E-03 0. -1.
         11   -1    0    0    0    0 -0.00000000000E+00 -0.00000000000E+00 -0.45593999997E+02  0.45594000000E+02  0.51100000000E-03 0.  1.
    9900012    2    1    2    0    0 -0.48947109336E+01 -0.43333174953E+02 -0.11286774715E+02  0.46142317298E+02  0.99999957731E+01 0.  0.
         12    1    1    2    0    0  0.48947109336E+01  0.43333174953E+02  0.11286774715E+02  0.45045682702E+02  0.00000000000E+00 0. -1.
         11    1    3    3    0    0 -0.27197620953E+01 -0.79055455581E+01 -0.32268888576E+01  0.89614490115E+01  0.51100000000E-03 0. -1.
        -11    1    3    3    0    0  0.70808957691E+00 -0.30307164455E+02 -0.56906970160E+01  0.30844928934E+02  0.51100000000E-03 0.  1.
        -12    1    3    3    0    0 -0.28830384152E+01 -0.51204649406E+01 -0.23691888413E+01  0.63359393524E+01  0.00000000000E+00 0.  1.
</event>
<event>
 7    1  0.1485408E-008  0.4614232E+02  0.7816164E-02  0.1320468E+00
        -11   -1    0    0    0    0  0.00000000000E+00  0.00000000000E+00  0.45593999997E+02  0.45594000000E+02  0.51100000000E-03 0.  1.
         11   -1    0    0    0    0 -0.00000000000E+00 -0.00000000000E+00 -0.45593999997E+02  0.45594000000E+02  0.51100000000E-03 0. -1.
    9900012    2    1    2    0    0 -0.14902306560E+02 -0.18238826967E+01  0.42470086375E+02  0.46142317348E+02  0.99999962287E+01 0.  0.
         12    1    1    2    0    0  0.14902306560E+02  0.18238826967E+01 -0.42470086375E+02  0.45045682652E+02  0.00000000000E+00 0. -1.
         11    1    3    3    0    0 -0.93799888463E+01  0.11746255114E+01  0.21806433176E+02  0.23767298205E+02  0.51100000000E-03 0. -1.
        -11    1    3    3    0    0 -0.64181209176E+01 -0.16130263609E+01  0.13645501772E+02  0.15165548095E+02  0.51100000000E-03 0.  1.
         12    1    3    3    0    0  0.89580320342E+00 -0.13854818472E+01  0.70181514275E+01  0.72094710477E+01  0.00000000000E+00 0. -1.
</event>
<event>
 7    1  0.1485408E-008  0.4614232E+02  0.7816164E-02  0.1320468E+00
        -11   -1    0    0    0    0  0.00000000000E+00  0.00000000000E+00  0.45593999997E+02  0.45594000000E+02  0.51100000000E-03 0. -1.
         11   -1    0    0    0    0 -0.00000000000E+00 -0.00000000000E+00 -0.45593999997E+02  0.45594000000E+02  0.51100000000E-03 0.  1.
    9900012    2    1    2    0    0 -0.33044420682E+02  0.13717631919E+02  0.27367979635E+02  0.46142317932E+02  0.10000001559E+02 0.  0.
         12    1    1    2    0    0  0.33044420682E+02 -0.13717631919E+02 -0.27367979635E+02  0.45045682068E+02  0.00000000000E+00 0. -1.
         11    1    3    3    0    0 -0.13946280652E+02  0.71117737001E+01  0.99961224070E+01  0.18574136121E+02  0.51100000000E-03 0. -1.
        -11    1    3    3    0    0 -0.17827070785E+02  0.43926925515E+01  0.12967899909E+02  0.22478136688E+02  0.51100000000E-03 0.  1.
         12    1    3    3    0    0 -0.12710692444E+01  0.22131656679E+01  0.44039573187E+01  0.50900451238E+01  0.00000000000E+00 0. -1.
</event>
<event>
 7    1  0.1485408E-008  0.4614232E+02  0.7816164E-02  0.1320468E+00
        -11   -1    0    0    0    0  0.00000000000E+00  0.00000000000E+00  0.45593999997E+02  0.45594000000E+02  0.51100000000E-03 0.  1.
         11   -1    0    0    0    0 -0.00000000000E+00 -0.00000000000E+00 -0.45593999997E+02  0.45594000000E+02  0.51100000000E-03 0. -1.
    9900012    2    1    2    0    0  0.12378817386E+02 -0.83333651772E+01  0.42502155056E+02  0.46142320080E+02  0.10000021144E+02 0.  0.
         12    1    1    2    0    0 -0.12378817386E+02  0.83333651772E+01 -0.42502155056E+02  0.45045679920E+02  0.00000000000E+00 0. -1.
         11    1    3    3    0    0  0.94703580705E+01 -0.51596363568E+01  0.26791091271E+02  0.28880306457E+02  0.51100000000E-03 0.  1.
        -11    1    3    3    0    0  0.16038374043E+01 -0.17563015154E+00  0.47907376957E+00  0.16830485160E+01  0.51100000000E-03 0. -1.
        -12    1    3    3    0    0  0.13046219116E+01 -0.29980986688E+01  0.15231990016E+02  0.15578965107E+02  0.00000000000E+00 0.  1.
</event>
<event>
 7    1  0.1485408E-008  0.4614232E+02  0.7816164E-02  0.1320468E+00
        -11   -1    0    0    0    0  0.00000000000E+00  0.00000000000E+00  0.45593999997E+02  0.45594000000E+02  0.51100000000E-03 0.  1.
         11   -1    0    0    0    0 -0.00000000000E+00 -0.00000000000E+00 -0.45593999997E+02  0.45594000000E+02  0.51100000000E-03 0. -1.
    9900012    2    1    2    0    0 -0.44026575701E+02 -0.35560352187E+01  0.88390395130E+01  0.46142319031E+02  0.10000011579E+02 0.  0.
         12    1    1    2    0    0  0.44026575701E+02  0.35560352187E+01 -0.88390395130E+01  0.45045680969E+02  0.00000000000E+00 0. -1.
         11    1    3    3    0    0 -0.14586244106E+02 -0.44781490921E+01 -0.38877910855E+00  0.15263141415E+02  0.51100000000E-03 0. -1.
        -11    1    3    3    0    0 -0.15947282184E+02  0.58402231780E-01  0.50299053416E+01  0.16721817123E+02  0.51100000000E-03 0.  1.
         12    1    3    3    0    0 -0.13493049412E+02  0.86371164169E+00  0.41979132800E+01  0.14157360493E+02  0.00000000000E+00 0. -1.
</event>
<event>
 7    1  0.1485408E-008  0.4614232E+02  0.7816164E-02  0.1320468E+00
        -11   -1    0    0    0    0  0.00000000000E+00  0.00000000000E+00  0.45593999997E+02  0.45594000000E+02  0.51100000000E-03 0.  1.
         11   -1    0    0    0    0 -0.00000000000E+00 -0.00000000000E+00 -0.45593999997E+02  0.45594000000E+02  0.51100000000E-03 0. -1.
    9900012    2    1    2    0    0  0.10529671815E+02  0.43794003448E+02  0.56990123403E+00  0.46142317477E+02  0.99999974123E+01 0.  0.
         12    1    1    2    0    0 -0.10529671815E+02 -0.43794003448E+02 -0.56990123403E+00  0.45045682523E+02  0.00000000000E+00 0. -1.
         11    1    3    3    0    0  0.85778864675E+01  0.16504650051E+02 -0.15160718611E+01  0.18662317211E+02  0.51100000000E-03 0. -1.
        -11    1    3    3    0    0  0.18659725178E+01  0.21120233230E+02  0.10908438133E+01  0.21230545109E+02  0.51100000000E-03 0.  1.
         12    1    3    3    0    0  0.85812830159E-01  0.61691201665E+01  0.99512928184E+00  0.62494551569E+01  0.00000000000E+00 0. -1.
</event>
<event>
 7    1  0.1485408E-008  0.4614232E+02  0.7816164E-02  0.1320468E+00
        -11   -1    0    0    0    0  0.00000000000E+00  0.00000000000E+00  0.45593999997E+02  0.45594000000E+02  0.51100000000E-03 0. -1.
         11   -1    0    0    0    0 -0.00000000000E+00 -0.00000000000E+00 -0.45593999997E+02  0.45594000000E+02  0.51100000000E-03 0.  1.
    9900012    2    1    2    0    0 -0.27027406048E+01 -0.38648899440E+02 -0.22979802549E+02  0.46142316967E+02  0.99999927591E+01 0.  0.
         12    1    1    2    0    0  0.27027406048E+01  0.38648899440E+02  0.22979802549E+02  0.45045683033E+02  0.00000000000E+00 0. -1.
         11    1    3    3    0    0 -0.36655544541E+01 -0.31520531040E+02 -0.20303266667E+02  0.37672308187E+02  0.51100000000E-03 0.  1.
        -11    1    3    3    0    0  0.98824970593E+00 -0.30383959975E+01  0.57321316986E+00  0.32460839974E+01  0.51100000000E-03 0. -1.
        -12    1    3    3    0    0 -0.25435856566E-01 -0.40899724022E+01 -0.32497490522E+01  0.52239247827E+01  0.00000000000E+00 0.  1.
</event>
<event>
 7    1  0.1485408E-008  0.4614232E+02  0.7816164E-02  0.1320468E+00
        -11   -1    0    0    0    0  0.00000000000E+00  0.00000000000E+00  0.45593999997E+02  0.45594000000E+02  0.51100000000E-03 0.  1.
         11   -1    0    0    0    0 -0.00000000000E+00 -0.00000000000E+00 -0.45593999997E+02  0.45594000000E+02  0.51100000000E-03 0. -1.
    9900012    2    1    2    0    0  0.14740950715E+02  0.11536817748E+02  0.40972181606E+02  0.46142318106E+02  0.10000003144E+02 0.  0.
         12    1    1    2    0    0 -0.14740950715E+02 -0.11536817748E+02 -0.40972181606E+02  0.45045681894E+02  0.00000000000E+00 0. -1.
         11    1    3    3    0    0  0.13801185080E+02  0.77260063986E+01  0.26696946639E+02  0.31030482507E+02  0.51100000000E-03 0. -1.
        -11    1    3    3    0    0  0.16234027574E+01  0.21000022366E+01  0.11338512013E+02  0.11645054781E+02  0.51100000000E-03 0.  1.
         12    1    3    3    0    0 -0.68363712235E+00  0.17108091133E+01  0.29367229538E+01  0.34667808186E+01  0.00000000000E+00 0. -1.
</event>
<event>
 7    1  0.1485408E-008  0.4614232E+02  0.7816164E-02  0.1320468E+00
        -11   -1    0    0    0    0  0.00000000000E+00  0.00000000000E+00  0.45593999997E+02  0.45594000000E+02  0.51100000000E-03 0.  1.
         11   -1    0    0    0    0 -0.00000000000E+00 -0.00000000000E+00 -0.45593999997E+02  0.45594000000E+02  0.51100000000E-03 0. -1.
    9900012    2    1    2    0    0  0.53897391017E+01 -0.23856214298E+02  0.37827831528E+02  0.46142322224E+02  0.10000040692E+02 0.  0.
         12    1    1    2    0    0 -0.53897391017E+01  0.23856214298E+02 -0.37827831528E+02  0.45045677776E+02  0.00000000000E+00 0. -1.
         11    1    3    3    0    0  0.27790825415E+01 -0.13682951134E+01  0.30439668620E+01  0.43429558837E+01  0.51100000000E-03 0. -1.
        -11    1    3    3    0    0 -0.58881427475E+00 -0.14300614533E+02  0.19878621415E+02  0.24495180503E+02  0.51100000000E-03 0.  1.
        -12    1    3    3    0    0  0.31994708350E+01 -0.81873046509E+01  0.14905243252E+02  0.17304185837E+02  0.00000000000E+00 0.  1.
</event>
<event>
 7    1  0.1485408E-008  0.4614232E+02  0.7816164E-02  0.1320468E+00
        -11   -1    0    0    0    0  0.00000000000E+00  0.00000000000E+00  0.45593999997E+02  0.45594000000E+02  0.51100000000E-03 0.  1.
         11   -1    0    0    0    0 -0.00000000000E+00 -0.00000000000E+00 -0.45593999997E+02  0.45594000000E+02  0.51100000000E-03 0. -1.
    9900012    2    1    2    0    0 -0.35659670867E+02 -0.15642437586E+02  0.22645430582E+02  0.46142317563E+02  0.99999981925E+01 0.  0.
         12    1    1    2    0    0  0.35659670867E+02  0.15642437586E+02 -0.22645430582E+02  0.45045682437E+02  0.00000000000E+00 0. -1.
         11    1    3    3    0    0 -0.19388150009E+02 -0.33362772532E+01  0.11577283673E+02  0.22826839557E+02  0.51100000000E-03 0. -1.
        -11    1    3    3    0    0 -0.15995627723E+02 -0.11751909423E+02  0.10999259813E+02  0.22692536175E+02  0.51100000000E-03 0.  1.
         12    1    3    3    0    0 -0.27589313636E+00 -0.55425090919E+00  0.68887095242E-01  0.62294183109E+00  0.00000000000E+00 0. -1.
</event>
<event>
 7    1  0.1485408E-008  0.4614232E+02  0.7816164E-02  0.1320468E+00
        -11   -1    0    0    0    0  0.00000000000E+00  0.00000000000E+00  0.45593999997E+02  0.45594000000E+02  0.51100000000E-03 0. -1.
         11   -1    0    0    0    0 -0.00000000000E+00 -0.00000000000E+00 -0.45593999997E+02  0.45594000000E+02  0.51100000000E-03 0.  1.
    9900012    2    1    2    0    0  0.36850948258E+02  0.18881754708E+02 -0.17736973736E+02  0.46142320011E+02  0.10000020516E+02 0.  0.
         12    1    1    2    0    0 -0.36850948258E+02 -0.18881754708E+02  0.17736973736E+02  0.45045679989E+02  0.00000000000E+00 0. -1.
         11    1    3    3    0    0  0.20623786861E+02  0.92975606423E+01 -0.81597973920E+01  0.24049272591E+02  0.51100000000E-03 0. -1.
        -11    1    3    3    0    0  0.22077121531E+01  0.41719343525E+01 -0.11286940056E+01  0.48531412108E+01  0.51100000000E-03 0.  1.
        -12    1    3    3    0    0  0.14019449244E+02  0.54122597131E+01 -0.84484823379E+01  0.17239906210E+02  0.00000000000E+00 0.  1.
</event>
<event>
 7    1  0.1485408E-008  0.4614232E+02  0.7816164E-02  0.1320468E+00
        -11   -1    0    0    0    0  0.00000000000E+00  0.00000000000E+00  0.45593999997E+02  0.45594000000E+02  0.51100000000E-03 0. -1.
         11   -1    0    0    0    0 -0.00000000000E+00 -0.00000000000E+00 -0.45593999997E+02  0.45594000000E+02  0.51100000000E-03 0.  1.
    9900012    2    1    2    0    0 -0.11291722995E+02 -0.26270069191E+02 -0.34806522634E+02  0.46142316951E+02  0.99999926102E+01 0.  0.
         12    1    1    2    0    0  0.11291722995E+02  0.26270069191E+02  0.34806522634E+02  0.45045683049E+02  0.00000000000E+00 0. -1.
         11    1    3    3    0    0  0.59183555215E+00 -0.59760354524E+01 -0.49490148209E+01  0.77817746695E+01  0.51100000000E-03 0. -1.
        -11    1    3    3    0    0 -0.73415192934E+01 -0.77553159326E+01 -0.11841130281E+02  0.15945381693E+02  0.51100000000E-03 0.  1.
        -12    1    3    3    0    0 -0.45420392540E+01 -0.12538717806E+02 -0.18016377532E+02  0.22415160588E+02  0.00000000000E+00 0.  1.
</event>
<event>
 7    1  0.1485408E-008  0.4614232E+02  0.7816164E-02  0.1320468E+00
        -11   -1    0    0    0    0  0.00000000000E+00  0.00000000000E+00  0.45593999997E+02  0.45594000000E+02  0.51100000000E-03 0. -1.
         11   -1    0    0    0    0 -0.00000000000E+00 -0.00000000000E+00 -0.45593999997E+02  0.45594000000E+02  0.51100000000E-03 0.  1.
    9900012    2    1    2    0    0 -0.11272733160E+02 -0.26858687043E+02 -0.34360588499E+02  0.46142316249E+02  0.99999862135E+01 0.  0.
         12    1    1    2    0    0  0.11272733160E+02  0.26858687043E+02  0.34360588499E+02  0.45045683751E+02  0.00000000000E+00 0. -1.
         11    1    3    3    0    0 -0.73996337244E+01 -0.21149395489E+02 -0.23458410650E+02  0.32439921999E+02  0.51100000000E-03 0. -1.
        -11    1    3    3    0    0 -0.97351078844E+00 -0.20869075946E+01 -0.77703390345E+01  0.81043861912E+01  0.51100000000E-03 0.  1.
         12    1    3    3    0    0 -0.28995886468E+01 -0.36223839591E+01 -0.31318388146E+01  0.55980080591E+01  0.00000000000E+00 0. -1.
</event>
<event>
 7    1  0.1485408E-008  0.4614232E+02  0.7816164E-02  0.1320468E+00
        -11   -1    0    0    0    0  0.00000000000E+00  0.00000000000E+00  0.45593999997E+02  0.45594000000E+02  0.51100000000E-03 0.  1.
         11   -1    0    0    0    0 -0.00000000000E+00 -0.00000000000E+00 -0.45593999997E+02  0.45594000000E+02  0.51100000000E-03 0. -1.
    9900012    2    1    2    0    0  0.42322454727E+02 -0.14746849970E+02  0.45225789420E+01  0.46142317871E+02  0.10000001006E+02 0.  0.
         12    1    1    2    0    0 -0.42322454727E+02  0.14746849970E+02 -0.45225789420E+01  0.45045682129E+02  0.00000000000E+00 0. -1.
         11    1    3    3    0    0  0.44857769342E+01 -0.27669485806E+01  0.48609200977E+00  0.52928711352E+01  0.51100000000E-03 0. -1.
        -11    1    3    3    0    0  0.16220150709E+02 -0.26280672563E+01 -0.19523069900E+01  0.16547251415E+02  0.51100000000E-03 0.  1.
        -12    1    3    3    0    0  0.21616527084E+02 -0.93518341332E+01  0.59887939223E+01  0.24302195322E+02  0.00000000000E+00 0.  1.
</event>
<event>
 7    1  0.1485408E-008  0.4614232E+02  0.7816164E-02  0.1320468E+00
        -11   -1    0    0    0    0  0.00000000000E+00  0.00000000000E+00  0.45593999997E+02  0.45594000000E+02  0.51100000000E-03 0. -1.
         11   -1    0    0    0    0 -0.00000000000E+00 -0.00000000000E+00 -0.45593999997E+02  0.45594000000E+02  0.51100000000E-03 0.  1.
    9900012    2    1    2    0    0 -0.35527670628E+02 -0.27439932550E+02 -0.37347053144E+01  0.46142319825E+02  0.10000018824E+02 0.  0.
         12    1    1    2    0    0  0.35527670628E+02  0.27439932550E+02  0.37347053144E+01  0.45045680175E+02  0.00000000000E+00 0. -1.
         11    1    3    3    0    0 -0.20409602964E+02 -0.10354399943E+02 -0.42906970943E+01  0.23284663905E+02  0.51100000000E-03 0. -1.
        -11    1    3    3    0    0 -0.87606070918E+01 -0.10739613211E+02  0.29606172273E-01  0.13859596146E+02  0.51100000000E-03 0.  1.
         12    1    3    3    0    0 -0.63574605723E+01 -0.63459193957E+01  0.52638560763E+00  0.89980597749E+01  0.00000000000E+00 0. -1.
</event>
<event>
 7    1  0.1485408E-008  0.4614232E+02  0.7816164E-02  0.1320468E+00
        -11   -1    0    0    0    0  0.00000000000E+00  0.00000000000E+00  0.45593999997E+02  0.45594000000E+02  0.51100000000E-03 0. -1.
         11   -1    0    0    0    0 -0.00000000000E+00 -0.00000000000E+00 -0.45593999997E+02  0.45594000000E+02  0.51100000000E-03 0.  1.
    9900012    2    1    2    0    0  0.99962479117E+01 -0.22271290262E+02 -0.37857339575E+02  0.46142317611E+02  0.99999986283E+01 0.  0.
         12    1    1    2    0    0 -0.99962479117E+01  0.22271290262E+02  0.37857339575E+02  0.45045682389E+02  0.00000000000E+00 0. -1.
         11    1    3    3    0    0  0.10621689275E+02 -0.12446597769E+02 -0.23338457946E+02  0.28503012098E+02  0.51100000000E-03 0. -1.
        -11    1    3    3    0    0 -0.90073089732E+00 -0.79634596862E+01 -0.10566416888E+02  0.13261869115E+02  0.51100000000E-03 0.  1.
         12    1    3    3    0    0  0.27528953396E+00 -0.18612328071E+01 -0.39524647408E+01  0.43774363978E+01  0.00000000000E+00 0. -1.
</event>
<event>
 7    1  0.1485408E-008  0.4614232E+02  0.7816164E-02  0.1320468E+00
        -11   -1    0    0    0    0  0.00000000000E+00  0.00000000000E+00  0.45593999997E+02  0.45594000000E+02  0.51100000000E-03 0.  1.
         11   -1    0    0    0    0 -0.00000000000E+00 -0.00000000000E+00 -0.45593999997E+02  0.45594000000E+02  0.51100000000E-03 0. -1.
    9900012    2    1    2    0    0 -0.30396291138E+02 -0.15003084030E+01  0.33210358929E+02  0.46142318959E+02  0.10000010926E+02 0.  0.
         12    1    1    2    0    0  0.30396291138E+02  0.15003084030E+01 -0.33210358929E+02  0.45045681041E+02  0.00000000000E+00 0. -1.
         11    1    3    3    0    0 -0.33488356440E+01  0.31001831259E+00  0.11619323579E+01  0.35582156469E+01  0.51100000000E-03 0. -1.
        -11    1    3    3    0    0 -0.19798032737E+02 -0.31356163403E+01  0.19112559819E+02  0.27696283743E+02  0.51100000000E-03 0.  1.
        -12    1    3    3    0    0 -0.72494227570E+01  0.13252896247E+01  0.12935866753E+02  0.14887819570E+02  0.00000000000E+00 0.  1.
</event>
<event>
 7    1  0.1485408E-008  0.4614232E+02  0.7816164E-02  0.1320468E+00
        -11   -1    0    0    0    0  0.00000000000E+00  0.00000000000E+00  0.45593999997E+02  0.45594000000E+02  0.51100000000E-03 0.  1.
         11   -1    0    0    0    0 -0.00000000000E+00 -0.00000000000E+00 -0.45593999997E+02  0.45594000000E+02  0.51100000000E-03 0. -1.
    9900012    2    1    2    0    0 -0.26153579588E+02  0.14074193803E+02  0.33867694156E+02  0.46142319142E+02  0.10000012596E+02 0.  0.
         12    1    1    2    0    0  0.26153579588E+02 -0.14074193803E+02 -0.33867694156E+02  0.45045680858E+02  0.00000000000E+00 0. -1.
         11    1    3    3    0    0 -0.46348345974E+01  0.42842709622E-01  0.30197018896E+01  0.55319189262E+01  0.51100000000E-03 0. -1.
        -11    1    3    3    0    0 -0.13163243502E+02  0.10761054702E+02  0.23541320065E+02  0.29039025956E+02  0.51100000000E-03 0.  1.
        -12    1    3    3    0    0 -0.83555014890E+01  0.32702963917E+01  0.73066722010E+01  0.11571374260E+02  0.00000000000E+00 0.  1.
</event>
<event>
 7    1  0.1485408E-008  0.4614232E+02  0.7816164E-02  0.1320468E+00
        -11   -1    0    0    0    0  0.00000000000E+00  0.00000000000E+00  0.45593999997E+02  0.45594000000E+02  0.51100000000E-03 0.  1.
         11   -1    0    0    0    0 -0.00000000000E+00 -0.00000000000E+00 -0.45593999997E+02  0.45594000000E+02  0.51100000000E-03 0. -1.
    9900012    2    1    2    0    0  0.70186442046E+01 -0.39288002632E+02  0.20887917089E+02  0.46142316548E+02  0.99999889394E+01 0.  0.
         12    1    1    2    0    0 -0.70186442046E+01  0.39288002632E+02 -0.20887917089E+02  0.45045683452E+02  0.00000000000E+00 0. -1.
         11    1    3    3    0    0 -0.96115956053E+00 -0.12715762580E+02  0.55619437371E+01  0.13912212767E+02  0.51100000000E-03 0. -1.
        -11    1    3    3    0    0  0.38047248054E+01 -0.15024050007E+02  0.11723265240E+02  0.19432780491E+02  0.51100000000E-03 0.  1.
        -12    1    3    3    0    0  0.41750789597E+01 -0.11548190046E+02  0.36027081123E+01  0.12797323290E+02  0.00000000000E+00 0.  1.
</event>
<event>
 7    1  0.1485408E-008  0.4614232E+02  0.7816164E-02  0.1320468E+00
        -11   -1    0    0    0    0  0.00000000000E+00  0.00000000000E+00  0.45593999997E+02  0.45594000000E+02  0.51100000000E-03 0.  1.
         11   -1    0    0    0    0 -0.00000000000E+00 -0.00000000000E+00 -0.45593999997E+02  0.45594000000E+02  0.51100000000E-03 0. -1.
    9900012    2    1    2    0    0 -0.39891787621E+02  0.32184576337E+01  0.20673652531E+02  0.46142322092E+02  0.10000039497E+02 0.  0.
         12    1    1    2    0    0  0.39891787621E+02 -0.32184576337E+01 -0.20673652531E+02  0.45045677908E+02  0.00000000000E+00 0. -1.
         11    1    3    3    0    0 -0.24666667753E+02  0.34705382489E+01  0.14068420742E+02  0.28607858994E+02  0.51100000000E-03 0. -1.
        -11    1    3    3    0    0 -0.92180264381E+01  0.26195621110E+01  0.37765953033E+01  0.10300329578E+02  0.51100000000E-03 0.  1.
         12    1    3    3    0    0 -0.60070934307E+01 -0.28716427263E+01  0.28286364852E+01  0.72341335209E+01  0.00000000000E+00 0. -1.
</event>
<event>
 7    1  0.1485408E-008  0.4614232E+02  0.7816164E-02  0.1320468E+00
        -11   -1    0    0    0    0  0.00000000000E+00  0.00000000000E+00  0.45593999997E+02  0.45594000000E+02  0.51100000000E-03 0.  1.
         11   -1    0    0    0    0 -0.00000000000E+00 -0.00000000000E+00 -0.45593999997E+02  0.45594000000E+02  0.51100000000E-03 0. -1.
    9900012    2    1    2    0    0  0.35100202430E+02 -0.22875659734E+02  0.16546693853E+02  0.46142322112E+02  0.10000039676E+02 0.  0.
         12    1    1    2    0    0 -0.35100202430E+02  0.22875659734E+02 -0.16546693853E+02  0.45045677888E+02  0.00000000000E+00 0. -1.
         11    1    3    3    0    0  0.10748747037E+02 -0.61639623576E+01  0.10606525802E+01  0.12436035501E+02  0.51100000000E-03 0. -1.
        -11    1    3    3    0    0  0.18911324749E+02 -0.11341676798E+02  0.13315777039E+02  0.25760080644E+02  0.51100000000E-03 0.  1.
        -12    1    3    3    0    0  0.54401306433E+01 -0.53700205788E+01  0.21702642334E+01  0.79462059673E+01  0.00000000000E+00 0.  1.
</event>
<event>
 7    1  0.1485408E-008  0.4614232E+02  0.7816164E-02  0.1320468E+00
        -11   -1    0    0    0    0  0.00000000000E+00  0.00000000000E+00  0.45593999997E+02  0.45594000000E+02  0.51100000000E-03 0.  1.
         11   -1    0    0    0    0 -0.00000000000E+00 -0.00000000000E+00 -0.45593999997E+02  0.45594000000E+02  0.51100000000E-03 0. -1.
    9900012    2    1    2    0    0  0.13977116367E+02  0.12497346858E+01  0.42804109494E+02  0.46142318650E+02  0.10000008102E+02 0.  0.
         12    1    1    2    0    0 -0.13977116367E+02 -0.12497346858E+01 -0.42804109494E+02  0.45045681350E+02  0.00000000000E+00 0. -1.
         11    1    3    3    0    0 -0.90319535165E+00 -0.42308131743E+00  0.37537174690E+01  0.38839612180E+01  0.51100000000E-03 0. -1.
        -11    1    3    3    0    0  0.51894003546E+01 -0.21658471357E+01  0.11476794690E+02  0.12780359403E+02  0.51100000000E-03 0.  1.
         12    1    3    3    0    0  0.96909113641E+01  0.38386631389E+01  0.27573597335E+02  0.29477998028E+02  0.00000000000E+00 0. -1.
</event>
<event>
 7    1  0.1485408E-008  0.4614232E+02  0.7816164E-02  0.1320468E+00
        -11   -1    0    0    0    0  0.00000000000E+00  0.00000000000E+00  0.45593999997E+02  0.45594000000E+02  0.51100000000E-03 0.  1.
         11   -1    0    0    0    0 -0.00000000000E+00 -0.00000000000E+00 -0.45593999997E+02  0.45594000000E+02  0.51100000000E-03 0. -1.
    9900012    2    1    2    0    0  0.14408757510E+02  0.19001177387E+02  0.38215917925E+02  0.46142318543E+02  0.10000007134E+02 0.  0.
         12    1    1    2    0    0 -0.14408757510E+02 -0.19001177387E+02 -0.38215917925E+02  0.45045681457E+02  0.00000000000E+00 0. -1.
         11    1    3    3    0    0  0.44397905450E+00 -0.37614523873E+00 -0.33665738284E+00  0.67226564392E+00  0.51100000000E-03 0. -1.
        -11    1    3    3    0    0  0.13367232028E+02  0.17175887679E+02  0.35781136687E+02  0.41880589210E+02  0.51100000000E-03 0.  1.
         12    1    3    3    0    0  0.59754642763E+00  0.22014349464E+01  0.27714386201E+01  0.35894636899E+01  0.00000000000E+00 0. -1.
</event>
<event>
 7    1  0.1485408E-008  0.4614232E+02  0.7816164E-02  0.1320468E+00
        -11   -1    0    0    0    0  0.00000000000E+00  0.00000000000E+00  0.45593999997E+02  0.45594000000E+02  0.51100000000E-03 0. -1.
         11   -1    0    0    0    0 -0.00000000000E+00 -0.00000000000E+00 -0.45593999997E+02  0.45594000000E+02  0.51100000000E-03 0.  1.
    9900012    2    1    2    0    0 -0.31948828746E+01 -0.25918353946E+02 -0.36703475698E+02  0.46142317897E+02  0.10000001238E+02 0.  0.
         12    1    1    2    0    0  0.31948828746E+01  0.25918353946E+02  0.36703475698E+02  0.45045682103E+02  0.00000000000E+00 0. -1.
         11    1    3    3    0    0  0.22761095416E+01 -0.46735641141E+01 -0.72328962999E+01  0.89071693213E+01  0.51100000000E-03 0. -1.
        -11    1    3    3    0    0 -0.47103383442E+01 -0.13613985939E+02 -0.23292992318E+02  0.27387796404E+02  0.51100000000E-03 0.  1.
         12    1    3    3    0    0 -0.76065407203E+00 -0.76308038927E+01 -0.61775870798E+01  0.98473521718E+01  0.00000000000E+00 0. -1.
</event>
<event>
 7    1  0.1485408E-008  0.4614232E+02  0.7816164E-02  0.1320468E+00
        -11   -1    0    0    0    0  0.00000000000E+00  0.00000000000E+00  0.45593999997E+02  0.45594000000E+02  0.51100000000E-03 0. -1.
         11   -1    0    0    0    0 -0.00000000000E+00 -0.00000000000E+00 -0.45593999997E+02  0.45594000000E+02  0.51100000000E-03 0.  1.
    9900012    2    1    2    0    0 -0.23934733226E+02  0.38062600983E+02  0.27350339779E+01  0.46142318086E+02  0.10000002964E+02 0.  0.
         12    1    1    2    0    0  0.23934733226E+02 -0.38062600983E+02 -0.27350339779E+01  0.45045681914E+02  0.00000000000E+00 0. -1.
         11    1    3    3    0    0  0.32534336028E-01  0.52409187204E+00  0.93874888461E+00  0.10756302817E+01  0.51100000000E-03 0. -1.
        -11    1    3    3    0    0 -0.23247675674E+02  0.37625355301E+02  0.21066762616E+01  0.44278209888E+02  0.51100000000E-03 0.  1.
        -12    1    3    3    0    0 -0.71959188867E+00 -0.86846190218E-01 -0.31039116832E+00  0.78847791622E+00  0.00000000000E+00 0.  1.
</event>
<event>
 7    1  0.1485408E-008  0.4614232E+02  0.7816164E-02  0.1320468E+00
        -11   -1    0    0    0    0  0.00000000000E+00  0.00000000000E+00  0.45593999997E+02  0.45594000000E+02  0.51100000000E-03 0.  1.
         11   -1    0    0    0    0 -0.00000000000E+00 -0.00000000000E+00 -0.45593999997E+02  0.45594000000E+02  0.51100000000E-03 0. -1.
    9900012    2    1    2    0    0 -0.17053485765E+02  0.29505540990E+02  0.29457001936E+02  0.46142319975E+02  0.10000020190E+02 0.  0.
         12    1    1    2    0    0  0.17053485765E+02 -0.29505540990E+02 -0.29457001936E+02  0.45045680025E+02  0.00000000000E+00 0. -1.
         11    1    3    3    0    0 -0.77972264252E+01  0.73370783129E+01  0.61497821776E+01  0.12347035239E+02  0.51100000000E-03 0. -1.
        -11    1    3    3    0    0 -0.84050399573E+01  0.21082505036E+02  0.20152200261E+02  0.30351736209E+02  0.51100000000E-03 0.  1.
        -12    1    3    3    0    0 -0.85121938265E+00  0.10859576418E+01  0.31550194968E+01  0.34435485276E+01  0.00000000000E+00 0.  1.
</event>
<event>
 7    1  0.1485408E-008  0.4614232E+02  0.7816164E-02  0.1320468E+00
        -11   -1    0    0    0    0  0.00000000000E+00  0.00000000000E+00  0.45593999997E+02  0.45594000000E+02  0.51100000000E-03 0.  1.
         11   -1    0    0    0    0 -0.00000000000E+00 -0.00000000000E+00 -0.45593999997E+02  0.45594000000E+02  0.51100000000E-03 0. -1.
    9900012    2    1    2    0    0 -0.23806010957E+02 -0.32382232427E+02  0.20341542044E+02  0.46142317994E+02  0.10000002123E+02 0.  0.
         12    1    1    2    0    0  0.23806010957E+02  0.32382232427E+02 -0.20341542044E+02  0.45045682006E+02  0.00000000000E+00 0. -1.
         11    1    3    3    0    0 -0.11035060210E+01 -0.30884300917E+01  0.35720603304E+00  0.32990487084E+01  0.51100000000E-03 0. -1.
        -11    1    3    3    0    0 -0.63266189802E+01 -0.57625909030E+01  0.13828341758E+01  0.86686672710E+01  0.51100000000E-03 0.  1.
        -12    1    3    3    0    0 -0.16375885956E+02 -0.23531211432E+02  0.18601501836E+02  0.34174602015E+02  0.00000000000E+00 0.  1.
</event>
<event>
 7    1  0.1485408E-008  0.4614232E+02  0.7816164E-02  0.1320468E+00
        -11   -1    0    0    0    0  0.00000000000E+00  0.00000000000E+00  0.45593999997E+02  0.45594000000E+02  0.51100000000E-03 0. -1.
         11   -1    0    0    0    0 -0.00000000000E+00 -0.00000000000E+00 -0.45593999997E+02  0.45594000000E+02  0.51100000000E-03 0.  1.
    9900012    2    1    2    0    0 -0.28050828594E+02  0.59562634859E+01 -0.34738846471E+02  0.46142317480E+02  0.99999974400E+01 0.  0.
         12    1    1    2    0    0  0.28050828594E+02 -0.59562634859E+01  0.34738846471E+02  0.45045682520E+02  0.00000000000E+00 0. -1.
         11    1    3    3    0    0 -0.78187045401E+00 -0.73534690716E+00 -0.28899216402E+01  0.30828077832E+01  0.51100000000E-03 0. -1.
        -11    1    3    3    0    0 -0.50466364834E+01  0.83200742615E+00 -0.10555346692E+02  0.11729284727E+02  0.51100000000E-03 0.  1.
         12    1    3    3    0    0 -0.22222321656E+02  0.58596029670E+01 -0.21293578139E+02  0.31330224970E+02  0.00000000000E+00 0. -1.
</event>
<event>
 7    1  0.1485408E-008  0.4614232E+02  0.7816164E-02  0.1320468E+00
        -11   -1    0    0    0    0  0.00000000000E+00  0.00000000000E+00  0.45593999997E+02  0.45594000000E+02  0.51100000000E-03 0.  1.
         11   -1    0    0    0    0 -0.00000000000E+00 -0.00000000000E+00 -0.45593999997E+02  0.45594000000E+02  0.51100000000E-03 0. -1.
    9900012    2    1    2    0    0 -0.26568172316E+02 -0.17005891825E+02  0.32156574610E+02  0.46142318436E+02  0.10000006152E+02 0.  0.
         12    1    1    2    0    0  0.26568172316E+02  0.17005891825E+02 -0.32156574610E+02  0.45045681564E+02  0.00000000000E+00 0. -1.
         11    1    3    3    0    0 -0.80921532246E+01 -0.15282991542E+01  0.52170235518E+01  0.97486397572E+01  0.51100000000E-03 0. -1.
        -11    1    3    3    0    0 -0.16099425698E+02 -0.12090578941E+02  0.20455529637E+02  0.28701956378E+02  0.51100000000E-03 0.  1.
        -12    1    3    3    0    0 -0.23765933933E+01 -0.33870137301E+01  0.64840214206E+01  0.76917223005E+01  0.00000000000E+00 0.  1.
</event>
<event>
 7    1  0.1485408E-008  0.4614232E+02  0.7816164E-02  0.1320468E+00
        -11   -1    0    0    0    0  0.00000000000E+00  0.00000000000E+00  0.45593999997E+02  0.45594000000E+02  0.51100000000E-03 0.  1.
         11   -1    0    0    0    0 -0.00000000000E+00 -0.00000000000E+00 -0.45593999997E+02  0.45594000000E+02  0.51100000000E-03 0. -1.
    9900012    2    1    2    0    0 -0.29172100073E+02 -0.20026830881E+02  0.27875222366E+02  0.46142318745E+02  0.10000008971E+02 0.  0.
         12    1    1    2    0    0  0.29172100073E+02  0.20026830881E+02 -0.27875222366E+02  0.45045681255E+02  0.00000000000E+00 0. -1.
         11    1    3    3    0    0 -0.13125326098E+02 -0.82868311217E+01  0.83254856889E+01  0.17614183700E+02  0.51100000000E-03 0. -1.
        -11    1    3    3    0    0 -0.12738318515E+02 -0.65349192090E+01  0.15747647530E+02  0.21282817732E+02  0.51100000000E-03 0.  1.
        -12    1    3    3    0    0 -0.33084554604E+01 -0.52050805507E+01  0.38020891472E+01  0.72453173122E+01  0.00000000000E+00 0.  1.
</event>
<event>
 7    1  0.1485408E-008  0.4614232E+02  0.7816164E-02  0.1320468E+00
        -11   -1    0    0    0    0  0.00000000000E+00  0.00000000000E+00  0.45593999997E+02  0.45594000000E+02  0.51100000000E-03 0.  1.
         11   -1    0    0    0    0 -0.00000000000E+00 -0.00000000000E+00 -0.45593999997E+02  0.45594000000E+02  0.51100000000E-03 0. -1.
    9900012    2    1    2    0    0  0.19032789211E+02 -0.39289959872E+02  0.11097993848E+02  0.46142317861E+02  0.10000000915E+02 0.  0.
         12    1    1    2    0    0 -0.19032789211E+02  0.39289959872E+02 -0.11097993848E+02  0.45045682139E+02  0.00000000000E+00 0. -1.
         11    1    3    3    0    0  0.15709551124E+02 -0.25710359202E+02  0.86996696328E+01  0.31360752842E+02  0.51100000000E-03 0. -1.
        -11    1    3    3    0    0  0.19074040358E+01 -0.10448937163E+02  0.53432996289E-01  0.10621738715E+02  0.51100000000E-03 0.  1.
        -12    1    3    3    0    0  0.14158340505E+01 -0.31306635071E+01  0.23448912191E+01  0.41598263044E+01  0.00000000000E+00 0.  1.
</event>
<event>
 7    1  0.1485408E-008  0.4614232E+02  0.7816164E-02  0.1320468E+00
        -11   -1    0    0    0    0  0.00000000000E+00  0.00000000000E+00  0.45593999997E+02  0.45594000000E+02  0.51100000000E-03 0.  1.
         11   -1    0    0    0    0 -0.00000000000E+00 -0.00000000000E+00 -0.45593999997E+02  0.45594000000E+02  0.51100000000E-03 0. -1.
    9900012    2    1    2    0    0 -0.36493267121E+02  0.15360315108E+02 -0.21480589542E+02  0.46142317050E+02  0.99999935149E+01 0.  0.
         12    1    1    2    0    0  0.36493267121E+02 -0.15360315108E+02  0.21480589542E+02  0.45045682950E+02  0.00000000000E+00 0. -1.
         11    1    3    3    0    0 -0.23632954759E+02  0.54606565212E+01 -0.12787065035E+02  0.27419780319E+02  0.51100000000E-03 0.  1.
        -11    1    3    3    0    0 -0.23483490719E+01  0.36574330535E+01 -0.20008682974E+01  0.47848755583E+01  0.51100000000E-03 0. -1.
        -12    1    3    3    0    0 -0.10511963290E+02  0.62422255333E+01 -0.66926562091E+01  0.13937661173E+02  0.00000000000E+00 0.  1.
</event>
<event>
 7    1  0.1485408E-008  0.4614232E+02  0.7816164E-02  0.1320468E+00
        -11   -1    0    0    0    0  0.00000000000E+00  0.00000000000E+00  0.45593999997E+02  0.45594000000E+02  0.51100000000E-03 0.  1.
         11   -1    0    0    0    0 -0.00000000000E+00 -0.00000000000E+00 -0.45593999997E+02  0.45594000000E+02  0.51100000000E-03 0. -1.
    9900012    2    1    2    0    0 -0.17229572186E+02  0.41422805125E+02  0.40505000746E+01  0.46142317710E+02  0.99999995310E+01 0.  0.
         12    1    1    2    0    0  0.17229572186E+02 -0.41422805125E+02 -0.40505000746E+01  0.45045682290E+02  0.00000000000E+00 0. -1.
         11    1    3    3    0    0 -0.15269697785E+01  0.89541997833E+01  0.12696515483E+01  0.91717689558E+01  0.51100000000E-03 0. -1.
        -11    1    3    3    0    0 -0.26814933159E+01  0.12159543546E+02 -0.12386693726E+01  0.12513161381E+02  0.51100000000E-03 0.  1.
        -12    1    3    3    0    0 -0.13021109092E+02  0.20309061795E+02  0.40195178989E+01  0.24457387373E+02  0.00000000000E+00 0.  1.
</event>
<event>
 7    1  0.1485408E-008  0.4614232E+02  0.7816164E-02  0.1320468E+00
        -11   -1    0    0    0    0  0.00000000000E+00  0.00000000000E+00  0.45593999997E+02  0.45594000000E+02  0.51100000000E-03 0.  1.
         11   -1    0    0    0    0 -0.00000000000E+00 -0.00000000000E+00 -0.45593999997E+02  0.45594000000E+02  0.51100000000E-03 0. -1.
    9900012    2    1    2    0    0  0.44732907290E+02  0.16689987776E+01 -0.50294144039E+01  0.46142316957E+02  0.99999926681E+01 0.  0.
         12    1    1    2    0    0 -0.44732907290E+02 -0.16689987776E+01  0.50294144039E+01  0.45045683043E+02  0.00000000000E+00 0. -1.
         11    1    3    3    0    0  0.10608616123E+02  0.19595709963E+01 -0.21457360276E+01  0.10999401707E+02  0.51100000000E-03 0. -1.
        -11    1    3    3    0    0  0.22598582799E+02 -0.38545276767E+01 -0.26383584238E+01  0.23076270573E+02  0.51100000000E-03 0.  1.
        -12    1    3    3    0    0  0.11525708368E+02  0.35639554580E+01 -0.24531995250E+00  0.12066644677E+02  0.00000000000E+00 0.  1.
</event>
<event>
 7    1  0.1485408E-008  0.4614232E+02  0.7816164E-02  0.1320468E+00
        -11   -1    0    0    0    0  0.00000000000E+00  0.00000000000E+00  0.45593999997E+02  0.45594000000E+02  0.51100000000E-03 0. -1.
         11   -1    0    0    0    0 -0.00000000000E+00 -0.00000000000E+00 -0.45593999997E+02  0.45594000000E+02  0.51100000000E-03 0.  1.
    9900012    2    1    2    0    0  0.14693122333E+02 -0.41941972815E+02 -0.73550395347E+01  0.46142317254E+02  0.99999953738E+01 0.  0.
         12    1    1    2    0    0 -0.14693122333E+02  0.41941972815E+02  0.73550395347E+01  0.45045682746E+02  0.00000000000E+00 0. -1.
         11    1    3    3    0    0  0.53678992656E+00 -0.59236869962E+00 -0.17913473910E+01  0.19616242856E+01  0.51100000000E-03 0. -1.
        -11    1    3    3    0    0  0.11462424616E+02 -0.34090710252E+02 -0.33176133197E+01  0.36118835280E+02  0.51100000000E-03 0.  1.
         12    1    3    3    0    0  0.26939077906E+01 -0.72588938631E+01 -0.22460788240E+01  0.80618576882E+01  0.00000000000E+00 0. -1.
</event>
<event>
 7    1  0.1485408E-008  0.4614232E+02  0.7816164E-02  0.1320468E+00
        -11   -1    0    0    0    0  0.00000000000E+00  0.00000000000E+00  0.45593999997E+02  0.45594000000E+02  0.51100000000E-03 0.  1.
         11   -1    0    0    0    0 -0.00000000000E+00 -0.00000000000E+00 -0.45593999997E+02  0.45594000000E+02  0.51100000000E-03 0. -1.
    9900012    2    1    2    0    0  0.80455009387E+01  0.44249010440E+02 -0.25314797811E+01  0.46142318740E+02  0.10000008928E+02 0.  0.
         12    1    1    2    0    0 -0.80455009387E+01 -0.44249010440E+02  0.25314797811E+01  0.45045681260E+02  0.00000000000E+00 0. -1.
         11    1    3    3    0    0  0.35425742088E+01  0.17114280901E+02  0.37556744327E+01  0.17876060346E+02  0.51100000000E-03 0. -1.
        -11    1    3    3    0    0  0.14813611035E+01  0.74084140285E+01 -0.24659825850E+01  0.79473328549E+01  0.51100000000E-03 0.  1.
         12    1    3    3    0    0  0.30215656264E+01  0.19726315511E+02 -0.38211716288E+01  0.20318925540E+02  0.00000000000E+00 0. -1.
</event>
<event>
 7    1  0.1485408E-008  0.4614232E+02  0.7816164E-02  0.1320468E+00
        -11   -1    0    0    0    0  0.00000000000E+00  0.00000000000E+00  0.45593999997E+02  0.45594000000E+02  0.51100000000E-03 0.  1.
         11   -1    0    0    0    0 -0.00000000000E+00 -0.00000000000E+00 -0.45593999997E+02  0.45594000000E+02  0.51100000000E-03 0. -1.
    9900012    2    1    2    0    0 -0.37902927560E+01 -0.34985172910E+02  0.28120895827E+02  0.46142318466E+02  0.10000006430E+02 0.  0.
         12    1    1    2    0    0  0.37902927560E+01  0.34985172910E+02 -0.28120895827E+02  0.45045681534E+02  0.00000000000E+00 0. -1.
         11    1    3    3    0    0  0.20421069609E+00 -0.12292812239E+01  0.26859970474E+01  0.29609820559E+01  0.51100000000E-03 0. -1.
        -11    1    3    3    0    0 -0.55577259235E+01 -0.14365559045E+02  0.12257406710E+02  0.19685060925E+02  0.51100000000E-03 0.  1.
        -12    1    3    3    0    0  0.15632224714E+01 -0.19390332640E+02  0.13177492070E+02  0.23496275485E+02  0.00000000000E+00 0.  1.
</event>
<event>
 7    1  0.1485408E-008  0.4614232E+02  0.7816164E-02  0.1320468E+00
        -11   -1    0    0    0    0  0.00000000000E+00  0.00000000000E+00  0.45593999997E+02  0.45594000000E+02  0.51100000000E-03 0.  1.
         11   -1    0    0    0    0 -0.00000000000E+00 -0.00000000000E+00 -0.45593999997E+02  0.45594000000E+02  0.51100000000E-03 0. -1.
    9900012    2    1    2    0    0 -0.17113985986E+02 -0.31749463924E+02  0.26985118068E+02  0.46142316822E+02  0.99999914369E+01 0.  0.
         12    1    1    2    0    0  0.17113985986E+02  0.31749463924E+02 -0.26985118068E+02  0.45045683178E+02  0.00000000000E+00 0. -1.
         11    1    3    3    0    0 -0.76499253543E+01 -0.17911033232E+02  0.14551269546E+02  0.24311847215E+02  0.51100000000E-03 0. -1.
        -11    1    3    3    0    0 -0.44167401552E+01 -0.48262804301E+01  0.13506732197E+01  0.66801867336E+01  0.51100000000E-03 0.  1.
        -12    1    3    3    0    0 -0.50473204763E+01 -0.90121502620E+01  0.11083175303E+02  0.15150282873E+02  0.00000000000E+00 0.  1.
</event>
<event>
 7    1  0.1485408E-008  0.4614232E+02  0.7816164E-02  0.1320468E+00
        -11   -1    0    0    0    0  0.00000000000E+00  0.00000000000E+00  0.45593999997E+02  0.45594000000E+02  0.51100000000E-03 0.  1.
         11   -1    0    0    0    0 -0.00000000000E+00 -0.00000000000E+00 -0.45593999997E+02  0.45594000000E+02  0.51100000000E-03 0. -1.
    9900012    2    1    2    0    0  0.92462186005E+01 -0.27479691518E+02  0.34474446498E+02  0.46142318013E+02  0.10000002293E+02 0.  0.
         12    1    1    2    0    0 -0.92462186005E+01  0.27479691518E+02 -0.34474446498E+02  0.45045681987E+02  0.00000000000E+00 0. -1.
         11    1    3    3    0    0 -0.69383498869E+00 -0.13223820768E+01  0.90859892118E+00  0.17480427939E+01  0.51100000000E-03 0. -1.
        -11    1    3    3    0    0 -0.75031017802E+00 -0.66903083502E+01  0.62195314480E+01  0.91654657753E+01  0.51100000000E-03 0.  1.
        -12    1    3    3    0    0  0.10690363767E+02 -0.19467001091E+02  0.27346316129E+02  0.35228809443E+02  0.00000000000E+00 0.  1.
</event>
<event>
 7    1  0.1485408E-008  0.4614230E+02  0.7816164E-02  0.1320468E+00
        -11   -1    0    0    0    0  0.00000000000E+00  0.00000000000E+00  0.45593999997E+02  0.45594000000E+02  0.51100000000E-03 0.  1.
         11   -1    0    0    0    0 -0.00000000000E+00 -0.00000000000E+00 -0.45593999997E+02  0.45594000000E+02  0.51100000000E-03 0. -1.
    9900012    2    1    2    0    0 -0.78806715564E+01 -0.30266547136E+02  0.32418298374E+02  0.46142301768E+02  0.99998541619E+01 0.  0.
         12    1    1    2    0    0  0.78806715564E+01  0.30266547136E+02 -0.32418298374E+02  0.45045698232E+02  0.00000000000E+00 0. -1.
         11    1    3    3    0    0  0.23022945547E+01 -0.60737654457E+01  0.64054791988E+01  0.91225737012E+01  0.51100000000E-03 0. -1.
        -11    1    3    3    0    0 -0.64690226041E+01 -0.12693461688E+02  0.14554377743E+02  0.20366691799E+02  0.51100000000E-03 0.  1.
         12    1    3    3    0    0 -0.37139435070E+01 -0.11499320002E+02  0.11458441432E+02  0.16653036268E+02  0.00000000000E+00 0. -1.
</event>
<event>
 7    1  0.1485408E-008  0.4614232E+02  0.7816164E-02  0.1320468E+00
        -11   -1    0    0    0    0  0.00000000000E+00  0.00000000000E+00  0.45593999997E+02  0.45594000000E+02  0.51100000000E-03 0.  1.
         11   -1    0    0    0    0 -0.00000000000E+00 -0.00000000000E+00 -0.45593999997E+02  0.45594000000E+02  0.51100000000E-03 0. -1.
    9900012    2    1    2    0    0 -0.38452524244E+02  0.16570376427E+02  0.16611428147E+02  0.46142317179E+02  0.99999946964E+01 0.  0.
         12    1    1    2    0    0  0.38452524244E+02 -0.16570376427E+02 -0.16611428147E+02  0.45045682821E+02  0.00000000000E+00 0. -1.
         11    1    3    3    0    0 -0.98806429884E+01  0.60297933493E+01  0.47259920702E+01  0.12502820282E+02  0.51100000000E-03 0. -1.
        -11    1    3    3    0    0 -0.92672301029E+01  0.49155124427E+01  0.79212634624E+01  0.13144969816E+02  0.51100000000E-03 0.  1.
         12    1    3    3    0    0 -0.19304651153E+02  0.56250706353E+01  0.39641726144E+01  0.20494527082E+02  0.00000000000E+00 0. -1.
</event>
<event>
 7    1  0.1485408E-008  0.4614232E+02  0.7816164E-02  0.1320468E+00
        -11   -1    0    0    0    0  0.00000000000E+00  0.00000000000E+00  0.45593999997E+02  0.45594000000E+02  0.51100000000E-03 0. -1.
         11   -1    0    0    0    0 -0.00000000000E+00 -0.00000000000E+00 -0.45593999997E+02  0.45594000000E+02  0.51100000000E-03 0.  1.
    9900012    2    1    2    0    0  0.30236114559E+02 -0.11988821857E+02 -0.31163423684E+02  0.46142318200E+02  0.10000003998E+02 0.  0.
         12    1    1    2    0    0 -0.30236114559E+02  0.11988821857E+02  0.31163423684E+02  0.45045681800E+02  0.00000000000E+00 0. -1.
         11    1    3    3    0    0  0.72714103402E+01 -0.42575874090E+01 -0.13779189291E+02  0.16151362687E+02  0.51100000000E-03 0. -1.
        -11    1    3    3    0    0  0.22563328172E+02 -0.70492078761E+01 -0.16676004942E+02  0.28928951778E+02  0.51100000000E-03 0.  1.
        -12    1    3    3    0    0  0.40137604650E+00 -0.68202657221E+00 -0.70822945062E+00  0.10620037338E+01  0.00000000000E+00 0.  1.
</event>
<event>
 7    1  0.1485408E-008  0.4614232E+02  0.7816164E-02  0.1320468E+00
        -11   -1    0    0    0    0  0.00000000000E+00  0.00000000000E+00  0.45593999997E+02  0.45594000000E+02  0.51100000000E-03 0.  1.
         11   -1    0    0    0    0 -0.00000000000E+00 -0.00000000000E+00 -0.45593999997E+02  0.45594000000E+02  0.51100000000E-03 0. -1.
    9900012    2    1    2    0    0  0.26055277960E+02  0.36340848118E+02  0.54386354879E+01  0.46142317549E+02  0.99999980672E+01 0.  0.
         12    1    1    2    0    0 -0.26055277960E+02 -0.36340848118E+02 -0.54386354879E+01  0.45045682451E+02  0.00000000000E+00 0. -1.
         11    1    3    3    0    0  0.11661205984E+02  0.20771415191E+02  0.39593950906E+01  0.24147716741E+02  0.51100000000E-03 0. -1.
        -11    1    3    3    0    0  0.10557324925E+02  0.78296891564E+01 -0.41666602924E+00  0.13150465874E+02  0.51100000000E-03 0.  1.
        -12    1    3    3    0    0  0.38367470506E+01  0.77397437703E+01  0.18959064265E+01  0.88441349344E+01  0.00000000000E+00 0.  1.
</event>
<event>
 7    1  0.2074391E-008  0.4614232E+02  0.7816164E-02  0.1320468E+00
        -11   -1    0    0    0    0  0.00000000000E+00  0.00000000000E+00  0.45593999997E+02  0.45594000000E+02  0.51100000000E-03 0. -1.
         11   -1    0    0    0    0 -0.00000000000E+00 -0.00000000000E+00 -0.45593999997E+02  0.45594000000E+02  0.51100000000E-03 0.  1.
    9900012    2    1    2    0    0 -0.61150303064E+01  0.27319169546E+02 -0.35289984864E+02  0.46142315944E+02  0.99999834307E+01 0.  0.
         12    1    1    2    0    0  0.61150303064E+01 -0.27319169546E+02  0.35289984864E+02  0.45045684056E+02  0.00000000000E+00 0. -1.
         11    1    3    3    0    0 -0.60732772862E+01  0.68185758601E+01 -0.95645185046E+01  0.13223376582E+02  0.51100000000E-03 0. -1.
        -11    1    3    3    0    0 -0.56400038850E+00  0.15308754324E+02 -0.19386802854E+02  0.24708787517E+02  0.51100000000E-03 0.  1.
         12    1    3    3    0    0  0.52224736828E+00  0.51918393627E+01 -0.63386635054E+01  0.82101518450E+01  0.00000000000E+00 0. -1.
</event>
<event>
 7    1  0.1485408E-008  0.4614232E+02  0.7816164E-02  0.1320468E+00
        -11   -1    0    0    0    0  0.00000000000E+00  0.00000000000E+00  0.45593999997E+02  0.45594000000E+02  0.51100000000E-03 0.  1.
         11   -1    0    0    0    0 -0.00000000000E+00 -0.00000000000E+00 -0.45593999997E+02  0.45594000000E+02  0.51100000000E-03 0. -1.
    9900012    2    1    2    0    0 -0.40376512678E+00 -0.75647681375E+00  0.45037520487E+02  0.46142317243E+02  0.99999952733E+01 0.  0.
         12    1    1    2    0    0  0.40376512678E+00  0.75647681375E+00 -0.45037520487E+02  0.45045682757E+02  0.00000000000E+00 0. -1.
         11    1    3    3    0    0  0.15565433170E+01 -0.17678717306E+00  0.29710656289E+01  0.33587664454E+01  0.51100000000E-03 0. -1.
        -11    1    3    3    0    0 -0.35538986277E+01 -0.29984111642E+01  0.30883368053E+02  0.31231443891E+02  0.51100000000E-03 0.  1.
        -12    1    3    3    0    0  0.15935901839E+01  0.24187215235E+01  0.11183086805E+02  0.11552106906E+02  0.00000000000E+00 0.  1.
</event>
<event>
 7    1  0.1485408E-008  0.4614231E+02  0.7816164E-02  0.1320468E+00
        -11   -1    0    0    0    0  0.00000000000E+00  0.00000000000E+00  0.45593999997E+02  0.45594000000E+02  0.51100000000E-03 0.  1.
         11   -1    0    0    0    0 -0.00000000000E+00 -0.00000000000E+00 -0.45593999997E+02  0.45594000000E+02  0.51100000000E-03 0. -1.
    9900012    2    1    2    0    0  0.15434994270E+02  0.28757622422E+02  0.31046320005E+02  0.46142313399E+02  0.99999602232E+01 0.  0.
         12    1    1    2    0    0 -0.15434994270E+02 -0.28757622422E+02 -0.31046320005E+02  0.45045686601E+02  0.00000000000E+00 0. -1.
         11    1    3    3    0    0  0.10503549078E+01  0.41110531056E+01  0.57059556458E+01  0.71106914687E+01  0.51100000000E-03 0. -1.
        -11    1    3    3    0    0  0.80249354133E+01  0.15499854228E+02  0.20391861349E+02  0.26841629589E+02  0.51100000000E-03 0.  1.
         12    1    3    3    0    0  0.63597039493E+01  0.91467150886E+01  0.49485030103E+01  0.12189992341E+02  0.00000000000E+00 0. -1.
</event>
<event>
 7    1  0.1485408E-008  0.4614232E+02  0.7816164E-02  0.1320468E+00
        -11   -1    0    0    0    0  0.00000000000E+00  0.00000000000E+00  0.45593999997E+02  0.45594000000E+02  0.51100000000E-03 0. -1.
         11   -1    0    0    0    0 -0.00000000000E+00 -0.00000000000E+00 -0.45593999997E+02  0.45594000000E+02  0.51100000000E-03 0.  1.
    9900012    2    1    2    0    0 -0.62755297224E+01 -0.44098029560E+02 -0.67152633308E+01  0.46142320451E+02  0.10000024531E+02 0.  0.
         12    1    1    2    0    0  0.62755297224E+01  0.44098029560E+02  0.67152633308E+01  0.45045679549E+02  0.00000000000E+00 0. -1.
         11    1    3    3    0    0  0.63237345250E+00 -0.15152886463E+02 -0.59314713368E+01  0.16284723418E+02  0.51100000000E-03 0. -1.
        -11    1    3    3    0    0 -0.34335671329E+01 -0.11322013505E+02  0.56499963322E+00  0.11844686484E+02  0.51100000000E-03 0.  1.
         12    1    3    3    0    0 -0.34743360420E+01 -0.17623129593E+02 -0.13487916272E+01  0.18012910549E+02  0.00000000000E+00 0. -1.
</event>
<event>
 7    1  0.1485408E-008  0.4614232E+02  0.7816164E-02  0.1320468E+00
        -11   -1    0    0    0    0  0.00000000000E+00  0.00000000000E+00  0.45593999997E+02  0.45594000000E+02  0.51100000000E-03 0.  1.
         11   -1    0    0    0    0 -0.00000000000E+00 -0.00000000000E+00 -0.45593999997E+02  0.45594000000E+02  0.51100000000E-03 0. -1.
    9900012    2    1    2    0    0  0.20024433791E+02 -0.12613039749E+02  0.38328145626E+02  0.46142317993E+02  0.10000002110E+02 0.  0.
         12    1    1    2    0    0 -0.20024433791E+02  0.12613039749E+02 -0.38328145626E+02  0.45045682007E+02  0.00000000000E+00 0. -1.
         11    1    3    3    0    0 -0.53818575264E-01 -0.51684100955E+00  0.31483073597E+00  0.60756869704E+00  0.51100000000E-03 0. -1.
        -11    1    3    3    0    0  0.20910984667E+02 -0.10854085253E+02  0.36067365456E+02  0.43080567518E+02  0.51100000000E-03 0.  1.
        -12    1    3    3    0    0 -0.83273230090E+00 -0.12421134863E+01  0.19459494343E+01  0.24541817778E+01  0.00000000000E+00 0.  1.
</event>
<event>
 7    1  0.1485408E-008  0.4614232E+02  0.7816164E-02  0.1320468E+00
        -11   -1    0    0    0    0  0.00000000000E+00  0.00000000000E+00  0.45593999997E+02  0.45594000000E+02  0.51100000000E-03 0. -1.
         11   -1    0    0    0    0 -0.00000000000E+00 -0.00000000000E+00 -0.45593999997E+02  0.45594000000E+02  0.51100000000E-03 0.  1.
    9900012    2    1    2    0    0 -0.15659430756E+02  0.12353007802E+02 -0.40389341168E+02  0.46142318150E+02  0.10000003544E+02 0.  0.
         12    1    1    2    0    0  0.15659430756E+02 -0.12353007802E+02  0.40389341168E+02  0.45045681850E+02  0.00000000000E+00 0. -1.
         11    1    3    3    0    0 -0.46012811957E+01  0.66873507872E+01 -0.17179993885E+02  0.19001174683E+02  0.51100000000E-03 0. -1.
        -11    1    3    3    0    0 -0.10661544207E+02  0.27807782118E+01 -0.19784120550E+02  0.22645367706E+02  0.51100000000E-03 0.  1.
        -12    1    3    3    0    0 -0.39660535266E+00  0.28848788031E+01 -0.34252267339E+01  0.44957757610E+01  0.00000000000E+00 0.  1.
</event>
<event>
 7    1  0.1485408E-008  0.4614232E+02  0.7816164E-02  0.1320468E+00
        -11   -1    0    0    0    0  0.00000000000E+00  0.00000000000E+00  0.45593999997E+02  0.45594000000E+02  0.51100000000E-03 0. -1.
         11   -1    0    0    0    0 -0.00000000000E+00 -0.00000000000E+00 -0.45593999997E+02  0.45594000000E+02  0.51100000000E-03 0.  1.
    9900012    2    1    2    0    0  0.25205739359E+02 -0.35292030546E+02 -0.12176081370E+02  0.46142315698E+02  0.99999811890E+01 0.  0.
         12    1    1    2    0    0 -0.25205739359E+02  0.35292030546E+02  0.12176081370E+02  0.45045684302E+02  0.00000000000E+00 0. -1.
         11    1    3    3    0    0  0.13064753828E+02 -0.20427130246E+02 -0.26667580604E+01  0.24393996013E+02  0.51100000000E-03 0. -1.
        -11    1    3    3    0    0  0.11016493397E+02 -0.11880366238E+02 -0.89519528748E+01  0.18510637192E+02  0.51100000000E-03 0.  1.
         12    1    3    3    0    0  0.11244921343E+01 -0.29845340619E+01 -0.55737043461E+00  0.32376824934E+01  0.00000000000E+00 0. -1.
</event>
<event>
 7    1  0.1485408E-008  0.4614232E+02  0.7816164E-02  0.1320468E+00
        -11   -1    0    0    0    0  0.00000000000E+00  0.00000000000E+00  0.45593999997E+02  0.45594000000E+02  0.51100000000E-03 0. -1.
         11   -1    0    0    0    0 -0.00000000000E+00 -0.00000000000E+00 -0.45593999997E+02  0.45594000000E+02  0.51100000000E-03 0.  1.
    9900012    2    1    2    0    0 -0.19868042237E+02  0.38276473784E+02 -0.13010994370E+02  0.46142317386E+02  0.99999965762E+01 0.  0.
         12    1    1    2    0    0  0.19868042237E+02 -0.38276473784E+02  0.13010994370E+02  0.45045682614E+02  0.00000000000E+00 0. -1.
         11    1    3    3    0    0 -0.20704826895E+01  0.16175731369E+01 -0.35556187203E+00  0.26513894332E+01  0.51100000000E-03 0. -1.
        -11    1    3    3    0    0 -0.59718272015E+01  0.14029560841E+02 -0.61157322327E+00  0.15259925281E+02  0.51100000000E-03 0.  1.
        -12    1    3    3    0    0 -0.11825732346E+02  0.22629339806E+02 -0.12043859275E+02  0.28231002671E+02  0.00000000000E+00 0.  1.
</event>
<event>
 7    1  0.1485408E-008  0.4614232E+02  0.7816164E-02  0.1320468E+00
        -11   -1    0    0    0    0  0.00000000000E+00  0.00000000000E+00  0.45593999997E+02  0.45594000000E+02  0.51100000000E-03 0. -1.
         11   -1    0    0    0    0 -0.00000000000E+00 -0.00000000000E+00 -0.45593999997E+02  0.45594000000E+02  0.51100000000E-03 0.  1.
    9900012    2    1    2    0    0 -0.39573916265E+02 -0.12966814414E+02 -0.17172079301E+02  0.46142318386E+02  0.10000005694E+02 0.  0.
         12    1    1    2    0    0  0.39573916265E+02  0.12966814414E+02  0.17172079301E+02  0.45045681614E+02  0.00000000000E+00 0. -1.
         11    1    3    3    0    0 -0.16116732573E+02 -0.30770654321E+01 -0.91202613484E+01  0.18772228633E+02  0.51100000000E-03 0. -1.
        -11    1    3    3    0    0 -0.10489278505E+02 -0.76882126686E+01 -0.40737142921E+01  0.13628232680E+02  0.51100000000E-03 0.  1.
         12    1    3    3    0    0 -0.12967905187E+02 -0.22015363128E+01 -0.39781036601E+01  0.13741857072E+02  0.00000000000E+00 0. -1.
</event>
<event>
 7    1  0.1485408E-008  0.4614232E+02  0.7816164E-02  0.1320468E+00
        -11   -1    0    0    0    0  0.00000000000E+00  0.00000000000E+00  0.45593999997E+02  0.45594000000E+02  0.51100000000E-03 0.  1.
         11   -1    0    0    0    0 -0.00000000000E+00 -0.00000000000E+00 -0.45593999997E+02  0.45594000000E+02  0.51100000000E-03 0. -1.
    9900012    2    1    2    0    0  0.26653585943E+02 -0.95796861283E+01  0.35027553099E+02  0.46142317564E+02  0.99999982052E+01 0.  0.
         12    1    1    2    0    0 -0.26653585943E+02  0.95796861283E+01 -0.35027553099E+02  0.45045682436E+02  0.00000000000E+00 0. -1.
         11    1    3    3    0    0  0.17151566052E+01  0.10604221748E+00  0.49594991651E+00  0.17885675031E+01  0.51100000000E-03 0. -1.
        -11    1    3    3    0    0  0.16046586446E+02 -0.98974097590E+01  0.25067798594E+02  0.31366322435E+02  0.51100000000E-03 0.  1.
        -12    1    3    3    0    0  0.88918428918E+01  0.21168141318E+00  0.94638045892E+01  0.12987427626E+02  0.00000000000E+00 0.  1.
</event>
<event>
 7    1  0.1485408E-008  0.4614232E+02  0.7816164E-02  0.1320468E+00
        -11   -1    0    0    0    0  0.00000000000E+00  0.00000000000E+00  0.45593999997E+02  0.45594000000E+02  0.51100000000E-03 0.  1.
         11   -1    0    0    0    0 -0.00000000000E+00 -0.00000000000E+00 -0.45593999997E+02  0.45594000000E+02  0.51100000000E-03 0. -1.
    9900012    2    1    2    0    0 -0.72666868344E+01  0.99657198168E+01  0.43324279495E+02  0.46142317602E+02  0.99999985456E+01 0.  0.
         12    1    1    2    0    0  0.72666868344E+01 -0.99657198168E+01 -0.43324279495E+02  0.45045682398E+02  0.00000000000E+00 0. -1.
         11    1    3    3    0    0 -0.29055424582E+01  0.69444744025E+01  0.23578659586E+02  0.24751183605E+02  0.51100000000E-03 0. -1.
        -11    1    3    3    0    0  0.13390596941E+01  0.17133310793E+01  0.34529852736E+01  0.40806484549E+01  0.51100000000E-03 0.  1.
        -12    1    3    3    0    0 -0.57002040703E+01  0.13079143350E+01  0.16292634634E+02  0.17310485541E+02  0.00000000000E+00 0.  1.
</event>
<event>
 7    1  0.1485408E-008  0.4614232E+02  0.7816164E-02  0.1320468E+00
        -11   -1    0    0    0    0  0.00000000000E+00  0.00000000000E+00  0.45593999997E+02  0.45594000000E+02  0.51100000000E-03 0.  1.
         11   -1    0    0    0    0 -0.00000000000E+00 -0.00000000000E+00 -0.45593999997E+02  0.45594000000E+02  0.51100000000E-03 0. -1.
    9900012    2    1    2    0    0 -0.15489968443E+02  0.38298153945E+02  0.17956207612E+02  0.46142321963E+02  0.10000038318E+02 0.  0.
         12    1    1    2    0    0  0.15489968443E+02 -0.38298153945E+02 -0.17956207612E+02  0.45045678037E+02  0.00000000000E+00 0. -1.
         11    1    3    3    0    0 -0.25399258996E+01  0.15766190160E+02  0.66728819004E+01  0.17307551209E+02  0.51100000000E-03 0. -1.
        -11    1    3    3    0    0 -0.11362008076E+02  0.15064132241E+02  0.86691088569E+01  0.20764796082E+02  0.51100000000E-03 0.  1.
        -12    1    3    3    0    0 -0.15880344673E+01  0.74678315444E+01  0.26142168550E+01  0.80699746722E+01  0.00000000000E+00 0.  1.
</event>
<event>
 7    1  0.1485408E-008  0.4614232E+02  0.7816164E-02  0.1320468E+00
        -11   -1    0    0    0    0  0.00000000000E+00  0.00000000000E+00  0.45593999997E+02  0.45594000000E+02  0.51100000000E-03 0.  1.
         11   -1    0    0    0    0 -0.00000000000E+00 -0.00000000000E+00 -0.45593999997E+02  0.45594000000E+02  0.51100000000E-03 0. -1.
    9900012    2    1    2    0    0 -0.38426838063E+02  0.15427504803E+02  0.17733687660E+02  0.46142318009E+02  0.10000002263E+02 0.  0.
         12    1    1    2    0    0  0.38426838063E+02 -0.15427504803E+02 -0.17733687660E+02  0.45045681991E+02  0.00000000000E+00 0. -1.
         11    1    3    3    0    0 -0.55030978817E+01  0.20419795471E+01  0.43543281797E+01  0.73084841741E+01  0.51100000000E-03 0. -1.
        -11    1    3    3    0    0 -0.25613774862E+02  0.99302944204E+01  0.65289658600E+01  0.28236565043E+02  0.51100000000E-03 0.  1.
        -12    1    3    3    0    0 -0.73099653191E+01  0.34552308360E+01  0.68503936202E+01  0.10597268792E+02  0.00000000000E+00 0.  1.
</event>
<event>
 7    1  0.1485408E-008  0.4614232E+02  0.7816164E-02  0.1320468E+00
        -11   -1    0    0    0    0  0.00000000000E+00  0.00000000000E+00  0.45593999997E+02  0.45594000000E+02  0.51100000000E-03 0.  1.
         11   -1    0    0    0    0 -0.00000000000E+00 -0.00000000000E+00 -0.45593999997E+02  0.45594000000E+02  0.51100000000E-03 0. -1.
    9900012    2    1    2    0    0  0.38918722976E+02  0.73924179581E+01  0.21442916794E+02  0.46142317388E+02  0.99999966005E+01 0.  0.
         12    1    1    2    0    0 -0.38918722976E+02 -0.73924179581E+01 -0.21442916794E+02  0.45045682612E+02  0.00000000000E+00 0. -1.
         11    1    3    3    0    0  0.98096846086E+01 -0.10272241775E+01  0.77381799834E+01  0.12536527882E+02  0.51100000000E-03 0. -1.
        -11    1    3    3    0    0  0.15505934725E+02  0.52277398180E+01  0.98971241148E+01  0.19123711494E+02  0.51100000000E-03 0.  1.
        -12    1    3    3    0    0  0.13603103642E+02  0.31919023175E+01  0.38076126959E+01  0.14482078012E+02  0.00000000000E+00 0.  1.
</event>
<event>
 7    1  0.1485408E-008  0.4614232E+02  0.7816164E-02  0.1320468E+00
        -11   -1    0    0    0    0  0.00000000000E+00  0.00000000000E+00  0.45593999997E+02  0.45594000000E+02  0.51100000000E-03 0. -1.
         11   -1    0    0    0    0 -0.00000000000E+00 -0.00000000000E+00 -0.45593999997E+02  0.45594000000E+02  0.51100000000E-03 0.  1.
    9900012    2    1    2    0    0  0.22203301259E+02 -0.30407311787E+02 -0.24728977545E+02  0.46142317328E+02  0.99999960536E+01 0.  0.
         12    1    1    2    0    0 -0.22203301259E+02  0.30407311787E+02  0.24728977545E+02  0.45045682672E+02  0.00000000000E+00 0. -1.
         11    1    3    3    0    0  0.88866297847E+01 -0.11412469985E+02 -0.14593183503E+02  0.20546962429E+02  0.51100000000E-03 0. -1.
        -11    1    3    3    0    0  0.85685891827E+01 -0.13747330427E+02 -0.86515341622E+01  0.18364608847E+02  0.51100000000E-03 0.  1.
         12    1    3    3    0    0  0.47480822915E+01 -0.52475113753E+01 -0.14842598804E+01  0.72307460523E+01  0.00000000000E+00 0. -1.
</event>
<event>
 7    1  0.1485408E-008  0.4614232E+02  0.7816164E-02  0.1320468E+00
        -11   -1    0    0    0    0  0.00000000000E+00  0.00000000000E+00  0.45593999997E+02  0.45594000000E+02  0.51100000000E-03 0. -1.
         11   -1    0    0    0    0 -0.00000000000E+00 -0.00000000000E+00 -0.45593999997E+02  0.45594000000E+02  0.51100000000E-03 0.  1.
    9900012    2    1    2    0    0  0.46129892019E+01  0.50376273443E+01 -0.44524779933E+02  0.46142318890E+02  0.10000010292E+02 0.  0.
         12    1    1    2    0    0 -0.46129892019E+01 -0.50376273443E+01  0.44524779933E+02  0.45045681110E+02  0.00000000000E+00 0. -1.
         11    1    3    3    0    0 -0.43580343758E-01  0.80355571380E+00 -0.21962357766E+02  0.21977096258E+02  0.51100000000E-03 0. -1.
        -11    1    3    3    0    0  0.57474176291E+01  0.40357573642E+01 -0.21543998138E+02  0.22659744106E+02  0.51100000000E-03 0.  1.
         12    1    3    3    0    0 -0.10908480834E+01  0.19831426634E+00 -0.10184240279E+01  0.15054785252E+01  0.00000000000E+00 0. -1.
</event>
<event>
 7    1  0.1485408E-008  0.4614232E+02  0.7816164E-02  0.1320468E+00
        -11   -1    0    0    0    0  0.00000000000E+00  0.00000000000E+00  0.45593999997E+02  0.45594000000E+02  0.51100000000E-03 0.  1.
         11   -1    0    0    0    0 -0.00000000000E+00 -0.00000000000E+00 -0.45593999997E+02  0.45594000000E+02  0.51100000000E-03 0. -1.
    9900012    2    1    2    0    0 -0.16670990447E+02  0.27311689772E+02  0.31705883766E+02  0.46142318897E+02  0.10000010354E+02 0.  0.
         12    1    1    2    0    0  0.16670990447E+02 -0.27311689772E+02 -0.31705883766E+02  0.45045681103E+02  0.00000000000E+00 0. -1.
         11    1    3    3    0    0 -0.84006280067E+01  0.20297783875E+02  0.19099605382E+02  0.29109543232E+02  0.51100000000E-03 0. -1.
        -11    1    3    3    0    0 -0.30759673332E+01  0.65954544409E+00  0.25303057435E+01  0.40372048058E+01  0.51100000000E-03 0.  1.
         12    1    3    3    0    0 -0.51943951076E+01  0.63543604521E+01  0.10075972641E+02  0.12995570859E+02  0.00000000000E+00 0. -1.
</event>
<event>
 7    1  0.1485408E-008  0.4614232E+02  0.7816164E-02  0.1320468E+00
        -11   -1    0    0    0    0  0.00000000000E+00  0.00000000000E+00  0.45593999997E+02  0.45594000000E+02  0.51100000000E-03 0. -1.
         11   -1    0    0    0    0 -0.00000000000E+00 -0.00000000000E+00 -0.45593999997E+02  0.45594000000E+02  0.51100000000E-03 0.  1.
    9900012    2    1    2    0    0 -0.35136224901E+02 -0.28182731936E+02  0.54114958757E+00  0.46142317382E+02  0.99999965428E+01 0.  0.
         12    1    1    2    0    0  0.35136224901E+02  0.28182731936E+02 -0.54114958757E+00  0.45045682618E+02  0.00000000000E+00 0. -1.
         11    1    3    3    0    0 -0.29443054611E+01 -0.53391954082E+01  0.15283540708E+01  0.62858419231E+01  0.51100000000E-03 0. -1.
        -11    1    3    3    0    0 -0.24790484485E+02 -0.16550839571E+02  0.14417252294E+01  0.29842536477E+02  0.51100000000E-03 0.  1.
        -12    1    3    3    0    0 -0.74014349551E+01 -0.62926969568E+01 -0.24289297126E+01  0.10013938982E+02  0.00000000000E+00 0.  1.
</event>
<event>
 7    1  0.1485408E-008  0.4614232E+02  0.7816164E-02  0.1320468E+00
        -11   -1    0    0    0    0  0.00000000000E+00  0.00000000000E+00  0.45593999997E+02  0.45594000000E+02  0.51100000000E-03 0. -1.
         11   -1    0    0    0    0 -0.00000000000E+00 -0.00000000000E+00 -0.45593999997E+02  0.45594000000E+02  0.51100000000E-03 0.  1.
    9900012    2    1    2    0    0 -0.17743862952E+02 -0.37360277478E+02  0.17845964798E+02  0.46142318018E+02  0.10000002340E+02 0.  0.
         12    1    1    2    0    0  0.17743862952E+02  0.37360277478E+02 -0.17845964798E+02  0.45045681982E+02  0.00000000000E+00 0. -1.
         11    1    3    3    0    0 -0.49741773194E+01 -0.97094041415E+01  0.76434230814E+01  0.13320543737E+02  0.51100000000E-03 0. -1.
        -11    1    3    3    0    0 -0.26910200011E+01 -0.11153882828E+02  0.13296331961E+01  0.11550697618E+02  0.51100000000E-03 0.  1.
        -12    1    3    3    0    0 -0.10078665632E+02 -0.16496990509E+02  0.88729085200E+01  0.21271076662E+02  0.00000000000E+00 0.  1.
</event>
<event>
 7    1  0.1485408E-008  0.4614232E+02  0.7816164E-02  0.1320468E+00
        -11   -1    0    0    0    0  0.00000000000E+00  0.00000000000E+00  0.45593999997E+02  0.45594000000E+02  0.51100000000E-03 0.  1.
         11   -1    0    0    0    0 -0.00000000000E+00 -0.00000000000E+00 -0.45593999997E+02  0.45594000000E+02  0.51100000000E-03 0. -1.
    9900012    2    1    2    0    0  0.23704955875E+02  0.28529964810E+02  0.25558354491E+02  0.46142319748E+02  0.10000018115E+02 0.  0.
         12    1    1    2    0    0 -0.23704955875E+02 -0.28529964810E+02 -0.25558354491E+02  0.45045680252E+02  0.00000000000E+00 0. -1.
         11    1    3    3    0    0  0.50412198346E+01  0.31723360948E+01  0.68189242935E+01  0.90540235531E+01  0.51100000000E-03 0. -1.
        -11    1    3    3    0    0  0.14861094031E+02  0.22078255284E+02  0.17694598930E+02  0.31959353932E+02  0.51100000000E-03 0.  1.
        -12    1    3    3    0    0  0.38026420098E+01  0.32793734317E+01  0.10448312668E+01  0.51289422629E+01  0.00000000000E+00 0.  1.
</event>
<event>
 7    1  0.1485408E-008  0.4614232E+02  0.7816164E-02  0.1320468E+00
        -11   -1    0    0    0    0  0.00000000000E+00  0.00000000000E+00  0.45593999997E+02  0.45594000000E+02  0.51100000000E-03 0. -1.
         11   -1    0    0    0    0 -0.00000000000E+00 -0.00000000000E+00 -0.45593999997E+02  0.45594000000E+02  0.51100000000E-03 0.  1.
    9900012    2    1    2    0    0 -0.28577502836E+02  0.33774609542E+02  0.84685049704E+01  0.46142317693E+02  0.99999993815E+01 0.  0.
         12    1    1    2    0    0  0.28577502836E+02 -0.33774609542E+02 -0.84685049704E+01  0.45045682307E+02  0.00000000000E+00 0. -1.
         11    1    3    3    0    0 -0.48660324893E+01  0.18653424260E+01  0.70424487366E+00  0.52586819315E+01  0.51100000000E-03 0. -1.
        -11    1    3    3    0    0 -0.20633705452E+02  0.29459936276E+02  0.56196501655E+01  0.36403545353E+02  0.51100000000E-03 0.  1.
        -12    1    3    3    0    0 -0.30777648944E+01  0.24493308403E+01  0.21446099312E+01  0.44800904084E+01  0.00000000000E+00 0.  1.
</event>
<event>
 7    1  0.1485408E-008  0.4614232E+02  0.7816164E-02  0.1320468E+00
        -11   -1    0    0    0    0  0.00000000000E+00  0.00000000000E+00  0.45593999997E+02  0.45594000000E+02  0.51100000000E-03 0.  1.
         11   -1    0    0    0    0 -0.00000000000E+00 -0.00000000000E+00 -0.45593999997E+02  0.45594000000E+02  0.51100000000E-03 0. -1.
    9900012    2    1    2    0    0 -0.10182659441E+02 -0.83104690112E+01  0.43085533644E+02  0.46142315880E+02  0.99999828448E+01 0.  0.
         12    1    1    2    0    0  0.10182659441E+02  0.83104690112E+01 -0.43085533644E+02  0.45045684120E+02  0.00000000000E+00 0. -1.
         11    1    3    3    0    0 -0.10616610911E+01  0.65768197290E+00  0.20410844705E+01  0.23928426456E+01  0.51100000000E-03 0. -1.
        -11    1    3    3    0    0 -0.37651552890E+01 -0.79861858832E+01  0.17719440586E+02  0.19797326442E+02  0.51100000000E-03 0.  1.
        -12    1    3    3    0    0 -0.53558430607E+01 -0.98196510097E+00  0.23325008587E+02  0.23952146792E+02  0.00000000000E+00 0.  1.
</event>
<event>
 7    1  0.1485408E-008  0.4614232E+02  0.7816164E-02  0.1320468E+00
        -11   -1    0    0    0    0  0.00000000000E+00  0.00000000000E+00  0.45593999997E+02  0.45594000000E+02  0.51100000000E-03 0.  1.
         11   -1    0    0    0    0 -0.00000000000E+00 -0.00000000000E+00 -0.45593999997E+02  0.45594000000E+02  0.51100000000E-03 0. -1.
    9900012    2    1    2    0    0  0.41628939669E+02  0.11806341838E+02  0.12520180024E+02  0.46142320591E+02  0.10000025807E+02 0.  0.
         12    1    1    2    0    0 -0.41628939669E+02 -0.11806341838E+02 -0.12520180024E+02  0.45045679409E+02  0.00000000000E+00 0. -1.
         11    1    3    3    0    0  0.24291069920E+02  0.39933950086E+01  0.96411771343E+01  0.26437768029E+02  0.51100000000E-03 0. -1.
        -11    1    3    3    0    0  0.11588233766E+02  0.52816461317E+01  0.39459293382E+01  0.13332415621E+02  0.51100000000E-03 0.  1.
         12    1    3    3    0    0  0.57496359822E+01  0.25313006976E+01 -0.10669264484E+01  0.63721369411E+01  0.00000000000E+00 0. -1.
</event>
<event>
 7    1  0.1485408E-008  0.4614232E+02  0.7816164E-02  0.1320468E+00
        -11   -1    0    0    0    0  0.00000000000E+00  0.00000000000E+00  0.45593999997E+02  0.45594000000E+02  0.51100000000E-03 0.  1.
         11   -1    0    0    0    0 -0.00000000000E+00 -0.00000000000E+00 -0.45593999997E+02  0.45594000000E+02  0.51100000000E-03 0. -1.
    9900012    2    1    2    0    0 -0.16458733487E+02 -0.29098631375E+02  0.30190946315E+02  0.46142317684E+02  0.99999992965E+01 0.  0.
         12    1    1    2    0    0  0.16458733487E+02  0.29098631375E+02 -0.30190946315E+02  0.45045682316E+02  0.00000000000E+00 0. -1.
         11    1    3    3    0    0 -0.36733812850E+01 -0.88487732380E+01  0.38739011590E+01  0.10334487328E+02  0.51100000000E-03 0. -1.
        -11    1    3    3    0    0 -0.11169146192E+02 -0.19557223328E+02  0.24520106567E+02  0.33293699664E+02  0.51100000000E-03 0.  1.
        -12    1    3    3    0    0 -0.16162060097E+01 -0.69263480903E+00  0.17969385889E+01  0.25141306921E+01  0.00000000000E+00 0.  1.
</event>
<event>
 7    1  0.1485408E-008  0.4614232E+02  0.7816164E-02  0.1320468E+00
        -11   -1    0    0    0    0  0.00000000000E+00  0.00000000000E+00  0.45593999997E+02  0.45594000000E+02  0.51100000000E-03 0.  1.
         11   -1    0    0    0    0 -0.00000000000E+00 -0.00000000000E+00 -0.45593999997E+02  0.45594000000E+02  0.51100000000E-03 0. -1.
    9900012    2    1    2    0    0  0.39839350695E+02  0.19179124068E+02 -0.86081846902E+01  0.46142317549E+02  0.99999980633E+01 0.  0.
         12    1    1    2    0    0 -0.39839350695E+02 -0.19179124068E+02  0.86081846902E+01  0.45045682451E+02  0.00000000000E+00 0. -1.
         11    1    3    3    0    0  0.11226779994E+02  0.75334203536E+01 -0.45499414027E+01  0.14265166606E+02  0.51100000000E-03 0. -1.
        -11    1    3    3    0    0  0.18219832642E+02  0.95223495927E+01 -0.52080715896E+01  0.21207580088E+02  0.51100000000E-03 0.  1.
         12    1    3    3    0    0  0.10392738060E+02  0.21233541217E+01  0.11498283020E+01  0.10669570855E+02  0.00000000000E+00 0. -1.
</event>
<event>
 7    1  0.1485408E-008  0.4614233E+02  0.7816164E-02  0.1320468E+00
        -11   -1    0    0    0    0  0.00000000000E+00  0.00000000000E+00  0.45593999997E+02  0.45594000000E+02  0.51100000000E-03 0. -1.
         11   -1    0    0    0    0 -0.00000000000E+00 -0.00000000000E+00 -0.45593999997E+02  0.45594000000E+02  0.51100000000E-03 0.  1.
    9900012    2    1    2    0    0  0.22881073646E+02  0.36886081289E+02 -0.12041007450E+02  0.46142330015E+02  0.10000111737E+02 0.  0.
         12    1    1    2    0    0 -0.22881073646E+02 -0.36886081289E+02  0.12041007450E+02  0.45045669985E+02  0.00000000000E+00 0. -1.
         11    1    3    3    0    0  0.19354561719E+01  0.28681959219E+01 -0.24660841027E+01  0.42490127680E+01  0.51100000000E-03 0. -1.
        -11    1    3    3    0    0  0.68819713017E+01  0.91486897555E+01  0.85191606932E+00  0.11479800281E+02  0.51100000000E-03 0.  1.
        -12    1    3    3    0    0  0.14063646172E+02  0.24869195611E+02 -0.10426839416E+02  0.30413516966E+02  0.00000000000E+00 0.  1.
</event>
<event>
 7    1  0.1485408E-008  0.4614232E+02  0.7816164E-02  0.1320468E+00
        -11   -1    0    0    0    0  0.00000000000E+00  0.00000000000E+00  0.45593999997E+02  0.45594000000E+02  0.51100000000E-03 0.  1.
         11   -1    0    0    0    0 -0.00000000000E+00 -0.00000000000E+00 -0.45593999997E+02  0.45594000000E+02  0.51100000000E-03 0. -1.
    9900012    2    1    2    0    0  0.37532758564E+02  0.54478406798E+01  0.24304868062E+02  0.46142317133E+02  0.99999942686E+01 0.  0.
         12    1    1    2    0    0 -0.37532758564E+02 -0.54478406798E+01 -0.24304868062E+02  0.45045682867E+02  0.00000000000E+00 0. -1.
         11    1    3    3    0    0  0.23446078524E+01  0.60791982305E+00 -0.31351374278E+00  0.24423438785E+01  0.51100000000E-03 0. -1.
        -11    1    3    3    0    0  0.24145518948E+02  0.94415094768E+00  0.18849350871E+02  0.30646297245E+02  0.51100000000E-03 0.  1.
         12    1    3    3    0    0  0.11042631763E+02  0.38957699091E+01  0.57690309333E+01  0.13053676009E+02  0.00000000000E+00 0. -1.
</event>
<event>
 7    1  0.1485408E-008  0.4614232E+02  0.7816164E-02  0.1320468E+00
        -11   -1    0    0    0    0  0.00000000000E+00  0.00000000000E+00  0.45593999997E+02  0.45594000000E+02  0.51100000000E-03 0.  1.
         11   -1    0    0    0    0 -0.00000000000E+00 -0.00000000000E+00 -0.45593999997E+02  0.45594000000E+02  0.51100000000E-03 0. -1.
    9900012    2    1    2    0    0 -0.24994485674E+02 -0.12301664585E+02  0.35398562297E+02  0.46142317872E+02  0.10000001014E+02 0.  0.
         12    1    1    2    0    0  0.24994485674E+02  0.12301664585E+02 -0.35398562297E+02  0.45045682128E+02  0.00000000000E+00 0. -1.
         11    1    3    3    0    0 -0.13431219046E+02 -0.39036358535E+01  0.16792694811E+02  0.21854761889E+02  0.51100000000E-03 0. -1.
        -11    1    3    3    0    0  0.11837474893E+00 -0.11410459616E+01 -0.46801444583E-02  0.11471794247E+01  0.51100000000E-03 0.  1.
        -12    1    3    3    0    0 -0.11681641377E+02 -0.72569827700E+01  0.18610547631E+02  0.23140376559E+02  0.00000000000E+00 0.  1.
</event>
<event>
 7    1  0.1485408E-008  0.4614232E+02  0.7816164E-02  0.1320468E+00
        -11   -1    0    0    0    0  0.00000000000E+00  0.00000000000E+00  0.45593999997E+02  0.45594000000E+02  0.51100000000E-03 0.  1.
         11   -1    0    0    0    0 -0.00000000000E+00 -0.00000000000E+00 -0.45593999997E+02  0.45594000000E+02  0.51100000000E-03 0. -1.
    9900012    2    1    2    0    0  0.10185450930E+02  0.85496087525E+01  0.43038055283E+02  0.46142318486E+02  0.10000006614E+02 0.  0.
         12    1    1    2    0    0 -0.10185450930E+02 -0.85496087525E+01 -0.43038055283E+02  0.45045681514E+02  0.00000000000E+00 0. -1.
         11    1    3    3    0    0  0.25876244345E+00 -0.14886357195E+01  0.12601430595E+01  0.19674742943E+01  0.51100000000E-03 0. -1.
        -11    1    3    3    0    0  0.68813450469E+01  0.61533605547E+01  0.23677075263E+02  0.25413001575E+02  0.51100000000E-03 0.  1.
         12    1    3    3    0    0  0.30453434392E+01  0.38848839172E+01  0.18100836961E+02  0.18761842617E+02  0.00000000000E+00 0. -1.
</event>
<event>
 7    1  0.1485408E-008  0.4614232E+02  0.7816164E-02  0.1320468E+00
        -11   -1    0    0    0    0  0.00000000000E+00  0.00000000000E+00  0.45593999997E+02  0.45594000000E+02  0.51100000000E-03 0.  1.
         11   -1    0    0    0    0 -0.00000000000E+00 -0.00000000000E+00 -0.45593999997E+02  0.45594000000E+02  0.51100000000E-03 0. -1.
    9900012    2    1    2    0    0 -0.75261115817E+01 -0.10381452108E+02  0.43182131431E+02  0.46142318982E+02  0.10000011135E+02 0.  0.
         12    1    1    2    0    0  0.75261115817E+01  0.10381452108E+02 -0.43182131431E+02  0.45045681018E+02  0.00000000000E+00 0. -1.
         11    1    3    3    0    0 -0.24979736933E+01 -0.69293566772E+00  0.22692817657E+02  0.22840402928E+02  0.51100000000E-03 0. -1.
        -11    1    3    3    0    0 -0.50669235739E+01 -0.96475673551E+01  0.20522678024E+02  0.23236384915E+02  0.51100000000E-03 0.  1.
        -12    1    3    3    0    0  0.38785685528E-01 -0.40949085542E-01 -0.33364250458E-01  0.65531139294E-01  0.00000000000E+00 0.  1.
</event>
<event>
 7    1  0.1485408E-008  0.4614232E+02  0.7816164E-02  0.1320468E+00
        -11   -1    0    0    0    0  0.00000000000E+00  0.00000000000E+00  0.45593999997E+02  0.45594000000E+02  0.51100000000E-03 0.  1.
         11   -1    0    0    0    0 -0.00000000000E+00 -0.00000000000E+00 -0.45593999997E+02  0.45594000000E+02  0.51100000000E-03 0. -1.
    9900012    2    1    2    0    0  0.16532270723E+02 -0.19568992806E+01  0.41856517400E+02  0.46142317866E+02  0.10000000953E+02 0.  0.
         12    1    1    2    0    0 -0.16532270723E+02  0.19568992806E+01 -0.41856517400E+02  0.45045682134E+02  0.00000000000E+00 0. -1.
         11    1    3    3    0    0  0.51423959177E+01 -0.23640935794E+01  0.85487172070E+01  0.10252499226E+02  0.51100000000E-03 0. -1.
        -11    1    3    3    0    0  0.94361913181E+01 -0.15832076311E+01  0.30358687725E+02  0.31830774003E+02  0.51100000000E-03 0.  1.
         12    1    3    3    0    0  0.19536834873E+01  0.19904019299E+01  0.29491124683E+01  0.40590446366E+01  0.00000000000E+00 0. -1.
</event>
<event>
 7    1  0.1485408E-008  0.4614232E+02  0.7816164E-02  0.1320468E+00
        -11   -1    0    0    0    0  0.00000000000E+00  0.00000000000E+00  0.45593999997E+02  0.45594000000E+02  0.51100000000E-03 0.  1.
         11   -1    0    0    0    0 -0.00000000000E+00 -0.00000000000E+00 -0.45593999997E+02  0.45594000000E+02  0.51100000000E-03 0. -1.
    9900012    2    1    2    0    0  0.13971361886E+02  0.41600625188E+02  0.10163784950E+02  0.46142317704E+02  0.99999994780E+01 0.  0.
         12    1    1    2    0    0 -0.13971361886E+02 -0.41600625188E+02 -0.10163784950E+02  0.45045682296E+02  0.00000000000E+00 0. -1.
         11    1    3    3    0    0  0.33919608557E+01  0.99589770672E+01 -0.51838913050E+00  0.10533534555E+02  0.51100000000E-03 0. -1.
        -11    1    3    3    0    0  0.90514197070E+01  0.17154299101E+02  0.57909951647E+01  0.20241882364E+02  0.51100000000E-03 0.  1.
         12    1    3    3    0    0  0.15279813232E+01  0.14487349020E+02  0.48911789159E+01  0.15366900785E+02  0.00000000000E+00 0. -1.
</event>
<event>
 7    1  0.1485408E-008  0.4614232E+02  0.7816164E-02  0.1320468E+00
        -11   -1    0    0    0    0  0.00000000000E+00  0.00000000000E+00  0.45593999997E+02  0.45594000000E+02  0.51100000000E-03 0. -1.
         11   -1    0    0    0    0 -0.00000000000E+00 -0.00000000000E+00 -0.45593999997E+02  0.45594000000E+02  0.51100000000E-03 0.  1.
    9900012    2    1    2    0    0  0.76848037348E+01 -0.11712143405E+02 -0.42812182822E+02  0.46142317526E+02  0.99999978524E+01 0.  0.
         12    1    1    2    0    0 -0.76848037348E+01  0.11712143405E+02  0.42812182822E+02  0.45045682474E+02  0.00000000000E+00 0. -1.
         11    1    3    3    0    0  0.52900239302E+00 -0.70441607981E+01 -0.16264729481E+02  0.17732497574E+02  0.51100000000E-03 0.  1.
        -11    1    3    3    0    0  0.25791777483E+01 -0.15576773770E+01 -0.31186075314E+01  0.43363844230E+01  0.51100000000E-03 0. -1.
         12    1    3    3    0    0  0.45766235935E+01 -0.31103052297E+01 -0.23428845810E+02  0.24073435528E+02  0.00000000000E+00 0. -1.
</event>
<event>
 7    1  0.1485408E-008  0.4614232E+02  0.7816164E-02  0.1320468E+00
        -11   -1    0    0    0    0  0.00000000000E+00  0.00000000000E+00  0.45593999997E+02  0.45594000000E+02  0.51100000000E-03 0.  1.
         11   -1    0    0    0    0 -0.00000000000E+00 -0.00000000000E+00 -0.45593999997E+02  0.45594000000E+02  0.51100000000E-03 0. -1.
    9900012    2    1    2    0    0  0.39272415127E+02 -0.15469073438E+02  0.15732092390E+02  0.46142317034E+02  0.99999933661E+01 0.  0.
         12    1    1    2    0    0 -0.39272415127E+02  0.15469073438E+02 -0.15732092390E+02  0.45045682966E+02  0.00000000000E+00 0. -1.
         11    1    3    3    0    0  0.17283225969E+02 -0.29703957290E+01  0.38200250624E+01  0.17947861779E+02  0.51100000000E-03 0. -1.
        -11    1    3    3    0    0  0.11178977255E+02 -0.76416788813E+01  0.79288830560E+01  0.15691780503E+02  0.51100000000E-03 0.  1.
         12    1    3    3    0    0  0.10810211903E+02 -0.48569988276E+01  0.39831842712E+01  0.12502674752E+02  0.00000000000E+00 0. -1.
</event>
<event>
 7    1  0.1485408E-008  0.4614232E+02  0.7816164E-02  0.1320468E+00
        -11   -1    0    0    0    0  0.00000000000E+00  0.00000000000E+00  0.45593999997E+02  0.45594000000E+02  0.51100000000E-03 0. -1.
         11   -1    0    0    0    0 -0.00000000000E+00 -0.00000000000E+00 -0.45593999997E+02  0.45594000000E+02  0.51100000000E-03 0.  1.
    9900012    2    1    2    0    0 -0.30450395869E+02  0.20395241235E+02 -0.26190083532E+02  0.46142323747E+02  0.10000054587E+02 0.  0.
         12    1    1    2    0    0  0.30450395869E+02 -0.20395241235E+02  0.26190083532E+02  0.45045676253E+02  0.00000000000E+00 0. -1.
         11    1    3    3    0    0 -0.49460104890E+01  0.25754402600E+01 -0.60749093799E+01  0.82462377195E+01  0.51100000000E-03 0. -1.
        -11    1    3    3    0    0 -0.19160161273E+02  0.95535147238E+01 -0.11094200464E+02  0.24113537853E+02  0.51100000000E-03 0.  1.
        -12    1    3    3    0    0 -0.63442241070E+01  0.82662862513E+01 -0.90209736882E+01  0.13782548175E+02  0.00000000000E+00 0.  1.
</event>
<event>
 7    1  0.1485408E-008  0.4614232E+02  0.7816164E-02  0.1320468E+00
        -11   -1    0    0    0    0  0.00000000000E+00  0.00000000000E+00  0.45593999997E+02  0.45594000000E+02  0.51100000000E-03 0. -1.
         11   -1    0    0    0    0 -0.00000000000E+00 -0.00000000000E+00 -0.45593999997E+02  0.45594000000E+02  0.51100000000E-03 0.  1.
    9900012    2    1    2    0    0  0.16436033673E+02  0.40327268592E+02 -0.11518750325E+02  0.46142318697E+02  0.10000008531E+02 0.  0.
         12    1    1    2    0    0 -0.16436033673E+02 -0.40327268592E+02  0.11518750325E+02  0.45045681303E+02  0.00000000000E+00 0. -1.
         11    1    3    3    0    0  0.11057851734E+02  0.18768962036E+02 -0.85112322013E+01  0.23387840745E+02  0.51100000000E-03 0. -1.
        -11    1    3    3    0    0  0.17408403216E+01  0.14592521490E+02 -0.20375820836E+01  0.14836574721E+02  0.51100000000E-03 0.  1.
        -12    1    3    3    0    0  0.36373416181E+01  0.69657850667E+01 -0.96993604039E+00  0.79179032303E+01  0.00000000000E+00 0.  1.
</event>
<event>
 7    1  0.1485408E-008  0.4614232E+02  0.7816164E-02  0.1320468E+00
        -11   -1    0    0    0    0  0.00000000000E+00  0.00000000000E+00  0.45593999997E+02  0.45594000000E+02  0.51100000000E-03 0.  1.
         11   -1    0    0    0    0 -0.00000000000E+00 -0.00000000000E+00 -0.45593999997E+02  0.45594000000E+02  0.51100000000E-03 0. -1.
    9900012    2    1    2    0    0 -0.38405458652E+01  0.44103547004E+02  0.83211104826E+01  0.46142317293E+02  0.99999957317E+01 0.  0.
         12    1    1    2    0    0  0.38405458652E+01 -0.44103547004E+02 -0.83211104826E+01  0.45045682707E+02  0.00000000000E+00 0. -1.
         11    1    3    3    0    0 -0.28264854359E+01  0.33220477221E+02  0.95488196268E+01  0.34680961395E+02  0.51100000000E-03 0. -1.
        -11    1    3    3    0    0 -0.21657954343E+01  0.80421332810E+01 -0.82261466729E+00  0.83691859057E+01  0.51100000000E-03 0.  1.
         12    1    3    3    0    0  0.11517350050E+01  0.28409365015E+01 -0.40509447692E+00  0.30921699925E+01  0.00000000000E+00 0. -1.
</event>
<event>
 7    1  0.1485408E-008  0.4614232E+02  0.7816164E-02  0.1320468E+00
        -11   -1    0    0    0    0  0.00000000000E+00  0.00000000000E+00  0.45593999997E+02  0.45594000000E+02  0.51100000000E-03 0.  1.
         11   -1    0    0    0    0 -0.00000000000E+00 -0.00000000000E+00 -0.45593999997E+02  0.45594000000E+02  0.51100000000E-03 0. -1.
    9900012    2    1    2    0    0  0.41233211389E+02  0.65002856279E+01  0.16931690352E+02  0.46142316823E+02  0.99999914461E+01 0.  0.
         12    1    1    2    0    0 -0.41233211389E+02 -0.65002856279E+01 -0.16931690352E+02  0.45045683177E+02  0.00000000000E+00 0. -1.
         11    1    3    3    0    0  0.91800487213E+01  0.54961787106E+01  0.37812931148E+01  0.11348103490E+02  0.51100000000E-03 0. -1.
        -11    1    3    3    0    0  0.13848590112E+02 -0.10360679266E+01  0.60449748957E+01  0.15145910557E+02  0.51100000000E-03 0.  1.
         12    1    3    3    0    0  0.18204572556E+02  0.20401748438E+01  0.71054223412E+01  0.19648302776E+02  0.00000000000E+00 0. -1.
</event>
<event>
 7    1  0.1485408E-008  0.4614232E+02  0.7816164E-02  0.1320468E+00
        -11   -1    0    0    0    0  0.00000000000E+00  0.00000000000E+00  0.45593999997E+02  0.45594000000E+02  0.51100000000E-03 0.  1.
         11   -1    0    0    0    0 -0.00000000000E+00 -0.00000000000E+00 -0.45593999997E+02  0.45594000000E+02  0.51100000000E-03 0. -1.
    9900012    2    1    2    0    0 -0.32453794163E+02  0.29762179200E+02 -0.94909120049E+01  0.46142317887E+02  0.10000001151E+02 0.  0.
         12    1    1    2    0    0  0.32453794163E+02 -0.29762179200E+02  0.94909120049E+01  0.45045682113E+02  0.00000000000E+00 0. -1.
         11    1    3    3    0    0 -0.17762519018E+01  0.35596148525E+01  0.12969676995E+00  0.39802952441E+01  0.51100000000E-03 0. -1.
        -11    1    3    3    0    0 -0.83095974032E+01  0.10592527787E+02 -0.76703121503E+00  0.13484783686E+02  0.51100000000E-03 0.  1.
        -12    1    3    3    0    0 -0.22367944858E+02  0.15610036561E+02 -0.88535775598E+01  0.28677238957E+02  0.00000000000E+00 0.  1.
</event>
<event>
 7    1  0.1607717E-008  0.4614232E+02  0.7816164E-02  0.1320468E+00
        -11   -1    0    0    0    0  0.00000000000E+00  0.00000000000E+00  0.45593999997E+02  0.45594000000E+02  0.51100000000E-03 0.  1.
         11   -1    0    0    0    0 -0.00000000000E+00 -0.00000000000E+00 -0.45593999997E+02  0.45594000000E+02  0.51100000000E-03 0. -1.
    9900012    2    1    2    0    0  0.29628484277E+02 -0.33139238116E+02 -0.72840421482E+01  0.46142318149E+02  0.10000003535E+02 0.  0.
         12    1    1    2    0    0 -0.29628484277E+02  0.33139238116E+02  0.72840421482E+01  0.45045681851E+02  0.00000000000E+00 0. -1.
         11    1    3    3    0    0  0.70699337880E+01 -0.76294928395E+01  0.22467067267E+01  0.10641466822E+02  0.51100000000E-03 0. -1.
        -11    1    3    3    0    0  0.15838367762E+02 -0.16231085632E+02 -0.53110524374E+01  0.23291829305E+02  0.51100000000E-03 0.  1.
         12    1    3    3    0    0  0.67201827268E+01 -0.92786596447E+01 -0.42196964374E+01  0.12209022021E+02  0.00000000000E+00 0. -1.
</event>
<event>
 7    1  0.1485408E-008  0.4614232E+02  0.7816164E-02  0.1320468E+00
        -11   -1    0    0    0    0  0.00000000000E+00  0.00000000000E+00  0.45593999997E+02  0.45594000000E+02  0.51100000000E-03 0.  1.
         11   -1    0    0    0    0 -0.00000000000E+00 -0.00000000000E+00 -0.45593999997E+02  0.45594000000E+02  0.51100000000E-03 0. -1.
    9900012    2    1    2    0    0  0.34925894023E+02  0.28442927987E+02 -0.54321456913E+00  0.46142319765E+02  0.10000018273E+02 0.  0.
         12    1    1    2    0    0 -0.34925894023E+02 -0.28442927987E+02  0.54321456913E+00  0.45045680235E+02  0.00000000000E+00 0. -1.
         11    1    3    3    0    0  0.25688996294E+02  0.18343513721E+02  0.18022549342E+01  0.31617355191E+02  0.51100000000E-03 0.  1.
        -11    1    3    3    0    0  0.23478988281E+00  0.26021464549E+01 -0.26099954779E+00  0.26257215174E+01  0.51100000000E-03 0. -1.
         12    1    3    3    0    0  0.90021078463E+01  0.74972678115E+01 -0.20844699556E+01  0.11899243056E+02  0.00000000000E+00 0. -1.
</event>
<event>
 7    1  0.1485408E-008  0.4614232E+02  0.7816164E-02  0.1320468E+00
        -11   -1    0    0    0    0  0.00000000000E+00  0.00000000000E+00  0.45593999997E+02  0.45594000000E+02  0.51100000000E-03 0.  1.
         11   -1    0    0    0    0 -0.00000000000E+00 -0.00000000000E+00 -0.45593999997E+02  0.45594000000E+02  0.51100000000E-03 0. -1.
    9900012    2    1    2    0    0  0.12363193061E+02  0.64846846668E+01  0.42827722516E+02  0.46142317701E+02  0.99999994539E+01 0.  0.
         12    1    1    2    0    0 -0.12363193061E+02 -0.64846846668E+01 -0.42827722516E+02  0.45045682299E+02  0.00000000000E+00 0. -1.
         11    1    3    3    0    0  0.35527016460E+01  0.20042745522E+01  0.56837374224E+01  0.69959757585E+01  0.51100000000E-03 0. -1.
        -11    1    3    3    0    0  0.79973091095E+01  0.64108738839E+01  0.30081862602E+02  0.31780099352E+02  0.51100000000E-03 0.  1.
         12    1    3    3    0    0  0.81318230546E+00 -0.19304637693E+01  0.70621224914E+01  0.73662425910E+01  0.00000000000E+00 0. -1.
</event>
<event>
 7    1  0.1485408E-008  0.4614232E+02  0.7816164E-02  0.1320468E+00
        -11   -1    0    0    0    0  0.00000000000E+00  0.00000000000E+00  0.45593999997E+02  0.45594000000E+02  0.51100000000E-03 0.  1.
         11   -1    0    0    0    0 -0.00000000000E+00 -0.00000000000E+00 -0.45593999997E+02  0.45594000000E+02  0.51100000000E-03 0. -1.
    9900012    2    1    2    0    0 -0.22020092975E+02 -0.39229247165E+02  0.23011192062E+01  0.46142317883E+02  0.10000001115E+02 0.  0.
         12    1    1    2    0    0  0.22020092975E+02  0.39229247165E+02 -0.23011192062E+01  0.45045682117E+02  0.00000000000E+00 0. -1.
         11    1    3    3    0    0 -0.11722019857E+01 -0.71864766991E+01  0.73933451513E+00  0.73188879366E+01  0.51100000000E-03 0. -1.
        -11    1    3    3    0    0 -0.17114595735E+02 -0.29804081612E+02  0.21247906211E+01  0.34434102331E+02  0.51100000000E-03 0.  1.
         12    1    3    3    0    0 -0.37332952546E+01 -0.22386888540E+01 -0.56300593011E+00  0.43893276160E+01  0.00000000000E+00 0. -1.
</event>
<event>
 7    1  0.1485408E-008  0.4614232E+02  0.7816164E-02  0.1320468E+00
        -11   -1    0    0    0    0  0.00000000000E+00  0.00000000000E+00  0.45593999997E+02  0.45594000000E+02  0.51100000000E-03 0.  1.
         11   -1    0    0    0    0 -0.00000000000E+00 -0.00000000000E+00 -0.45593999997E+02  0.45594000000E+02  0.51100000000E-03 0. -1.
    9900012    2    1    2    0    0 -0.82875060768E+01  0.27670621878E+02  0.34565409004E+02  0.46142316836E+02  0.99999915675E+01 0.  0.
         12    1    1    2    0    0  0.82875060768E+01 -0.27670621878E+02 -0.34565409004E+02  0.45045683164E+02  0.00000000000E+00 0. -1.
         11    1    3    3    0    0 -0.40767375702E+00  0.11081259486E+01 -0.20294360433E+00  0.11980514921E+01  0.51100000000E-03 0. -1.
        -11    1    3    3    0    0 -0.52420454653E+01  0.23153830796E+02  0.26217564527E+02  0.35368624672E+02  0.51100000000E-03 0.  1.
        -12    1    3    3    0    0 -0.26377868544E+01  0.34086651336E+01  0.85507880812E+01  0.95756406727E+01  0.00000000000E+00 0.  1.
</event>
<event>
 7    1  0.1485408E-008  0.4614231E+02  0.7816164E-02  0.1320468E+00
        -11   -1    0    0    0    0  0.00000000000E+00  0.00000000000E+00  0.45593999997E+02  0.45594000000E+02  0.51100000000E-03 0. -1.
         11   -1    0    0    0    0 -0.00000000000E+00 -0.00000000000E+00 -0.45593999997E+02  0.45594000000E+02  0.51100000000E-03 0.  1.
    9900012    2    1    2    0    0 -0.18114024263E+02  0.17394553260E+02 -0.37395529203E+02  0.46142312499E+02  0.99999520131E+01 0.  0.
         12    1    1    2    0    0  0.18114024263E+02 -0.17394553260E+02  0.37395529203E+02  0.45045687501E+02  0.00000000000E+00 0. -1.
         11    1    3    3    0    0 -0.42690628717E+01  0.68461774301E+01 -0.10087944326E+02  0.12917494502E+02  0.51100000000E-03 0. -1.
        -11    1    3    3    0    0 -0.13030066831E+02  0.61769462308E+01 -0.19712611842E+02  0.24423848432E+02  0.51100000000E-03 0.  1.
        -12    1    3    3    0    0 -0.81489456032E+00  0.43714295992E+01 -0.75949730342E+01  0.88009695645E+01  0.00000000000E+00 0.  1.
</event>
<event>
 7    1  0.1485408E-008  0.4614232E+02  0.7816164E-02  0.1320468E+00
        -11   -1    0    0    0    0  0.00000000000E+00  0.00000000000E+00  0.45593999997E+02  0.45594000000E+02  0.51100000000E-03 0. -1.
         11   -1    0    0    0    0 -0.00000000000E+00 -0.00000000000E+00 -0.45593999997E+02  0.45594000000E+02  0.51100000000E-03 0.  1.
    9900012    2    1    2    0    0 -0.28573038367E+02 -0.64846239075E+01 -0.34214684085E+02  0.46142317901E+02  0.10000001273E+02 0.  0.
         12    1    1    2    0    0  0.28573038367E+02  0.64846239075E+01  0.34214684085E+02  0.45045682099E+02  0.00000000000E+00 0. -1.
         11    1    3    3    0    0 -0.13929007367E+01 -0.16219953244E+01 -0.30483128476E+01  0.37233389280E+01  0.51100000000E-03 0. -1.
        -11    1    3    3    0    0 -0.58449868028E+01 -0.68761851624E+00 -0.23859576784E+01  0.63505499173E+01  0.51100000000E-03 0.  1.
        -12    1    3    3    0    0 -0.21335150827E+02 -0.41750100668E+01 -0.28780413559E+02  0.36068429055E+02  0.00000000000E+00 0.  1.
</event>
<event>
 7    1  0.1485408E-008  0.4614232E+02  0.7816164E-02  0.1320468E+00
        -11   -1    0    0    0    0  0.00000000000E+00  0.00000000000E+00  0.45593999997E+02  0.45594000000E+02  0.51100000000E-03 0.  1.
         11   -1    0    0    0    0 -0.00000000000E+00 -0.00000000000E+00 -0.45593999997E+02  0.45594000000E+02  0.51100000000E-03 0. -1.
    9900012    2    1    2    0    0  0.41979583768E+02 -0.12985639456E+02  0.99096468902E+01  0.46142318888E+02  0.10000010274E+02 0.  0.
         12    1    1    2    0    0 -0.41979583768E+02  0.12985639456E+02 -0.99096468902E+01  0.45045681112E+02  0.00000000000E+00 0. -1.
         11    1    3    3    0    0  0.20340029783E+02 -0.36232000965E+01  0.84460460754E+01  0.22319948143E+02  0.51100000000E-03 0. -1.
        -11    1    3    3    0    0  0.84689259449E+01 -0.36382360335E+01  0.20771462088E+01  0.94484921935E+01  0.51100000000E-03 0.  1.
         12    1    3    3    0    0  0.13170628039E+02 -0.57242033260E+01 -0.61354539405E+00  0.14373878552E+02  0.00000000000E+00 0. -1.
</event>
<event>
 7    1  0.1485408E-008  0.4614232E+02  0.7816164E-02  0.1320468E+00
        -11   -1    0    0    0    0  0.00000000000E+00  0.00000000000E+00  0.45593999997E+02  0.45594000000E+02  0.51100000000E-03 0.  1.
         11   -1    0    0    0    0 -0.00000000000E+00 -0.00000000000E+00 -0.45593999997E+02  0.45594000000E+02  0.51100000000E-03 0. -1.
    9900012    2    1    2    0    0  0.15694073485E+02 -0.83758699526E+01  0.41384227664E+02  0.46142318305E+02  0.10000004963E+02 0.  0.
         12    1    1    2    0    0 -0.15694073485E+02  0.83758699526E+01 -0.41384227664E+02  0.45045681695E+02  0.00000000000E+00 0. -1.
         11    1    3    3    0    0  0.64825531541E+01 -0.32342354688E+00  0.77868872343E+01  0.10137243770E+02  0.51100000000E-03 0. -1.
        -11    1    3    3    0    0  0.82189415514E+01 -0.69956071401E+01  0.24215762532E+02  0.26512123166E+02  0.51100000000E-03 0.  1.
        -12    1    3    3    0    0  0.99257877954E+00 -0.10568392657E+01  0.93815778974E+01  0.94929513699E+01  0.00000000000E+00 0.  1.
</event>
<event>
 7    1  0.1485408E-008  0.4614232E+02  0.7816164E-02  0.1320468E+00
        -11   -1    0    0    0    0  0.00000000000E+00  0.00000000000E+00  0.45593999997E+02  0.45594000000E+02  0.51100000000E-03 0.  1.
         11   -1    0    0    0    0 -0.00000000000E+00 -0.00000000000E+00 -0.45593999997E+02  0.45594000000E+02  0.51100000000E-03 0. -1.
    9900012    2    1    2    0    0 -0.32988598581E+00  0.32279974580E+01  0.44928663212E+02  0.46142316851E+02  0.99999917028E+01 0.  0.
         12    1    1    2    0    0  0.32988598581E+00 -0.32279974580E+01 -0.44928663212E+02  0.45045683149E+02  0.00000000000E+00 0. -1.
         11    1    3    3    0    0  0.10746963561E+01  0.24527555952E+01  0.41698176212E+01  0.49556393657E+01  0.51100000000E-03 0. -1.
        -11    1    3    3    0    0  0.18011533370E+01  0.28113591560E+00  0.26541212349E+02  0.26603743044E+02  0.51100000000E-03 0.  1.
        -12    1    3    3    0    0 -0.32057356789E+01  0.49410594713E+00  0.14217633242E+02  0.14582934442E+02  0.00000000000E+00 0.  1.
</event>
<event>
 7    1  0.1485408E-008  0.4614232E+02  0.7816164E-02  0.1320468E+00
        -11   -1    0    0    0    0  0.00000000000E+00  0.00000000000E+00  0.45593999997E+02  0.45594000000E+02  0.51100000000E-03 0.  1.
         11   -1    0    0    0    0 -0.00000000000E+00 -0.00000000000E+00 -0.45593999997E+02  0.45594000000E+02  0.51100000000E-03 0. -1.
    9900012    2    1    2    0    0 -0.37814286330E+01 -0.17581073303E+02  0.41300365909E+02  0.46142316908E+02  0.99999922185E+01 0.  0.
         12    1    1    2    0    0  0.37814286330E+01  0.17581073303E+02 -0.41300365909E+02  0.45045683092E+02  0.00000000000E+00 0. -1.
         11    1    3    3    0    0 -0.13283574647E+01 -0.13432331850E+02  0.23950850810E+02  0.27492459462E+02  0.51100000000E-03 0.  1.
        -11    1    3    3    0    0  0.24238459116E+00  0.46042692147E+00  0.24718798836E-01  0.52091699932E+00  0.51100000000E-03 0. -1.
         12    1    3    3    0    0 -0.26954557594E+01 -0.46091683744E+01  0.17324796300E+02  0.18128940446E+02  0.00000000000E+00 0. -1.
</event>
<event>
 7    1  0.1485408E-008  0.4614232E+02  0.7816164E-02  0.1320468E+00
        -11   -1    0    0    0    0  0.00000000000E+00  0.00000000000E+00  0.45593999997E+02  0.45594000000E+02  0.51100000000E-03 0.  1.
         11   -1    0    0    0    0 -0.00000000000E+00 -0.00000000000E+00 -0.45593999997E+02  0.45594000000E+02  0.51100000000E-03 0. -1.
    9900012    2    1    2    0    0 -0.20063904601E+02 -0.10271234766E+02  0.39000704725E+02  0.46142317627E+02  0.99999987737E+01 0.  0.
         12    1    1    2    0    0  0.20063904601E+02  0.10271234766E+02 -0.39000704725E+02  0.45045682373E+02  0.00000000000E+00 0. -1.
         11    1    3    3    0    0 -0.80421499746E+01 -0.27796581933E+01  0.75401925227E+01  0.11369132747E+02  0.51100000000E-03 0. -1.
        -11    1    3    3    0    0 -0.10239694214E+02 -0.50695511673E+01  0.27659522075E+02  0.29926590991E+02  0.51100000000E-03 0.  1.
         12    1    3    3    0    0 -0.17820604118E+01 -0.24220254051E+01  0.38009901272E+01  0.48465938886E+01  0.00000000000E+00 0. -1.
</event>
<event>
 7    1  0.1485408E-008  0.4614232E+02  0.7816164E-02  0.1320468E+00
        -11   -1    0    0    0    0  0.00000000000E+00  0.00000000000E+00  0.45593999997E+02  0.45594000000E+02  0.51100000000E-03 0.  1.
         11   -1    0    0    0    0 -0.00000000000E+00 -0.00000000000E+00 -0.45593999997E+02  0.45594000000E+02  0.51100000000E-03 0. -1.
    9900012    2    1    2    0    0  0.26355802602E+02 -0.26072561199E+02  0.25587239819E+02  0.46142316302E+02  0.99999866949E+01 0.  0.
         12    1    1    2    0    0 -0.26355802602E+02  0.26072561199E+02 -0.25587239819E+02  0.45045683698E+02  0.00000000000E+00 0. -1.
         11    1    3    3    0    0  0.78248612248E+00 -0.28993168775E+01  0.28651775717E+01  0.41506102764E+01  0.51100000000E-03 0. -1.
        -11    1    3    3    0    0  0.22125867789E+02 -0.21999117465E+02  0.22244032462E+02  0.38318561757E+02  0.51100000000E-03 0.  1.
        -12    1    3    3    0    0  0.34474486900E+01 -0.11741268566E+01  0.47802978542E+00  0.36731442690E+01  0.00000000000E+00 0.  1.
</event>
<event>
 7    1  0.1485408E-008  0.4614232E+02  0.7816164E-02  0.1320468E+00
        -11   -1    0    0    0    0  0.00000000000E+00  0.00000000000E+00  0.45593999997E+02  0.45594000000E+02  0.51100000000E-03 0.  1.
         11   -1    0    0    0    0 -0.00000000000E+00 -0.00000000000E+00 -0.45593999997E+02  0.45594000000E+02  0.51100000000E-03 0. -1.
    9900012    2    1    2    0    0  0.27551082870E+02  0.33423410289E+02  0.12366364665E+02  0.46142317658E+02  0.99999990569E+01 0.  0.
         12    1    1    2    0    0 -0.27551082870E+02 -0.33423410289E+02 -0.12366364665E+02  0.45045682342E+02  0.00000000000E+00 0. -1.
         11    1    3    3    0    0  0.32875684505E+01  0.10125010747E+02  0.16779431803E+01  0.10776801127E+02  0.51100000000E-03 0. -1.
        -11    1    3    3    0    0  0.21083947463E+02  0.20974556888E+02  0.99373899346E+01  0.31356284796E+02  0.51100000000E-03 0.  1.
         12    1    3    3    0    0  0.31795669569E+01  0.23238426539E+01  0.75103155041E+00  0.40092317348E+01  0.00000000000E+00 0. -1.
</event>
<event>
 7    1  0.1485408E-008  0.4614232E+02  0.7816164E-02  0.1320468E+00
        -11   -1    0    0    0    0  0.00000000000E+00  0.00000000000E+00  0.45593999997E+02  0.45594000000E+02  0.51100000000E-03 0. -1.
         11   -1    0    0    0    0 -0.00000000000E+00 -0.00000000000E+00 -0.45593999997E+02  0.45594000000E+02  0.51100000000E-03 0.  1.
    9900012    2    1    2    0    0 -0.25285106629E+02  0.64298816726E+01 -0.36721023855E+02  0.46142316650E+02  0.99999898639E+01 0.  0.
         12    1    1    2    0    0  0.25285106629E+02 -0.64298816726E+01  0.36721023855E+02  0.45045683350E+02  0.00000000000E+00 0. -1.
         11    1    3    3    0    0  0.16730248277E+00  0.16875606504E+01 -0.18788526924E+01  0.25309956085E+01  0.51100000000E-03 0. -1.
        -11    1    3    3    0    0 -0.23554853613E+02  0.35352046795E+01 -0.30284220384E+02  0.38528727015E+02  0.51100000000E-03 0.  1.
        -12    1    3    3    0    0 -0.18975554983E+01  0.12071163427E+01 -0.45579507784E+01  0.50825940259E+01  0.00000000000E+00 0.  1.
</event>
<event>
 7    1  0.1485408E-008  0.4614232E+02  0.7816164E-02  0.1320468E+00
        -11   -1    0    0    0    0  0.00000000000E+00  0.00000000000E+00  0.45593999997E+02  0.45594000000E+02  0.51100000000E-03 0. -1.
         11   -1    0    0    0    0 -0.00000000000E+00 -0.00000000000E+00 -0.45593999997E+02  0.45594000000E+02  0.51100000000E-03 0.  1.
    9900012    2    1    2    0    0  0.14917535030E+02  0.15878986540E+02 -0.39426367555E+02  0.46142317372E+02  0.99999964475E+01 0.  0.
         12    1    1    2    0    0 -0.14917535030E+02 -0.15878986540E+02  0.39426367555E+02  0.45045682628E+02  0.00000000000E+00 0. -1.
         11    1    3    3    0    0  0.67362438296E+00  0.20761395610E+01 -0.87306788008E+01  0.89993820827E+01  0.51100000000E-03 0. -1.
        -11    1    3    3    0    0  0.80906970310E+01  0.10884139182E+02 -0.24147356566E+02  0.27695102339E+02  0.51100000000E-03 0.  1.
        -12    1    3    3    0    0  0.61532136158E+01  0.29187077967E+01 -0.65483321884E+01  0.94478329502E+01  0.00000000000E+00 0.  1.
</event>
<event>
 7    1  0.1485408E-008  0.4614232E+02  0.7816164E-02  0.1320468E+00
        -11   -1    0    0    0    0  0.00000000000E+00  0.00000000000E+00  0.45593999997E+02  0.45594000000E+02  0.51100000000E-03 0.  1.
         11   -1    0    0    0    0 -0.00000000000E+00 -0.00000000000E+00 -0.45593999997E+02  0.45594000000E+02  0.51100000000E-03 0. -1.
    9900012    2    1    2    0    0  0.12294294601E+02  0.30586184278E+02  0.30699332784E+02  0.46142318943E+02  0.10000010780E+02 0.  0.
         12    1    1    2    0    0 -0.12294294601E+02 -0.30586184278E+02 -0.30699332784E+02  0.45045681057E+02  0.00000000000E+00 0. -1.
         11    1    3    3    0    0  0.91708781149E+01  0.10456872844E+02  0.12894838801E+02  0.18966498439E+02  0.51100000000E-03 0. -1.
        -11    1    3    3    0    0  0.47120253010E+00  0.11006283604E+02  0.90589341427E+01  0.14262699557E+02  0.51100000000E-03 0.  1.
        -12    1    3    3    0    0  0.26522139562E+01  0.91230278313E+01  0.87455598403E+01  0.12913120947E+02  0.00000000000E+00 0.  1.
</event>
<event>
 7    1  0.1485408E-008  0.4614232E+02  0.7816164E-02  0.1320468E+00
        -11   -1    0    0    0    0  0.00000000000E+00  0.00000000000E+00  0.45593999997E+02  0.45594000000E+02  0.51100000000E-03 0.  1.
         11   -1    0    0    0    0 -0.00000000000E+00 -0.00000000000E+00 -0.45593999997E+02  0.45594000000E+02  0.51100000000E-03 0. -1.
    9900012    2    1    2    0    0 -0.41837863665E+02 -0.62219488016E+01  0.15491741889E+02  0.46142317080E+02  0.99999937916E+01 0.  0.
         12    1    1    2    0    0  0.41837863665E+02  0.62219488016E+01 -0.15491741889E+02  0.45045682920E+02  0.00000000000E+00 0. -1.
         11    1    3    3    0    0 -0.28023342711E+02 -0.23818250214E+01  0.10215690805E+02  0.29922252021E+02  0.51100000000E-03 0.  1.
        -11    1    3    3    0    0  0.18257498470E+00 -0.70179289007E+00 -0.35798118680E+00  0.80870122840E+00  0.51100000000E-03 0. -1.
        -12    1    3    3    0    0 -0.13997095939E+02 -0.31383308901E+01  0.56340322710E+01  0.15411363831E+02  0.00000000000E+00 0.  1.
</event>
<event>
 7    1  0.1485408E-008  0.4614232E+02  0.7816164E-02  0.1320468E+00
        -11   -1    0    0    0    0  0.00000000000E+00  0.00000000000E+00  0.45593999997E+02  0.45594000000E+02  0.51100000000E-03 0.  1.
         11   -1    0    0    0    0 -0.00000000000E+00 -0.00000000000E+00 -0.45593999997E+02  0.45594000000E+02  0.51100000000E-03 0. -1.
    9900012    2    1    2    0    0 -0.13580639433E+02 -0.36442696645E+02  0.22729046768E+02  0.46142317930E+02  0.10000001536E+02 0.  0.
         12    1    1    2    0    0  0.13580639433E+02  0.36442696645E+02 -0.22729046768E+02  0.45045682070E+02  0.00000000000E+00 0. -1.
         11    1    3    3    0    0  0.61071553288E+00 -0.94741948785E+01  0.68979123210E+01  0.11735183710E+02  0.51100000000E-03 0. -1.
        -11    1    3    3    0    0 -0.13611627951E+02 -0.25607740526E+02  0.14528754472E+02  0.32436360725E+02  0.51100000000E-03 0.  1.
         12    1    3    3    0    0 -0.57972701467E+00 -0.13607612413E+01  0.13023799750E+01  0.19707734945E+01  0.00000000000E+00 0. -1.
</event>
<event>
 7    1  0.1485408E-008  0.4614232E+02  0.7816164E-02  0.1320468E+00
        -11   -1    0    0    0    0  0.00000000000E+00  0.00000000000E+00  0.45593999997E+02  0.45594000000E+02  0.51100000000E-03 0.  1.
         11   -1    0    0    0    0 -0.00000000000E+00 -0.00000000000E+00 -0.45593999997E+02  0.45594000000E+02  0.51100000000E-03 0. -1.
    9900012    2    1    2    0    0  0.25558335584E+02  0.12935371606E+02  0.34764361876E+02  0.46142320817E+02  0.10000027867E+02 0.  0.
         12    1    1    2    0    0 -0.25558335584E+02 -0.12935371606E+02 -0.34764361876E+02  0.45045679183E+02  0.00000000000E+00 0. -1.
         11    1    3    3    0    0  0.97852256785E+01  0.74959990901E+01  0.13491333143E+02  0.18274482597E+02  0.51100000000E-03 0. -1.
        -11    1    3    3    0    0  0.33211279649E+01  0.56339227956E+00  0.93987280198E+01  0.99841569734E+01  0.51100000000E-03 0.  1.
         12    1    3    3    0    0  0.12451981941E+02  0.48759802359E+01  0.11874300713E+02  0.17883681247E+02  0.00000000000E+00 0. -1.
</event>
<event>
 7    1  0.1485408E-008  0.4614232E+02  0.7816164E-02  0.1320468E+00
        -11   -1    0    0    0    0  0.00000000000E+00  0.00000000000E+00  0.45593999997E+02  0.45594000000E+02  0.51100000000E-03 0.  1.
         11   -1    0    0    0    0 -0.00000000000E+00 -0.00000000000E+00 -0.45593999997E+02  0.45594000000E+02  0.51100000000E-03 0. -1.
    9900012    2    1    2    0    0 -0.26155846006E+02 -0.99451052265E+01  0.35299860682E+02  0.46142316939E+02  0.99999925050E+01 0.  0.
         12    1    1    2    0    0  0.26155846006E+02  0.99451052265E+01 -0.35299860682E+02  0.45045683061E+02  0.00000000000E+00 0. -1.
         11    1    3    3    0    0 -0.50131989910E+01 -0.11186786659E+01  0.13189805792E+02  0.14154666481E+02  0.51100000000E-03 0. -1.
        -11    1    3    3    0    0 -0.10661630655E+02 -0.29002933249E+01  0.98141454678E+01  0.14778346360E+02  0.51100000000E-03 0.  1.
         12    1    3    3    0    0 -0.10481016359E+02 -0.59261332356E+01  0.12295909422E+02  0.17209304099E+02  0.00000000000E+00 0. -1.
</event>
<event>
 7    1  0.1485408E-008  0.4614232E+02  0.7816164E-02  0.1320468E+00
        -11   -1    0    0    0    0  0.00000000000E+00  0.00000000000E+00  0.45593999997E+02  0.45594000000E+02  0.51100000000E-03 0.  1.
         11   -1    0    0    0    0 -0.00000000000E+00 -0.00000000000E+00 -0.45593999997E+02  0.45594000000E+02  0.51100000000E-03 0. -1.
    9900012    2    1    2    0    0 -0.82067694677E+01 -0.44034065475E+02 -0.47710509325E+01  0.46142324132E+02  0.10000058097E+02 0.  0.
         12    1    1    2    0    0  0.82067694677E+01  0.44034065475E+02  0.47710509325E+01  0.45045675868E+02  0.00000000000E+00 0. -1.
         11    1    3    3    0    0 -0.17616517643E+01 -0.17945465439E+01  0.96850336228E-01  0.25165838920E+01  0.51100000000E-03 0. -1.
        -11    1    3    3    0    0  0.15333191859E+01 -0.50733967642E+01  0.18880727690E-01  0.53000735085E+01  0.51100000000E-03 0.  1.
        -12    1    3    3    0    0 -0.79784368893E+01 -0.37166122167E+02 -0.48867819964E+01  0.38325666732E+02  0.00000000000E+00 0.  1.
</event>
<event>
 7    1  0.1485408E-008  0.4614232E+02  0.7816164E-02  0.1320468E+00
        -11   -1    0    0    0    0  0.00000000000E+00  0.00000000000E+00  0.45593999997E+02  0.45594000000E+02  0.51100000000E-03 0.  1.
         11   -1    0    0    0    0 -0.00000000000E+00 -0.00000000000E+00 -0.45593999997E+02  0.45594000000E+02  0.51100000000E-03 0. -1.
    9900012    2    1    2    0    0 -0.18134085891E+02  0.39296913524E+02  0.12490830824E+02  0.46142319428E+02  0.10000015196E+02 0.  0.
         12    1    1    2    0    0  0.18134085891E+02 -0.39296913524E+02 -0.12490830824E+02  0.45045680572E+02  0.00000000000E+00 0. -1.
         11    1    3    3    0    0  0.59527549538E+00  0.32592624805E+01 -0.41367528992E+00  0.33389028645E+01  0.51100000000E-03 0. -1.
        -11    1    3    3    0    0 -0.14094335153E+02  0.23565778114E+02  0.77186508663E+01  0.28523214282E+02  0.51100000000E-03 0.  1.
        -12    1    3    3    0    0 -0.46350262334E+01  0.12471872929E+02  0.51858552473E+01  0.14280202281E+02  0.00000000000E+00 0.  1.
</event>
<event>
 7    1  0.1485408E-008  0.4614231E+02  0.7816164E-02  0.1320468E+00
        -11   -1    0    0    0    0  0.00000000000E+00  0.00000000000E+00  0.45593999997E+02  0.45594000000E+02  0.51100000000E-03 0.  1.
         11   -1    0    0    0    0 -0.00000000000E+00 -0.00000000000E+00 -0.45593999997E+02  0.45594000000E+02  0.51100000000E-03 0. -1.
    9900012    2    1    2    0    0 -0.64166874622E+01  0.15997007891E+02  0.41617733052E+02  0.46142313815E+02  0.99999640185E+01 0.  0.
         12    1    1    2    0    0  0.64166874622E+01 -0.15997007891E+02 -0.41617733052E+02  0.45045686185E+02  0.00000000000E+00 0. -1.
         11    1    3    3    0    0 -0.36986271291E+00  0.21068072062E+01  0.33216907306E+00  0.21646643122E+01  0.51100000000E-03 0. -1.
        -11    1    3    3    0    0 -0.31722899842E+01  0.71350745175E+01  0.21481161852E+02  0.22856356378E+02  0.51100000000E-03 0.  1.
         12    1    3    3    0    0 -0.28745347650E+01  0.67551261671E+01  0.19804402127E+02  0.21121293125E+02  0.00000000000E+00 0. -1.
</event>
<event>
 7    1  0.1485408E-008  0.4614232E+02  0.7816164E-02  0.1320468E+00
        -11   -1    0    0    0    0  0.00000000000E+00  0.00000000000E+00  0.45593999997E+02  0.45594000000E+02  0.51100000000E-03 0.  1.
         11   -1    0    0    0    0 -0.00000000000E+00 -0.00000000000E+00 -0.45593999997E+02  0.45594000000E+02  0.51100000000E-03 0. -1.
    9900012    2    1    2    0    0  0.38019045372E+02 -0.31829064050E+01  0.23948586111E+02  0.46142317845E+02  0.10000000761E+02 0.  0.
         12    1    1    2    0    0 -0.38019045372E+02  0.31829064050E+01 -0.23948586111E+02  0.45045682155E+02  0.00000000000E+00 0. -1.
         11    1    3    3    0    0  0.13101047849E+02  0.15198798397E+01  0.62180231582E+01  0.14581196855E+02  0.51100000000E-03 0.  1.
        -11    1    3    3    0    0  0.10484881356E+02 -0.19508816631E+00  0.42895993677E+01  0.11330112949E+02  0.51100000000E-03 0. -1.
        -12    1    3    3    0    0  0.14433116166E+02 -0.45076980783E+01  0.13440963585E+02  0.20231008040E+02  0.00000000000E+00 0.  1.
</event>
<event>
 7    1  0.1485408E-008  0.4614231E+02  0.7816164E-02  0.1320468E+00
        -11   -1    0    0    0    0  0.00000000000E+00  0.00000000000E+00  0.45593999997E+02  0.45594000000E+02  0.51100000000E-03 0.  1.
         11   -1    0    0    0    0 -0.00000000000E+00 -0.00000000000E+00 -0.45593999997E+02  0.45594000000E+02  0.51100000000E-03 0. -1.
    9900012    2    1    2    0    0 -0.35561041547E+02  0.68591079972E+01  0.26785805874E+02  0.46142307256E+02  0.99999042088E+01 0.  0.
         12    1    1    2    0    0  0.35561041547E+02 -0.68591079972E+01 -0.26785805874E+02  0.45045692744E+02  0.00000000000E+00 0. -1.
         11    1    3    3    0    0 -0.30932191877E+01  0.37469990477E+01  0.35050975967E+01  0.59911364724E+01  0.51100000000E-03 0. -1.
        -11    1    3    3    0    0 -0.24328006682E+02  0.13003201506E+01  0.17794478477E+02  0.30169292437E+02  0.51100000000E-03 0.  1.
         12    1    3    3    0    0 -0.81398156776E+01  0.18117887988E+01  0.54862298005E+01  0.99818783473E+01  0.00000000000E+00 0. -1.
</event>
<event>
 7    1  0.1485408E-008  0.4614232E+02  0.7816164E-02  0.1320468E+00
        -11   -1    0    0    0    0  0.00000000000E+00  0.00000000000E+00  0.45593999997E+02  0.45594000000E+02  0.51100000000E-03 0. -1.
         11   -1    0    0    0    0 -0.00000000000E+00 -0.00000000000E+00 -0.45593999997E+02  0.45594000000E+02  0.51100000000E-03 0.  1.
    9900012    2    1    2    0    0 -0.96685212280E+01  0.23175496123E+02 -0.37396919535E+02  0.46142317476E+02  0.99999974031E+01 0.  0.
         12    1    1    2    0    0  0.96685212280E+01 -0.23175496123E+02  0.37396919535E+02  0.45045682524E+02  0.00000000000E+00 0. -1.
         11    1    3    3    0    0 -0.70351651696E+01  0.21486208384E+02 -0.29299075792E+02  0.37007925397E+02  0.51100000000E-03 0. -1.
        -11    1    3    3    0    0 -0.10512004720E+01 -0.44286744346E+00 -0.87080303058E+00  0.14350791560E+01  0.51100000000E-03 0.  1.
         12    1    3    3    0    0 -0.15821555864E+01  0.21321551824E+01 -0.72270407126E+01  0.76993129228E+01  0.00000000000E+00 0. -1.
</event>
<event>
 7    1  0.1485408E-008  0.4614232E+02  0.7816164E-02  0.1320468E+00
        -11   -1    0    0    0    0  0.00000000000E+00  0.00000000000E+00  0.45593999997E+02  0.45594000000E+02  0.51100000000E-03 0. -1.
         11   -1    0    0    0    0 -0.00000000000E+00 -0.00000000000E+00 -0.45593999997E+02  0.45594000000E+02  0.51100000000E-03 0.  1.
    9900012    2    1    2    0    0 -0.92909635598E+01 -0.76365559889E+01 -0.43410534582E+02  0.46142317588E+02  0.99999984246E+01 0.  0.
         12    1    1    2    0    0  0.92909635598E+01  0.76365559889E+01  0.43410534582E+02  0.45045682412E+02  0.00000000000E+00 0. -1.
         11    1    3    3    0    0 -0.40189933127E+00  0.11863176371E+01 -0.90975472890E+01  0.91833675493E+01  0.51100000000E-03 0. -1.
        -11    1    3    3    0    0 -0.32795977286E+01 -0.65011281811E+01 -0.14326288842E+02  0.16070562565E+02  0.51100000000E-03 0.  1.
        -12    1    3    3    0    0 -0.56094664999E+01 -0.23217454449E+01 -0.19986698451E+02  0.20888387475E+02  0.00000000000E+00 0.  1.
</event>
<event>
 7    1  0.1485408E-008  0.4614232E+02  0.7816164E-02  0.1320468E+00
        -11   -1    0    0    0    0  0.00000000000E+00  0.00000000000E+00  0.45593999997E+02  0.45594000000E+02  0.51100000000E-03 0.  1.
         11   -1    0    0    0    0 -0.00000000000E+00 -0.00000000000E+00 -0.45593999997E+02  0.45594000000E+02  0.51100000000E-03 0. -1.
    9900012    2    1    2    0    0  0.20642311303E+02  0.40035421547E+02  0.41665632522E+00  0.46142316557E+02  0.99999890175E+01 0.  0.
         12    1    1    2    0    0 -0.20642311303E+02 -0.40035421547E+02 -0.41665632522E+00  0.45045683443E+02  0.00000000000E+00 0. -1.
         11    1    3    3    0    0  0.11839608496E+02  0.18129075736E+02 -0.25660731419E+01  0.21804230049E+02  0.51100000000E-03 0. -1.
        -11    1    3    3    0    0  0.47655469041E+01  0.99319968125E+01 -0.10688553711E+01  0.11067856615E+02  0.51100000000E-03 0.  1.
         12    1    3    3    0    0  0.40371559029E+01  0.11974348999E+02  0.40515848382E+01  0.13270229893E+02  0.00000000000E+00 0. -1.
</event>
<event>
 7    1  0.1485408E-008  0.4614232E+02  0.7816164E-02  0.1320468E+00
        -11   -1    0    0    0    0  0.00000000000E+00  0.00000000000E+00  0.45593999997E+02  0.45594000000E+02  0.51100000000E-03 0. -1.
         11   -1    0    0    0    0 -0.00000000000E+00 -0.00000000000E+00 -0.45593999997E+02  0.45594000000E+02  0.51100000000E-03 0.  1.
    9900012    2    1    2    0    0 -0.62370846962E+01  0.70708831329E+01 -0.44047871518E+02  0.46142316532E+02  0.99999887958E+01 0.  0.
         12    1    1    2    0    0  0.62370846962E+01 -0.70708831329E+01  0.44047871518E+02  0.45045683468E+02  0.00000000000E+00 0. -1.
         11    1    3    3    0    0  0.77977928836E+00  0.16071201053E+01 -0.30197323797E+01  0.35085145970E+01  0.51100000000E-03 0. -1.
        -11    1    3    3    0    0 -0.78480089938E+01  0.47206623288E+01 -0.26027457940E+02  0.27591746321E+02  0.51100000000E-03 0.  1.
        -12    1    3    3    0    0  0.83114500924E+00  0.74310069878E+00 -0.15000681199E+02  0.15042055614E+02  0.00000000000E+00 0.  1.
</event>
<event>
 7    1  0.1485408E-008  0.4614232E+02  0.7816164E-02  0.1320468E+00
        -11   -1    0    0    0    0  0.00000000000E+00  0.00000000000E+00  0.45593999997E+02  0.45594000000E+02  0.51100000000E-03 0.  1.
         11   -1    0    0    0    0 -0.00000000000E+00 -0.00000000000E+00 -0.45593999997E+02  0.45594000000E+02  0.51100000000E-03 0. -1.
    9900012    2    1    2    0    0  0.25101682343E+02  0.26964869605E+02  0.25921319892E+02  0.46142317919E+02  0.10000001436E+02 0.  0.
         12    1    1    2    0    0 -0.25101682343E+02 -0.26964869605E+02 -0.25921319892E+02  0.45045682081E+02  0.00000000000E+00 0. -1.
         11    1    3    3    0    0  0.18374539147E+01  0.22250038457E+01  0.50543717885E+01  0.58200990919E+01  0.51100000000E-03 0. -1.
        -11    1    3    3    0    0  0.27773328167E+01  0.33315311417E+01  0.49995471139E+00  0.43660774497E+01  0.51100000000E-03 0.  1.
         12    1    3    3    0    0  0.20486895611E+02  0.21408334618E+02  0.20366993392E+02  0.35956141377E+02  0.00000000000E+00 0. -1.
</event>
<event>
 7    1  0.1485408E-008  0.4614232E+02  0.7816164E-02  0.1320468E+00
        -11   -1    0    0    0    0  0.00000000000E+00  0.00000000000E+00  0.45593999997E+02  0.45594000000E+02  0.51100000000E-03 0.  1.
         11   -1    0    0    0    0 -0.00000000000E+00 -0.00000000000E+00 -0.45593999997E+02  0.45594000000E+02  0.51100000000E-03 0. -1.
    9900012    2    1    2    0    0  0.84322133640E+01  0.35936867680E+02  0.25817684541E+02  0.46142317455E+02  0.99999972061E+01 0.  0.
         12    1    1    2    0    0 -0.84322133640E+01 -0.35936867680E+02 -0.25817684541E+02  0.45045682545E+02  0.00000000000E+00 0. -1.
         11    1    3    3    0    0  0.70858422658E+01  0.17241570695E+02  0.15274043439E+02  0.24099322063E+02  0.51100000000E-03 0. -1.
        -11    1    3    3    0    0 -0.14991099368E+01  0.62855376197E+01  0.49339536502E+01  0.81301422284E+01  0.51100000000E-03 0.  1.
         12    1    3    3    0    0  0.28454810350E+01  0.12409759366E+02  0.56096874518E+01  0.13912853164E+02  0.00000000000E+00 0. -1.
</event>
<event>
 7    1  0.1485408E-008  0.4614232E+02  0.7816164E-02  0.1320468E+00
        -11   -1    0    0    0    0  0.00000000000E+00  0.00000000000E+00  0.45593999997E+02  0.45594000000E+02  0.51100000000E-03 0.  1.
         11   -1    0    0    0    0 -0.00000000000E+00 -0.00000000000E+00 -0.45593999997E+02  0.45594000000E+02  0.51100000000E-03 0. -1.
    9900012    2    1    2    0    0  0.28043759946E+02  0.35072074487E+02  0.35511435048E+01  0.46142317622E+02  0.99999987298E+01 0.  0.
         12    1    1    2    0    0 -0.28043759946E+02 -0.35072074487E+02 -0.35511435048E+01  0.45045682378E+02  0.00000000000E+00 0. -1.
         11    1    3    3    0    0  0.18613896372E+01  0.19182753356E+00  0.12927576506E+00  0.18757083112E+01  0.51100000000E-03 0. -1.
        -11    1    3    3    0    0  0.26127393156E+01  0.78235022278E+01  0.83520926265E+00  0.82904263228E+01  0.51100000000E-03 0.  1.
        -12    1    3    3    0    0  0.23569630993E+02  0.27056744726E+02  0.25866584771E+01  0.35976182988E+02  0.00000000000E+00 0.  1.
</event>
<event>
 7    1  0.1485408E-008  0.4614232E+02  0.7816164E-02  0.1320468E+00
        -11   -1    0    0    0    0  0.00000000000E+00  0.00000000000E+00  0.45593999997E+02  0.45594000000E+02  0.51100000000E-03 0.  1.
         11   -1    0    0    0    0 -0.00000000000E+00 -0.00000000000E+00 -0.45593999997E+02  0.45594000000E+02  0.51100000000E-03 0. -1.
    9900012    2    1    2    0    0 -0.15570285687E+02 -0.38719303425E+02  0.16955685056E+02  0.46142317523E+02  0.99999978270E+01 0.  0.
         12    1    1    2    0    0  0.15570285687E+02  0.38719303425E+02 -0.16955685056E+02  0.45045682477E+02  0.00000000000E+00 0. -1.
         11    1    3    3    0    0 -0.13111181807E+02 -0.25018806491E+02  0.77234377262E+01  0.29283019946E+02  0.51100000000E-03 0. -1.
        -11    1    3    3    0    0 -0.22011121940E+01 -0.94036876381E+01  0.74629294348E+01  0.12205308357E+02  0.51100000000E-03 0.  1.
        -12    1    3    3    0    0 -0.25799168576E+00 -0.42968092962E+01  0.17693178953E+01  0.46539892191E+01  0.00000000000E+00 0.  1.
</event>
<event>
 7    1  0.1485408E-008  0.4614232E+02  0.7816164E-02  0.1320468E+00
        -11   -1    0    0    0    0  0.00000000000E+00  0.00000000000E+00  0.45593999997E+02  0.45594000000E+02  0.51100000000E-03 0.  1.
         11   -1    0    0    0    0 -0.00000000000E+00 -0.00000000000E+00 -0.45593999997E+02  0.45594000000E+02  0.51100000000E-03 0. -1.
    9900012    2    1    2    0    0  0.13391182847E+02 -0.27730327811E+02  0.32875804168E+02  0.46142319205E+02  0.10000013170E+02 0.  0.
         12    1    1    2    0    0 -0.13391182847E+02  0.27730327811E+02 -0.32875804168E+02  0.45045680795E+02  0.00000000000E+00 0. -1.
         11    1    3    3    0    0  0.10357723264E+02 -0.17211122057E+02  0.25491849542E+02  0.32455192913E+02  0.51100000000E-03 0.  1.
        -11    1    3    3    0    0  0.37754848767E+01 -0.84078345668E+01  0.53149615890E+01  0.10639303789E+02  0.51100000000E-03 0. -1.
        -12    1    3    3    0    0 -0.74202529370E+00 -0.21113711870E+01  0.20689930367E+01  0.30478225033E+01  0.00000000000E+00 0.  1.
</event>
<event>
 7    1  0.1485408E-008  0.4614231E+02  0.7816164E-02  0.1320468E+00
        -11   -1    0    0    0    0  0.00000000000E+00  0.00000000000E+00  0.45593999997E+02  0.45594000000E+02  0.51100000000E-03 0.  1.
         11   -1    0    0    0    0 -0.00000000000E+00 -0.00000000000E+00 -0.45593999997E+02  0.45594000000E+02  0.51100000000E-03 0. -1.
    9900012    2    1    2    0    0 -0.12732711334E+02 -0.23304702875E+02  0.36385198313E+02  0.46142314632E+02  0.99999714664E+01 0.  0.
         12    1    1    2    0    0  0.12732711334E+02  0.23304702875E+02 -0.36385198313E+02  0.45045685368E+02  0.00000000000E+00 0. -1.
         11    1    3    3    0    0 -0.52467438196E+01 -0.69027864532E+01  0.71985487947E+01  0.11269245163E+02  0.51100000000E-03 0. -1.
        -11    1    3    3    0    0 -0.45312720531E+01 -0.10653378175E+02  0.23772639691E+02  0.26441733890E+02  0.51100000000E-03 0.  1.
        -12    1    3    3    0    0 -0.29546954611E+01 -0.57485382470E+01  0.54140098268E+01  0.84313355793E+01  0.00000000000E+00 0.  1.
</event>
<event>
 7    1  0.1485408E-008  0.4614232E+02  0.7816164E-02  0.1320468E+00
        -11   -1    0    0    0    0  0.00000000000E+00  0.00000000000E+00  0.45593999997E+02  0.45594000000E+02  0.51100000000E-03 0.  1.
         11   -1    0    0    0    0 -0.00000000000E+00 -0.00000000000E+00 -0.45593999997E+02  0.45594000000E+02  0.51100000000E-03 0. -1.
    9900012    2    1    2    0    0  0.38646247833E+02  0.40849164220E+01  0.22779253023E+02  0.46142318942E+02  0.10000010764E+02 0.  0.
         12    1    1    2    0    0 -0.38646247833E+02 -0.40849164220E+01 -0.22779253023E+02  0.45045681058E+02  0.00000000000E+00 0. -1.
         11    1    3    3    0    0  0.53180808340E+01  0.21709051075E+01  0.64433845561E+01  0.86320343802E+01  0.51100000000E-03 0.  1.
        -11    1    3    3    0    0  0.13769166743E+02 -0.13649662647E+01  0.81246606005E+01  0.16045659719E+02  0.51100000000E-03 0. -1.
         12    1    3    3    0    0  0.19559000256E+02  0.32789775791E+01  0.82112078668E+01  0.21464624842E+02  0.00000000000E+00 0. -1.
</event>
<event>
 7    1  0.1485408E-008  0.4614232E+02  0.7816164E-02  0.1320468E+00
        -11   -1    0    0    0    0  0.00000000000E+00  0.00000000000E+00  0.45593999997E+02  0.45594000000E+02  0.51100000000E-03 0.  1.
         11   -1    0    0    0    0 -0.00000000000E+00 -0.00000000000E+00 -0.45593999997E+02  0.45594000000E+02  0.51100000000E-03 0. -1.
    9900012    2    1    2    0    0 -0.16326480679E+02 -0.40820458131E+02 -0.98106919542E+01  0.46142318187E+02  0.10000003887E+02 0.  0.
         12    1    1    2    0    0  0.16326480679E+02  0.40820458131E+02  0.98106919542E+01  0.45045681813E+02  0.00000000000E+00 0. -1.
         11    1    3    3    0    0  0.16745638073E-01 -0.20877854539E+01  0.45738389745E+00  0.21373649217E+01  0.51100000000E-03 0. -1.
        -11    1    3    3    0    0 -0.71642252077E+01 -0.22560001573E+02 -0.91440770665E+01  0.25375065309E+02  0.51100000000E-03 0.  1.
        -12    1    3    3    0    0 -0.91790011090E+01 -0.16172671104E+02 -0.11239987851E+01  0.18629887956E+02  0.00000000000E+00 0.  1.
</event>
<event>
 7    1  0.1485408E-008  0.4614232E+02  0.7816164E-02  0.1320468E+00
        -11   -1    0    0    0    0  0.00000000000E+00  0.00000000000E+00  0.45593999997E+02  0.45594000000E+02  0.51100000000E-03 0. -1.
         11   -1    0    0    0    0 -0.00000000000E+00 -0.00000000000E+00 -0.45593999997E+02  0.45594000000E+02  0.51100000000E-03 0.  1.
    9900012    2    1    2    0    0 -0.24879466733E+02  0.35908564644E+02 -0.10986381278E+02  0.46142318151E+02  0.10000003553E+02 0.  0.
         12    1    1    2    0    0  0.24879466733E+02 -0.35908564644E+02  0.10986381278E+02  0.45045681849E+02  0.00000000000E+00 0. -1.
         11    1    3    3    0    0 -0.15484164625E+01  0.53992557953E+01 -0.30294920694E+01  0.63818006193E+01  0.51100000000E-03 0. -1.
        -11    1    3    3    0    0 -0.57513468863E+01  0.53635001107E+01  0.66025841011E+00  0.78918353932E+01  0.51100000000E-03 0.  1.
        -12    1    3    3    0    0 -0.17579703384E+02  0.25145808738E+02 -0.86171476183E+01  0.31868682138E+02  0.00000000000E+00 0.  1.
</event>
<event>
 7    1  0.1485408E-008  0.4614232E+02  0.7816164E-02  0.1320468E+00
        -11   -1    0    0    0    0  0.00000000000E+00  0.00000000000E+00  0.45593999997E+02  0.45594000000E+02  0.51100000000E-03 0.  1.
         11   -1    0    0    0    0 -0.00000000000E+00 -0.00000000000E+00 -0.45593999997E+02  0.45594000000E+02  0.51100000000E-03 0. -1.
    9900012    2    1    2    0    0  0.20766665406E+02 -0.17449173399E+02  0.35963666642E+02  0.46142319156E+02  0.10000012715E+02 0.  0.
         12    1    1    2    0    0 -0.20766665406E+02  0.17449173399E+02 -0.35963666642E+02  0.45045680844E+02  0.00000000000E+00 0. -1.
         11    1    3    3    0    0  0.25330977793E+01  0.12453991572E+00  0.40575027559E+01  0.47849162401E+01  0.51100000000E-03 0. -1.
        -11    1    3    3    0    0  0.43569263974E+01 -0.25568252146E+01  0.11052130596E+02  0.12151944445E+02  0.51100000000E-03 0.  1.
        -12    1    3    3    0    0  0.13876641229E+02 -0.15016888101E+02  0.20854033290E+02  0.29205458471E+02  0.00000000000E+00 0.  1.
</event>
<event>
 7    1  0.1485408E-008  0.4614232E+02  0.7816164E-02  0.1320468E+00
        -11   -1    0    0    0    0  0.00000000000E+00  0.00000000000E+00  0.45593999997E+02  0.45594000000E+02  0.51100000000E-03 0.  1.
         11   -1    0    0    0    0 -0.00000000000E+00 -0.00000000000E+00 -0.45593999997E+02  0.45594000000E+02  0.51100000000E-03 0. -1.
    9900012    2    1    2    0    0  0.33841867904E+02 -0.14048037825E+02  0.26201036607E+02  0.46142315310E+02  0.99999776445E+01 0.  0.
         12    1    1    2    0    0 -0.33841867904E+02  0.14048037825E+02 -0.26201036607E+02  0.45045684690E+02  0.00000000000E+00 0. -1.
         11    1    3    3    0    0  0.57283332621E+01 -0.44565098754E+01  0.21394621940E+01  0.75664774481E+01  0.51100000000E-03 0. -1.
        -11    1    3    3    0    0  0.46031196890E+01  0.36594004486E+00  0.38497752849E+01  0.60119375406E+01  0.51100000000E-03 0.  1.
         12    1    3    3    0    0  0.23510414953E+02 -0.99574679942E+01  0.20211799128E+02  0.32563900321E+02  0.00000000000E+00 0. -1.
</event>
<event>
 7    1  0.1485408E-008  0.4614232E+02  0.7816164E-02  0.1320468E+00
        -11   -1    0    0    0    0  0.00000000000E+00  0.00000000000E+00  0.45593999997E+02  0.45594000000E+02  0.51100000000E-03 0.  1.
         11   -1    0    0    0    0 -0.00000000000E+00 -0.00000000000E+00 -0.45593999997E+02  0.45594000000E+02  0.51100000000E-03 0. -1.
    9900012    2    1    2    0    0 -0.31772558903E+02  0.80871278360E+01  0.30890392898E+02  0.46142317529E+02  0.99999978850E+01 0.  0.
         12    1    1    2    0    0  0.31772558903E+02 -0.80871278360E+01 -0.30890392898E+02  0.45045682471E+02  0.00000000000E+00 0. -1.
         11    1    3    3    0    0 -0.29496181237E+01 -0.13803655269E+01  0.54750913743E+01  0.63704224257E+01  0.51100000000E-03 0. -1.
        -11    1    3    3    0    0 -0.13690384337E+02  0.53115709049E+01  0.14640726126E+02  0.20736206753E+02  0.51100000000E-03 0.  1.
         12    1    3    3    0    0 -0.15132556443E+02  0.41559224580E+01  0.10774575398E+02  0.19035688350E+02  0.00000000000E+00 0. -1.
</event>
<event>
 7    1  0.1485408E-008  0.4614231E+02  0.7816164E-02  0.1320468E+00
        -11   -1    0    0    0    0  0.00000000000E+00  0.00000000000E+00  0.45593999997E+02  0.45594000000E+02  0.51100000000E-03 0.  1.
         11   -1    0    0    0    0 -0.00000000000E+00 -0.00000000000E+00 -0.45593999997E+02  0.45594000000E+02  0.51100000000E-03 0. -1.
    9900012    2    1    2    0    0  0.30178797746E+02 -0.20597049904E+02  0.26346085854E+02  0.46142306111E+02  0.99998937607E+01 0.  0.
         12    1    1    2    0    0 -0.30178797746E+02  0.20597049904E+02 -0.26346085854E+02  0.45045693889E+02  0.00000000000E+00 0. -1.
         11    1    3    3    0    0  0.33724015831E+01 -0.43737197268E+01  0.32635694176E+01  0.64150917601E+01  0.51100000000E-03 0. -1.
        -11    1    3    3    0    0  0.69728069941E+00 -0.21907313690E+01  0.25182001286E+00  0.23127727699E+01  0.51100000000E-03 0.  1.
        -12    1    3    3    0    0  0.26109115463E+02 -0.14032598809E+02  0.22830696423E+02  0.37414441581E+02  0.00000000000E+00 0.  1.
</event>
<event>
 7    1  0.1485408E-008  0.4614232E+02  0.7816164E-02  0.1320468E+00
        -11   -1    0    0    0    0  0.00000000000E+00  0.00000000000E+00  0.45593999997E+02  0.45594000000E+02  0.51100000000E-03 0.  1.
         11   -1    0    0    0    0 -0.00000000000E+00 -0.00000000000E+00 -0.45593999997E+02  0.45594000000E+02  0.51100000000E-03 0. -1.
    9900012    2    1    2    0    0 -0.89468163119E+01  0.36482199677E+01  0.43997255292E+02  0.46142317584E+02  0.99999983887E+01 0.  0.
         12    1    1    2    0    0  0.89468163119E+01 -0.36482199677E+01 -0.43997255292E+02  0.45045682416E+02  0.00000000000E+00 0. -1.
         11    1    3    3    0    0 -0.72296179877E+01  0.52840887200E+01  0.28952352315E+02  0.30305571677E+02  0.51100000000E-03 0. -1.
        -11    1    3    3    0    0 -0.20229700217E+01 -0.24004935789E+01  0.14530610160E+02  0.14865847067E+02  0.51100000000E-03 0.  1.
         12    1    3    3    0    0  0.30577169747E+00  0.76462482663E+00  0.51429281689E+00  0.97089884024E+00  0.00000000000E+00 0. -1.
</event>
<event>
 7    1  0.1485408E-008  0.4614232E+02  0.7816164E-02  0.1320468E+00
        -11   -1    0    0    0    0  0.00000000000E+00  0.00000000000E+00  0.45593999997E+02  0.45594000000E+02  0.51100000000E-03 0. -1.
         11   -1    0    0    0    0 -0.00000000000E+00 -0.00000000000E+00 -0.45593999997E+02  0.45594000000E+02  0.51100000000E-03 0.  1.
    9900012    2    1    2    0    0 -0.38915833918E+02  0.14941268926E+02 -0.17071316264E+02  0.46142317791E+02  0.10000000274E+02 0.  0.
         12    1    1    2    0    0  0.38915833918E+02 -0.14941268926E+02  0.17071316264E+02  0.45045682209E+02  0.00000000000E+00 0. -1.
         11    1    3    3    0    0 -0.94369362062E+01  0.13352410148E+01 -0.29266531559E+01  0.99701520792E+01  0.51100000000E-03 0. -1.
        -11    1    3    3    0    0 -0.14443577249E+02  0.76142849233E+01 -0.32123370031E+01  0.16640714165E+02  0.51100000000E-03 0.  1.
        -12    1    3    3    0    0 -0.15035320463E+02  0.59917429879E+01 -0.10932326105E+02  0.19531451547E+02  0.00000000000E+00 0.  1.
</event>
<event>
 7    1  0.1485408E-008  0.4614232E+02  0.7816164E-02  0.1320468E+00
        -11   -1    0    0    0    0  0.00000000000E+00  0.00000000000E+00  0.45593999997E+02  0.45594000000E+02  0.51100000000E-03 0.  1.
         11   -1    0    0    0    0 -0.00000000000E+00 -0.00000000000E+00 -0.45593999997E+02  0.45594000000E+02  0.51100000000E-03 0. -1.
    9900012    2    1    2    0    0  0.29849237160E+02 -0.24967339338E+02  0.22688509028E+02  0.46142318358E+02  0.10000005444E+02 0.  0.
         12    1    1    2    0    0 -0.29849237160E+02  0.24967339338E+02 -0.22688509028E+02  0.45045681642E+02  0.00000000000E+00 0. -1.
         11    1    3    3    0    0  0.10979065492E+02 -0.68046227743E+01  0.97377531322E+01  0.16176112219E+02  0.51100000000E-03 0. -1.
        -11    1    3    3    0    0  0.17891885619E+02 -0.14188520470E+02  0.10044335959E+02  0.24946389904E+02  0.51100000000E-03 0.  1.
         12    1    3    3    0    0  0.97828604839E+00 -0.39741960940E+01  0.29064199368E+01  0.50198162352E+01  0.00000000000E+00 0. -1.
</event>
<event>
 7    1  0.1485408E-008  0.4614232E+02  0.7816164E-02  0.1320468E+00
        -11   -1    0    0    0    0  0.00000000000E+00  0.00000000000E+00  0.45593999997E+02  0.45594000000E+02  0.51100000000E-03 0.  1.
         11   -1    0    0    0    0 -0.00000000000E+00 -0.00000000000E+00 -0.45593999997E+02  0.45594000000E+02  0.51100000000E-03 0. -1.
    9900012    2    1    2    0    0  0.18155401663E+02 -0.25308897026E+02  0.32541582740E+02  0.46142317794E+02  0.10000000296E+02 0.  0.
         12    1    1    2    0    0 -0.18155401663E+02  0.25308897026E+02 -0.32541582740E+02  0.45045682206E+02  0.00000000000E+00 0. -1.
         11    1    3    3    0    0  0.31366397297E+01 -0.86246031470E+01  0.63207077472E+01  0.11143322437E+02  0.51100000000E-03 0. -1.
        -11    1    3    3    0    0  0.95515667168E+01 -0.70583260988E+01  0.11077751156E+02  0.16240965642E+02  0.51100000000E-03 0.  1.
         12    1    3    3    0    0  0.54671952162E+01 -0.96259677801E+01  0.15143123837E+02  0.18758029715E+02  0.00000000000E+00 0. -1.
</event>
<event>
 7    1  0.1485408E-008  0.4614232E+02  0.7816164E-02  0.1320468E+00
        -11   -1    0    0    0    0  0.00000000000E+00  0.00000000000E+00  0.45593999997E+02  0.45594000000E+02  0.51100000000E-03 0.  1.
         11   -1    0    0    0    0 -0.00000000000E+00 -0.00000000000E+00 -0.45593999997E+02  0.45594000000E+02  0.51100000000E-03 0. -1.
    9900012    2    1    2    0    0 -0.55490073947E+01 -0.15354986112E+02  0.41982687620E+02  0.46142321613E+02  0.10000035120E+02 0.  0.
         12    1    1    2    0    0  0.55490073947E+01  0.15354986112E+02 -0.41982687620E+02  0.45045678387E+02  0.00000000000E+00 0. -1.
         11    1    3    3    0    0 -0.31699601968E+01 -0.23573600450E+01  0.39644354928E+01  0.55966546319E+01  0.51100000000E-03 0. -1.
        -11    1    3    3    0    0 -0.33325478570E+01 -0.12581710253E+02  0.34366177942E+02  0.36748326421E+02  0.51100000000E-03 0.  1.
         12    1    3    3    0    0  0.95350065912E+00 -0.41591581322E+00  0.36520741856E+01  0.37973405599E+01  0.00000000000E+00 0. -1.
</event>
<event>
 7    1  0.1485408E-008  0.4614232E+02  0.7816164E-02  0.1320468E+00
        -11   -1    0    0    0    0  0.00000000000E+00  0.00000000000E+00  0.45593999997E+02  0.45594000000E+02  0.51100000000E-03 0.  1.
         11   -1    0    0    0    0 -0.00000000000E+00 -0.00000000000E+00 -0.45593999997E+02  0.45594000000E+02  0.51100000000E-03 0. -1.
    9900012    2    1    2    0    0  0.43899383248E+02  0.98499517759E+01 -0.22217244448E+01  0.46142318087E+02  0.10000002968E+02 0.  0.
         12    1    1    2    0    0 -0.43899383248E+02 -0.98499517759E+01  0.22217244448E+01  0.45045681913E+02  0.00000000000E+00 0. -1.
         11    1    3    3    0    0  0.19675935417E+02  0.73262829229E+01 -0.10552417677E+01  0.21022140506E+02  0.51100000000E-03 0.  1.
        -11    1    3    3    0    0  0.16584232411E+01 -0.13894162498E+01 -0.43422686671E+00  0.22066713382E+01  0.51100000000E-03 0. -1.
        -12    1    3    3    0    0  0.22565024589E+02  0.39130851027E+01 -0.73225581038E+00  0.22913506242E+02  0.00000000000E+00 0.  1.
</event>
<event>
 7    1  0.1485408E-008  0.4614231E+02  0.7816164E-02  0.1320468E+00
        -11   -1    0    0    0    0  0.00000000000E+00  0.00000000000E+00  0.45593999997E+02  0.45594000000E+02  0.51100000000E-03 0. -1.
         11   -1    0    0    0    0 -0.00000000000E+00 -0.00000000000E+00 -0.45593999997E+02  0.45594000000E+02  0.51100000000E-03 0.  1.
    9900012    2    1    2    0    0  0.44726867925E+02 -0.47098222737E+01  0.25374411496E+01  0.46142314881E+02  0.99999737376E+01 0.  0.
         12    1    1    2    0    0 -0.44726867925E+02  0.47098222737E+01 -0.25374411496E+01  0.45045685119E+02  0.00000000000E+00 0. -1.
         11    1    3    3    0    0  0.12730515693E+02  0.12656389971E+01 -0.16144965136E+01  0.12894745873E+02  0.51100000000E-03 0. -1.
        -11    1    3    3    0    0  0.19080297332E+01 -0.17501015369E+01  0.60829725901E-01  0.25898133850E+01  0.51100000000E-03 0.  1.
        -12    1    3    3    0    0  0.30088322499E+02 -0.42253597338E+01  0.40911079373E+01  0.30657755623E+02  0.00000000000E+00 0.  1.
</event>
<event>
 7    1  0.1485408E-008  0.4614232E+02  0.7816164E-02  0.1320468E+00
        -11   -1    0    0    0    0  0.00000000000E+00  0.00000000000E+00  0.45593999997E+02  0.45594000000E+02  0.51100000000E-03 0.  1.
         11   -1    0    0    0    0 -0.00000000000E+00 -0.00000000000E+00 -0.45593999997E+02  0.45594000000E+02  0.51100000000E-03 0. -1.
    9900012    2    1    2    0    0 -0.24835598199E+02  0.83546862160E+01  0.36640220527E+02  0.46142317855E+02  0.10000000854E+02 0.  0.
         12    1    1    2    0    0  0.24835598199E+02 -0.83546862160E+01 -0.36640220527E+02  0.45045682145E+02  0.00000000000E+00 0. -1.
         11    1    3    3    0    0 -0.32250190041E+01 -0.18733804836E+01  0.39069739217E+01  0.54013653366E+01  0.51100000000E-03 0.  1.
        -11    1    3    3    0    0 -0.57146793774E+01  0.47157998776E+01  0.92130377124E+01  0.11822706671E+02  0.51100000000E-03 0. -1.
         12    1    3    3    0    0 -0.15895899817E+02  0.55122668220E+01  0.23520208893E+02  0.28918245847E+02  0.00000000000E+00 0. -1.
</event>
<event>
 7    1  0.1485408E-008  0.4614232E+02  0.7816164E-02  0.1320468E+00
        -11   -1    0    0    0    0  0.00000000000E+00  0.00000000000E+00  0.45593999997E+02  0.45594000000E+02  0.51100000000E-03 0.  1.
         11   -1    0    0    0    0 -0.00000000000E+00 -0.00000000000E+00 -0.45593999997E+02  0.45594000000E+02  0.51100000000E-03 0. -1.
    9900012    2    1    2    0    0 -0.35993593144E+02 -0.33767398621E+01  0.26873265492E+02  0.46142317435E+02  0.99999970285E+01 0.  0.
         12    1    1    2    0    0  0.35993593144E+02  0.33767398621E+01 -0.26873265492E+02  0.45045682565E+02  0.00000000000E+00 0. -1.
         11    1    3    3    0    0 -0.25018394396E+02  0.91555495146E+00  0.17407995413E+02  0.30492566366E+02  0.51100000000E-03 0. -1.
        -11    1    3    3    0    0 -0.71892175596E+01 -0.91735606509E+00  0.43834651311E+01  0.84700152353E+01  0.51100000000E-03 0.  1.
         12    1    3    3    0    0 -0.37859811883E+01 -0.33749387485E+01  0.50818049482E+01  0.71797358340E+01  0.00000000000E+00 0. -1.
</event>
<event>
 7    1  0.1485408E-008  0.4614231E+02  0.7816164E-02  0.1320468E+00
        -11   -1    0    0    0    0  0.00000000000E+00  0.00000000000E+00  0.45593999997E+02  0.45594000000E+02  0.51100000000E-03 0.  1.
         11   -1    0    0    0    0 -0.00000000000E+00 -0.00000000000E+00 -0.45593999997E+02  0.45594000000E+02  0.51100000000E-03 0. -1.
    9900012    2    1    2    0    0 -0.32682918520E+01  0.75391930838E+00  0.44920637429E+02  0.46142314380E+02  0.99999691676E+01 0.  0.
         12    1    1    2    0    0  0.32682918520E+01 -0.75391930838E+00 -0.44920637429E+02  0.45045685620E+02  0.00000000000E+00 0. -1.
         11    1    3    3    0    0  0.54218321010E+00  0.17341060385E+01  0.13803558055E+02  0.13922618346E+02  0.51100000000E-03 0. -1.
        -11    1    3    3    0    0 -0.39536649779E+01 -0.33707830891E+01  0.26644165632E+02  0.27145998008E+02  0.51100000000E-03 0.  1.
        -12    1    3    3    0    0  0.14318991585E+00  0.23905963590E+01  0.44729137422E+01  0.50736980250E+01  0.00000000000E+00 0.  1.
</event>
<event>
 7    1  0.1485408E-008  0.4614232E+02  0.7816164E-02  0.1320468E+00
        -11   -1    0    0    0    0  0.00000000000E+00  0.00000000000E+00  0.45593999997E+02  0.45594000000E+02  0.51100000000E-03 0. -1.
         11   -1    0    0    0    0 -0.00000000000E+00 -0.00000000000E+00 -0.45593999997E+02  0.45594000000E+02  0.51100000000E-03 0.  1.
    9900012    2    1    2    0    0  0.34242982462E+02  0.33831786740E+00 -0.29264608505E+02  0.46142316324E+02  0.99999868994E+01 0.  0.
         12    1    1    2    0    0 -0.34242982462E+02 -0.33831786740E+00  0.29264608505E+02  0.45045683676E+02  0.00000000000E+00 0. -1.
         11    1    3    3    0    0  0.48270427910E+01 -0.14882814733E+01 -0.15894864404E+01  0.52954500522E+01  0.51100000000E-03 0.  1.
        -11    1    3    3    0    0  0.14577940845E+02  0.17175034878E+01 -0.17568052220E+02  0.22893288025E+02  0.51100000000E-03 0. -1.
        -12    1    3    3    0    0  0.14837998826E+02  0.10909585287E+00 -0.10107069844E+02  0.17953578248E+02  0.00000000000E+00 0.  1.
</event>
<event>
 7    1  0.1485408E-008  0.4614232E+02  0.7816164E-02  0.1320468E+00
        -11   -1    0    0    0    0  0.00000000000E+00  0.00000000000E+00  0.45593999997E+02  0.45594000000E+02  0.51100000000E-03 0. -1.
         11   -1    0    0    0    0 -0.00000000000E+00 -0.00000000000E+00 -0.45593999997E+02  0.45594000000E+02  0.51100000000E-03 0.  1.
    9900012    2    1    2    0    0  0.26501660637E+01 -0.28207441400E+02 -0.35020429322E+02  0.46142316517E+02  0.99999886576E+01 0.  0.
         12    1    1    2    0    0 -0.26501660637E+01  0.28207441400E+02  0.35020429322E+02  0.45045683483E+02  0.00000000000E+00 0. -1.
         11    1    3    3    0    0  0.57767797653E-01  0.54041476172E+00  0.31345648884E-01  0.54439695440E+00  0.51100000000E-03 0. -1.
        -11    1    3    3    0    0  0.33062046239E+01 -0.20287404595E+02 -0.26615928215E+02  0.33629115499E+02  0.51100000000E-03 0.  1.
        -12    1    3    3    0    0 -0.71380635790E+00 -0.84604515669E+01 -0.84358467556E+01  0.11968804064E+02  0.00000000000E+00 0.  1.
</event>
<event>
 7    1  0.1485408E-008  0.4614232E+02  0.7816164E-02  0.1320468E+00
        -11   -1    0    0    0    0  0.00000000000E+00  0.00000000000E+00  0.45593999997E+02  0.45594000000E+02  0.51100000000E-03 0. -1.
         11   -1    0    0    0    0 -0.00000000000E+00 -0.00000000000E+00 -0.45593999997E+02  0.45594000000E+02  0.51100000000E-03 0.  1.
    9900012    2    1    2    0    0 -0.22042818216E+02 -0.24026120756E+02 -0.31080108210E+02  0.46142318300E+02  0.10000004915E+02 0.  0.
         12    1    1    2    0    0  0.22042818216E+02  0.24026120756E+02  0.31080108210E+02  0.45045681700E+02  0.00000000000E+00 0. -1.
         11    1    3    3    0    0 -0.10019250396E+01 -0.91812288006E+00  0.42261648128E+00  0.14231684226E+01  0.51100000000E-03 0. -1.
        -11    1    3    3    0    0 -0.17139273990E+02 -0.16678283285E+02 -0.21167970098E+02  0.31937482752E+02  0.51100000000E-03 0.  1.
        -12    1    3    3    0    0 -0.39016191868E+01 -0.64297145909E+01 -0.10334754593E+02  0.12781667125E+02  0.00000000000E+00 0.  1.
</event>
<event>
 7    1  0.1485408E-008  0.4614232E+02  0.7816164E-02  0.1320468E+00
        -11   -1    0    0    0    0  0.00000000000E+00  0.00000000000E+00  0.45593999997E+02  0.45594000000E+02  0.51100000000E-03 0. -1.
         11   -1    0    0    0    0 -0.00000000000E+00 -0.00000000000E+00 -0.45593999997E+02  0.45594000000E+02  0.51100000000E-03 0.  1.
    9900012    2    1    2    0    0 -0.26490986765E+02  0.12039113885E+02 -0.34386058767E+02  0.46142315629E+02  0.99999805572E+01 0.  0.
         12    1    1    2    0    0  0.26490986765E+02 -0.12039113885E+02  0.34386058767E+02  0.45045684371E+02  0.00000000000E+00 0. -1.
         11    1    3    3    0    0 -0.20470069254E+02  0.10774935386E+02 -0.24977282603E+02  0.34043907154E+02  0.51100000000E-03 0. -1.
        -11    1    3    3    0    0 -0.52258609463E+01  0.14034788579E+01 -0.42599394190E+01  0.68866871317E+01  0.51100000000E-03 0.  1.
         12    1    3    3    0    0 -0.79505656515E+00 -0.13930035891E+00 -0.51488367454E+01  0.52117213436E+01  0.00000000000E+00 0. -1.
</event>
<event>
 7    1  0.1485408E-008  0.4614232E+02  0.7816164E-02  0.1320468E+00
        -11   -1    0    0    0    0  0.00000000000E+00  0.00000000000E+00  0.45593999997E+02  0.45594000000E+02  0.51100000000E-03 0.  1.
         11   -1    0    0    0    0 -0.00000000000E+00 -0.00000000000E+00 -0.45593999997E+02  0.45594000000E+02  0.51100000000E-03 0. -1.
    9900012    2    1    2    0    0 -0.30158629592E+02  0.31834837128E+02  0.10301156191E+02  0.46142316381E+02  0.99999874153E+01 0.  0.
         12    1    1    2    0    0  0.30158629592E+02 -0.31834837128E+02 -0.10301156191E+02  0.45045683619E+02  0.00000000000E+00 0. -1.
         11    1    3    3    0    0 -0.78059145927E+01  0.77555052985E+01 -0.13250762121E+01  0.11083140001E+02  0.51100000000E-03 0. -1.
        -11    1    3    3    0    0 -0.15755126937E+02  0.14322141025E+02  0.71946896569E+01  0.22474681485E+02  0.51100000000E-03 0.  1.
        -12    1    3    3    0    0 -0.65975880622E+01  0.97571908048E+01  0.44315427463E+01  0.12584494895E+02  0.00000000000E+00 0.  1.
</event>
<event>
 7    1  0.1485408E-008  0.4614232E+02  0.7816164E-02  0.1320468E+00
        -11   -1    0    0    0    0  0.00000000000E+00  0.00000000000E+00  0.45593999997E+02  0.45594000000E+02  0.51100000000E-03 0. -1.
         11   -1    0    0    0    0 -0.00000000000E+00 -0.00000000000E+00 -0.45593999997E+02  0.45594000000E+02  0.51100000000E-03 0.  1.
    9900012    2    1    2    0    0  0.37754426911E+02 -0.15604606607E+01 -0.24521049215E+02  0.46142316039E+02  0.99999842996E+01 0.  0.
         12    1    1    2    0    0 -0.37754426911E+02  0.15604606607E+01  0.24521049215E+02  0.45045683961E+02  0.00000000000E+00 0. -1.
         11    1    3    3    0    0  0.87272096574E+01  0.12299926119E+01 -0.45057144184E+01  0.98984106255E+01  0.51100000000E-03 0. -1.
        -11    1    3    3    0    0  0.12147770880E+02  0.46932430031E+00 -0.41363662370E+01  0.12841266626E+02  0.51100000000E-03 0.  1.
         12    1    3    3    0    0  0.16879446374E+02 -0.32597775729E+01 -0.15878968560E+02  0.23402638788E+02  0.00000000000E+00 0. -1.
</event>
<event>
 7    1  0.2323789E-008  0.4614232E+02  0.7816164E-02  0.1320468E+00
        -11   -1    0    0    0    0  0.00000000000E+00  0.00000000000E+00  0.45593999997E+02  0.45594000000E+02  0.51100000000E-03 0. -1.
         11   -1    0    0    0    0 -0.00000000000E+00 -0.00000000000E+00 -0.45593999997E+02  0.45594000000E+02  0.51100000000E-03 0.  1.
    9900012    2    1    2    0    0 -0.75040341616E+01  0.35522913528E+02 -0.26663187525E+02  0.46142317819E+02  0.10000000527E+02 0.  0.
         12    1    1    2    0    0  0.75040341616E+01 -0.35522913528E+02  0.26663187525E+02  0.45045682181E+02  0.00000000000E+00 0. -1.
         11    1    3    3    0    0  0.31559926055E+00  0.81836496961E+01 -0.22222897127E+01  0.84858881132E+01  0.51100000000E-03 0. -1.
        -11    1    3    3    0    0 -0.15336832528E+01  0.11566666440E+02 -0.99294211381E+01  0.15321010452E+02  0.51100000000E-03 0.  1.
         12    1    3    3    0    0 -0.62859501693E+01  0.15772597391E+02 -0.14511476674E+02  0.22335419254E+02  0.00000000000E+00 0. -1.
</event>
<event>
 7    1  0.1485408E-008  0.4614232E+02  0.7816164E-02  0.1320468E+00
        -11   -1    0    0    0    0  0.00000000000E+00  0.00000000000E+00  0.45593999997E+02  0.45594000000E+02  0.51100000000E-03 0. -1.
         11   -1    0    0    0    0 -0.00000000000E+00 -0.00000000000E+00 -0.45593999997E+02  0.45594000000E+02  0.51100000000E-03 0.  1.
    9900012    2    1    2    0    0  0.33827633672E+02 -0.28751367823E+02 -0.76265072062E+01  0.46142316925E+02  0.99999923741E+01 0.  0.
         12    1    1    2    0    0 -0.33827633672E+02  0.28751367823E+02  0.76265072062E+01  0.45045683075E+02  0.00000000000E+00 0. -1.
         11    1    3    3    0    0 -0.50580016691E+00 -0.62262893019E-01  0.13420108052E+00  0.52699209466E+00  0.51100000000E-03 0. -1.
        -11    1    3    3    0    0  0.26287314391E+02 -0.22903003511E+02 -0.76971354493E+01  0.35704570605E+02  0.51100000000E-03 0.  1.
        -12    1    3    3    0    0  0.80461194480E+01 -0.57861014185E+01 -0.63572837430E-01  0.99107542247E+01  0.00000000000E+00 0.  1.
</event>
<event>
 7    1  0.1485408E-008  0.4614232E+02  0.7816164E-02  0.1320468E+00
        -11   -1    0    0    0    0  0.00000000000E+00  0.00000000000E+00  0.45593999997E+02  0.45594000000E+02  0.51100000000E-03 0.  1.
         11   -1    0    0    0    0 -0.00000000000E+00 -0.00000000000E+00 -0.45593999997E+02  0.45594000000E+02  0.51100000000E-03 0. -1.
    9900012    2    1    2    0    0  0.13747120657E+02 -0.26436455810E+02  0.33782303217E+02  0.46142317267E+02  0.99999954974E+01 0.  0.
         12    1    1    2    0    0 -0.13747120657E+02  0.26436455810E+02 -0.33782303217E+02  0.45045682733E+02  0.00000000000E+00 0. -1.
         11    1    3    3    0    0  0.48854453817E+01 -0.47874813862E+01  0.90046248155E+01  0.11307998184E+02  0.51100000000E-03 0. -1.
        -11    1    3    3    0    0  0.49968334398E+01 -0.11780008244E+02  0.83331832224E+01  0.15270195858E+02  0.51100000000E-03 0.  1.
        -12    1    3    3    0    0  0.38648418359E+01 -0.98689661804E+01  0.16444495179E+02  0.19564123226E+02  0.00000000000E+00 0.  1.
</event>
<event>
 7    1  0.1485408E-008  0.4614232E+02  0.7816164E-02  0.1320468E+00
        -11   -1    0    0    0    0  0.00000000000E+00  0.00000000000E+00  0.45593999997E+02  0.45594000000E+02  0.51100000000E-03 0.  1.
         11   -1    0    0    0    0 -0.00000000000E+00 -0.00000000000E+00 -0.45593999997E+02  0.45594000000E+02  0.51100000000E-03 0. -1.
    9900012    2    1    2    0    0  0.38252448254E+01 -0.19237664585E+02  0.40551118115E+02  0.46142318552E+02  0.10000007216E+02 0.  0.
         12    1    1    2    0    0 -0.38252448254E+01  0.19237664585E+02 -0.40551118115E+02  0.45045681448E+02  0.00000000000E+00 0. -1.
         11    1    3    3    0    0  0.17949248787E+00  0.26011477565E+00  0.45710767103E+01  0.45819886296E+01  0.51100000000E-03 0. -1.
        -11    1    3    3    0    0  0.40623996636E+01 -0.19574858997E+02  0.33248696124E+02  0.38796314129E+02  0.51100000000E-03 0.  1.
        -12    1    3    3    0    0 -0.41664732609E+00  0.77079635890E-01  0.27313452812E+01  0.27640157940E+01  0.00000000000E+00 0.  1.
</event>
<event>
 7    1  0.1485408E-008  0.4614232E+02  0.7816164E-02  0.1320468E+00
        -11   -1    0    0    0    0  0.00000000000E+00  0.00000000000E+00  0.45593999997E+02  0.45594000000E+02  0.51100000000E-03 0.  1.
         11   -1    0    0    0    0 -0.00000000000E+00 -0.00000000000E+00 -0.45593999997E+02  0.45594000000E+02  0.51100000000E-03 0. -1.
    9900012    2    1    2    0    0 -0.29059018848E+02 -0.33283744562E+02  0.87680828120E+01  0.46142317580E+02  0.99999983454E+01 0.  0.
         12    1    1    2    0    0  0.29059018848E+02  0.33283744562E+02 -0.87680828120E+01  0.45045682420E+02  0.00000000000E+00 0. -1.
         11    1    3    3    0    0 -0.58204868969E+01 -0.81243597596E+01 -0.92033508910E+00  0.10036448882E+02  0.51100000000E-03 0. -1.
        -11    1    3    3    0    0 -0.19639887080E+02 -0.18054207936E+02  0.88032887768E+01  0.28092302900E+02  0.51100000000E-03 0.  1.
         12    1    3    3    0    0 -0.35986448714E+01 -0.71051768672E+01  0.88512912437E+00  0.80135657975E+01  0.00000000000E+00 0. -1.
</event>
<event>
 7    1  0.1485408E-008  0.4614232E+02  0.7816164E-02  0.1320468E+00
        -11   -1    0    0    0    0  0.00000000000E+00  0.00000000000E+00  0.45593999997E+02  0.45594000000E+02  0.51100000000E-03 0.  1.
         11   -1    0    0    0    0 -0.00000000000E+00 -0.00000000000E+00 -0.45593999997E+02  0.45594000000E+02  0.51100000000E-03 0. -1.
    9900012    2    1    2    0    0  0.23007499997E+02 -0.70925126615E+01  0.38071832976E+02  0.46142320317E+02  0.10000023304E+02 0.  0.
         12    1    1    2    0    0 -0.23007499997E+02  0.70925126615E+01 -0.38071832976E+02  0.45045679683E+02  0.00000000000E+00 0. -1.
         11    1    3    3    0    0  0.59112322446E+01 -0.35960148741E+01  0.18067924885E+02  0.19347452016E+02  0.51100000000E-03 0. -1.
        -11    1    3    3    0    0  0.13171624041E+02 -0.40354785603E+01  0.14359722754E+02  0.19899206138E+02  0.51100000000E-03 0.  1.
         12    1    3    3    0    0  0.39246437118E+01  0.53898077291E+00  0.56441853372E+01  0.68956621624E+01  0.00000000000E+00 0. -1.
</event>
<event>
 7    1  0.1485408E-008  0.4614232E+02  0.7816164E-02  0.1320468E+00
        -11   -1    0    0    0    0  0.00000000000E+00  0.00000000000E+00  0.45593999997E+02  0.45594000000E+02  0.51100000000E-03 0. -1.
         11   -1    0    0    0    0 -0.00000000000E+00 -0.00000000000E+00 -0.45593999997E+02  0.45594000000E+02  0.51100000000E-03 0.  1.
    9900012    2    1    2    0    0  0.28007889675E+02  0.29540979422E+02 -0.19287350894E+02  0.46142320366E+02  0.10000023749E+02 0.  0.
         12    1    1    2    0    0 -0.28007889675E+02 -0.29540979422E+02  0.19287350894E+02  0.45045679634E+02  0.00000000000E+00 0. -1.
         11    1    3    3    0    0  0.73240041178E+00  0.89598232905E+00 -0.15758336588E+01  0.19551078432E+01  0.51100000000E-03 0. -1.
        -11    1    3    3    0    0  0.25733239920E+02  0.29070725915E+02 -0.17452793325E+02  0.42566497826E+02  0.51100000000E-03 0.  1.
        -12    1    3    3    0    0  0.15422493430E+01 -0.42572882268E+00 -0.25872390965E+00  0.16207146966E+01  0.00000000000E+00 0.  1.
</event>
<event>
 7    1  0.1485408E-008  0.4614232E+02  0.7816164E-02  0.1320468E+00
        -11   -1    0    0    0    0  0.00000000000E+00  0.00000000000E+00  0.45593999997E+02  0.45594000000E+02  0.51100000000E-03 0.  1.
         11   -1    0    0    0    0 -0.00000000000E+00 -0.00000000000E+00 -0.45593999997E+02  0.45594000000E+02  0.51100000000E-03 0. -1.
    9900012    2    1    2    0    0  0.36844680194E+02 -0.24136128338E+00  0.25913795464E+02  0.46142317530E+02  0.99999978904E+01 0.  0.
         12    1    1    2    0    0 -0.36844680194E+02  0.24136128338E+00 -0.25913795464E+02  0.45045682470E+02  0.00000000000E+00 0. -1.
         11    1    3    3    0    0  0.24173346989E+02  0.25522882452E+01  0.14878298156E+02  0.28499625195E+02  0.51100000000E-03 0. -1.
        -11    1    3    3    0    0  0.75880927922E+01  0.64293439252E+00  0.65064964662E+01  0.10016337324E+02  0.51100000000E-03 0.  1.
         12    1    3    3    0    0  0.50832404124E+01 -0.34365839211E+01  0.45290008417E+01  0.76263550115E+01  0.00000000000E+00 0. -1.
</event>
<event>
 7    1  0.1485408E-008  0.4614232E+02  0.7816164E-02  0.1320468E+00
        -11   -1    0    0    0    0  0.00000000000E+00  0.00000000000E+00  0.45593999997E+02  0.45594000000E+02  0.51100000000E-03 0.  1.
         11   -1    0    0    0    0 -0.00000000000E+00 -0.00000000000E+00 -0.45593999997E+02  0.45594000000E+02  0.51100000000E-03 0. -1.
    9900012    2    1    2    0    0 -0.77513435164E+01  0.15167639068E+02  0.41700993812E+02  0.46142317786E+02  0.10000000229E+02 0.  0.
         12    1    1    2    0    0  0.77513435164E+01 -0.15167639068E+02 -0.41700993812E+02  0.45045682214E+02  0.00000000000E+00 0. -1.
         11    1    3    3    0    0  0.21440918630E+01  0.19192335155E+01  0.70519089139E+01  0.76164300558E+01  0.51100000000E-03 0. -1.
        -11    1    3    3    0    0 -0.78521593546E+01  0.10374978636E+02  0.29923196240E+02  0.32629653105E+02  0.51100000000E-03 0.  1.
        -12    1    3    3    0    0 -0.20432760248E+01  0.28734269165E+01  0.47258886574E+01  0.58962346256E+01  0.00000000000E+00 0.  1.
</event>
<event>
 7    1  0.1485408E-008  0.4614232E+02  0.7816164E-02  0.1320468E+00
        -11   -1    0    0    0    0  0.00000000000E+00  0.00000000000E+00  0.45593999997E+02  0.45594000000E+02  0.51100000000E-03 0. -1.
         11   -1    0    0    0    0 -0.00000000000E+00 -0.00000000000E+00 -0.45593999997E+02  0.45594000000E+02  0.51100000000E-03 0.  1.
    9900012    2    1    2    0    0  0.42579666922E+02 -0.14682448843E+02 -0.71489691863E+00  0.46142318555E+02  0.10000007242E+02 0.  0.
         12    1    1    2    0    0 -0.42579666922E+02  0.14682448843E+02  0.71489691863E+00  0.45045681445E+02  0.00000000000E+00 0. -1.
         11    1    3    3    0    0  0.18391620509E+02 -0.34272163457E+01  0.36238883696E+01  0.19055972398E+02  0.51100000000E-03 0. -1.
        -11    1    3    3    0    0  0.16225689124E+02 -0.71680925462E+01 -0.36473492929E+01  0.18109602299E+02  0.51100000000E-03 0.  1.
        -12    1    3    3    0    0  0.79623572881E+01 -0.40871399511E+01 -0.69143599532E+00  0.89767438584E+01  0.00000000000E+00 0.  1.
</event>
<event>
 7    1  0.1485408E-008  0.4614232E+02  0.7816164E-02  0.1320468E+00
        -11   -1    0    0    0    0  0.00000000000E+00  0.00000000000E+00  0.45593999997E+02  0.45594000000E+02  0.51100000000E-03 0.  1.
         11   -1    0    0    0    0 -0.00000000000E+00 -0.00000000000E+00 -0.45593999997E+02  0.45594000000E+02  0.51100000000E-03 0. -1.
    9900012    2    1    2    0    0  0.34418719499E+02 -0.28691720366E+02 -0.46098189506E+01  0.46142317629E+02  0.99999987970E+01 0.  0.
         12    1    1    2    0    0 -0.34418719499E+02  0.28691720366E+02  0.46098189506E+01  0.45045682371E+02  0.00000000000E+00 0. -1.
         11    1    3    3    0    0  0.21703043354E+02 -0.15332208240E+02 -0.66038410277E+00  0.26580722484E+02  0.51100000000E-03 0. -1.
        -11    1    3    3    0    0  0.12750478275E+02 -0.11665850165E+02 -0.27824879793E+01  0.17504542152E+02  0.51100000000E-03 0.  1.
         12    1    3    3    0    0 -0.34802130248E-01 -0.16936619604E+01 -0.11669468685E+01  0.20570529936E+01  0.00000000000E+00 0. -1.
</event>
<event>
 7    1  0.1485408E-008  0.4614232E+02  0.7816164E-02  0.1320468E+00
        -11   -1    0    0    0    0  0.00000000000E+00  0.00000000000E+00  0.45593999997E+02  0.45594000000E+02  0.51100000000E-03 0.  1.
         11   -1    0    0    0    0 -0.00000000000E+00 -0.00000000000E+00 -0.45593999997E+02  0.45594000000E+02  0.51100000000E-03 0. -1.
    9900012    2    1    2    0    0 -0.38882135036E+02  0.16858309355E+02  0.15267291988E+02  0.46142320696E+02  0.10000026763E+02 0.  0.
         12    1    1    2    0    0  0.38882135036E+02 -0.16858309355E+02 -0.15267291988E+02  0.45045679304E+02  0.00000000000E+00 0. -1.
         11    1    3    3    0    0 -0.25501086696E+02  0.12938632925E+02  0.10245655881E+02  0.30375765165E+02  0.51100000000E-03 0.  1.
        -11    1    3    3    0    0 -0.11146350994E+02  0.38607100160E+01  0.61052064815E+01  0.13282310369E+02  0.51100000000E-03 0. -1.
         12    1    3    3    0    0 -0.22346973462E+01  0.58966414120E-01 -0.10835703743E+01  0.24842451617E+01  0.00000000000E+00 0. -1.
</event>
<event>
 7    1  0.1485408E-008  0.4614232E+02  0.7816164E-02  0.1320468E+00
        -11   -1    0    0    0    0  0.00000000000E+00  0.00000000000E+00  0.45593999997E+02  0.45594000000E+02  0.51100000000E-03 0.  1.
         11   -1    0    0    0    0 -0.00000000000E+00 -0.00000000000E+00 -0.45593999997E+02  0.45594000000E+02  0.51100000000E-03 0. -1.
    9900012    2    1    2    0    0  0.40265268367E+02  0.19797517715E+02  0.39849615819E+01  0.46142318041E+02  0.10000002554E+02 0.  0.
         12    1    1    2    0    0 -0.40265268367E+02 -0.19797517715E+02 -0.39849615819E+01  0.45045681959E+02  0.00000000000E+00 0. -1.
         11    1    3    3    0    0  0.13171978984E+02  0.38385548684E+01  0.24650547297E+01  0.13939584962E+02  0.51100000000E-03 0. -1.
        -11    1    3    3    0    0  0.27400211347E+02  0.15542079983E+02  0.10740834438E+01  0.31519541360E+02  0.51100000000E-03 0.  1.
         12    1    3    3    0    0 -0.30692196385E+00  0.41688286321E+00  0.44582340850E+00  0.68319171913E+00  0.00000000000E+00 0. -1.
</event>
<event>
 7    1  0.1485408E-008  0.4614232E+02  0.7816164E-02  0.1320468E+00
        -11   -1    0    0    0    0  0.00000000000E+00  0.00000000000E+00  0.45593999997E+02  0.45594000000E+02  0.51100000000E-03 0. -1.
         11   -1    0    0    0    0 -0.00000000000E+00 -0.00000000000E+00 -0.45593999997E+02  0.45594000000E+02  0.51100000000E-03 0.  1.
    9900012    2    1    2    0    0 -0.32760492143E+01 -0.33076540311E+02 -0.30402687529E+02  0.46142318449E+02  0.10000006276E+02 0.  0.
         12    1    1    2    0    0  0.32760492143E+01  0.33076540311E+02  0.30402687529E+02  0.45045681551E+02  0.00000000000E+00 0. -1.
         11    1    3    3    0    0 -0.63860244803E+00 -0.96314078043E+01 -0.58414242294E+01  0.11282467224E+02  0.51100000000E-03 0.  1.
        -11    1    3    3    0    0  0.15006216243E+01 -0.16135050886E+02 -0.17846821397E+02  0.24106031747E+02  0.51100000000E-03 0. -1.
         12    1    3    3    0    0 -0.41380683906E+01 -0.73100816205E+01 -0.67144419027E+01  0.10753819478E+02  0.00000000000E+00 0. -1.
</event>
<event>
 7    1  0.1485408E-008  0.4614232E+02  0.7816164E-02  0.1320468E+00
        -11   -1    0    0    0    0  0.00000000000E+00  0.00000000000E+00  0.45593999997E+02  0.45594000000E+02  0.51100000000E-03 0.  1.
         11   -1    0    0    0    0 -0.00000000000E+00 -0.00000000000E+00 -0.45593999997E+02  0.45594000000E+02  0.51100000000E-03 0. -1.
    9900012    2    1    2    0    0  0.22911149182E+02 -0.20936720363E+02  0.32647303867E+02  0.46142318007E+02  0.10000002243E+02 0.  0.
         12    1    1    2    0    0 -0.22911149182E+02  0.20936720363E+02 -0.32647303867E+02  0.45045681993E+02  0.00000000000E+00 0. -1.
         11    1    3    3    0    0  0.15945278920E+01 -0.13035998049E+01 -0.11930287463E+00  0.20630378297E+01  0.51100000000E-03 0. -1.
        -11    1    3    3    0    0  0.45238100030E+01 -0.64629897514E+01  0.11542697736E+02  0.13981021592E+02  0.51100000000E-03 0.  1.
        -12    1    3    3    0    0  0.16792811287E+02 -0.13170130807E+02  0.21223909006E+02  0.30098258586E+02  0.00000000000E+00 0.  1.
</event>
<event>
 7    1  0.1485408E-008  0.4614232E+02  0.7816164E-02  0.1320468E+00
        -11   -1    0    0    0    0  0.00000000000E+00  0.00000000000E+00  0.45593999997E+02  0.45594000000E+02  0.51100000000E-03 0. -1.
         11   -1    0    0    0    0 -0.00000000000E+00 -0.00000000000E+00 -0.45593999997E+02  0.45594000000E+02  0.51100000000E-03 0.  1.
    9900012    2    1    2    0    0 -0.71862168924E+01 -0.43046828764E+02 -0.11155367568E+02  0.46142318682E+02  0.10000008396E+02 0.  0.
         12    1    1    2    0    0  0.71862168924E+01  0.43046828764E+02  0.11155367568E+02  0.45045681318E+02  0.00000000000E+00 0. -1.
         11    1    3    3    0    0 -0.42777842126E+00 -0.77583655676E+01 -0.82386937254E+00  0.78137053734E+01  0.51100000000E-03 0. -1.
        -11    1    3    3    0    0 -0.42004284227E+01 -0.29209429951E+02 -0.11422937745E+02  0.31643607633E+02  0.51100000000E-03 0.  1.
        -12    1    3    3    0    0 -0.25580100485E+01 -0.60790332446E+01  0.10914395492E+01  0.66850056759E+01  0.00000000000E+00 0.  1.
</event>
<event>
 7    1  0.1485408E-008  0.4614232E+02  0.7816164E-02  0.1320468E+00
        -11   -1    0    0    0    0  0.00000000000E+00  0.00000000000E+00  0.45593999997E+02  0.45594000000E+02  0.51100000000E-03 0.  1.
         11   -1    0    0    0    0 -0.00000000000E+00 -0.00000000000E+00 -0.45593999997E+02  0.45594000000E+02  0.51100000000E-03 0. -1.
    9900012    2    1    2    0    0 -0.26810240174E+02  0.34909028466E+01  0.36029681990E+02  0.46142319129E+02  0.10000012470E+02 0.  0.
         12    1    1    2    0    0  0.26810240174E+02 -0.34909028466E+01 -0.36029681990E+02  0.45045680871E+02  0.00000000000E+00 0. -1.
         11    1    3    3    0    0 -0.13581956002E+02 -0.20740021817E+01  0.19575920501E+02  0.23916263872E+02  0.51100000000E-03 0.  1.
        -11    1    3    3    0    0 -0.22015119650E-01  0.39338386191E+00 -0.12041399282E+00  0.41198946478E+00  0.51100000000E-03 0. -1.
         12    1    3    3    0    0 -0.13206269052E+02  0.51715211664E+01  0.16574175482E+02  0.21814065792E+02  0.00000000000E+00 0. -1.
</event>
<event>
 7    1  0.1485408E-008  0.4614232E+02  0.7816164E-02  0.1320468E+00
        -11   -1    0    0    0    0  0.00000000000E+00  0.00000000000E+00  0.45593999997E+02  0.45594000000E+02  0.51100000000E-03 0.  1.
         11   -1    0    0    0    0 -0.00000000000E+00 -0.00000000000E+00 -0.45593999997E+02  0.45594000000E+02  0.51100000000E-03 0. -1.
    9900012    2    1    2    0    0 -0.16293705542E+02 -0.39746968606E+02  0.13557549837E+02  0.46142317507E+02  0.99999976845E+01 0.  0.
         12    1    1    2    0    0  0.16293705542E+02  0.39746968606E+02 -0.13557549837E+02  0.45045682493E+02  0.00000000000E+00 0. -1.
         11    1    3    3    0    0  0.11873505160E+01 -0.37931743770E+01  0.53645555512E+00  0.40107054150E+01  0.51100000000E-03 0. -1.
        -11    1    3    3    0    0 -0.12099248356E+02 -0.24463858034E+02  0.10183218107E+02  0.29130226432E+02  0.51100000000E-03 0.  1.
         12    1    3    3    0    0 -0.53818077019E+01 -0.11489936195E+02  0.28378761747E+01  0.13001385660E+02  0.00000000000E+00 0. -1.
</event>
<event>
 7    1  0.1485408E-008  0.4614232E+02  0.7816164E-02  0.1320468E+00
        -11   -1    0    0    0    0  0.00000000000E+00  0.00000000000E+00  0.45593999997E+02  0.45594000000E+02  0.51100000000E-03 0. -1.
         11   -1    0    0    0    0 -0.00000000000E+00 -0.00000000000E+00 -0.45593999997E+02  0.45594000000E+02  0.51100000000E-03 0.  1.
    9900012    2    1    2    0    0  0.44010760950E+02 -0.62016481591E+01 -0.73284453833E+01  0.46142316178E+02  0.99999855636E+01 0.  0.
         12    1    1    2    0    0 -0.44010760950E+02  0.62016481591E+01  0.73284453833E+01  0.45045683822E+02  0.00000000000E+00 0. -1.
         11    1    3    3    0    0  0.80940457449E+01 -0.27588901824E+01  0.54442968714E+00  0.85686320673E+01  0.51100000000E-03 0. -1.
        -11    1    3    3    0    0  0.34294976640E+02 -0.44954064600E+01 -0.64783373545E+01  0.35189813258E+02  0.51100000000E-03 0.  1.
         12    1    3    3    0    0  0.16217385646E+01  0.10526484833E+01 -0.13945377159E+01  0.23838708527E+01  0.00000000000E+00 0. -1.
</event>
<event>
 7    1  0.1485408E-008  0.4614232E+02  0.7816164E-02  0.1320468E+00
        -11   -1    0    0    0    0  0.00000000000E+00  0.00000000000E+00  0.45593999997E+02  0.45594000000E+02  0.51100000000E-03 0.  1.
         11   -1    0    0    0    0 -0.00000000000E+00 -0.00000000000E+00 -0.45593999997E+02  0.45594000000E+02  0.51100000000E-03 0. -1.
    9900012    2    1    2    0    0  0.20988830848E+02  0.31241949072E+01  0.39734394099E+02  0.46142315539E+02  0.99999797347E+01 0.  0.
         12    1    1    2    0    0 -0.20988830848E+02 -0.31241949072E+01 -0.39734394099E+02  0.45045684461E+02  0.00000000000E+00 0. -1.
         11    1    3    3    0    0  0.58588589708E+01 -0.21670930766E+01  0.71143582296E+01  0.94676614918E+01  0.51100000000E-03 0. -1.
        -11    1    3    3    0    0  0.11506556916E+02  0.22946198597E+01  0.19747113145E+02  0.22969863086E+02  0.51100000000E-03 0.  1.
         12    1    3    3    0    0  0.36234149615E+01  0.29966681242E+01  0.12872922724E+02  0.13704790961E+02  0.00000000000E+00 0. -1.
</event>
<event>
 7    1  0.1485408E-008  0.4614232E+02  0.7816164E-02  0.1320468E+00
        -11   -1    0    0    0    0  0.00000000000E+00  0.00000000000E+00  0.45593999997E+02  0.45594000000E+02  0.51100000000E-03 0. -1.
         11   -1    0    0    0    0 -0.00000000000E+00 -0.00000000000E+00 -0.45593999997E+02  0.45594000000E+02  0.51100000000E-03 0.  1.
    9900012    2    1    2    0    0 -0.36101646442E+01 -0.43346533389E+02 -0.11711464712E+02  0.46142315953E+02  0.99999835099E+01 0.  0.
         12    1    1    2    0    0  0.36101646442E+01  0.43346533389E+02  0.11711464712E+02  0.45045684047E+02  0.00000000000E+00 0. -1.
         11    1    3    3    0    0 -0.13170206476E+01 -0.16378710878E+01 -0.10662225311E+01  0.23566917137E+01  0.51100000000E-03 0. -1.
        -11    1    3    3    0    0 -0.55607610123E+00 -0.97246612667E+01  0.79465075706E+00  0.97729078308E+01  0.51100000000E-03 0.  1.
        -12    1    3    3    0    0 -0.17370678953E+01 -0.31984001034E+02 -0.11439892938E+02  0.34012716408E+02  0.00000000000E+00 0.  1.
</event>
<event>
 7    1  0.1485408E-008  0.4614232E+02  0.7816164E-02  0.1320468E+00
        -11   -1    0    0    0    0  0.00000000000E+00  0.00000000000E+00  0.45593999997E+02  0.45594000000E+02  0.51100000000E-03 0. -1.
         11   -1    0    0    0    0 -0.00000000000E+00 -0.00000000000E+00 -0.45593999997E+02  0.45594000000E+02  0.51100000000E-03 0.  1.
    9900012    2    1    2    0    0 -0.12744447719E+02  0.19796777143E+02 -0.38402866021E+02  0.46142318170E+02  0.10000003728E+02 0.  0.
         12    1    1    2    0    0  0.12744447719E+02 -0.19796777143E+02  0.38402866021E+02  0.45045681830E+02  0.00000000000E+00 0. -1.
         11    1    3    3    0    0 -0.26360546182E+00  0.24677400786E+01 -0.24564492341E+01  0.34919009201E+01  0.51100000000E-03 0. -1.
        -11    1    3    3    0    0 -0.10544640370E+02  0.14501051132E+02 -0.22478807186E+02  0.28753551037E+02  0.51100000000E-03 0.  1.
        -12    1    3    3    0    0 -0.19362018878E+01  0.28279859324E+01 -0.13467609601E+02  0.13896866213E+02  0.00000000000E+00 0.  1.
</event>
<event>
 7    1  0.1485408E-008  0.4614232E+02  0.7816164E-02  0.1320468E+00
        -11   -1    0    0    0    0  0.00000000000E+00  0.00000000000E+00  0.45593999997E+02  0.45594000000E+02  0.51100000000E-03 0. -1.
         11   -1    0    0    0    0 -0.00000000000E+00 -0.00000000000E+00 -0.45593999997E+02  0.45594000000E+02  0.51100000000E-03 0.  1.
    9900012    2    1    2    0    0  0.25857393168E+02  0.28554860104E+02 -0.23347989298E+02  0.46142318505E+02  0.10000006788E+02 0.  0.
         12    1    1    2    0    0 -0.25857393168E+02 -0.28554860104E+02  0.23347989298E+02  0.45045681495E+02  0.00000000000E+00 0. -1.
         11    1    3    3    0    0  0.92715499155E+00  0.20583702050E+00 -0.13635487883E+01  0.16617011815E+01  0.51100000000E-03 0. -1.
        -11    1    3    3    0    0  0.16543742759E+02  0.13388028670E+02 -0.14590816025E+02  0.25803616969E+02  0.51100000000E-03 0.  1.
        -12    1    3    3    0    0  0.83864954179E+01  0.14960994413E+02 -0.73936244847E+01  0.18677000355E+02  0.00000000000E+00 0.  1.
</event>
<event>
 7    1  0.1485408E-008  0.4614232E+02  0.7816164E-02  0.1320468E+00
        -11   -1    0    0    0    0  0.00000000000E+00  0.00000000000E+00  0.45593999997E+02  0.45594000000E+02  0.51100000000E-03 0. -1.
         11   -1    0    0    0    0 -0.00000000000E+00 -0.00000000000E+00 -0.45593999997E+02  0.45594000000E+02  0.51100000000E-03 0.  1.
    9900012    2    1    2    0    0  0.12941186552E+02 -0.26771578478E+02 -0.33836695390E+02  0.46142315651E+02  0.99999807546E+01 0.  0.
         12    1    1    2    0    0 -0.12941186552E+02  0.26771578478E+02  0.33836695390E+02  0.45045684349E+02  0.00000000000E+00 0. -1.
         11    1    3    3    0    0  0.14296846461E+01 -0.10918234292E+01 -0.28236407243E+00  0.18209355612E+01  0.51100000000E-03 0. -1.
        -11    1    3    3    0    0  0.11749669873E+02 -0.19865843075E+02 -0.25637798106E+02  0.34496422354E+02  0.51100000000E-03 0.  1.
        -12    1    3    3    0    0 -0.23816796689E+00 -0.58139119735E+01 -0.79165332118E+01  0.98249577357E+01  0.00000000000E+00 0.  1.
</event>
<event>
 7    1  0.1485408E-008  0.4614232E+02  0.7816164E-02  0.1320468E+00
        -11   -1    0    0    0    0  0.00000000000E+00  0.00000000000E+00  0.45593999997E+02  0.45594000000E+02  0.51100000000E-03 0.  1.
         11   -1    0    0    0    0 -0.00000000000E+00 -0.00000000000E+00 -0.45593999997E+02  0.45594000000E+02  0.51100000000E-03 0. -1.
    9900012    2    1    2    0    0  0.32708577875E+01  0.10550655299E+02  0.43670340201E+02  0.46142318174E+02  0.10000003763E+02 0.  0.
         12    1    1    2    0    0 -0.32708577875E+01 -0.10550655299E+02 -0.43670340201E+02  0.45045681826E+02  0.00000000000E+00 0. -1.
         11    1    3    3    0    0  0.13490991903E+01  0.40880563629E+00  0.18450159006E+00  0.14217003100E+01  0.51100000000E-03 0. -1.
        -11    1    3    3    0    0  0.19879310458E+01  0.86295346454E+01  0.35143538455E+02  0.36242089253E+02  0.51100000000E-03 0.  1.
         12    1    3    3    0    0 -0.66172448577E-01  0.15123150170E+01  0.83423001561E+01  0.84785286104E+01  0.00000000000E+00 0. -1.
</event>
<event>
 7    1  0.1485408E-008  0.4614233E+02  0.7816164E-02  0.1320468E+00
        -11   -1    0    0    0    0  0.00000000000E+00  0.00000000000E+00  0.45593999997E+02  0.45594000000E+02  0.51100000000E-03 0.  1.
         11   -1    0    0    0    0 -0.00000000000E+00 -0.00000000000E+00 -0.45593999997E+02  0.45594000000E+02  0.51100000000E-03 0. -1.
    9900012    2    1    2    0    0 -0.91253820669E+00  0.43499340723E+02  0.11665617955E+02  0.46142334154E+02  0.10000149478E+02 0.  0.
         12    1    1    2    0    0  0.91253820669E+00 -0.43499340723E+02 -0.11665617955E+02  0.45045665846E+02  0.00000000000E+00 0. -1.
         11    1    3    3    0    0 -0.17831382786E-02  0.16668060811E+02  0.15961213585E+01  0.16744308228E+02  0.51100000000E-03 0. -1.
        -11    1    3    3    0    0  0.16527704591E+01  0.20352885243E+02  0.58034959839E+01  0.21228569283E+02  0.51100000000E-03 0.  1.
         12    1    3    3    0    0 -0.25635255275E+01  0.64783946687E+01  0.42660006123E+01  0.81694566427E+01  0.00000000000E+00 0. -1.
</event>
<event>
 7    1  0.1485408E-008  0.4614232E+02  0.7816164E-02  0.1320468E+00
        -11   -1    0    0    0    0  0.00000000000E+00  0.00000000000E+00  0.45593999997E+02  0.45594000000E+02  0.51100000000E-03 0.  1.
         11   -1    0    0    0    0 -0.00000000000E+00 -0.00000000000E+00 -0.45593999997E+02  0.45594000000E+02  0.51100000000E-03 0. -1.
    9900012    2    1    2    0    0 -0.36305132102E+02 -0.26662430503E+02  0.40685287689E+00  0.46142319335E+02  0.10000014356E+02 0.  0.
         12    1    1    2    0    0  0.36305132102E+02  0.26662430503E+02 -0.40685287689E+00  0.45045680665E+02  0.00000000000E+00 0. -1.
         11    1    3    3    0    0 -0.72276571352E+01 -0.55443142915E+01  0.31746075832E+01  0.96465839651E+01  0.51100000000E-03 0. -1.
        -11    1    3    3    0    0 -0.25991681269E+02 -0.20430018976E+02 -0.15135636643E+01  0.33094471529E+02  0.51100000000E-03 0.  1.
        -12    1    3    3    0    0 -0.30857936976E+01 -0.68809723563E+00 -0.12541910420E+01  0.34012638415E+01  0.00000000000E+00 0.  1.
</event>
<event>
 7    1  0.1485408E-008  0.4614232E+02  0.7816164E-02  0.1320468E+00
        -11   -1    0    0    0    0  0.00000000000E+00  0.00000000000E+00  0.45593999997E+02  0.45594000000E+02  0.51100000000E-03 0.  1.
         11   -1    0    0    0    0 -0.00000000000E+00 -0.00000000000E+00 -0.45593999997E+02  0.45594000000E+02  0.51100000000E-03 0. -1.
    9900012    2    1    2    0    0  0.38696688983E+02  0.10069278209E+02  0.20743417246E+02  0.46142318065E+02  0.10000002774E+02 0.  0.
         12    1    1    2    0    0 -0.38696688983E+02 -0.10069278209E+02 -0.20743417246E+02  0.45045681935E+02  0.00000000000E+00 0. -1.
         11    1    3    3    0    0  0.84917871199E+01  0.80681709540E+00  0.21096005349E+01  0.87870254918E+01  0.51100000000E-03 0. -1.
        -11    1    3    3    0    0  0.11588565841E+02  0.30558005298E+01  0.32421552751E+01  0.12415488158E+02  0.51100000000E-03 0.  1.
        -12    1    3    3    0    0  0.18616336023E+02  0.62066605843E+01  0.15391661436E+02  0.24939804415E+02  0.00000000000E+00 0.  1.
</event>
<event>
 7    1  0.1485408E-008  0.4614232E+02  0.7816164E-02  0.1320468E+00
        -11   -1    0    0    0    0  0.00000000000E+00  0.00000000000E+00  0.45593999997E+02  0.45594000000E+02  0.51100000000E-03 0.  1.
         11   -1    0    0    0    0 -0.00000000000E+00 -0.00000000000E+00 -0.45593999997E+02  0.45594000000E+02  0.51100000000E-03 0. -1.
    9900012    2    1    2    0    0 -0.29206464198E+02 -0.25783311519E+02  0.22612313155E+02  0.46142318631E+02  0.10000007929E+02 0.  0.
         12    1    1    2    0    0  0.29206464198E+02  0.25783311519E+02 -0.22612313155E+02  0.45045681369E+02  0.00000000000E+00 0. -1.
         11    1    3    3    0    0 -0.22386257931E+00 -0.32361026843E+00 -0.48814075664E+00  0.62699259937E+00  0.51100000000E-03 0. -1.
        -11    1    3    3    0    0 -0.24781565719E+02 -0.21436026058E+02  0.22320056038E+02  0.39646110963E+02  0.51100000000E-03 0.  1.
        -12    1    3    3    0    0 -0.42010358994E+01 -0.40236751918E+01  0.78039787342E+00  0.58692150683E+01  0.00000000000E+00 0.  1.
</event>
<event>
 7    1  0.1485408E-008  0.4614232E+02  0.7816164E-02  0.1320468E+00
        -11   -1    0    0    0    0  0.00000000000E+00  0.00000000000E+00  0.45593999997E+02  0.45594000000E+02  0.51100000000E-03 0.  1.
         11   -1    0    0    0    0 -0.00000000000E+00 -0.00000000000E+00 -0.45593999997E+02  0.45594000000E+02  0.51100000000E-03 0. -1.
    9900012    2    1    2    0    0 -0.13921769535E+02 -0.81692667701E+01  0.42054262204E+02  0.46142317010E+02  0.99999931482E+01 0.  0.
         12    1    1    2    0    0  0.13921769535E+02  0.81692667701E+01 -0.42054262204E+02  0.45045682990E+02  0.00000000000E+00 0. -1.
         11    1    3    3    0    0 -0.63988371847E-01 -0.27404094750E+01  0.49411926423E+01  0.56506038254E+01  0.51100000000E-03 0. -1.
        -11    1    3    3    0    0 -0.45772733119E+01  0.11180795945E+01  0.87245893849E+01  0.99156438595E+01  0.51100000000E-03 0.  1.
        -12    1    3    3    0    0 -0.92805078517E+01 -0.65469368896E+01  0.28388480177E+02  0.30576069325E+02  0.00000000000E+00 0.  1.
</event>
<event>
 7    1  0.1485408E-008  0.4614232E+02  0.7816164E-02  0.1320468E+00
        -11   -1    0    0    0    0  0.00000000000E+00  0.00000000000E+00  0.45593999997E+02  0.45594000000E+02  0.51100000000E-03 0.  1.
         11   -1    0    0    0    0 -0.00000000000E+00 -0.00000000000E+00 -0.45593999997E+02  0.45594000000E+02  0.51100000000E-03 0. -1.
    9900012    2    1    2    0    0  0.26904428177E+02 -0.18669975556E+02  0.30930522850E+02  0.46142317781E+02  0.10000000177E+02 0.  0.
         12    1    1    2    0    0 -0.26904428177E+02  0.18669975556E+02 -0.30930522850E+02  0.45045682219E+02  0.00000000000E+00 0. -1.
         11    1    3    3    0    0  0.12267574912E+02 -0.12662641481E+02  0.13523506579E+02  0.22219836047E+02  0.51100000000E-03 0. -1.
        -11    1    3    3    0    0  0.47279340699E+01 -0.42124112456E+01  0.63738867309E+01  0.89846647901E+01  0.51100000000E-03 0.  1.
         12    1    3    3    0    0  0.99089191958E+01 -0.17949228300E+01  0.11033129540E+02  0.14937816944E+02  0.00000000000E+00 0. -1.
</event>
<event>
 7    1  0.1485408E-008  0.4614232E+02  0.7816164E-02  0.1320468E+00
        -11   -1    0    0    0    0  0.00000000000E+00  0.00000000000E+00  0.45593999997E+02  0.45594000000E+02  0.51100000000E-03 0.  1.
         11   -1    0    0    0    0 -0.00000000000E+00 -0.00000000000E+00 -0.45593999997E+02  0.45594000000E+02  0.51100000000E-03 0. -1.
    9900012    2    1    2    0    0 -0.15179302856E+02  0.28805531288E+02 -0.31127862012E+02  0.46142315840E+02  0.99999824807E+01 0.  0.
         12    1    1    2    0    0  0.15179302856E+02 -0.28805531288E+02  0.31127862012E+02  0.45045684160E+02  0.00000000000E+00 0. -1.
         11    1    3    3    0    0 -0.70648212330E+00  0.20296049477E+01 -0.39505116410E+01  0.44972164414E+01  0.51100000000E-03 0. -1.
        -11    1    3    3    0    0 -0.86826976254E+01  0.14618255564E+02 -0.20441616032E+02  0.26588386563E+02  0.51100000000E-03 0.  1.
        -12    1    3    3    0    0 -0.57901231070E+01  0.12157670776E+02 -0.67357343396E+01  0.15056712835E+02  0.00000000000E+00 0.  1.
</event>
<event>
 7    1  0.1485408E-008  0.4614232E+02  0.7816164E-02  0.1320468E+00
        -11   -1    0    0    0    0  0.00000000000E+00  0.00000000000E+00  0.45593999997E+02  0.45594000000E+02  0.51100000000E-03 0. -1.
         11   -1    0    0    0    0 -0.00000000000E+00 -0.00000000000E+00 -0.45593999997E+02  0.45594000000E+02  0.51100000000E-03 0.  1.
    9900012    2    1    2    0    0  0.41810465539E+02 -0.15543463136E+02  0.62768928922E+01  0.46142315865E+02  0.99999827110E+01 0.  0.
         12    1    1    2    0    0 -0.41810465539E+02  0.15543463136E+02 -0.62768928922E+01  0.45045684135E+02  0.00000000000E+00 0. -1.
         11    1    3    3    0    0  0.24733728754E+02 -0.79100262293E+01 -0.10255471196E+01  0.25988028016E+02  0.51100000000E-03 0. -1.
        -11    1    3    3    0    0  0.59303982789E+01 -0.29932377562E+01  0.17780162632E+01  0.68768043526E+01  0.51100000000E-03 0.  1.
         12    1    3    3    0    0  0.11146338506E+02 -0.46401991501E+01  0.55244237486E+01  0.13277483496E+02  0.00000000000E+00 0. -1.
</event>
<event>
 7    1  0.1485408E-008  0.4614232E+02  0.7816164E-02  0.1320468E+00
        -11   -1    0    0    0    0  0.00000000000E+00  0.00000000000E+00  0.45593999997E+02  0.45594000000E+02  0.51100000000E-03 0. -1.
         11   -1    0    0    0    0 -0.00000000000E+00 -0.00000000000E+00 -0.45593999997E+02  0.45594000000E+02  0.51100000000E-03 0.  1.
    9900012    2    1    2    0    0  0.30759297815E+02  0.11399531096E+02 -0.30871178165E+02  0.46142319268E+02  0.10000013738E+02 0.  0.
         12    1    1    2    0    0 -0.30759297815E+02 -0.11399531096E+02  0.30871178165E+02  0.45045680732E+02  0.00000000000E+00 0. -1.
         11    1    3    3    0    0  0.99445730930E+01  0.48910924970E+01 -0.92916815647E+01  0.14462111408E+02  0.51100000000E-03 0. -1.
        -11    1    3    3    0    0  0.94263732509E+01  0.69907326206E+01 -0.12081994122E+02  0.16843439003E+02  0.51100000000E-03 0.  1.
        -12    1    3    3    0    0  0.11388351472E+02 -0.48229402118E+00 -0.94975024792E+01  0.14836768857E+02  0.00000000000E+00 0.  1.
</event>
<event>
 7    1  0.1485408E-008  0.4614232E+02  0.7816164E-02  0.1320468E+00
        -11   -1    0    0    0    0  0.00000000000E+00  0.00000000000E+00  0.45593999997E+02  0.45594000000E+02  0.51100000000E-03 0. -1.
         11   -1    0    0    0    0 -0.00000000000E+00 -0.00000000000E+00 -0.45593999997E+02  0.45594000000E+02  0.51100000000E-03 0.  1.
    9900012    2    1    2    0    0 -0.32824761305E+02 -0.25296063992E+02  0.17656660765E+02  0.46142317881E+02  0.10000001094E+02 0.  0.
         12    1    1    2    0    0  0.32824761305E+02  0.25296063992E+02 -0.17656660765E+02  0.45045682119E+02  0.00000000000E+00 0. -1.
         11    1    3    3    0    0 -0.22179107174E+02 -0.17196701531E+02  0.83320403828E+01  0.29275625284E+02  0.51100000000E-03 0. -1.
        -11    1    3    3    0    0 -0.64685759295E+01 -0.31526974618E+01  0.29387584718E+01  0.77729194938E+01  0.51100000000E-03 0.  1.
         12    1    3    3    0    0 -0.41770782017E+01 -0.49466649988E+01  0.63858619105E+01  0.90937731032E+01  0.00000000000E+00 0. -1.
</event>
<event>
 7    1  0.1485408E-008  0.4614232E+02  0.7816164E-02  0.1320468E+00
        -11   -1    0    0    0    0  0.00000000000E+00  0.00000000000E+00  0.45593999997E+02  0.45594000000E+02  0.51100000000E-03 0.  1.
         11   -1    0    0    0    0 -0.00000000000E+00 -0.00000000000E+00 -0.45593999997E+02  0.45594000000E+02  0.51100000000E-03 0. -1.
    9900012    2    1    2    0    0  0.36097513870E+02 -0.25847568297E+02 -0.76148652263E+01  0.46142318000E+02  0.10000002178E+02 0.  0.
         12    1    1    2    0    0 -0.36097513870E+02  0.25847568297E+02  0.76148652263E+01  0.45045682000E+02  0.00000000000E+00 0. -1.
         11    1    3    3    0    0  0.20859341701E+01 -0.33004787793E+01  0.79129507995E+00  0.39837707890E+01  0.51100000000E-03 0. -1.
        -11    1    3    3    0    0  0.12415963094E+01  0.18194761865E+00 -0.98001713457E+00  0.15921997917E+01  0.51100000000E-03 0.  1.
        -12    1    3    3    0    0  0.32769983390E+02 -0.22729037136E+02 -0.74261431717E+01  0.40566347419E+02  0.00000000000E+00 0.  1.
</event>
<event>
 7    1  0.1485408E-008  0.4614232E+02  0.7816164E-02  0.1320468E+00
        -11   -1    0    0    0    0  0.00000000000E+00  0.00000000000E+00  0.45593999997E+02  0.45594000000E+02  0.51100000000E-03 0.  1.
         11   -1    0    0    0    0 -0.00000000000E+00 -0.00000000000E+00 -0.45593999997E+02  0.45594000000E+02  0.51100000000E-03 0. -1.
    9900012    2    1    2    0    0 -0.84975512897E+01 -0.37491016096E+02  0.23480393743E+02  0.46142317009E+02  0.99999931392E+01 0.  0.
         12    1    1    2    0    0  0.84975512897E+01  0.37491016096E+02 -0.23480393743E+02  0.45045682991E+02  0.00000000000E+00 0. -1.
         11    1    3    3    0    0 -0.40086393844E+01 -0.12286855848E+02  0.48929633131E+01  0.13819446682E+02  0.51100000000E-03 0. -1.
        -11    1    3    3    0    0 -0.27024868440E+01 -0.23699116032E+02  0.15480773495E+02  0.28435996275E+02  0.51100000000E-03 0.  1.
        -12    1    3    3    0    0 -0.17864250612E+01 -0.15050442155E+01  0.31066569343E+01  0.38868740522E+01  0.00000000000E+00 0.  1.
</event>
<event>
 7    1  0.1485408E-008  0.4614232E+02  0.7816164E-02  0.1320468E+00
        -11   -1    0    0    0    0  0.00000000000E+00  0.00000000000E+00  0.45593999997E+02  0.45594000000E+02  0.51100000000E-03 0.  1.
         11   -1    0    0    0    0 -0.00000000000E+00 -0.00000000000E+00 -0.45593999997E+02  0.45594000000E+02  0.51100000000E-03 0. -1.
    9900012    2    1    2    0    0 -0.17246049106E+02  0.15373326813E+02  0.38669731190E+02  0.46142317662E+02  0.99999990924E+01 0.  0.
         12    1    1    2    0    0  0.17246049106E+02 -0.15373326813E+02 -0.38669731190E+02  0.45045682338E+02  0.00000000000E+00 0. -1.
         11    1    3    3    0    0 -0.42648687000E+01  0.36455280862E+00  0.10202108351E+02  0.11063680167E+02  0.51100000000E-03 0.  1.
        -11    1    3    3    0    0 -0.82224280650E+01  0.10496577575E+02  0.14808435302E+02  0.19926771450E+02  0.51100000000E-03 0. -1.
        -12    1    3    3    0    0 -0.47587523408E+01  0.45121964297E+01  0.13659187537E+02  0.15151866044E+02  0.00000000000E+00 0.  1.
</event>
<event>
 7    1  0.1485408E-008  0.4614232E+02  0.7816164E-02  0.1320468E+00
        -11   -1    0    0    0    0  0.00000000000E+00  0.00000000000E+00  0.45593999997E+02  0.45594000000E+02  0.51100000000E-03 0. -1.
         11   -1    0    0    0    0 -0.00000000000E+00 -0.00000000000E+00 -0.45593999997E+02  0.45594000000E+02  0.51100000000E-03 0.  1.
    9900012    2    1    2    0    0 -0.41593522054E+02  0.98055534526E+01 -0.14245823437E+02  0.46142318289E+02  0.10000004815E+02 0.  0.
         12    1    1    2    0    0  0.41593522054E+02 -0.98055534526E+01  0.14245823437E+02  0.45045681711E+02  0.00000000000E+00 0. -1.
         11    1    3    3    0    0 -0.93740540546E+01 -0.13358326554E+01 -0.51237683370E+01  0.10766166473E+02  0.51100000000E-03 0. -1.
        -11    1    3    3    0    0 -0.17486960486E+02  0.71174010198E+01 -0.57505058186E+01  0.19736248421E+02  0.51100000000E-03 0.  1.
         12    1    3    3    0    0 -0.14732507513E+02  0.40239850882E+01 -0.33715492817E+01  0.15639903394E+02  0.00000000000E+00 0. -1.
</event>
<event>
 7    1  0.1485408E-008  0.4614232E+02  0.7816164E-02  0.1320468E+00
        -11   -1    0    0    0    0  0.00000000000E+00  0.00000000000E+00  0.45593999997E+02  0.45594000000E+02  0.51100000000E-03 0.  1.
         11   -1    0    0    0    0 -0.00000000000E+00 -0.00000000000E+00 -0.45593999997E+02  0.45594000000E+02  0.51100000000E-03 0. -1.
    9900012    2    1    2    0    0  0.39877321408E+02 -0.17985380760E+02  0.10744221183E+02  0.46142323486E+02  0.10000052205E+02 0.  0.
         12    1    1    2    0    0 -0.39877321408E+02  0.17985380760E+02 -0.10744221183E+02  0.45045676514E+02  0.00000000000E+00 0. -1.
         11    1    3    3    0    0 -0.37386470675E-01  0.47960144910E+00 -0.68339006416E-01  0.48588659077E+00  0.51100000000E-03 0. -1.
        -11    1    3    3    0    0  0.39802195415E+02 -0.18731192772E+02  0.10489178955E+02  0.45222728997E+02  0.51100000000E-03 0.  1.
        -12    1    3    3    0    0  0.11251246396E+00  0.26621056309E+00  0.32338123434E+00  0.43370789844E+00  0.00000000000E+00 0.  1.
</event>
<event>
 7    1  0.1485408E-008  0.4614232E+02  0.7816164E-02  0.1320468E+00
        -11   -1    0    0    0    0  0.00000000000E+00  0.00000000000E+00  0.45593999997E+02  0.45594000000E+02  0.51100000000E-03 0. -1.
         11   -1    0    0    0    0 -0.00000000000E+00 -0.00000000000E+00 -0.45593999997E+02  0.45594000000E+02  0.51100000000E-03 0.  1.
    9900012    2    1    2    0    0 -0.28815302924E+02  0.32750456793E+02 -0.11233848440E+02  0.46142318148E+02  0.10000003525E+02 0.  0.
         12    1    1    2    0    0  0.28815302924E+02 -0.32750456793E+02  0.11233848440E+02  0.45045681852E+02  0.00000000000E+00 0. -1.
         11    1    3    3    0    0 -0.20641458697E+00  0.96568441520E+00  0.51687358691E+00  0.11145904797E+01  0.51100000000E-03 0. -1.
        -11    1    3    3    0    0 -0.21539662011E+02  0.20068141842E+02 -0.53542516379E+01  0.29922489325E+02  0.51100000000E-03 0.  1.
        -12    1    3    3    0    0 -0.70692263267E+01  0.11716630536E+02 -0.63964703889E+01  0.15105238343E+02  0.00000000000E+00 0.  1.
</event>
<event>
 7    1  0.1485408E-008  0.4614232E+02  0.7816164E-02  0.1320468E+00
        -11   -1    0    0    0    0  0.00000000000E+00  0.00000000000E+00  0.45593999997E+02  0.45594000000E+02  0.51100000000E-03 0.  1.
         11   -1    0    0    0    0 -0.00000000000E+00 -0.00000000000E+00 -0.45593999997E+02  0.45594000000E+02  0.51100000000E-03 0. -1.
    9900012    2    1    2    0    0 -0.83082214325E+01 -0.63858488338E+01  0.43809906390E+02  0.46142317558E+02  0.99999981506E+01 0.  0.
         12    1    1    2    0    0  0.83082214325E+01  0.63858488338E+01 -0.43809906390E+02  0.45045682442E+02  0.00000000000E+00 0. -1.
         11    1    3    3    0    0 -0.11392539814E+01  0.19363235594E+01  0.89479021355E+01  0.92256274284E+01  0.51100000000E-03 0. -1.
        -11    1    3    3    0    0 -0.69137310531E+01 -0.69973452435E+01  0.23512236241E+02  0.25487011807E+02  0.51100000000E-03 0.  1.
         12    1    3    3    0    0 -0.25523639801E+00 -0.13248271497E+01  0.11349768014E+02  0.11429678323E+02  0.00000000000E+00 0. -1.
</event>
<event>
 7    1  0.1485408E-008  0.4614232E+02  0.7816164E-02  0.1320468E+00
        -11   -1    0    0    0    0  0.00000000000E+00  0.00000000000E+00  0.45593999997E+02  0.45594000000E+02  0.51100000000E-03 0.  1.
         11   -1    0    0    0    0 -0.00000000000E+00 -0.00000000000E+00 -0.45593999997E+02  0.45594000000E+02  0.51100000000E-03 0. -1.
    9900012    2    1    2    0    0  0.63466470706E+01  0.32371697744E+02  0.30674201669E+02  0.46142318832E+02  0.10000009766E+02 0.  0.
         12    1    1    2    0    0 -0.63466470706E+01 -0.32371697744E+02 -0.30674201669E+02  0.45045681168E+02  0.00000000000E+00 0. -1.
         11    1    3    3    0    0  0.13116224293E+01  0.23166477037E+00  0.29992586100E+01  0.32817029776E+01  0.51100000000E-03 0. -1.
        -11    1    3    3    0    0  0.25557143695E+01  0.20081738380E+02  0.15033552061E+02  0.25215383799E+02  0.51100000000E-03 0.  1.
         12    1    3    3    0    0  0.24793102718E+01  0.12058294594E+02  0.12641390998E+02  0.17645232055E+02  0.00000000000E+00 0. -1.
</event>
<event>
 7    1  0.1485408E-008  0.4614232E+02  0.7816164E-02  0.1320468E+00
        -11   -1    0    0    0    0  0.00000000000E+00  0.00000000000E+00  0.45593999997E+02  0.45594000000E+02  0.51100000000E-03 0. -1.
         11   -1    0    0    0    0 -0.00000000000E+00 -0.00000000000E+00 -0.45593999997E+02  0.45594000000E+02  0.51100000000E-03 0.  1.
    9900012    2    1    2    0    0  0.14792781404E+02  0.37445503722E+02 -0.20202006477E+02  0.46142321003E+02  0.10000029559E+02 0.  0.
         12    1    1    2    0    0 -0.14792781404E+02 -0.37445503722E+02  0.20202006477E+02  0.45045678997E+02  0.00000000000E+00 0. -1.
         11    1    3    3    0    0  0.50410821269E+01  0.16624353804E+02 -0.11925465651E+02  0.21071269057E+02  0.51100000000E-03 0. -1.
        -11    1    3    3    0    0  0.96126446294E+01  0.19758017427E+02 -0.63587838735E+01  0.22873922314E+02  0.51100000000E-03 0.  1.
         12    1    3    3    0    0  0.13905464747E+00  0.10631324902E+01 -0.19177569531E+01  0.21971296316E+01  0.00000000000E+00 0. -1.
</event>
<event>
 7    1  0.1485408E-008  0.4614232E+02  0.7816164E-02  0.1320468E+00
        -11   -1    0    0    0    0  0.00000000000E+00  0.00000000000E+00  0.45593999997E+02  0.45594000000E+02  0.51100000000E-03 0.  1.
         11   -1    0    0    0    0 -0.00000000000E+00 -0.00000000000E+00 -0.45593999997E+02  0.45594000000E+02  0.51100000000E-03 0. -1.
    9900012    2    1    2    0    0  0.32535317785E+02 -0.95335570037E+01  0.29659362171E+02  0.46142318999E+02  0.10000011284E+02 0.  0.
         12    1    1    2    0    0 -0.32535317785E+02  0.95335570037E+01 -0.29659362171E+02  0.45045681001E+02  0.00000000000E+00 0. -1.
         11    1    3    3    0    0  0.47124741092E+00 -0.11344996255E+01  0.32014605154E+00  0.12695106451E+01  0.51100000000E-03 0. -1.
        -11    1    3    3    0    0  0.21393935129E+01 -0.26738662815E+01  0.21949730096E+01  0.40674896765E+01  0.51100000000E-03 0.  1.
        -12    1    3    3    0    0  0.29924676861E+02 -0.57251910968E+01  0.27144243110E+02  0.40805318677E+02  0.00000000000E+00 0.  1.
</event>
<event>
 7    1  0.1485408E-008  0.4614232E+02  0.7816164E-02  0.1320468E+00
        -11   -1    0    0    0    0  0.00000000000E+00  0.00000000000E+00  0.45593999997E+02  0.45594000000E+02  0.51100000000E-03 0.  1.
         11   -1    0    0    0    0 -0.00000000000E+00 -0.00000000000E+00 -0.45593999997E+02  0.45594000000E+02  0.51100000000E-03 0. -1.
    9900012    2    1    2    0    0  0.40158408594E+02 -0.13935396003E+02 -0.14907058403E+02  0.46142318378E+02  0.10000005624E+02 0.  0.
         12    1    1    2    0    0 -0.40158408594E+02  0.13935396003E+02  0.14907058403E+02  0.45045681622E+02  0.00000000000E+00 0. -1.
         11    1    3    3    0    0  0.15947798918E+02 -0.16746467538E+01 -0.82889239276E+01  0.18051121633E+02  0.51100000000E-03 0. -1.
        -11    1    3    3    0    0  0.20317116101E+02 -0.94989412225E+01 -0.45300386974E+01  0.22880916543E+02  0.51100000000E-03 0.  1.
         12    1    3    3    0    0  0.38934935752E+01 -0.27618080268E+01 -0.20880957780E+01  0.52102802013E+01  0.00000000000E+00 0. -1.
</event>
<event>
 7    1  0.1485408E-008  0.4614232E+02  0.7816164E-02  0.1320468E+00
        -11   -1    0    0    0    0  0.00000000000E+00  0.00000000000E+00  0.45593999997E+02  0.45594000000E+02  0.51100000000E-03 0.  1.
         11   -1    0    0    0    0 -0.00000000000E+00 -0.00000000000E+00 -0.45593999997E+02  0.45594000000E+02  0.51100000000E-03 0. -1.
    9900012    2    1    2    0    0  0.37683114695E+02 -0.11351024638E+02  0.21914622452E+02  0.46142316848E+02  0.99999916714E+01 0.  0.
         12    1    1    2    0    0 -0.37683114695E+02  0.11351024638E+02 -0.21914622452E+02  0.45045683152E+02  0.00000000000E+00 0. -1.
         11    1    3    3    0    0  0.20123408099E+02 -0.65271788355E+01  0.10454313339E+02  0.23597633032E+02  0.51100000000E-03 0. -1.
        -11    1    3    3    0    0  0.16673910361E+02 -0.57678747443E+01  0.11775881343E+02  0.21212238153E+02  0.51100000000E-03 0.  1.
         12    1    3    3    0    0  0.88579623541E+00  0.94402894162E+00 -0.31557222974E+00  0.13324456632E+01  0.00000000000E+00 0. -1.
</event>
<event>
 7    1  0.1485408E-008  0.4614232E+02  0.7816164E-02  0.1320468E+00
        -11   -1    0    0    0    0  0.00000000000E+00  0.00000000000E+00  0.45593999997E+02  0.45594000000E+02  0.51100000000E-03 0. -1.
         11   -1    0    0    0    0 -0.00000000000E+00 -0.00000000000E+00 -0.45593999997E+02  0.45594000000E+02  0.51100000000E-03 0.  1.
    9900012    2    1    2    0    0 -0.16968816082E+02  0.39246118128E+02 -0.14174449798E+02  0.46142317250E+02  0.99999953431E+01 0.  0.
         12    1    1    2    0    0  0.16968816082E+02 -0.39246118128E+02  0.14174449798E+02  0.45045682750E+02  0.00000000000E+00 0. -1.
         11    1    3    3    0    0 -0.37167312006E+01  0.15024333547E+02 -0.19294940360E+01  0.15597039361E+02  0.51100000000E-03 0. -1.
        -11    1    3    3    0    0 -0.92934635212E+01  0.16582352818E+02 -0.10667622989E+02  0.21797730838E+02  0.51100000000E-03 0.  1.
        -12    1    3    3    0    0 -0.39586213599E+01  0.76394317632E+01 -0.15773327727E+01  0.87475470511E+01  0.00000000000E+00 0.  1.
</event>
<event>
 7    1  0.1485408E-008  0.4614232E+02  0.7816164E-02  0.1320468E+00
        -11   -1    0    0    0    0  0.00000000000E+00  0.00000000000E+00  0.45593999997E+02  0.45594000000E+02  0.51100000000E-03 0.  1.
         11   -1    0    0    0    0 -0.00000000000E+00 -0.00000000000E+00 -0.45593999997E+02  0.45594000000E+02  0.51100000000E-03 0. -1.
    9900012    2    1    2    0    0 -0.15062564923E+02  0.29452248440E+02  0.30574462870E+02  0.46142316744E+02  0.99999907228E+01 0.  0.
         12    1    1    2    0    0  0.15062564923E+02 -0.29452248440E+02 -0.30574462870E+02  0.45045683256E+02  0.00000000000E+00 0. -1.
         11    1    3    3    0    0 -0.82400717939E+00  0.24747543341E+00  0.64125973588E+00  0.10730546267E+01  0.51100000000E-03 0. -1.
        -11    1    3    3    0    0 -0.43613850697E+01  0.15824256266E+02  0.19269832402E+02  0.25313142973E+02  0.51100000000E-03 0.  1.
        -12    1    3    3    0    0 -0.98771726738E+01  0.13380516740E+02  0.10663370733E+02  0.19756119144E+02  0.00000000000E+00 0.  1.
</event>
<event>
 7    1  0.1485408E-008  0.4614232E+02  0.7816164E-02  0.1320468E+00
        -11   -1    0    0    0    0  0.00000000000E+00  0.00000000000E+00  0.45593999997E+02  0.45594000000E+02  0.51100000000E-03 0.  1.
         11   -1    0    0    0    0 -0.00000000000E+00 -0.00000000000E+00 -0.45593999997E+02  0.45594000000E+02  0.51100000000E-03 0. -1.
    9900012    2    1    2    0    0 -0.33254671567E+02 -0.17723232684E+02  0.24680506257E+02  0.46142317112E+02  0.99999940767E+01 0.  0.
         12    1    1    2    0    0  0.33254671567E+02  0.17723232684E+02 -0.24680506257E+02  0.45045682888E+02  0.00000000000E+00 0. -1.
         11    1    3    3    0    0 -0.23931148318E+01  0.10390437359E+01  0.58609396877E+00  0.26739702475E+01  0.51100000000E-03 0. -1.
        -11    1    3    3    0    0 -0.30620201642E+02 -0.18654107474E+02  0.24103674350E+02  0.43203698820E+02  0.51100000000E-03 0.  1.
        -12    1    3    3    0    0 -0.24135509247E+00 -0.10816894590E+00 -0.92620617594E-02  0.26464804421E+00  0.00000000000E+00 0.  1.
</event>
<event>
 7    1  0.1485408E-008  0.4614232E+02  0.7816164E-02  0.1320468E+00
        -11   -1    0    0    0    0  0.00000000000E+00  0.00000000000E+00  0.45593999997E+02  0.45594000000E+02  0.51100000000E-03 0. -1.
         11   -1    0    0    0    0 -0.00000000000E+00 -0.00000000000E+00 -0.45593999997E+02  0.45594000000E+02  0.51100000000E-03 0.  1.
    9900012    2    1    2    0    0 -0.14730774647E+02  0.12420616710E+02 -0.40716656116E+02  0.46142317339E+02  0.99999961516E+01 0.  0.
         12    1    1    2    0    0  0.14730774647E+02 -0.12420616710E+02  0.40716656116E+02  0.45045682661E+02  0.00000000000E+00 0. -1.
         11    1    3    3    0    0 -0.83703080628E+00  0.38535329533E+01 -0.11694844404E+02  0.12341787661E+02  0.51100000000E-03 0. -1.
        -11    1    3    3    0    0 -0.34281318262E+01 -0.38417034354E+00 -0.44233876632E+01  0.56094592743E+01  0.51100000000E-03 0.  1.
         12    1    3    3    0    0 -0.10465612014E+02  0.89512541003E+01 -0.24598424049E+02  0.28191070403E+02  0.00000000000E+00 0. -1.
</event>
<event>
 7    1  0.1485408E-008  0.4614232E+02  0.7816164E-02  0.1320468E+00
        -11   -1    0    0    0    0  0.00000000000E+00  0.00000000000E+00  0.45593999997E+02  0.45594000000E+02  0.51100000000E-03 0.  1.
         11   -1    0    0    0    0 -0.00000000000E+00 -0.00000000000E+00 -0.45593999997E+02  0.45594000000E+02  0.51100000000E-03 0. -1.
    9900012    2    1    2    0    0 -0.39292252878E+02  0.16949715114E+02  0.14069102991E+02  0.46142316104E+02  0.99999848894E+01 0.  0.
         12    1    1    2    0    0  0.39292252878E+02 -0.16949715114E+02 -0.14069102991E+02  0.45045683896E+02  0.00000000000E+00 0. -1.
         11    1    3    3    0    0 -0.20341813419E+02  0.36225801489E+01  0.75763671798E+01  0.22007130663E+02  0.51100000000E-03 0. -1.
        -11    1    3    3    0    0 -0.43961164124E+01  0.33841783137E+01  0.75828709613E+00  0.55994197871E+01  0.51100000000E-03 0.  1.
         12    1    3    3    0    0 -0.14554323047E+02  0.99429566513E+01  0.57344487150E+01  0.18535765654E+02  0.00000000000E+00 0. -1.
</event>
<event>
 7    1  0.1485408E-008  0.4614232E+02  0.7816164E-02  0.1320468E+00
        -11   -1    0    0    0    0  0.00000000000E+00  0.00000000000E+00  0.45593999997E+02  0.45594000000E+02  0.51100000000E-03 0.  1.
         11   -1    0    0    0    0 -0.00000000000E+00 -0.00000000000E+00 -0.45593999997E+02  0.45594000000E+02  0.51100000000E-03 0. -1.
    9900012    2    1    2    0    0 -0.16655606528E+02  0.28161026174E+02  0.30962249625E+02  0.46142317345E+02  0.99999962059E+01 0.  0.
         12    1    1    2    0    0  0.16655606528E+02 -0.28161026174E+02 -0.30962249625E+02  0.45045682655E+02  0.00000000000E+00 0. -1.
         11    1    3    3    0    0 -0.31557739790E+01  0.11453619455E+02  0.14102480107E+02  0.18439746567E+02  0.51100000000E-03 0. -1.
        -11    1    3    3    0    0 -0.80436522453E+01  0.10959680260E+02  0.13286870634E+02  0.19009362545E+02  0.51100000000E-03 0.  1.
         12    1    3    3    0    0 -0.54561803041E+01  0.57477264584E+01  0.35728988849E+01  0.86932082336E+01  0.00000000000E+00 0. -1.
</event>
<event>
 7    1  0.1485408E-008  0.4614232E+02  0.7816164E-02  0.1320468E+00
        -11   -1    0    0    0    0  0.00000000000E+00  0.00000000000E+00  0.45593999997E+02  0.45594000000E+02  0.51100000000E-03 0.  1.
         11   -1    0    0    0    0 -0.00000000000E+00 -0.00000000000E+00 -0.45593999997E+02  0.45594000000E+02  0.51100000000E-03 0. -1.
    9900012    2    1    2    0    0 -0.16091396767E+02  0.21603603703E+01  0.42018011692E+02  0.46142317483E+02  0.99999974681E+01 0.  0.
         12    1    1    2    0    0  0.16091396767E+02 -0.21603603703E+01 -0.42018011692E+02  0.45045682517E+02  0.00000000000E+00 0. -1.
         11    1    3    3    0    0 -0.73578704629E+00  0.10563839648E+01  0.80095937955E+01  0.81123931542E+01  0.51100000000E-03 0. -1.
        -11    1    3    3    0    0 -0.13574266548E+02  0.75007170406E+00  0.21832340913E+02  0.25719145201E+02  0.51100000000E-03 0.  1.
        -12    1    3    3    0    0 -0.17813431732E+01  0.35390470146E+00  0.12176076983E+02  0.12310779128E+02  0.00000000000E+00 0.  1.
</event>
<event>
 7    1  0.1485408E-008  0.4614232E+02  0.7816164E-02  0.1320468E+00
        -11   -1    0    0    0    0  0.00000000000E+00  0.00000000000E+00  0.45593999997E+02  0.45594000000E+02  0.51100000000E-03 0. -1.
         11   -1    0    0    0    0 -0.00000000000E+00 -0.00000000000E+00 -0.45593999997E+02  0.45594000000E+02  0.51100000000E-03 0.  1.
    9900012    2    1    2    0    0  0.83413581625E+01 -0.38694568117E+02 -0.21500365467E+02  0.46142316822E+02  0.99999914373E+01 0.  0.
         12    1    1    2    0    0 -0.83413581625E+01  0.38694568117E+02  0.21500365467E+02  0.45045683178E+02  0.00000000000E+00 0. -1.
         11    1    3    3    0    0  0.20439267885E+01 -0.39177321355E+01 -0.70516981355E+00  0.44747655279E+01  0.51100000000E-03 0. -1.
        -11    1    3    3    0    0 -0.13885979017E+01 -0.11745171515E+02 -0.67570076147E+01  0.13621101652E+02  0.51100000000E-03 0.  1.
        -12    1    3    3    0    0  0.76860292757E+01 -0.23031664467E+02 -0.14038188039E+02  0.28046449642E+02  0.00000000000E+00 0.  1.
</event>
<event>
 7    1  0.1485408E-008  0.4614232E+02  0.7816164E-02  0.1320468E+00
        -11   -1    0    0    0    0  0.00000000000E+00  0.00000000000E+00  0.45593999997E+02  0.45594000000E+02  0.51100000000E-03 0. -1.
         11   -1    0    0    0    0 -0.00000000000E+00 -0.00000000000E+00 -0.45593999997E+02  0.45594000000E+02  0.51100000000E-03 0.  1.
    9900012    2    1    2    0    0  0.37896879436E+02  0.32061846325E+01 -0.24138358623E+02  0.46142318210E+02  0.10000004095E+02 0.  0.
         12    1    1    2    0    0 -0.37896879436E+02 -0.32061846325E+01  0.24138358623E+02  0.45045681790E+02  0.00000000000E+00 0. -1.
         11    1    3    3    0    0  0.94966057925E+01 -0.50828862651E+00 -0.10407053987E+02  0.14097895299E+02  0.51100000000E-03 0. -1.
        -11    1    3    3    0    0  0.25293778647E+02  0.45291629812E+01 -0.12756003513E+02  0.28688049454E+02  0.51100000000E-03 0.  1.
         12    1    3    3    0    0  0.31064949966E+01 -0.81468972224E+00 -0.97530112219E+00  0.33563734575E+01  0.00000000000E+00 0. -1.
</event>
<event>
 7    1  0.1485408E-008  0.4614232E+02  0.7816164E-02  0.1320468E+00
        -11   -1    0    0    0    0  0.00000000000E+00  0.00000000000E+00  0.45593999997E+02  0.45594000000E+02  0.51100000000E-03 0.  1.
         11   -1    0    0    0    0 -0.00000000000E+00 -0.00000000000E+00 -0.45593999997E+02  0.45594000000E+02  0.51100000000E-03 0. -1.
    9900012    2    1    2    0    0  0.92416395688E+01  0.34710773841E+02  0.27182122058E+02  0.46142317830E+02  0.10000000628E+02 0.  0.
         12    1    1    2    0    0 -0.92416395688E+01 -0.34710773841E+02 -0.27182122058E+02  0.45045682170E+02  0.00000000000E+00 0. -1.
         11    1    3    3    0    0  0.13670590798E+00  0.65020921846E+01  0.15481895149E+01  0.66852660618E+01  0.51100000000E-03 0. -1.
        -11    1    3    3    0    0  0.71441072106E+01  0.15316788316E+02  0.15646691700E+02  0.23031744041E+02  0.51100000000E-03 0.  1.
        -12    1    3    3    0    0  0.19608264502E+01  0.12891893340E+02  0.99872408437E+01  0.16425307727E+02  0.00000000000E+00 0.  1.
</event>
<event>
 7    1  0.1485408E-008  0.4614232E+02  0.7816164E-02  0.1320468E+00
        -11   -1    0    0    0    0  0.00000000000E+00  0.00000000000E+00  0.45593999997E+02  0.45594000000E+02  0.51100000000E-03 0.  1.
         11   -1    0    0    0    0 -0.00000000000E+00 -0.00000000000E+00 -0.45593999997E+02  0.45594000000E+02  0.51100000000E-03 0. -1.
    9900012    2    1    2    0    0 -0.40643195749E+02  0.18286238450E+02 -0.65465660761E+01  0.46142318689E+02  0.10000008465E+02 0.  0.
         12    1    1    2    0    0  0.40643195749E+02 -0.18286238450E+02  0.65465660761E+01  0.45045681311E+02  0.00000000000E+00 0. -1.
         11    1    3    3    0    0 -0.28249610900E+02  0.16915314778E+02 -0.55771229962E+01  0.33395698693E+02  0.51100000000E-03 0. -1.
        -11    1    3    3    0    0 -0.12304364575E+02  0.15861250331E+01 -0.11391983817E+01  0.12458368811E+02  0.51100000000E-03 0.  1.
         12    1    3    3    0    0 -0.89220273670E-01 -0.21520136119E+00  0.16975530179E+00  0.28825118487E+00  0.00000000000E+00 0. -1.
</event>
<event>
 7    1  0.1485408E-008  0.4614232E+02  0.7816164E-02  0.1320468E+00
        -11   -1    0    0    0    0  0.00000000000E+00  0.00000000000E+00  0.45593999997E+02  0.45594000000E+02  0.51100000000E-03 0. -1.
         11   -1    0    0    0    0 -0.00000000000E+00 -0.00000000000E+00 -0.45593999997E+02  0.45594000000E+02  0.51100000000E-03 0.  1.
    9900012    2    1    2    0    0 -0.78349667151E+00 -0.44839644756E+02 -0.42315472009E+01  0.46142316515E+02  0.99999886408E+01 0.  0.
         12    1    1    2    0    0  0.78349667151E+00  0.44839644756E+02  0.42315472009E+01  0.45045683485E+02  0.00000000000E+00 0. -1.
         11    1    3    3    0    0 -0.13405374184E+01 -0.22115622879E+02  0.18396687416E+01  0.22232458191E+02  0.51100000000E-03 0. -1.
        -11    1    3    3    0    0 -0.52726587913E+00 -0.16008307749E+02 -0.24496866960E+01  0.16203237067E+02  0.51100000000E-03 0.  1.
         12    1    3    3    0    0  0.10843066260E+01 -0.67157141286E+01 -0.36215292466E+01  0.77066212571E+01  0.00000000000E+00 0. -1.
</event>
<event>
 7    1  0.1485408E-008  0.4614232E+02  0.7816164E-02  0.1320468E+00
        -11   -1    0    0    0    0  0.00000000000E+00  0.00000000000E+00  0.45593999997E+02  0.45594000000E+02  0.51100000000E-03 0.  1.
         11   -1    0    0    0    0 -0.00000000000E+00 -0.00000000000E+00 -0.45593999997E+02  0.45594000000E+02  0.51100000000E-03 0. -1.
    9900012    2    1    2    0    0  0.27431928208E+02  0.21657279822E+02  0.28417687008E+02  0.46142318860E+02  0.10000010019E+02 0.  0.
         12    1    1    2    0    0 -0.27431928208E+02 -0.21657279822E+02 -0.28417687008E+02  0.45045681140E+02  0.00000000000E+00 0. -1.
         11    1    3    3    0    0  0.65569717126E+01  0.80697325421E+01  0.50521215774E+01  0.11560207353E+02  0.51100000000E-03 0. -1.
        -11    1    3    3    0    0  0.19148055594E+02  0.10529654820E+02  0.21257758282E+02  0.30486291199E+02  0.51100000000E-03 0.  1.
        -12    1    3    3    0    0  0.17269009020E+01  0.30578924599E+01  0.21078071492E+01  0.40958203085E+01  0.00000000000E+00 0.  1.
</event>
<event>
 7    1  0.1485408E-008  0.4614232E+02  0.7816164E-02  0.1320468E+00
        -11   -1    0    0    0    0  0.00000000000E+00  0.00000000000E+00  0.45593999997E+02  0.45594000000E+02  0.51100000000E-03 0.  1.
         11   -1    0    0    0    0 -0.00000000000E+00 -0.00000000000E+00 -0.45593999997E+02  0.45594000000E+02  0.51100000000E-03 0. -1.
    9900012    2    1    2    0    0 -0.42918530489E+02  0.10184488684E+02  0.91317779359E+01  0.46142318327E+02  0.10000005165E+02 0.  0.
         12    1    1    2    0    0  0.42918530489E+02 -0.10184488684E+02 -0.91317779359E+01  0.45045681673E+02  0.00000000000E+00 0. -1.
         11    1    3    3    0    0 -0.11489885289E+01  0.18417664276E+01 -0.26576664343E+00  0.21869865988E+01  0.51100000000E-03 0. -1.
        -11    1    3    3    0    0 -0.10152517503E+02 -0.29056805949E+00  0.18683567195E+01  0.10327090517E+02  0.51100000000E-03 0.  1.
         12    1    3    3    0    0 -0.31617024457E+02  0.86332903163E+01  0.75291878597E+01  0.33628241212E+02  0.00000000000E+00 0. -1.
</event>
<event>
 7    1  0.1485408E-008  0.4614232E+02  0.7816164E-02  0.1320468E+00
        -11   -1    0    0    0    0  0.00000000000E+00  0.00000000000E+00  0.45593999997E+02  0.45594000000E+02  0.51100000000E-03 0.  1.
         11   -1    0    0    0    0 -0.00000000000E+00 -0.00000000000E+00 -0.45593999997E+02  0.45594000000E+02  0.51100000000E-03 0. -1.
    9900012    2    1    2    0    0  0.15673443573E+02 -0.17467581820E+02  0.38449189128E+02  0.46142318823E+02  0.10000009680E+02 0.  0.
         12    1    1    2    0    0 -0.15673443573E+02  0.17467581820E+02 -0.38449189128E+02  0.45045681177E+02  0.00000000000E+00 0. -1.
         11    1    3    3    0    0  0.37893130881E+00 -0.47278903028E+01  0.91060073251E+01  0.10267224811E+02  0.51100000000E-03 0. -1.
        -11    1    3    3    0    0  0.13044293793E+02 -0.12006262563E+02  0.22570057113E+02  0.28700373162E+02  0.51100000000E-03 0.  1.
         12    1    3    3    0    0  0.22502184713E+01 -0.73342895467E+00  0.67731246905E+01  0.71747208498E+01  0.00000000000E+00 0. -1.
</event>
<event>
 7    1  0.1485408E-008  0.4614232E+02  0.7816164E-02  0.1320468E+00
        -11   -1    0    0    0    0  0.00000000000E+00  0.00000000000E+00  0.45593999997E+02  0.45594000000E+02  0.51100000000E-03 0.  1.
         11   -1    0    0    0    0 -0.00000000000E+00 -0.00000000000E+00 -0.45593999997E+02  0.45594000000E+02  0.51100000000E-03 0. -1.
    9900012    2    1    2    0    0  0.38043315341E+02 -0.13459635397E+02  0.20016427972E+02  0.46142323005E+02  0.10000047819E+02 0.  0.
         12    1    1    2    0    0 -0.38043315341E+02  0.13459635397E+02 -0.20016427972E+02  0.45045676995E+02  0.00000000000E+00 0. -1.
         11    1    3    3    0    0  0.12780719560E+01 -0.13519569764E+01  0.66584098785E+00  0.19760060913E+01  0.51100000000E-03 0. -1.
        -11    1    3    3    0    0  0.10575315177E+02 -0.54352192651E+01  0.10098600518E+02  0.15600020264E+02  0.51100000000E-03 0.  1.
         12    1    3    3    0    0  0.26189928208E+02 -0.66724591553E+01  0.92519864660E+01  0.28566296650E+02  0.00000000000E+00 0. -1.
</event>
<event>
 7    1  0.1485408E-008  0.4614232E+02  0.7816164E-02  0.1320468E+00
        -11   -1    0    0    0    0  0.00000000000E+00  0.00000000000E+00  0.45593999997E+02  0.45594000000E+02  0.51100000000E-03 0. -1.
         11   -1    0    0    0    0 -0.00000000000E+00 -0.00000000000E+00 -0.45593999997E+02  0.45594000000E+02  0.51100000000E-03 0.  1.
    9900012    2    1    2    0    0 -0.12116090599E+02  0.42322780058E+02 -0.95444264957E+01  0.46142318293E+02  0.10000004855E+02 0.  0.
         12    1    1    2    0    0  0.12116090599E+02 -0.42322780058E+02  0.95444264957E+01  0.45045681707E+02  0.00000000000E+00 0. -1.
         11    1    3    3    0    0 -0.11667410065E+02  0.28236658040E+02 -0.62196140629E+01  0.31178853639E+02  0.51100000000E-03 0. -1.
        -11    1    3    3    0    0 -0.10847935893E+01  0.11201445889E+02 -0.11853670436E+01  0.11316106328E+02  0.51100000000E-03 0.  1.
         12    1    3    3    0    0  0.63611305509E+00  0.28846761300E+01 -0.21394453891E+01  0.36473583272E+01  0.00000000000E+00 0. -1.
</event>
<event>
 7    1  0.1485408E-008  0.4614231E+02  0.7816164E-02  0.1320468E+00
        -11   -1    0    0    0    0  0.00000000000E+00  0.00000000000E+00  0.45593999997E+02  0.45594000000E+02  0.51100000000E-03 0.  1.
         11   -1    0    0    0    0 -0.00000000000E+00 -0.00000000000E+00 -0.45593999997E+02  0.45594000000E+02  0.51100000000E-03 0. -1.
    9900012    2    1    2    0    0  0.34175925233E+02  0.29319873373E+02 -0.12103469562E+01  0.46142314525E+02  0.99999704899E+01 0.  0.
         12    1    1    2    0    0 -0.34175925233E+02 -0.29319873373E+02  0.12103469562E+01  0.45045685475E+02  0.00000000000E+00 0. -1.
         11    1    3    3    0    0  0.11647969491E+02  0.14639328283E+02 -0.58551961533E+00  0.18717049963E+02  0.51100000000E-03 0. -1.
        -11    1    3    3    0    0  0.18103682131E+02  0.10538856326E+02  0.15043980022E+01  0.21001762139E+02  0.51100000000E-03 0.  1.
         12    1    3    3    0    0  0.44242736108E+01  0.41416887646E+01 -0.21292253430E+01  0.64235024222E+01  0.00000000000E+00 0. -1.
</event>
<event>
 7    1  0.1485408E-008  0.4614232E+02  0.7816164E-02  0.1320468E+00
        -11   -1    0    0    0    0  0.00000000000E+00  0.00000000000E+00  0.45593999997E+02  0.45594000000E+02  0.51100000000E-03 0.  1.
         11   -1    0    0    0    0 -0.00000000000E+00 -0.00000000000E+00 -0.45593999997E+02  0.45594000000E+02  0.51100000000E-03 0. -1.
    9900012    2    1    2    0    0  0.37604442875E+02  0.16171348764E+02  0.18801777338E+02  0.46142317901E+02  0.10000001272E+02 0.  0.
         12    1    1    2    0    0 -0.37604442875E+02 -0.16171348764E+02 -0.18801777338E+02  0.45045682099E+02  0.00000000000E+00 0. -1.
         11    1    3    3    0    0  0.94203925033E+01  0.41460622948E+01  0.22820225068E+01  0.10542355261E+02  0.51100000000E-03 0. -1.
        -11    1    3    3    0    0  0.10758457601E+02  0.23299682222E+01  0.26880153770E+01  0.11331310110E+02  0.51100000000E-03 0.  1.
        -12    1    3    3    0    0  0.17425592770E+02  0.96953182467E+01  0.13831739454E+02  0.24268652530E+02  0.00000000000E+00 0.  1.
</event>
<event>
 7    1  0.1485408E-008  0.4614232E+02  0.7816164E-02  0.1320468E+00
        -11   -1    0    0    0    0  0.00000000000E+00  0.00000000000E+00  0.45593999997E+02  0.45594000000E+02  0.51100000000E-03 0.  1.
         11   -1    0    0    0    0 -0.00000000000E+00 -0.00000000000E+00 -0.45593999997E+02  0.45594000000E+02  0.51100000000E-03 0. -1.
    9900012    2    1    2    0    0 -0.10972355616E+02 -0.35653207455E+02  0.25250136194E+02  0.46142321323E+02  0.10000032485E+02 0.  0.
         12    1    1    2    0    0  0.10972355616E+02  0.35653207455E+02 -0.25250136194E+02  0.45045678677E+02  0.00000000000E+00 0. -1.
         11    1    3    3    0    0 -0.82869463857E+01 -0.20237002479E+02  0.10059200938E+02  0.24070672477E+02  0.51100000000E-03 0. -1.
        -11    1    3    3    0    0 -0.21789877712E+01 -0.66135525087E+01  0.48703312681E+01  0.84974814748E+01  0.51100000000E-03 0.  1.
         12    1    3    3    0    0 -0.50642145888E+00 -0.88026524681E+01  0.10320603987E+02  0.13574167372E+02  0.00000000000E+00 0. -1.
</event>
<event>
 7    1  0.1890738E-008  0.4614232E+02  0.7816164E-02  0.1320468E+00
        -11   -1    0    0    0    0  0.00000000000E+00  0.00000000000E+00  0.45593999997E+02  0.45594000000E+02  0.51100000000E-03 0. -1.
         11   -1    0    0    0    0 -0.00000000000E+00 -0.00000000000E+00 -0.45593999997E+02  0.45594000000E+02  0.51100000000E-03 0.  1.
    9900012    2    1    2    0    0  0.29171962529E+02 -0.30285909795E+02 -0.16151588511E+02  0.46142317174E+02  0.99999946423E+01 0.  0.
         12    1    1    2    0    0 -0.29171962529E+02  0.30285909795E+02  0.16151588511E+02  0.45045682826E+02  0.00000000000E+00 0. -1.
         11    1    3    3    0    0  0.61514860149E+01 -0.29916197233E+01  0.94206502172E-01  0.68410119052E+01  0.51100000000E-03 0. -1.
        -11    1    3    3    0    0  0.19468301605E+02 -0.22555092859E+02 -0.12624732369E+02  0.32359401245E+02  0.51100000000E-03 0.  1.
         12    1    3    3    0    0  0.35521749087E+01 -0.47391972122E+01 -0.36210626444E+01  0.69419040236E+01  0.00000000000E+00 0. -1.
</event>
<event>
 7    1  0.1485408E-008  0.4614232E+02  0.7816164E-02  0.1320468E+00
        -11   -1    0    0    0    0  0.00000000000E+00  0.00000000000E+00  0.45593999997E+02  0.45594000000E+02  0.51100000000E-03 0. -1.
         11   -1    0    0    0    0 -0.00000000000E+00 -0.00000000000E+00 -0.45593999997E+02  0.45594000000E+02  0.51100000000E-03 0.  1.
    9900012    2    1    2    0    0  0.24373557470E+02  0.36413999714E+01 -0.37706543170E+02  0.46142317684E+02  0.99999992989E+01 0.  0.
         12    1    1    2    0    0 -0.24373557470E+02 -0.36413999714E+01  0.37706543170E+02  0.45045682316E+02  0.00000000000E+00 0. -1.
         11    1    3    3    0    0  0.10919004408E+02 -0.67524249500E+00 -0.14559191019E+02  0.18211278184E+02  0.51100000000E-03 0.  1.
        -11    1    3    3    0    0  0.10248555410E+02  0.20943892180E+01 -0.11030242906E+02  0.15201500354E+02  0.51100000000E-03 0. -1.
        -12    1    3    3    0    0  0.32059976521E+01  0.22222532484E+01 -0.12117109244E+02  0.12729539146E+02  0.00000000000E+00 0.  1.
</event>
<event>
 7    1  0.1485408E-008  0.4614232E+02  0.7816164E-02  0.1320468E+00
        -11   -1    0    0    0    0  0.00000000000E+00  0.00000000000E+00  0.45593999997E+02  0.45594000000E+02  0.51100000000E-03 0. -1.
         11   -1    0    0    0    0 -0.00000000000E+00 -0.00000000000E+00 -0.45593999997E+02  0.45594000000E+02  0.51100000000E-03 0.  1.
    9900012    2    1    2    0    0 -0.38046946283E+02 -0.16223383125E+02 -0.17842237889E+02  0.46142315031E+02  0.99999751008E+01 0.  0.
         12    1    1    2    0    0  0.38046946283E+02  0.16223383125E+02  0.17842237889E+02  0.45045684969E+02  0.00000000000E+00 0. -1.
         11    1    3    3    0    0 -0.48438648336E+01 -0.31748000345E+01 -0.62792381883E+01  0.85423190219E+01  0.51100000000E-03 0. -1.
        -11    1    3    3    0    0 -0.20920076394E+02 -0.76351315772E+01 -0.84628662082E+01  0.23823621372E+02  0.51100000000E-03 0.  1.
         12    1    3    3    0    0 -0.12283005055E+02 -0.54134515129E+01 -0.31001334928E+01  0.13776374637E+02  0.00000000000E+00 0. -1.
</event>
<event>
 7    1  0.1485408E-008  0.4614232E+02  0.7816164E-02  0.1320468E+00
        -11   -1    0    0    0    0  0.00000000000E+00  0.00000000000E+00  0.45593999997E+02  0.45594000000E+02  0.51100000000E-03 0.  1.
         11   -1    0    0    0    0 -0.00000000000E+00 -0.00000000000E+00 -0.45593999997E+02  0.45594000000E+02  0.51100000000E-03 0. -1.
    9900012    2    1    2    0    0  0.25955239982E+02 -0.11487436288E+02  0.34978248535E+02  0.46142317126E+02  0.99999942091E+01 0.  0.
         12    1    1    2    0    0 -0.25955239982E+02  0.11487436288E+02 -0.34978248535E+02  0.45045682874E+02  0.00000000000E+00 0. -1.
         11    1    3    3    0    0  0.48214458061E+01 -0.33066448404E+01  0.30728225155E+01  0.66047315036E+01  0.51100000000E-03 0. -1.
        -11    1    3    3    0    0  0.38986783303E+01 -0.22411998157E+01  0.10493224408E+02  0.11416235285E+02  0.51100000000E-03 0.  1.
        -12    1    3    3    0    0  0.17235115845E+02 -0.59395916322E+01  0.21412201612E+02  0.28121350338E+02  0.00000000000E+00 0.  1.
</event>
<event>
 7    1  0.1485408E-008  0.4614232E+02  0.7816164E-02  0.1320468E+00
        -11   -1    0    0    0    0  0.00000000000E+00  0.00000000000E+00  0.45593999997E+02  0.45594000000E+02  0.51100000000E-03 0. -1.
         11   -1    0    0    0    0 -0.00000000000E+00 -0.00000000000E+00 -0.45593999997E+02  0.45594000000E+02  0.51100000000E-03 0.  1.
    9900012    2    1    2    0    0  0.25673473155E+02  0.34921577705E+02 -0.12266609046E+02  0.46142317513E+02  0.99999977388E+01 0.  0.
         12    1    1    2    0    0 -0.25673473155E+02 -0.34921577705E+02  0.12266609046E+02  0.45045682487E+02  0.00000000000E+00 0. -1.
         11    1    3    3    0    0  0.95809740697E+01  0.98058526898E+01 -0.58316187951E+01  0.14898241142E+02  0.51100000000E-03 0. -1.
        -11    1    3    3    0    0  0.21001926368E+00  0.42998126117E+01 -0.10288673640E+00  0.43061679633E+01  0.51100000000E-03 0.  1.
         12    1    3    3    0    0  0.15882479822E+02  0.20815912403E+02 -0.63321035144E+01  0.26937908408E+02  0.00000000000E+00 0. -1.
</event>
<event>
 7    1  0.1485408E-008  0.4614232E+02  0.7816164E-02  0.1320468E+00
        -11   -1    0    0    0    0  0.00000000000E+00  0.00000000000E+00  0.45593999997E+02  0.45594000000E+02  0.51100000000E-03 0.  1.
         11   -1    0    0    0    0 -0.00000000000E+00 -0.00000000000E+00 -0.45593999997E+02  0.45594000000E+02  0.51100000000E-03 0. -1.
    9900012    2    1    2    0    0  0.18774184035E+02  0.40845461749E+02 -0.28795212260E+01  0.46142319029E+02  0.10000011564E+02 0.  0.
         12    1    1    2    0    0 -0.18774184035E+02 -0.40845461749E+02  0.28795212260E+01  0.45045680971E+02  0.00000000000E+00 0. -1.
         11    1    3    3    0    0  0.12660997011E+02  0.27057614687E+02 -0.47589773116E+01  0.30250011953E+02  0.51100000000E-03 0.  1.
        -11    1    3    3    0    0 -0.35827469458E+00  0.15280734973E+00  0.63927760742E+00  0.74858998349E+00  0.51100000000E-03 0. -1.
         12    1    3    3    0    0  0.64714617181E+01  0.13635039712E+02  0.12401784781E+01  0.15143717093E+02  0.00000000000E+00 0. -1.
</event>
<event>
 7    1  0.1485408E-008  0.4614232E+02  0.7816164E-02  0.1320468E+00
        -11   -1    0    0    0    0  0.00000000000E+00  0.00000000000E+00  0.45593999997E+02  0.45594000000E+02  0.51100000000E-03 0. -1.
         11   -1    0    0    0    0 -0.00000000000E+00 -0.00000000000E+00 -0.45593999997E+02  0.45594000000E+02  0.51100000000E-03 0.  1.
    9900012    2    1    2    0    0 -0.20954957594E+02 -0.36897032979E+02  0.15119928865E+02  0.46142317196E+02  0.99999948431E+01 0.  0.
         12    1    1    2    0    0  0.20954957594E+02  0.36897032979E+02 -0.15119928865E+02  0.45045682804E+02  0.00000000000E+00 0. -1.
         11    1    3    3    0    0 -0.50256924307E+01 -0.81726971975E+01  0.21569861626E+00  0.95967228805E+01  0.51100000000E-03 0. -1.
        -11    1    3    3    0    0 -0.12506865314E+02 -0.25612414958E+02  0.14273511178E+02  0.31877117209E+02  0.51100000000E-03 0.  1.
        -12    1    3    3    0    0 -0.34223998497E+01 -0.31119208238E+01  0.63071907100E+00  0.46684771062E+01  0.00000000000E+00 0.  1.
</event>
<event>
 7    1  0.1485408E-008  0.4614232E+02  0.7816164E-02  0.1320468E+00
        -11   -1    0    0    0    0  0.00000000000E+00  0.00000000000E+00  0.45593999997E+02  0.45594000000E+02  0.51100000000E-03 0. -1.
         11   -1    0    0    0    0 -0.00000000000E+00 -0.00000000000E+00 -0.45593999997E+02  0.45594000000E+02  0.51100000000E-03 0.  1.
    9900012    2    1    2    0    0 -0.15539532354E+02 -0.35195943134E+02 -0.23428224796E+02  0.46142321007E+02  0.10000029596E+02 0.  0.
         12    1    1    2    0    0  0.15539532354E+02  0.35195943134E+02  0.23428224796E+02  0.45045678993E+02  0.00000000000E+00 0. -1.
         11    1    3    3    0    0 -0.27221394218E+01 -0.10183400109E+01 -0.10369481644E+01  0.30858258483E+01  0.51100000000E-03 0. -1.
        -11    1    3    3    0    0 -0.51344924350E+01 -0.16935897927E+02 -0.13097209806E+02  0.22016461026E+02  0.51100000000E-03 0.  1.
         12    1    3    3    0    0 -0.76829004974E+01 -0.17241705196E+02 -0.92940668257E+01  0.21040034132E+02  0.00000000000E+00 0. -1.
</event>
<event>
 7    1  0.1485408E-008  0.4614232E+02  0.7816164E-02  0.1320468E+00
        -11   -1    0    0    0    0  0.00000000000E+00  0.00000000000E+00  0.45593999997E+02  0.45594000000E+02  0.51100000000E-03 0. -1.
         11   -1    0    0    0    0 -0.00000000000E+00 -0.00000000000E+00 -0.45593999997E+02  0.45594000000E+02  0.51100000000E-03 0.  1.
    9900012    2    1    2    0    0 -0.43163319234E+02  0.68440288186E+01 -0.10917884758E+02  0.46142322457E+02  0.10000042821E+02 0.  0.
         12    1    1    2    0    0  0.43163319234E+02 -0.68440288186E+01  0.10917884758E+02  0.45045677543E+02  0.00000000000E+00 0. -1.
         11    1    3    3    0    0 -0.74043365797E+01 -0.23824421078E+01 -0.17720727451E+01  0.79774978946E+01  0.51100000000E-03 0. -1.
        -11    1    3    3    0    0 -0.17984275980E+02  0.39266797197E+01 -0.59342614246E+01  0.19340849388E+02  0.51100000000E-03 0.  1.
        -12    1    3    3    0    0 -0.17774706674E+02  0.52997912067E+01 -0.32115505878E+01  0.18823975174E+02  0.00000000000E+00 0.  1.
</event>
<event>
 7    1  0.1485408E-008  0.4614232E+02  0.7816164E-02  0.1320468E+00
        -11   -1    0    0    0    0  0.00000000000E+00  0.00000000000E+00  0.45593999997E+02  0.45594000000E+02  0.51100000000E-03 0. -1.
         11   -1    0    0    0    0 -0.00000000000E+00 -0.00000000000E+00 -0.45593999997E+02  0.45594000000E+02  0.51100000000E-03 0.  1.
    9900012    2    1    2    0    0 -0.29954077759E+02  0.33583605835E+02  0.20020287822E+01  0.46142317915E+02  0.10000001400E+02 0.  0.
         12    1    1    2    0    0  0.29954077759E+02 -0.33583605835E+02 -0.20020287822E+01  0.45045682085E+02  0.00000000000E+00 0. -1.
         11    1    3    3    0    0 -0.77297689236E+01  0.13690266473E+02  0.31601324569E+01  0.16036182873E+02  0.51100000000E-03 0. -1.
        -11    1    3    3    0    0 -0.21094309569E+02  0.17393752893E+02 -0.10394358777E+01  0.27360426954E+02  0.51100000000E-03 0.  1.
        -12    1    3    3    0    0 -0.11299992668E+01  0.24995864692E+01 -0.11866779705E+00  0.27457080883E+01  0.00000000000E+00 0.  1.
</event>
<event>
 7    1  0.1485408E-008  0.4614231E+02  0.7816164E-02  0.1320468E+00
        -11   -1    0    0    0    0  0.00000000000E+00  0.00000000000E+00  0.45593999997E+02  0.45594000000E+02  0.51100000000E-03 0.  1.
         11   -1    0    0    0    0 -0.00000000000E+00 -0.00000000000E+00 -0.45593999997E+02  0.45594000000E+02  0.51100000000E-03 0. -1.
    9900012    2    1    2    0    0  0.19038210498E+02 -0.13714839376E+02  0.38452102191E+02  0.46142307187E+02  0.99999035792E+01 0.  0.
         12    1    1    2    0    0 -0.19038210498E+02  0.13714839376E+02 -0.38452102191E+02  0.45045692813E+02  0.00000000000E+00 0. -1.
         11    1    3    3    0    0  0.58152368415E+01 -0.14768816282E+01  0.51080447976E+01  0.78797386239E+01  0.51100000000E-03 0.  1.
        -11    1    3    3    0    0  0.10875891939E+02 -0.10109769418E+02  0.30824277502E+02  0.34214449388E+02  0.51100000000E-03 0. -1.
         12    1    3    3    0    0  0.23470817169E+01 -0.21281883305E+01  0.25197798913E+01  0.40481191752E+01  0.00000000000E+00 0. -1.
</event>
<event>
 7    1  0.1485408E-008  0.4614232E+02  0.7816164E-02  0.1320468E+00
        -11   -1    0    0    0    0  0.00000000000E+00  0.00000000000E+00  0.45593999997E+02  0.45594000000E+02  0.51100000000E-03 0. -1.
         11   -1    0    0    0    0 -0.00000000000E+00 -0.00000000000E+00 -0.45593999997E+02  0.45594000000E+02  0.51100000000E-03 0.  1.
    9900012    2    1    2    0    0  0.24231052670E+02 -0.36521543481E+02 -0.10399347596E+02  0.46142317830E+02  0.10000000629E+02 0.  0.
         12    1    1    2    0    0 -0.24231052670E+02  0.36521543481E+02  0.10399347596E+02  0.45045682170E+02  0.00000000000E+00 0. -1.
         11    1    3    3    0    0  0.77667391767E+01 -0.14426201784E+02 -0.61283446036E+00  0.16395520781E+02  0.51100000000E-03 0. -1.
        -11    1    3    3    0    0  0.39419228969E+01 -0.93037646462E+01 -0.46550973257E+01  0.11125139284E+02  0.51100000000E-03 0.  1.
         12    1    3    3    0    0  0.12522390596E+02 -0.12791577051E+02 -0.51314158098E+01  0.18621657765E+02  0.00000000000E+00 0. -1.
</event>
<event>
 7    1  0.1485408E-008  0.4614232E+02  0.7816164E-02  0.1320468E+00
        -11   -1    0    0    0    0  0.00000000000E+00  0.00000000000E+00  0.45593999997E+02  0.45594000000E+02  0.51100000000E-03 0.  1.
         11   -1    0    0    0    0 -0.00000000000E+00 -0.00000000000E+00 -0.45593999997E+02  0.45594000000E+02  0.51100000000E-03 0. -1.
    9900012    2    1    2    0    0  0.33350572648E+02 -0.19037102651E+02  0.23546582768E+02  0.46142317262E+02  0.99999954453E+01 0.  0.
         12    1    1    2    0    0 -0.33350572648E+02  0.19037102651E+02 -0.23546582768E+02  0.45045682738E+02  0.00000000000E+00 0. -1.
         11    1    3    3    0    0  0.65288355882E+01 -0.67404489636E+01  0.57489273381E+01  0.11004976700E+02  0.51100000000E-03 0. -1.
        -11    1    3    3    0    0  0.21900767160E+02 -0.10160808886E+02  0.11145099202E+02  0.26591330841E+02  0.51100000000E-03 0.  1.
        -12    1    3    3    0    0  0.49209698997E+01 -0.21358448017E+01  0.66525562284E+01  0.85460097205E+01  0.00000000000E+00 0.  1.
</event>
<event>
 7    1  0.1485408E-008  0.4614232E+02  0.7816164E-02  0.1320468E+00
        -11   -1    0    0    0    0  0.00000000000E+00  0.00000000000E+00  0.45593999997E+02  0.45594000000E+02  0.51100000000E-03 0. -1.
         11   -1    0    0    0    0 -0.00000000000E+00 -0.00000000000E+00 -0.45593999997E+02  0.45594000000E+02  0.51100000000E-03 0.  1.
    9900012    2    1    2    0    0  0.27786697581E+02  0.24844791477E+02 -0.25293263220E+02  0.46142318849E+02  0.10000009924E+02 0.  0.
         12    1    1    2    0    0 -0.27786697581E+02 -0.24844791477E+02  0.25293263220E+02  0.45045681151E+02  0.00000000000E+00 0. -1.
         11    1    3    3    0    0  0.50553958759E+01  0.72485816913E+01 -0.68843672693E+01  0.11202387110E+02  0.51100000000E-03 0. -1.
        -11    1    3    3    0    0  0.36204066580E+01  0.34792436793E+01 -0.23512109463E+00  0.50267049983E+01  0.51100000000E-03 0.  1.
        -12    1    3    3    0    0  0.19110895048E+02  0.14116966107E+02 -0.18173774856E+02  0.29913226741E+02  0.00000000000E+00 0.  1.
</event>
<event>
 7    1  0.1485408E-008  0.4614232E+02  0.7816164E-02  0.1320468E+00
        -11   -1    0    0    0    0  0.00000000000E+00  0.00000000000E+00  0.45593999997E+02  0.45594000000E+02  0.51100000000E-03 0. -1.
         11   -1    0    0    0    0 -0.00000000000E+00 -0.00000000000E+00 -0.45593999997E+02  0.45594000000E+02  0.51100000000E-03 0.  1.
    9900012    2    1    2    0    0 -0.40295583220E+02  0.12692829713E+02 -0.15629188588E+02  0.46142317753E+02  0.99999999285E+01 0.  0.
         12    1    1    2    0    0  0.40295583220E+02 -0.12692829713E+02  0.15629188588E+02  0.45045682247E+02  0.00000000000E+00 0. -1.
         11    1    3    3    0    0 -0.94831659495E+01  0.56207145730E+01 -0.66440920614E+01  0.12871162664E+02  0.51100000000E-03 0. -1.
        -11    1    3    3    0    0 -0.10578503473E+02 -0.60131501753E-01 -0.31479321421E+01  0.11037111423E+02  0.51100000000E-03 0.  1.
        -12    1    3    3    0    0 -0.20233913797E+02  0.71322466419E+01 -0.58371643840E+01  0.22234043667E+02  0.00000000000E+00 0.  1.
</event>
<event>
 7    1  0.1485408E-008  0.4614232E+02  0.7816164E-02  0.1320468E+00
        -11   -1    0    0    0    0  0.00000000000E+00  0.00000000000E+00  0.45593999997E+02  0.45594000000E+02  0.51100000000E-03 0.  1.
         11   -1    0    0    0    0 -0.00000000000E+00 -0.00000000000E+00 -0.45593999997E+02  0.45594000000E+02  0.51100000000E-03 0. -1.
    9900012    2    1    2    0    0  0.11440391358E+02  0.55306589345E+01  0.43216231440E+02  0.46142318713E+02  0.10000008683E+02 0.  0.
         12    1    1    2    0    0 -0.11440391358E+02 -0.55306589345E+01 -0.43216231440E+02  0.45045681287E+02  0.00000000000E+00 0. -1.
         11    1    3    3    0    0  0.38168033956E+01  0.45574178991E+01  0.85376778081E+01  0.10403364296E+02  0.51100000000E-03 0. -1.
        -11    1    3    3    0    0  0.62845332296E+01  0.13146884511E+00  0.19734301423E+02  0.20711235958E+02  0.51100000000E-03 0.  1.
         12    1    3    3    0    0  0.13390547325E+01  0.84177219028E+00  0.14944252209E+02  0.15027718459E+02  0.00000000000E+00 0. -1.
</event>
<event>
 7    1  0.1485408E-008  0.4614232E+02  0.7816164E-02  0.1320468E+00
        -11   -1    0    0    0    0  0.00000000000E+00  0.00000000000E+00  0.45593999997E+02  0.45594000000E+02  0.51100000000E-03 0. -1.
         11   -1    0    0    0    0 -0.00000000000E+00 -0.00000000000E+00 -0.45593999997E+02  0.45594000000E+02  0.51100000000E-03 0.  1.
    9900012    2    1    2    0    0 -0.35274616368E+02  0.17885695556E+02 -0.21561927460E+02  0.46142318950E+02  0.10000010846E+02 0.  0.
         12    1    1    2    0    0  0.35274616368E+02 -0.17885695556E+02  0.21561927460E+02  0.45045681050E+02  0.00000000000E+00 0. -1.
         11    1    3    3    0    0 -0.77264320510E+01  0.64850088348E+01 -0.85833860054E+01  0.13244908735E+02  0.51100000000E-03 0. -1.
        -11    1    3    3    0    0 -0.12671741673E+02  0.47155611035E+01 -0.32465786103E+01  0.13905028820E+02  0.51100000000E-03 0.  1.
         12    1    3    3    0    0 -0.14876442644E+02  0.66851256180E+01 -0.97319628442E+01  0.18992381395E+02  0.00000000000E+00 0. -1.
</event>
<event>
 7    1  0.1485408E-008  0.4614230E+02  0.7816164E-02  0.1320468E+00
        -11   -1    0    0    0    0  0.00000000000E+00  0.00000000000E+00  0.45593999997E+02  0.45594000000E+02  0.51100000000E-03 0.  1.
         11   -1    0    0    0    0 -0.00000000000E+00 -0.00000000000E+00 -0.45593999997E+02  0.45594000000E+02  0.51100000000E-03 0. -1.
    9900012    2    1    2    0    0  0.56412916283E+01 -0.87943144336E+01  0.43817239920E+02  0.46142304848E+02  0.99998822428E+01 0.  0.
         12    1    1    2    0    0 -0.56412916283E+01  0.87943144336E+01 -0.43817239920E+02  0.45045695152E+02  0.00000000000E+00 0. -1.
         11    1    3    3    0    0  0.23758912847E+01  0.14102854175E+01  0.42709311700E+01  0.50867099068E+01  0.51100000000E-03 0. -1.
        -11    1    3    3    0    0  0.29797702592E+01 -0.82396041711E+01  0.35250009140E+02  0.36322627277E+02  0.51100000000E-03 0.  1.
        -12    1    3    3    0    0  0.28563008446E+00 -0.19649956800E+01  0.42962996100E+01  0.47329676638E+01  0.00000000000E+00 0.  1.
</event>
<event>
 7    1  0.1485408E-008  0.4614232E+02  0.7816164E-02  0.1320468E+00
        -11   -1    0    0    0    0  0.00000000000E+00  0.00000000000E+00  0.45593999997E+02  0.45594000000E+02  0.51100000000E-03 0.  1.
         11   -1    0    0    0    0 -0.00000000000E+00 -0.00000000000E+00 -0.45593999997E+02  0.45594000000E+02  0.51100000000E-03 0. -1.
    9900012    2    1    2    0    0  0.72528912567E+01 -0.66317310831E+01  0.43960541497E+02  0.46142317660E+02  0.99999990767E+01 0.  0.
         12    1    1    2    0    0 -0.72528912567E+01  0.66317310831E+01 -0.43960541497E+02  0.45045682340E+02  0.00000000000E+00 0. -1.
         11    1    3    3    0    0  0.50895057652E-01 -0.46272063370E+01  0.18962310272E+02  0.19518781722E+02  0.51100000000E-03 0. -1.
        -11    1    3    3    0    0  0.75481654039E+01 -0.29628886206E+01  0.22843196928E+02  0.24239743318E+02  0.51100000000E-03 0.  1.
        -12    1    3    3    0    0 -0.34616920494E+00  0.95836387455E+00  0.21550342969E+01  0.23837926200E+01  0.00000000000E+00 0.  1.
</event>
<event>
 7    1  0.1485408E-008  0.4614232E+02  0.7816164E-02  0.1320468E+00
        -11   -1    0    0    0    0  0.00000000000E+00  0.00000000000E+00  0.45593999997E+02  0.45594000000E+02  0.51100000000E-03 0.  1.
         11   -1    0    0    0    0 -0.00000000000E+00 -0.00000000000E+00 -0.45593999997E+02  0.45594000000E+02  0.51100000000E-03 0. -1.
    9900012    2    1    2    0    0 -0.14475262188E+02 -0.42627157222E+02  0.15829723166E+01  0.46142317081E+02  0.99999938001E+01 0.  0.
         12    1    1    2    0    0  0.14475262188E+02  0.42627157222E+02 -0.15829723166E+01  0.45045682919E+02  0.00000000000E+00 0. -1.
         11    1    3    3    0    0 -0.13092649322E+01 -0.95368675267E+01  0.18766402500E+01  0.98075377019E+01  0.51100000000E-03 0. -1.
        -11    1    3    3    0    0 -0.90400800622E+01 -0.27874262920E+02  0.18101053722E+01  0.29359394793E+02  0.51100000000E-03 0.  1.
         12    1    3    3    0    0 -0.41259171937E+01 -0.52160267755E+01 -0.21037733056E+01  0.69753845867E+01  0.00000000000E+00 0. -1.
</event>
<event>
 7    1  0.1485408E-008  0.4614232E+02  0.7816164E-02  0.1320468E+00
        -11   -1    0    0    0    0  0.00000000000E+00  0.00000000000E+00  0.45593999997E+02  0.45594000000E+02  0.51100000000E-03 0.  1.
         11   -1    0    0    0    0 -0.00000000000E+00 -0.00000000000E+00 -0.45593999997E+02  0.45594000000E+02  0.51100000000E-03 0. -1.
    9900012    2    1    2    0    0  0.34091227106E+02  0.13551447115E+02  0.26139242906E+02  0.46142317585E+02  0.99999983984E+01 0.  0.
         12    1    1    2    0    0 -0.34091227106E+02 -0.13551447115E+02 -0.26139242906E+02  0.45045682415E+02  0.00000000000E+00 0. -1.
         11    1    3    3    0    0  0.14707816692E+02  0.34739743017E+01  0.11162679683E+02  0.18788128892E+02  0.51100000000E-03 0. -1.
        -11    1    3    3    0    0  0.19052920408E+02  0.93179246470E+01  0.12224376112E+02  0.24480050396E+02  0.51100000000E-03 0.  1.
        -12    1    3    3    0    0  0.33049000627E+00  0.75954816616E+00  0.27521871111E+01  0.28741382979E+01  0.00000000000E+00 0.  1.
</event>
<event>
 7    1  0.1485408E-008  0.4614232E+02  0.7816164E-02  0.1320468E+00
        -11   -1    0    0    0    0  0.00000000000E+00  0.00000000000E+00  0.45593999997E+02  0.45594000000E+02  0.51100000000E-03 0.  1.
         11   -1    0    0    0    0 -0.00000000000E+00 -0.00000000000E+00 -0.45593999997E+02  0.45594000000E+02  0.51100000000E-03 0. -1.
    9900012    2    1    2    0    0  0.31015743677E+02 -0.21733071992E+02 -0.24388741912E+02  0.46142317564E+02  0.99999982062E+01 0.  0.
         12    1    1    2    0    0 -0.31015743677E+02  0.21733071992E+02  0.24388741912E+02  0.45045682436E+02  0.00000000000E+00 0. -1.
         11    1    3    3    0    0  0.84407416500E+01 -0.97019190222E+01 -0.12031844081E+02  0.17610753095E+02  0.51100000000E-03 0. -1.
        -11    1    3    3    0    0  0.56159625272E+01 -0.24644510321E+01 -0.41284726847E+01  0.73930265092E+01  0.51100000000E-03 0.  1.
         12    1    3    3    0    0  0.16959039499E+02 -0.95667019378E+01 -0.82284251465E+01  0.21138537960E+02  0.00000000000E+00 0. -1.
</event>
<event>
 7    1  0.1485408E-008  0.4614232E+02  0.7816164E-02  0.1320468E+00
        -11   -1    0    0    0    0  0.00000000000E+00  0.00000000000E+00  0.45593999997E+02  0.45594000000E+02  0.51100000000E-03 0.  1.
         11   -1    0    0    0    0 -0.00000000000E+00 -0.00000000000E+00 -0.45593999997E+02  0.45594000000E+02  0.51100000000E-03 0. -1.
    9900012    2    1    2    0    0  0.20351120385E+02  0.22614100103E+02  0.33219690752E+02  0.46142317876E+02  0.10000001045E+02 0.  0.
         12    1    1    2    0    0 -0.20351120385E+02 -0.22614100103E+02 -0.33219690752E+02  0.45045682124E+02  0.00000000000E+00 0. -1.
         11    1    3    3    0    0  0.15499074097E+02  0.18804243082E+02  0.28300489015E+02  0.37346198394E+02  0.51100000000E-03 0. -1.
        -11    1    3    3    0    0  0.24977478037E+01  0.19713989345E+01  0.48593003265E+01  0.58084384971E+01  0.51100000000E-03 0.  1.
         12    1    3    3    0    0  0.23542984841E+01  0.18384580861E+01  0.59901410873E-01  0.29876809846E+01  0.00000000000E+00 0. -1.
</event>
<event>
 7    1  0.1485408E-008  0.4614232E+02  0.7816164E-02  0.1320468E+00
        -11   -1    0    0    0    0  0.00000000000E+00  0.00000000000E+00  0.45593999997E+02  0.45594000000E+02  0.51100000000E-03 0. -1.
         11   -1    0    0    0    0 -0.00000000000E+00 -0.00000000000E+00 -0.45593999997E+02  0.45594000000E+02  0.51100000000E-03 0.  1.
    9900012    2    1    2    0    0  0.39281617947E+02 -0.11447419884E+02  0.18842095071E+02  0.46142317885E+02  0.10000001128E+02 0.  0.
         12    1    1    2    0    0 -0.39281617947E+02  0.11447419884E+02 -0.18842095071E+02  0.45045682115E+02  0.00000000000E+00 0. -1.
         11    1    3    3    0    0  0.33324242493E+01 -0.73033425893E+00  0.46534102811E+01  0.57699798104E+01  0.51100000000E-03 0. -1.
        -11    1    3    3    0    0  0.32785564917E+02 -0.11053313655E+02  0.12654194094E+02  0.36840163383E+02  0.51100000000E-03 0.  1.
         12    1    3    3    0    0  0.31636287815E+01  0.33622802993E+00  0.15344906954E+01  0.35321746913E+01  0.00000000000E+00 0. -1.
</event>
<event>
 7    1  0.1485408E-008  0.4614232E+02  0.7816164E-02  0.1320468E+00
        -11   -1    0    0    0    0  0.00000000000E+00  0.00000000000E+00  0.45593999997E+02  0.45594000000E+02  0.51100000000E-03 0.  1.
         11   -1    0    0    0    0 -0.00000000000E+00 -0.00000000000E+00 -0.45593999997E+02  0.45594000000E+02  0.51100000000E-03 0. -1.
    9900012    2    1    2    0    0 -0.11804328047E+01  0.17619732900E+02  0.41439898056E+02  0.46142316966E+02  0.99999927536E+01 0.  0.
         12    1    1    2    0    0  0.11804328047E+01 -0.17619732900E+02 -0.41439898056E+02  0.45045683034E+02  0.00000000000E+00 0. -1.
         11    1    3    3    0    0 -0.37027972149E+00 -0.64902081815E+00  0.15665880244E+01  0.17356651157E+01  0.51100000000E-03 0. -1.
        -11    1    3    3    0    0 -0.23084922190E+01  0.17739317015E+02  0.35477640738E+02  0.39732549591E+02  0.51100000000E-03 0.  1.
        -12    1    3    3    0    0  0.14983391358E+01  0.52943670361E+00  0.43956692940E+01  0.46741022594E+01  0.00000000000E+00 0.  1.
</event>
<event>
 7    1  0.1485408E-008  0.4614232E+02  0.7816164E-02  0.1320468E+00
        -11   -1    0    0    0    0  0.00000000000E+00  0.00000000000E+00  0.45593999997E+02  0.45594000000E+02  0.51100000000E-03 0. -1.
         11   -1    0    0    0    0 -0.00000000000E+00 -0.00000000000E+00 -0.45593999997E+02  0.45594000000E+02  0.51100000000E-03 0.  1.
    9900012    2    1    2    0    0 -0.38311142130E+02  0.11843943062E+02 -0.20520500712E+02  0.46142317099E+02  0.99999939605E+01 0.  0.
         12    1    1    2    0    0  0.38311142130E+02 -0.11843943062E+02  0.20520500712E+02  0.45045682901E+02  0.00000000000E+00 0. -1.
         11    1    3    3    0    0 -0.68278676399E+01 -0.13711276137E+01 -0.33301177976E+01  0.77194204607E+01  0.51100000000E-03 0. -1.
        -11    1    3    3    0    0 -0.28179996534E+02  0.10530610707E+02 -0.15515229843E+02  0.33848608891E+02  0.51100000000E-03 0.  1.
         12    1    3    3    0    0 -0.33032779559E+01  0.26844599690E+01 -0.16751530711E+01  0.45742877468E+01  0.00000000000E+00 0. -1.
</event>
<event>
 7    1  0.1485408E-008  0.4614232E+02  0.7816164E-02  0.1320468E+00
        -11   -1    0    0    0    0  0.00000000000E+00  0.00000000000E+00  0.45593999997E+02  0.45594000000E+02  0.51100000000E-03 0.  1.
         11   -1    0    0    0    0 -0.00000000000E+00 -0.00000000000E+00 -0.45593999997E+02  0.45594000000E+02  0.51100000000E-03 0. -1.
    9900012    2    1    2    0    0  0.31867607685E+02 -0.31055609602E+02 -0.70084336777E+01  0.46142318188E+02  0.10000003892E+02 0.  0.
         12    1    1    2    0    0 -0.31867607685E+02  0.31055609602E+02  0.70084336777E+01  0.45045681812E+02  0.00000000000E+00 0. -1.
         11    1    3    3    0    0  0.96118681834E+01 -0.48304040587E+01  0.23445061454E+00  0.10759915460E+02  0.51100000000E-03 0. -1.
        -11    1    3    3    0    0  0.10849173751E+02 -0.13267549154E+02 -0.56507869216E+01  0.18046158171E+02  0.51100000000E-03 0.  1.
         12    1    3    3    0    0  0.11406565750E+02 -0.12957656390E+02 -0.15920973707E+01  0.17336244558E+02  0.00000000000E+00 0. -1.
</event>
<event>
 7    1  0.1485408E-008  0.4614232E+02  0.7816164E-02  0.1320468E+00
        -11   -1    0    0    0    0  0.00000000000E+00  0.00000000000E+00  0.45593999997E+02  0.45594000000E+02  0.51100000000E-03 0. -1.
         11   -1    0    0    0    0 -0.00000000000E+00 -0.00000000000E+00 -0.45593999997E+02  0.45594000000E+02  0.51100000000E-03 0.  1.
    9900012    2    1    2    0    0 -0.18551343355E+02  0.39663550961E+02 -0.10571844762E+02  0.46142317446E+02  0.99999971255E+01 0.  0.
         12    1    1    2    0    0  0.18551343355E+02 -0.39663550961E+02  0.10571844762E+02  0.45045682554E+02  0.00000000000E+00 0. -1.
         11    1    3    3    0    0 -0.95521129200E+01  0.15160587000E+02 -0.40837922766E+00  0.17923532946E+02  0.51100000000E-03 0. -1.
        -11    1    3    3    0    0 -0.73043859544E+01  0.18458706303E+02 -0.91556615108E+01  0.21861016228E+02  0.51100000000E-03 0.  1.
         12    1    3    3    0    0 -0.16948444806E+01  0.60442576583E+01 -0.10078040233E+01  0.63577682722E+01  0.00000000000E+00 0. -1.
</event>
<event>
 7    1  0.1485408E-008  0.4614232E+02  0.7816164E-02  0.1320468E+00
        -11   -1    0    0    0    0  0.00000000000E+00  0.00000000000E+00  0.45593999997E+02  0.45594000000E+02  0.51100000000E-03 0.  1.
         11   -1    0    0    0    0 -0.00000000000E+00 -0.00000000000E+00 -0.45593999997E+02  0.45594000000E+02  0.51100000000E-03 0. -1.
    9900012    2    1    2    0    0  0.15218294567E+02 -0.14475524192E+02  0.39849418480E+02  0.46142318261E+02  0.10000004554E+02 0.  0.
         12    1    1    2    0    0 -0.15218294567E+02  0.14475524192E+02 -0.39849418480E+02  0.45045681739E+02  0.00000000000E+00 0. -1.
         11    1    3    3    0    0  0.19733938022E+01 -0.46575038951E+01  0.55869292239E+01  0.75366042781E+01  0.51100000000E-03 0. -1.
        -11    1    3    3    0    0  0.26142257403E+01 -0.38840837591E+01  0.15890785360E+02  0.16566150503E+02  0.51100000000E-03 0.  1.
        -12    1    3    3    0    0  0.10630675025E+02 -0.59339365377E+01  0.18371703897E+02  0.22039563480E+02  0.00000000000E+00 0.  1.
</event>
<event>
 7    1  0.1485408E-008  0.4614232E+02  0.7816164E-02  0.1320468E+00
        -11   -1    0    0    0    0  0.00000000000E+00  0.00000000000E+00  0.45593999997E+02  0.45594000000E+02  0.51100000000E-03 0.  1.
         11   -1    0    0    0    0 -0.00000000000E+00 -0.00000000000E+00 -0.45593999997E+02  0.45594000000E+02  0.51100000000E-03 0. -1.
    9900012    2    1    2    0    0  0.33937002557E+02 -0.49054262041E+01  0.29211814505E+02  0.46142318126E+02  0.10000003329E+02 0.  0.
         12    1    1    2    0    0 -0.33937002557E+02  0.49054262041E+01 -0.29211814505E+02  0.45045681874E+02  0.00000000000E+00 0. -1.
         11    1    3    3    0    0  0.68997860836E+01 -0.23983370335E+00  0.31968368571E+01  0.76081754946E+01  0.51100000000E-03 0. -1.
        -11    1    3    3    0    0  0.20813517896E+02 -0.13085684019E+01  0.16053002756E+02  0.26317556426E+02  0.51100000000E-03 0.  1.
         12    1    3    3    0    0  0.62236985777E+01 -0.33570240988E+01  0.99619748917E+01  0.12216586206E+02  0.00000000000E+00 0. -1.
</event>
<event>
 7    1  0.1485408E-008  0.4614232E+02  0.7816164E-02  0.1320468E+00
        -11   -1    0    0    0    0  0.00000000000E+00  0.00000000000E+00  0.45593999997E+02  0.45594000000E+02  0.51100000000E-03 0.  1.
         11   -1    0    0    0    0 -0.00000000000E+00 -0.00000000000E+00 -0.45593999997E+02  0.45594000000E+02  0.51100000000E-03 0. -1.
    9900012    2    1    2    0    0  0.27383429920E+02  0.28946852066E+02  0.21008117334E+02  0.46142317936E+02  0.10000001591E+02 0.  0.
         12    1    1    2    0    0 -0.27383429920E+02 -0.28946852066E+02 -0.21008117334E+02  0.45045682064E+02  0.00000000000E+00 0. -1.
         11    1    3    3    0    0  0.36384782406E+01  0.16442493847E+01  0.18449346535E+01  0.43983933525E+01  0.51100000000E-03 0. -1.
        -11    1    3    3    0    0  0.23145948244E+02  0.27115159518E+02  0.17009229408E+02  0.39500388367E+02  0.51100000000E-03 0.  1.
        -12    1    3    3    0    0  0.59900343517E+00  0.18744316374E+00  0.21539532721E+01  0.22435362162E+01  0.00000000000E+00 0.  1.
</event>
<event>
 7    1  0.1485408E-008  0.4614232E+02  0.7816164E-02  0.1320468E+00
        -11   -1    0    0    0    0  0.00000000000E+00  0.00000000000E+00  0.45593999997E+02  0.45594000000E+02  0.51100000000E-03 0.  1.
         11   -1    0    0    0    0 -0.00000000000E+00 -0.00000000000E+00 -0.45593999997E+02  0.45594000000E+02  0.51100000000E-03 0. -1.
    9900012    2    1    2    0    0  0.54372021989E+01  0.43849950176E+02  0.87596893431E+01  0.46142318125E+02  0.10000003315E+02 0.  0.
         12    1    1    2    0    0 -0.54372021989E+01 -0.43849950176E+02 -0.87596893431E+01  0.45045681875E+02  0.00000000000E+00 0. -1.
         11    1    3    3    0    0 -0.19076393619E+01  0.19291473745E+02  0.41261900755E+01  0.19819825730E+02  0.51100000000E-03 0. -1.
        -11    1    3    3    0    0  0.29420316752E+01  0.16041714962E+02  0.24891089005E+01  0.16498116034E+02  0.51100000000E-03 0.  1.
         12    1    3    3    0    0  0.44028098856E+01  0.85167614697E+01  0.21443903670E+01  0.98243763602E+01  0.00000000000E+00 0. -1.
</event>
<event>
 7    1  0.1485408E-008  0.4614232E+02  0.7816164E-02  0.1320468E+00
        -11   -1    0    0    0    0  0.00000000000E+00  0.00000000000E+00  0.45593999997E+02  0.45594000000E+02  0.51100000000E-03 0.  1.
         11   -1    0    0    0    0 -0.00000000000E+00 -0.00000000000E+00 -0.45593999997E+02  0.45594000000E+02  0.51100000000E-03 0. -1.
    9900012    2    1    2    0    0  0.34940095106E+02 -0.27666097615E+02  0.65490675382E+01  0.46142317755E+02  0.99999999483E+01 0.  0.
         12    1    1    2    0    0 -0.34940095106E+02  0.27666097615E+02 -0.65490675382E+01  0.45045682245E+02  0.00000000000E+00 0. -1.
         11    1    3    3    0    0  0.92441193568E+01 -0.79559397123E+01 -0.16077607451E+01  0.12301854099E+02  0.51100000000E-03 0. -1.
        -11    1    3    3    0    0  0.15359829678E+02 -0.92620578504E+01  0.63770418426E+01  0.19036195688E+02  0.51100000000E-03 0.  1.
         12    1    3    3    0    0  0.10336146071E+02 -0.10448100053E+02  0.17797864407E+01  0.14804267969E+02  0.00000000000E+00 0. -1.
</event>
<event>
 7    1  0.1485408E-008  0.4614232E+02  0.7816164E-02  0.1320468E+00
        -11   -1    0    0    0    0  0.00000000000E+00  0.00000000000E+00  0.45593999997E+02  0.45594000000E+02  0.51100000000E-03 0.  1.
         11   -1    0    0    0    0 -0.00000000000E+00 -0.00000000000E+00 -0.45593999997E+02  0.45594000000E+02  0.51100000000E-03 0. -1.
    9900012    2    1    2    0    0  0.28310456580E+02 -0.27611884723E+02  0.21568853582E+02  0.46142316804E+02  0.99999912762E+01 0.  0.
         12    1    1    2    0    0 -0.28310456580E+02  0.27611884723E+02 -0.21568853582E+02  0.45045683196E+02  0.00000000000E+00 0. -1.
         11    1    3    3    0    0  0.15025587694E+01 -0.35541580775E+01  0.16549073446E+01  0.41986237121E+01  0.51100000000E-03 0. -1.
        -11    1    3    3    0    0  0.65248134517E+01 -0.10624018513E+02  0.51756818102E+01  0.13499283033E+02  0.51100000000E-03 0.  1.
        -12    1    3    3    0    0  0.20283084359E+02 -0.13433708132E+02  0.14738264427E+02  0.28444410059E+02  0.00000000000E+00 0.  1.
</event>
<event>
 7    1  0.1485408E-008  0.4614232E+02  0.7816164E-02  0.1320468E+00
        -11   -1    0    0    0    0  0.00000000000E+00  0.00000000000E+00  0.45593999997E+02  0.45594000000E+02  0.51100000000E-03 0.  1.
         11   -1    0    0    0    0 -0.00000000000E+00 -0.00000000000E+00 -0.45593999997E+02  0.45594000000E+02  0.51100000000E-03 0. -1.
    9900012    2    1    2    0    0 -0.18113666676E+02  0.15787800856E+02  0.38101888721E+02  0.46142317627E+02  0.99999987776E+01 0.  0.
         12    1    1    2    0    0  0.18113666676E+02 -0.15787800856E+02 -0.38101888721E+02  0.45045682373E+02  0.00000000000E+00 0. -1.
         11    1    3    3    0    0 -0.38377628580E+01  0.45507902444E+01  0.15704167903E+02  0.16794612392E+02  0.51100000000E-03 0.  1.
        -11    1    3    3    0    0 -0.47836653337E+01  0.72099033203E+01  0.10289680364E+02  0.13444094695E+02  0.51100000000E-03 0. -1.
         12    1    3    3    0    0 -0.94922384840E+01  0.40271072915E+01  0.12108040454E+02  0.15903610540E+02  0.00000000000E+00 0. -1.
</event>
<event>
 7    1  0.1485408E-008  0.4614232E+02  0.7816164E-02  0.1320468E+00
        -11   -1    0    0    0    0  0.00000000000E+00  0.00000000000E+00  0.45593999997E+02  0.45594000000E+02  0.51100000000E-03 0.  1.
         11   -1    0    0    0    0 -0.00000000000E+00 -0.00000000000E+00 -0.45593999997E+02  0.45594000000E+02  0.51100000000E-03 0. -1.
    9900012    2    1    2    0    0 -0.19840722449E+02  0.14617494293E+01  0.40414384963E+02  0.46142317736E+02  0.99999997714E+01 0.  0.
         12    1    1    2    0    0  0.19840722449E+02 -0.14617494293E+01 -0.40414384963E+02  0.45045682264E+02  0.00000000000E+00 0. -1.
         11    1    3    3    0    0 -0.91019634561E+00  0.11648558152E+01  0.85212179300E+01  0.86484970792E+01  0.51100000000E-03 0. -1.
        -11    1    3    3    0    0 -0.11499187855E+02 -0.11884697167E+01  0.23474134691E+02  0.26166367370E+02  0.51100000000E-03 0.  1.
        -12    1    3    3    0    0 -0.74313382486E+01  0.14853633309E+01  0.84190323416E+01  0.11327453287E+02  0.00000000000E+00 0.  1.
</event>
<event>
 7    1  0.1485408E-008  0.4614232E+02  0.7816164E-02  0.1320468E+00
        -11   -1    0    0    0    0  0.00000000000E+00  0.00000000000E+00  0.45593999997E+02  0.45594000000E+02  0.51100000000E-03 0.  1.
         11   -1    0    0    0    0 -0.00000000000E+00 -0.00000000000E+00 -0.45593999997E+02  0.45594000000E+02  0.51100000000E-03 0. -1.
    9900012    2    1    2    0    0 -0.21692864926E+02  0.34077571116E+02 -0.19931185684E+02  0.46142318690E+02  0.10000008475E+02 0.  0.
         12    1    1    2    0    0  0.21692864926E+02 -0.34077571116E+02  0.19931185684E+02  0.45045681310E+02  0.00000000000E+00 0. -1.
         11    1    3    3    0    0 -0.45079443356E+01  0.59124699833E+01 -0.55430883459E+00  0.74556101012E+01  0.51100000000E-03 0. -1.
        -11    1    3    3    0    0 -0.46877133991E+01  0.10742762474E+02 -0.43411206040E+01  0.12499077200E+02  0.51100000000E-03 0.  1.
         12    1    3    3    0    0 -0.12497207191E+02  0.17422338658E+02 -0.15035756245E+02  0.26187631389E+02  0.00000000000E+00 0. -1.
</event>
<event>
 7    1  0.1485408E-008  0.4614232E+02  0.7816164E-02  0.1320468E+00
        -11   -1    0    0    0    0  0.00000000000E+00  0.00000000000E+00  0.45593999997E+02  0.45594000000E+02  0.51100000000E-03 0. -1.
         11   -1    0    0    0    0 -0.00000000000E+00 -0.00000000000E+00 -0.45593999997E+02  0.45594000000E+02  0.51100000000E-03 0.  1.
    9900012    2    1    2    0    0 -0.17181473019E+02 -0.35530460263E+02  0.21713978036E+02  0.46142318035E+02  0.10000002495E+02 0.  0.
         12    1    1    2    0    0  0.17181473019E+02  0.35530460263E+02 -0.21713978036E+02  0.45045681965E+02  0.00000000000E+00 0. -1.
         11    1    3    3    0    0 -0.34628513336E+01 -0.88058575485E+01  0.23406564848E+01  0.97474683669E+01  0.51100000000E-03 0. -1.
        -11    1    3    3    0    0 -0.71135752303E+01 -0.71267438995E+01  0.52942958271E+01  0.11376422976E+02  0.51100000000E-03 0.  1.
        -12    1    3    3    0    0 -0.66050464546E+01 -0.19597858815E+02  0.14079025724E+02  0.25018426692E+02  0.00000000000E+00 0.  1.
</event>
<event>
 7    1  0.1485408E-008  0.4614232E+02  0.7816164E-02  0.1320468E+00
        -11   -1    0    0    0    0  0.00000000000E+00  0.00000000000E+00  0.45593999997E+02  0.45594000000E+02  0.51100000000E-03 0. -1.
         11   -1    0    0    0    0 -0.00000000000E+00 -0.00000000000E+00 -0.45593999997E+02  0.45594000000E+02  0.51100000000E-03 0.  1.
    9900012    2    1    2    0    0  0.48889849567E+01  0.35807452908E+02  0.26889358089E+02  0.46142318341E+02  0.10000005290E+02 0.  0.
         12    1    1    2    0    0 -0.48889849567E+01 -0.35807452908E+02 -0.26889358089E+02  0.45045681659E+02  0.00000000000E+00 0. -1.
         11    1    3    3    0    0 -0.21866202053E+01  0.18151353024E+02  0.13246160000E+02  0.22576839450E+02  0.51100000000E-03 0. -1.
        -11    1    3    3    0    0  0.62186318000E+01  0.12560347654E+02  0.93576250056E+01  0.16852265743E+02  0.51100000000E-03 0.  1.
         12    1    3    3    0    0  0.85697336200E+00  0.50957522299E+01  0.42855730833E+01  0.67132131490E+01  0.00000000000E+00 0. -1.
</event>
<event>
 7    1  0.1485408E-008  0.4614232E+02  0.7816164E-02  0.1320468E+00
        -11   -1    0    0    0    0  0.00000000000E+00  0.00000000000E+00  0.45593999997E+02  0.45594000000E+02  0.51100000000E-03 0.  1.
         11   -1    0    0    0    0 -0.00000000000E+00 -0.00000000000E+00 -0.45593999997E+02  0.45594000000E+02  0.51100000000E-03 0. -1.
    9900012    2    1    2    0    0 -0.28733420272E+02  0.34087395009E+02 -0.64461974684E+01  0.46142318733E+02  0.10000008863E+02 0.  0.
         12    1    1    2    0    0  0.28733420272E+02 -0.34087395009E+02  0.64461974684E+01  0.45045681267E+02  0.00000000000E+00 0. -1.
         11    1    3    3    0    0 -0.59964377594E+01  0.98932959148E+01 -0.43668834105E+01  0.12365445436E+02  0.51100000000E-03 0. -1.
        -11    1    3    3    0    0 -0.11724555336E+02  0.82648574707E+01 -0.67220656638E+00  0.14360533721E+02  0.51100000000E-03 0.  1.
        -12    1    3    3    0    0 -0.11012427177E+02  0.15929241623E+02 -0.14071074915E+01  0.19416339575E+02  0.00000000000E+00 0.  1.
</event>
<event>
 7    1  0.1485408E-008  0.4614232E+02  0.7816164E-02  0.1320468E+00
        -11   -1    0    0    0    0  0.00000000000E+00  0.00000000000E+00  0.45593999997E+02  0.45594000000E+02  0.51100000000E-03 0. -1.
         11   -1    0    0    0    0 -0.00000000000E+00 -0.00000000000E+00 -0.45593999997E+02  0.45594000000E+02  0.51100000000E-03 0.  1.
    9900012    2    1    2    0    0  0.30737983995E+02  0.30509171418E+02  0.12388718289E+02  0.46142317171E+02  0.99999946156E+01 0.  0.
         12    1    1    2    0    0 -0.30737983995E+02 -0.30509171418E+02 -0.12388718289E+02  0.45045682829E+02  0.00000000000E+00 0. -1.
         11    1    3    3    0    0  0.80862047050E+01  0.87726292585E+01 -0.37253686841E+00  0.11936687757E+02  0.51100000000E-03 0. -1.
        -11    1    3    3    0    0  0.22509578549E+02  0.21559027373E+02  0.11979292930E+02  0.33391260040E+02  0.51100000000E-03 0.  1.
        -12    1    3    3    0    0  0.14220074134E+00  0.17751478669E+00  0.78196222736E+00  0.81436937280E+00  0.00000000000E+00 0.  1.
</event>
<event>
 7    1  0.1485408E-008  0.4614232E+02  0.7816164E-02  0.1320468E+00
        -11   -1    0    0    0    0  0.00000000000E+00  0.00000000000E+00  0.45593999997E+02  0.45594000000E+02  0.51100000000E-03 0.  1.
         11   -1    0    0    0    0 -0.00000000000E+00 -0.00000000000E+00 -0.45593999997E+02  0.45594000000E+02  0.51100000000E-03 0. -1.
    9900012    2    1    2    0    0  0.34295184868E+01  0.42325347441E+02  0.15030531637E+02  0.46142317473E+02  0.99999973727E+01 0.  0.
         12    1    1    2    0    0 -0.34295184868E+01 -0.42325347441E+02 -0.15030531637E+02  0.45045682527E+02  0.00000000000E+00 0. -1.
         11    1    3    3    0    0  0.21425930678E+01  0.29491183860E+02  0.10717328232E+02  0.31451259994E+02  0.51100000000E-03 0. -1.
        -11    1    3    3    0    0 -0.35456362152E-01  0.84588801754E+01  0.53438684803E+01  0.10005540544E+02  0.51100000000E-03 0.  1.
         12    1    3    3    0    0  0.13223817812E+01  0.43752834052E+01 -0.10306650754E+01  0.46855169351E+01  0.00000000000E+00 0. -1.
</event>
<event>
 7    1  0.1485408E-008  0.4614232E+02  0.7816164E-02  0.1320468E+00
        -11   -1    0    0    0    0  0.00000000000E+00  0.00000000000E+00  0.45593999997E+02  0.45594000000E+02  0.51100000000E-03 0.  1.
         11   -1    0    0    0    0 -0.00000000000E+00 -0.00000000000E+00 -0.45593999997E+02  0.45594000000E+02  0.51100000000E-03 0. -1.
    9900012    2    1    2    0    0  0.63520073246E+01 -0.13484242860E+02  0.42508124394E+02  0.46142318275E+02  0.10000004686E+02 0.  0.
         12    1    1    2    0    0 -0.63520073246E+01  0.13484242860E+02 -0.42508124394E+02  0.45045681725E+02  0.00000000000E+00 0. -1.
         11    1    3    3    0    0  0.79148098397E+01 -0.11340762420E+02  0.31916639335E+02  0.34784033316E+02  0.51100000000E-03 0. -1.
        -11    1    3    3    0    0 -0.14893241924E+01 -0.12211838902E+01  0.10153650429E+02  0.10334698542E+02  0.51100000000E-03 0.  1.
         12    1    3    3    0    0 -0.73478322696E-01 -0.92229654990E+00  0.43783462993E+00  0.10235864170E+01  0.00000000000E+00 0. -1.
</event>
<event>
 7    1  0.1485408E-008  0.4614231E+02  0.7816164E-02  0.1320468E+00
        -11   -1    0    0    0    0  0.00000000000E+00  0.00000000000E+00  0.45593999997E+02  0.45594000000E+02  0.51100000000E-03 0. -1.
         11   -1    0    0    0    0 -0.00000000000E+00 -0.00000000000E+00 -0.45593999997E+02  0.45594000000E+02  0.51100000000E-03 0.  1.
    9900012    2    1    2    0    0  0.24228708273E+02  0.36728521851E+02 -0.96488216491E+01  0.46142307851E+02  0.99999096324E+01 0.  0.
         12    1    1    2    0    0 -0.24228708273E+02 -0.36728521851E+02  0.96488216491E+01  0.45045692149E+02  0.00000000000E+00 0. -1.
         11    1    3    3    0    0  0.12612586094E+01  0.75447409141E+01 -0.33984689180E+01  0.83703930606E+01  0.51100000000E-03 0. -1.
        -11    1    3    3    0    0  0.62945723749E+01  0.90618912986E+01 -0.30321358075E+01  0.11442611726E+02  0.51100000000E-03 0.  1.
         12    1    3    3    0    0  0.16672877289E+02  0.20121889639E+02 -0.32182169236E+01  0.26329303065E+02  0.00000000000E+00 0. -1.
</event>
<event>
 7    1  0.1485408E-008  0.4614232E+02  0.7816164E-02  0.1320468E+00
        -11   -1    0    0    0    0  0.00000000000E+00  0.00000000000E+00  0.45593999997E+02  0.45594000000E+02  0.51100000000E-03 0. -1.
         11   -1    0    0    0    0 -0.00000000000E+00 -0.00000000000E+00 -0.45593999997E+02  0.45594000000E+02  0.51100000000E-03 0.  1.
    9900012    2    1    2    0    0  0.43837964124E+02  0.10086169327E+02  0.23696785497E+01  0.46142320000E+02  0.10000020417E+02 0.  0.
         12    1    1    2    0    0 -0.43837964124E+02 -0.10086169327E+02 -0.23696785497E+01  0.45045680000E+02  0.00000000000E+00 0. -1.
         11    1    3    3    0    0  0.23756771607E+02  0.26376892499E+01 -0.23246722625E+01  0.24015530457E+02  0.51100000000E-03 0. -1.
        -11    1    3    3    0    0  0.19003077690E+02  0.76888156343E+01  0.46550052097E+01  0.21021510919E+02  0.51100000000E-03 0.  1.
        -12    1    3    3    0    0  0.10781148274E+01 -0.24033555675E+00  0.39345602554E-01  0.11052786243E+01  0.00000000000E+00 0.  1.
</event>
<event>
 7    1  0.1485408E-008  0.4614232E+02  0.7816164E-02  0.1320468E+00
        -11   -1    0    0    0    0  0.00000000000E+00  0.00000000000E+00  0.45593999997E+02  0.45594000000E+02  0.51100000000E-03 0.  1.
         11   -1    0    0    0    0 -0.00000000000E+00 -0.00000000000E+00 -0.45593999997E+02  0.45594000000E+02  0.51100000000E-03 0. -1.
    9900012    2    1    2    0    0 -0.40965468594E+01 -0.25562609479E+02  0.36863055366E+02  0.46142317072E+02  0.99999937201E+01 0.  0.
         12    1    1    2    0    0  0.40965468594E+01  0.25562609479E+02 -0.36863055366E+02  0.45045682928E+02  0.00000000000E+00 0. -1.
         11    1    3    3    0    0 -0.25636661884E+00 -0.13958970996E+01 -0.27170684349E-01  0.14195038088E+01  0.51100000000E-03 0. -1.
        -11    1    3    3    0    0 -0.39914822901E+01 -0.68218846405E+01  0.12640645801E+02  0.14908251656E+02  0.51100000000E-03 0.  1.
         12    1    3    3    0    0  0.15130204957E+00 -0.17344827738E+02  0.24249580249E+02  0.29814561607E+02  0.00000000000E+00 0. -1.
</event>
<event>
 7    1  0.1485408E-008  0.4614232E+02  0.7816164E-02  0.1320468E+00
        -11   -1    0    0    0    0  0.00000000000E+00  0.00000000000E+00  0.45593999997E+02  0.45594000000E+02  0.51100000000E-03 0.  1.
         11   -1    0    0    0    0 -0.00000000000E+00 -0.00000000000E+00 -0.45593999997E+02  0.45594000000E+02  0.51100000000E-03 0. -1.
    9900012    2    1    2    0    0 -0.22766728371E+02  0.32918798833E+02  0.20667421448E+02  0.46142317114E+02  0.99999940994E+01 0.  0.
         12    1    1    2    0    0  0.22766728371E+02 -0.32918798833E+02 -0.20667421448E+02  0.45045682886E+02  0.00000000000E+00 0. -1.
         11    1    3    3    0    0 -0.75033275890E+01  0.66709656292E+01  0.42380174091E+01  0.10897820844E+02  0.51100000000E-03 0. -1.
        -11    1    3    3    0    0 -0.32244411663E+01  0.12429582738E+02  0.62719108335E+01  0.14290850697E+02  0.51100000000E-03 0.  1.
        -12    1    3    3    0    0 -0.12038959616E+02  0.13818250466E+02  0.10157493206E+02  0.20953645573E+02  0.00000000000E+00 0.  1.
</event>
<event>
 7    1  0.1574282E-008  0.4614232E+02  0.7816164E-02  0.1320468E+00
        -11   -1    0    0    0    0  0.00000000000E+00  0.00000000000E+00  0.45593999997E+02  0.45594000000E+02  0.51100000000E-03 0. -1.
         11   -1    0    0    0    0 -0.00000000000E+00 -0.00000000000E+00 -0.45593999997E+02  0.45594000000E+02  0.51100000000E-03 0.  1.
    9900012    2    1    2    0    0  0.11518544602E+02 -0.41174968674E+02 -0.14179511785E+02  0.46142317970E+02  0.10000001908E+02 0.  0.
         12    1    1    2    0    0 -0.11518544602E+02  0.41174968674E+02  0.14179511785E+02  0.45045682030E+02  0.00000000000E+00 0. -1.
         11    1    3    3    0    0  0.41645579622E+01 -0.14599261772E+02 -0.86287058722E+00  0.15206134723E+02  0.51100000000E-03 0. -1.
        -11    1    3    3    0    0  0.65839637561E+01 -0.18408116228E+02 -0.77928027732E+01  0.21046023310E+02  0.51100000000E-03 0.  1.
         12    1    3    3    0    0  0.77002288408E+00 -0.81675906736E+01 -0.55238384244E+01  0.98901599377E+01  0.00000000000E+00 0. -1.
</event>
<event>
 7    1  0.1485408E-008  0.4614232E+02  0.7816164E-02  0.1320468E+00
        -11   -1    0    0    0    0  0.00000000000E+00  0.00000000000E+00  0.45593999997E+02  0.45594000000E+02  0.51100000000E-03 0. -1.
         11   -1    0    0    0    0 -0.00000000000E+00 -0.00000000000E+00 -0.45593999997E+02  0.45594000000E+02  0.51100000000E-03 0.  1.
    9900012    2    1    2    0    0  0.20605778461E+02  0.35938114291E+02 -0.17690886642E+02  0.46142316134E+02  0.99999851607E+01 0.  0.
         12    1    1    2    0    0 -0.20605778461E+02 -0.35938114291E+02  0.17690886642E+02  0.45045683866E+02  0.00000000000E+00 0. -1.
         11    1    3    3    0    0  0.81049270378E+00  0.64636187947E+01 -0.15782393909E+01  0.67026939496E+01  0.51100000000E-03 0. -1.
        -11    1    3    3    0    0  0.85240264005E+01  0.16787201839E+02 -0.63965895922E+01  0.19884303617E+02  0.51100000000E-03 0.  1.
         12    1    3    3    0    0  0.11271259356E+02  0.12687293658E+02 -0.97160576589E+01  0.19555318568E+02  0.00000000000E+00 0. -1.
</event>
<event>
 7    1  0.1485408E-008  0.4614232E+02  0.7816164E-02  0.1320468E+00
        -11   -1    0    0    0    0  0.00000000000E+00  0.00000000000E+00  0.45593999997E+02  0.45594000000E+02  0.51100000000E-03 0. -1.
         11   -1    0    0    0    0 -0.00000000000E+00 -0.00000000000E+00 -0.45593999997E+02  0.45594000000E+02  0.51100000000E-03 0.  1.
    9900012    2    1    2    0    0 -0.27717019196E+02 -0.27689917903E+02  0.22229457730E+02  0.46142317659E+02  0.99999990711E+01 0.  0.
         12    1    1    2    0    0  0.27717019196E+02  0.27689917903E+02 -0.22229457730E+02  0.45045682341E+02  0.00000000000E+00 0. -1.
         11    1    3    3    0    0  0.35868253972E-02  0.92755764935E-01 -0.52955695880E+00  0.53763122210E+00  0.51100000000E-03 0. -1.
        -11    1    3    3    0    0 -0.54402582880E+01 -0.82189521532E+01  0.51767899268E+01  0.11133136977E+02  0.51100000000E-03 0.  1.
        -12    1    3    3    0    0 -0.22280347733E+02 -0.19563721515E+02  0.17582224762E+02  0.34471549460E+02  0.00000000000E+00 0.  1.
</event>
<event>
 7    1  0.1485408E-008  0.4614232E+02  0.7816164E-02  0.1320468E+00
        -11   -1    0    0    0    0  0.00000000000E+00  0.00000000000E+00  0.45593999997E+02  0.45594000000E+02  0.51100000000E-03 0.  1.
         11   -1    0    0    0    0 -0.00000000000E+00 -0.00000000000E+00 -0.45593999997E+02  0.45594000000E+02  0.51100000000E-03 0. -1.
    9900012    2    1    2    0    0  0.39306443264E+02 -0.13763176182E+02  0.17166598644E+02  0.46142316415E+02  0.99999877236E+01 0.  0.
         12    1    1    2    0    0 -0.39306443264E+02  0.13763176182E+02 -0.17166598644E+02  0.45045683585E+02  0.00000000000E+00 0. -1.
         11    1    3    3    0    0  0.13682707417E+01 -0.24450960218E+01  0.28079079919E+01  0.39667375677E+01  0.51100000000E-03 0. -1.
        -11    1    3    3    0    0  0.37350226179E+02 -0.10917363230E+02  0.14315421511E+02  0.41462748448E+02  0.51100000000E-03 0.  1.
        -12    1    3    3    0    0  0.58794634259E+00 -0.40071693000E+00  0.43269141121E-01  0.71283039942E+00  0.00000000000E+00 0.  1.
</event>
<event>
 7    1  0.1485408E-008  0.4614232E+02  0.7816164E-02  0.1320468E+00
        -11   -1    0    0    0    0  0.00000000000E+00  0.00000000000E+00  0.45593999997E+02  0.45594000000E+02  0.51100000000E-03 0.  1.
         11   -1    0    0    0    0 -0.00000000000E+00 -0.00000000000E+00 -0.45593999997E+02  0.45594000000E+02  0.51100000000E-03 0. -1.
    9900012    2    1    2    0    0  0.95032816922E+01 -0.21863344346E+02  0.38220348619E+02  0.46142320547E+02  0.10000025400E+02 0.  0.
         12    1    1    2    0    0 -0.95032816922E+01  0.21863344346E+02 -0.38220348619E+02  0.45045679453E+02  0.00000000000E+00 0. -1.
         11    1    3    3    0    0 -0.74731221287E+00 -0.41831182374E+01  0.28668974668E+01  0.51260174676E+01  0.51100000000E-03 0. -1.
        -11    1    3    3    0    0  0.44179577834E+01 -0.81979846905E+01  0.19892423387E+02  0.21964375986E+02  0.51100000000E-03 0.  1.
         12    1    3    3    0    0  0.58326361217E+01 -0.94822414177E+01  0.15461027765E+02  0.19051927093E+02  0.00000000000E+00 0. -1.
</event>
<event>
 7    1  0.1485408E-008  0.4614232E+02  0.7816164E-02  0.1320468E+00
        -11   -1    0    0    0    0  0.00000000000E+00  0.00000000000E+00  0.45593999997E+02  0.45594000000E+02  0.51100000000E-03 0. -1.
         11   -1    0    0    0    0 -0.00000000000E+00 -0.00000000000E+00 -0.45593999997E+02  0.45594000000E+02  0.51100000000E-03 0.  1.
    9900012    2    1    2    0    0  0.31208371999E+02  0.15863294097E+02  0.28346193073E+02  0.46142320472E+02  0.10000024717E+02 0.  0.
         12    1    1    2    0    0 -0.31208371999E+02 -0.15863294097E+02 -0.28346193073E+02  0.45045679528E+02  0.00000000000E+00 0. -1.
         11    1    3    3    0    0  0.13555949983E+02  0.84078503436E+01  0.14408473814E+02  0.21495577342E+02  0.51100000000E-03 0.  1.
        -11    1    3    3    0    0  0.90248584863E+01  0.23549410125E+01  0.10515884730E+02  0.14056231706E+02  0.51100000000E-03 0. -1.
         12    1    3    3    0    0  0.86275635300E+01  0.51005027408E+01  0.34218345290E+01  0.10590511424E+02  0.00000000000E+00 0. -1.
</event>
<event>
 7    1  0.1485408E-008  0.4614232E+02  0.7816164E-02  0.1320468E+00
        -11   -1    0    0    0    0  0.00000000000E+00  0.00000000000E+00  0.45593999997E+02  0.45594000000E+02  0.51100000000E-03 0.  1.
         11   -1    0    0    0    0 -0.00000000000E+00 -0.00000000000E+00 -0.45593999997E+02  0.45594000000E+02  0.51100000000E-03 0. -1.
    9900012    2    1    2    0    0  0.41027098709E+02 -0.16135549429E+02  0.92484985683E+01  0.46142317525E+02  0.99999978447E+01 0.  0.
         12    1    1    2    0    0 -0.41027098709E+02  0.16135549429E+02 -0.92484985683E+01  0.45045682475E+02  0.00000000000E+00 0. -1.
         11    1    3    3    0    0  0.63732944018E+01 -0.19786575839E+01  0.48323829009E+01  0.82392895403E+01  0.51100000000E-03 0. -1.
        -11    1    3    3    0    0  0.11980116434E+02 -0.65261521550E+01  0.42409708249E+00  0.13648945392E+02  0.51100000000E-03 0.  1.
         12    1    3    3    0    0  0.22673687874E+02 -0.76307396901E+01  0.39920185850E+01  0.24254082593E+02  0.00000000000E+00 0. -1.
</event>
<event>
 7    1  0.1485408E-008  0.4614230E+02  0.7816164E-02  0.1320468E+00
        -11   -1    0    0    0    0  0.00000000000E+00  0.00000000000E+00  0.45593999997E+02  0.45594000000E+02  0.51100000000E-03 0.  1.
         11   -1    0    0    0    0 -0.00000000000E+00 -0.00000000000E+00 -0.45593999997E+02  0.45594000000E+02  0.51100000000E-03 0. -1.
    9900012    2    1    2    0    0  0.24653558740E+02 -0.11750841831E+02  0.35822261259E+02  0.46142304934E+02  0.99998830291E+01 0.  0.
         12    1    1    2    0    0 -0.24653558740E+02  0.11750841831E+02 -0.35822261259E+02  0.45045695066E+02  0.00000000000E+00 0. -1.
         11    1    3    3    0    0  0.53746734120E+01 -0.68018668443E+01  0.10400026627E+02  0.13539315380E+02  0.51100000000E-03 0. -1.
        -11    1    3    3    0    0  0.59222135550E+01 -0.21906068929E+00  0.10274304223E+02  0.11860941299E+02  0.51100000000E-03 0.  1.
         12    1    3    3    0    0  0.13356671773E+02 -0.47299142976E+01  0.15147930408E+02  0.20742048254E+02  0.00000000000E+00 0. -1.
</event>
<event>
 7    1  0.1485408E-008  0.4614232E+02  0.7816164E-02  0.1320468E+00
        -11   -1    0    0    0    0  0.00000000000E+00  0.00000000000E+00  0.45593999997E+02  0.45594000000E+02  0.51100000000E-03 0. -1.
         11   -1    0    0    0    0 -0.00000000000E+00 -0.00000000000E+00 -0.45593999997E+02  0.45594000000E+02  0.51100000000E-03 0.  1.
    9900012    2    1    2    0    0 -0.11230241068E+02 -0.40172788611E+02 -0.17004182118E+02  0.46142317979E+02  0.10000001990E+02 0.  0.
         12    1    1    2    0    0  0.11230241068E+02  0.40172788611E+02  0.17004182118E+02  0.45045682021E+02  0.00000000000E+00 0. -1.
         11    1    3    3    0    0 -0.15784733642E+01 -0.31584461858E+01 -0.44204998825E+01  0.56575772149E+01  0.51100000000E-03 0. -1.
        -11    1    3    3    0    0 -0.97748732289E+01 -0.34629047187E+02 -0.12510887233E+02  0.38095161837E+02  0.51100000000E-03 0.  1.
         12    1    3    3    0    0  0.12310552500E+00 -0.23852952375E+01 -0.72795002991E-01  0.23895789279E+01  0.00000000000E+00 0. -1.
</event>
<event>
 7    1  0.1485408E-008  0.4614232E+02  0.7816164E-02  0.1320468E+00
        -11   -1    0    0    0    0  0.00000000000E+00  0.00000000000E+00  0.45593999997E+02  0.45594000000E+02  0.51100000000E-03 0.  1.
         11   -1    0    0    0    0 -0.00000000000E+00 -0.00000000000E+00 -0.45593999997E+02  0.45594000000E+02  0.51100000000E-03 0. -1.
    9900012    2    1    2    0    0  0.40814754675E+02 -0.16742438892E+01  0.18985947754E+02  0.46142317589E+02  0.99999984270E+01 0.  0.
         12    1    1    2    0    0 -0.40814754675E+02  0.16742438892E+01 -0.18985947754E+02  0.45045682411E+02  0.00000000000E+00 0. -1.
         11    1    3    3    0    0  0.94387551280E+01 -0.24667140370E+01  0.80803134645E+01  0.12667527085E+02  0.51100000000E-03 0.  1.
        -11    1    3    3    0    0  0.22383878511E+02 -0.82219230674E+00  0.64432684509E+01  0.23307289117E+02  0.51100000000E-03 0. -1.
         12    1    3    3    0    0  0.89921210364E+01  0.16146624546E+01  0.44623658384E+01  0.10167501387E+02  0.00000000000E+00 0. -1.
</event>
<event>
 7    1  0.1485408E-008  0.4614232E+02  0.7816164E-02  0.1320468E+00
        -11   -1    0    0    0    0  0.00000000000E+00  0.00000000000E+00  0.45593999997E+02  0.45594000000E+02  0.51100000000E-03 0.  1.
         11   -1    0    0    0    0 -0.00000000000E+00 -0.00000000000E+00 -0.45593999997E+02  0.45594000000E+02  0.51100000000E-03 0. -1.
    9900012    2    1    2    0    0  0.18054742219E+02 -0.20340654415E+02  0.35908184111E+02  0.46142316247E+02  0.99999861962E+01 0.  0.
         12    1    1    2    0    0 -0.18054742219E+02  0.20340654415E+02 -0.35908184111E+02  0.45045683753E+02  0.00000000000E+00 0. -1.
         11    1    3    3    0    0  0.90305029631E+00 -0.85729907875E+00  0.50501413285E+01  0.52013833974E+01  0.51100000000E-03 0. -1.
        -11    1    3    3    0    0  0.17260981235E+02 -0.17612571437E+02  0.30118168947E+02  0.38926189729E+02  0.51100000000E-03 0.  1.
        -12    1    3    3    0    0 -0.10928931248E+00 -0.18707838994E+01  0.73987383486E+00  0.20147431210E+01  0.00000000000E+00 0.  1.
</event>
<event>
 7    1  0.1485408E-008  0.4614232E+02  0.7816164E-02  0.1320468E+00
        -11   -1    0    0    0    0  0.00000000000E+00  0.00000000000E+00  0.45593999997E+02  0.45594000000E+02  0.51100000000E-03 0.  1.
         11   -1    0    0    0    0 -0.00000000000E+00 -0.00000000000E+00 -0.45593999997E+02  0.45594000000E+02  0.51100000000E-03 0. -1.
    9900012    2    1    2    0    0  0.49647653824E+01  0.10071891341E+02  0.43623633934E+02  0.46142319541E+02  0.10000016227E+02 0.  0.
         12    1    1    2    0    0 -0.49647653824E+01 -0.10071891341E+02 -0.43623633934E+02  0.45045680459E+02  0.00000000000E+00 0. -1.
         11    1    3    3    0    0  0.24008505793E+01 -0.10949553613E-01  0.12624118054E+02  0.12850391445E+02  0.51100000000E-03 0. -1.
        -11    1    3    3    0    0  0.14017130975E+01  0.51872350521E+01  0.24446133363E+02  0.25029695239E+02  0.51100000000E-03 0.  1.
         12    1    3    3    0    0  0.11622017055E+01  0.48956058421E+01  0.65533825173E+01  0.82622328571E+01  0.00000000000E+00 0. -1.
</event>
<event>
 7    1  0.1485408E-008  0.4614232E+02  0.7816164E-02  0.1320468E+00
        -11   -1    0    0    0    0  0.00000000000E+00  0.00000000000E+00  0.45593999997E+02  0.45594000000E+02  0.51100000000E-03 0.  1.
         11   -1    0    0    0    0 -0.00000000000E+00 -0.00000000000E+00 -0.45593999997E+02  0.45594000000E+02  0.51100000000E-03 0. -1.
    9900012    2    1    2    0    0 -0.16676897721E+01 -0.16793998058E+01  0.44983462124E+02  0.46142318325E+02  0.10000005145E+02 0.  0.
         12    1    1    2    0    0  0.16676897721E+01  0.16793998058E+01 -0.44983462124E+02  0.45045681675E+02  0.00000000000E+00 0. -1.
         11    1    3    3    0    0 -0.18542534154E+01 -0.14031057871E+01  0.29281671403E+02  0.29373853033E+02  0.51100000000E-03 0.  1.
        -11    1    3    3    0    0  0.20952295380E+01 -0.18109866705E+01  0.12099934225E+02  0.12412818699E+02  0.51100000000E-03 0. -1.
         12    1    3    3    0    0 -0.19086658947E+01  0.15346926518E+01  0.36018564956E+01  0.43556465936E+01  0.00000000000E+00 0. -1.
</event>
<event>
 7    1  0.1485408E-008  0.4614232E+02  0.7816164E-02  0.1320468E+00
        -11   -1    0    0    0    0  0.00000000000E+00  0.00000000000E+00  0.45593999997E+02  0.45594000000E+02  0.51100000000E-03 0. -1.
         11   -1    0    0    0    0 -0.00000000000E+00 -0.00000000000E+00 -0.45593999997E+02  0.45594000000E+02  0.51100000000E-03 0.  1.
    9900012    2    1    2    0    0 -0.33730734280E+02  0.84472235362E+01 -0.28635560651E+02  0.46142319249E+02  0.10000013569E+02 0.  0.
         12    1    1    2    0    0  0.33730734280E+02 -0.84472235362E+01  0.28635560651E+02  0.45045680751E+02  0.00000000000E+00 0. -1.
         11    1    3    3    0    0 -0.10164744166E+01  0.10953084818E+01 -0.14341576068E+01  0.20711661479E+01  0.51100000000E-03 0. -1.
        -11    1    3    3    0    0 -0.29621460757E+02  0.83973149876E+01 -0.26729180153E+02  0.40772477338E+02  0.51100000000E-03 0.  1.
        -12    1    3    3    0    0 -0.30927991057E+01 -0.10453999332E+01 -0.47222289107E+00  0.32986757627E+01  0.00000000000E+00 0.  1.
</event>
<event>
 7    1  0.1485408E-008  0.4614232E+02  0.7816164E-02  0.1320468E+00
        -11   -1    0    0    0    0  0.00000000000E+00  0.00000000000E+00  0.45593999997E+02  0.45594000000E+02  0.51100000000E-03 0. -1.
         11   -1    0    0    0    0 -0.00000000000E+00 -0.00000000000E+00 -0.45593999997E+02  0.45594000000E+02  0.51100000000E-03 0.  1.
    9900012    2    1    2    0    0  0.95779641643E+01  0.41656287937E+02 -0.14217234923E+02  0.46142317731E+02  0.99999997210E+01 0.  0.
         12    1    1    2    0    0 -0.95779641643E+01 -0.41656287937E+02  0.14217234923E+02  0.45045682269E+02  0.00000000000E+00 0. -1.
         11    1    3    3    0    0  0.15669328037E+01  0.10693674357E+02 -0.66876589533E+01  0.12709631474E+02  0.51100000000E-03 0. -1.
        -11    1    3    3    0    0  0.82718865383E+01  0.20645166255E+02 -0.55704080976E+01  0.22927634925E+02  0.51100000000E-03 0.  1.
         12    1    3    3    0    0 -0.26085517774E+00  0.10317447325E+02 -0.19591678724E+01  0.10505051332E+02  0.00000000000E+00 0. -1.
</event>
<event>
 7    1  0.1485408E-008  0.4614232E+02  0.7816164E-02  0.1320468E+00
        -11   -1    0    0    0    0  0.00000000000E+00  0.00000000000E+00  0.45593999997E+02  0.45594000000E+02  0.51100000000E-03 0. -1.
         11   -1    0    0    0    0 -0.00000000000E+00 -0.00000000000E+00 -0.45593999997E+02  0.45594000000E+02  0.51100000000E-03 0.  1.
    9900012    2    1    2    0    0  0.79331620951E+00 -0.44196848096E+02 -0.86673362824E+01  0.46142318182E+02  0.10000003835E+02 0.  0.
         12    1    1    2    0    0 -0.79331620951E+00  0.44196848096E+02  0.86673362824E+01  0.45045681818E+02  0.00000000000E+00 0. -1.
         11    1    3    3    0    0 -0.18145650231E+01 -0.10608499254E+02 -0.50038649243E+01  0.11868932854E+02  0.51100000000E-03 0. -1.
        -11    1    3    3    0    0  0.23170400781E+01 -0.31494593376E+02 -0.46855112819E+01  0.31925414686E+02  0.51100000000E-03 0.  1.
        -12    1    3    3    0    0  0.29084115451E+00 -0.20937554660E+01  0.10220399237E+01  0.23479706416E+01  0.00000000000E+00 0.  1.
</event>
<event>
 7    1  0.1485408E-008  0.4614232E+02  0.7816164E-02  0.1320468E+00
        -11   -1    0    0    0    0  0.00000000000E+00  0.00000000000E+00  0.45593999997E+02  0.45594000000E+02  0.51100000000E-03 0. -1.
         11   -1    0    0    0    0 -0.00000000000E+00 -0.00000000000E+00 -0.45593999997E+02  0.45594000000E+02  0.51100000000E-03 0.  1.
    9900012    2    1    2    0    0 -0.26166446835E+02 -0.29157313524E+02 -0.22232445237E+02  0.46142317709E+02  0.99999995210E+01 0.  0.
         12    1    1    2    0    0  0.26166446835E+02  0.29157313524E+02  0.22232445237E+02  0.45045682291E+02  0.00000000000E+00 0. -1.
         11    1    3    3    0    0  0.67876989037E+00 -0.18260948500E+01 -0.17098520552E+01  0.25920928373E+01  0.51100000000E-03 0. -1.
        -11    1    3    3    0    0 -0.11523268500E+02 -0.11422737584E+02 -0.71557496930E+01  0.17733285222E+02  0.51100000000E-03 0.  1.
        -12    1    3    3    0    0 -0.15321948225E+02 -0.15908481090E+02 -0.13366843489E+02  0.25816939649E+02  0.00000000000E+00 0.  1.
</event>
<event>
 7    1  0.1485408E-008  0.4614232E+02  0.7816164E-02  0.1320468E+00
        -11   -1    0    0    0    0  0.00000000000E+00  0.00000000000E+00  0.45593999997E+02  0.45594000000E+02  0.51100000000E-03 0.  1.
         11   -1    0    0    0    0 -0.00000000000E+00 -0.00000000000E+00 -0.45593999997E+02  0.45594000000E+02  0.51100000000E-03 0. -1.
    9900012    2    1    2    0    0 -0.31311061753E+00 -0.68614304604E+01  0.44518943448E+02  0.46142316611E+02  0.99999895139E+01 0.  0.
         12    1    1    2    0    0  0.31311061753E+00  0.68614304604E+01 -0.44518943448E+02  0.45045683389E+02  0.00000000000E+00 0. -1.
         11    1    3    3    0    0 -0.67826382359E+00  0.46987424048E+00  0.12208474923E+02  0.12236326402E+02  0.51100000000E-03 0. -1.
        -11    1    3    3    0    0  0.19351026802E+01 -0.11716222586E+01  0.22862462464E+01  0.32162467661E+01  0.51100000000E-03 0.  1.
        -12    1    3    3    0    0 -0.15699494741E+01 -0.61596824423E+01  0.30024222279E+02  0.30689743443E+02  0.00000000000E+00 0.  1.
</event>
<event>
 7    1  0.1485408E-008  0.4614232E+02  0.7816164E-02  0.1320468E+00
        -11   -1    0    0    0    0  0.00000000000E+00  0.00000000000E+00  0.45593999997E+02  0.45594000000E+02  0.51100000000E-03 0. -1.
         11   -1    0    0    0    0 -0.00000000000E+00 -0.00000000000E+00 -0.45593999997E+02  0.45594000000E+02  0.51100000000E-03 0.  1.
    9900012    2    1    2    0    0  0.15190983378E+02  0.30798719602E+02 -0.29151092589E+02  0.46142319805E+02  0.10000018638E+02 0.  0.
         12    1    1    2    0    0 -0.15190983378E+02 -0.30798719602E+02  0.29151092589E+02  0.45045680195E+02  0.00000000000E+00 0. -1.
         11    1    3    3    0    0  0.55904603262E+01  0.31899096787E+01 -0.41449702224E+01  0.76556873514E+01  0.51100000000E-03 0. -1.
        -11    1    3    3    0    0  0.66723647113E+01  0.17479322852E+02 -0.15763193820E+02  0.24464779948E+02  0.51100000000E-03 0.  1.
         12    1    3    3    0    0  0.29281583405E+01  0.10129487071E+02 -0.92429285465E+01  0.14021852506E+02  0.00000000000E+00 0. -1.
</event>
<event>
 7    1  0.1485408E-008  0.4614232E+02  0.7816164E-02  0.1320468E+00
        -11   -1    0    0    0    0  0.00000000000E+00  0.00000000000E+00  0.45593999997E+02  0.45594000000E+02  0.51100000000E-03 0.  1.
         11   -1    0    0    0    0 -0.00000000000E+00 -0.00000000000E+00 -0.45593999997E+02  0.45594000000E+02  0.51100000000E-03 0. -1.
    9900012    2    1    2    0    0  0.39733145679E+01  0.26363915859E+02  0.36307991001E+02  0.46142317648E+02  0.99999989663E+01 0.  0.
         12    1    1    2    0    0 -0.39733145679E+01 -0.26363915859E+02 -0.36307991001E+02  0.45045682352E+02  0.00000000000E+00 0. -1.
         11    1    3    3    0    0 -0.41237834253E+00  0.15609457302E+02  0.16970090044E+02  0.23060988043E+02  0.51100000000E-03 0. -1.
        -11    1    3    3    0    0  0.14226420434E+01  0.28887261962E+01  0.10057221960E+02  0.10560130834E+02  0.51100000000E-03 0.  1.
        -12    1    3    3    0    0  0.29630508670E+01  0.78657323608E+01  0.92806789973E+01  0.12521198771E+02  0.00000000000E+00 0.  1.
</event>
<event>
 7    1  0.1485408E-008  0.4614232E+02  0.7816164E-02  0.1320468E+00
        -11   -1    0    0    0    0  0.00000000000E+00  0.00000000000E+00  0.45593999997E+02  0.45594000000E+02  0.51100000000E-03 0.  1.
         11   -1    0    0    0    0 -0.00000000000E+00 -0.00000000000E+00 -0.45593999997E+02  0.45594000000E+02  0.51100000000E-03 0. -1.
    9900012    2    1    2    0    0  0.10119081209E+02 -0.19826350683E+01  0.43849593008E+02  0.46142318150E+02  0.10000003548E+02 0.  0.
         12    1    1    2    0    0 -0.10119081209E+02  0.19826350683E+01 -0.43849593008E+02  0.45045681850E+02  0.00000000000E+00 0. -1.
         11    1    3    3    0    0  0.71987183982E+01 -0.27543905176E+01  0.25565311282E+02  0.26701935415E+02  0.51100000000E-03 0. -1.
        -11    1    3    3    0    0  0.64114872915E+00  0.30162611443E+01  0.59947635542E+01  0.67413717681E+01  0.51100000000E-03 0.  1.
        -12    1    3    3    0    0  0.22792140821E+01 -0.22445056950E+01  0.12289518172E+02  0.12699010967E+02  0.00000000000E+00 0.  1.
</event>
<event>
 7    1  0.1485408E-008  0.4614232E+02  0.7816164E-02  0.1320468E+00
        -11   -1    0    0    0    0  0.00000000000E+00  0.00000000000E+00  0.45593999997E+02  0.45594000000E+02  0.51100000000E-03 0.  1.
         11   -1    0    0    0    0 -0.00000000000E+00 -0.00000000000E+00 -0.45593999997E+02  0.45594000000E+02  0.51100000000E-03 0. -1.
    9900012    2    1    2    0    0  0.50174065109E+01 -0.44125355018E+02 -0.75426920450E+01  0.46142317334E+02  0.99999961033E+01 0.  0.
         12    1    1    2    0    0 -0.50174065109E+01  0.44125355018E+02  0.75426920450E+01  0.45045682666E+02  0.00000000000E+00 0. -1.
         11    1    3    3    0    0  0.50811924967E+01 -0.22670053664E+02 -0.44497662340E+01  0.23654814945E+02  0.51100000000E-03 0. -1.
        -11    1    3    3    0    0  0.72825098497E+00 -0.42063651388E+01  0.16565849904E+01  0.45790972112E+01  0.51100000000E-03 0.  1.
        -12    1    3    3    0    0 -0.79203697071E+00 -0.17248936216E+02 -0.47495108015E+01  0.17908405177E+02  0.00000000000E+00 0.  1.
</event>
<event>
 7    1  0.1485408E-008  0.4614232E+02  0.7816164E-02  0.1320468E+00
        -11   -1    0    0    0    0  0.00000000000E+00  0.00000000000E+00  0.45593999997E+02  0.45594000000E+02  0.51100000000E-03 0.  1.
         11   -1    0    0    0    0 -0.00000000000E+00 -0.00000000000E+00 -0.45593999997E+02  0.45594000000E+02  0.51100000000E-03 0. -1.
    9900012    2    1    2    0    0  0.28468845682E+02 -0.14878123925E+02  0.31579735968E+02  0.46142317967E+02  0.10000001876E+02 0.  0.
         12    1    1    2    0    0 -0.28468845682E+02  0.14878123925E+02 -0.31579735968E+02  0.45045682033E+02  0.00000000000E+00 0. -1.
         11    1    3    3    0    0  0.70349930514E+01 -0.25463014412E+01  0.95991324872E+01  0.12170378919E+02  0.51100000000E-03 0. -1.
        -11    1    3    3    0    0  0.14842903566E+02 -0.42141738276E+01  0.13696497335E+02  0.20631652547E+02  0.51100000000E-03 0.  1.
        -12    1    3    3    0    0  0.65909490651E+01 -0.81176486563E+01  0.82841061456E+01  0.13340286501E+02  0.00000000000E+00 0.  1.
</event>
<event>
 7    1  0.1485408E-008  0.4614232E+02  0.7816164E-02  0.1320468E+00
        -11   -1    0    0    0    0  0.00000000000E+00  0.00000000000E+00  0.45593999997E+02  0.45594000000E+02  0.51100000000E-03 0.  1.
         11   -1    0    0    0    0 -0.00000000000E+00 -0.00000000000E+00 -0.45593999997E+02  0.45594000000E+02  0.51100000000E-03 0. -1.
    9900012    2    1    2    0    0  0.30705225408E+02  0.19271148961E+02  0.26738090907E+02  0.46142317022E+02  0.99999932582E+01 0.  0.
         12    1    1    2    0    0 -0.30705225408E+02 -0.19271148961E+02 -0.26738090907E+02  0.45045682978E+02  0.00000000000E+00 0. -1.
         11    1    3    3    0    0  0.46574284506E+01  0.15513766498E+01  0.67101225057E+01  0.83140936719E+01  0.51100000000E-03 0. -1.
        -11    1    3    3    0    0  0.32794503028E+01  0.41747279783E+01  0.53684405517E+01  0.75500531257E+01  0.51100000000E-03 0.  1.
         12    1    3    3    0    0  0.22768346654E+02  0.13545044333E+02  0.14659527849E+02  0.30278170224E+02  0.00000000000E+00 0. -1.
</event>
<event>
 7    1  0.1494437E-008  0.4614232E+02  0.7816164E-02  0.1320468E+00
        -11   -1    0    0    0    0  0.00000000000E+00  0.00000000000E+00  0.45593999997E+02  0.45594000000E+02  0.51100000000E-03 0.  1.
         11   -1    0    0    0    0 -0.00000000000E+00 -0.00000000000E+00 -0.45593999997E+02  0.45594000000E+02  0.51100000000E-03 0. -1.
    9900012    2    1    2    0    0 -0.38230377138E+02  0.95999992333E+01 -0.21803481041E+02  0.46142317555E+02  0.99999981238E+01 0.  0.
         12    1    1    2    0    0  0.38230377138E+02 -0.95999992333E+01  0.21803481041E+02  0.45045682445E+02  0.00000000000E+00 0. -1.
         11    1    3    3    0    0 -0.12133310029E+02  0.71464187534E+01 -0.91336262914E+01  0.16784267716E+02  0.51100000000E-03 0. -1.
        -11    1    3    3    0    0 -0.15602398862E+02  0.18412323431E+01 -0.95788477205E+01  0.18400524740E+02  0.51100000000E-03 0.  1.
         12    1    3    3    0    0 -0.10494668248E+02  0.61234813692E+00 -0.30910070287E+01  0.10957525100E+02  0.00000000000E+00 0. -1.
</event>
<event>
 7    1  0.1485408E-008  0.4614232E+02  0.7816164E-02  0.1320468E+00
        -11   -1    0    0    0    0  0.00000000000E+00  0.00000000000E+00  0.45593999997E+02  0.45594000000E+02  0.51100000000E-03 0. -1.
         11   -1    0    0    0    0 -0.00000000000E+00 -0.00000000000E+00 -0.45593999997E+02  0.45594000000E+02  0.51100000000E-03 0.  1.
    9900012    2    1    2    0    0 -0.33370436001E+02  0.28705667189E+02  0.95661974291E+01  0.46142318066E+02  0.10000002780E+02 0.  0.
         12    1    1    2    0    0  0.33370436001E+02 -0.28705667189E+02 -0.95661974291E+01  0.45045681934E+02  0.00000000000E+00 0. -1.
         11    1    3    3    0    0 -0.67875240634E+01  0.38244855796E+01  0.42079999041E+01  0.88546279602E+01  0.51100000000E-03 0. -1.
        -11    1    3    3    0    0 -0.26704995705E+02  0.23735288079E+02  0.54018742423E+01  0.36134484103E+02  0.51100000000E-03 0.  1.
        -12    1    3    3    0    0  0.12208376772E+00  0.11458935302E+01 -0.43676717250E-01  0.11532060026E+01  0.00000000000E+00 0.  1.
</event>
<event>
 7    1  0.1485408E-008  0.4614232E+02  0.7816164E-02  0.1320468E+00
        -11   -1    0    0    0    0  0.00000000000E+00  0.00000000000E+00  0.45593999997E+02  0.45594000000E+02  0.51100000000E-03 0.  1.
         11   -1    0    0    0    0 -0.00000000000E+00 -0.00000000000E+00 -0.45593999997E+02  0.45594000000E+02  0.51100000000E-03 0. -1.
    9900012    2    1    2    0    0  0.32936070823E+02 -0.29293209762E+02  0.92863676913E+01  0.46142317362E+02  0.99999963644E+01 0.  0.
         12    1    1    2    0    0 -0.32936070823E+02  0.29293209762E+02 -0.92863676913E+01  0.45045682638E+02  0.00000000000E+00 0. -1.
         11    1    3    3    0    0  0.11544534047E+02 -0.87625218753E+01 -0.64952815959E+00  0.14507926905E+02  0.51100000000E-03 0. -1.
        -11    1    3    3    0    0  0.55395927872E+01 -0.54783210604E+01  0.48938626266E+01  0.92004881151E+01  0.51100000000E-03 0.  1.
         12    1    3    3    0    0  0.15851943988E+02 -0.15052366826E+02  0.50420332243E+01  0.22433902342E+02  0.00000000000E+00 0. -1.
</event>
<event>
 7    1  0.1485408E-008  0.4614232E+02  0.7816164E-02  0.1320468E+00
        -11   -1    0    0    0    0  0.00000000000E+00  0.00000000000E+00  0.45593999997E+02  0.45594000000E+02  0.51100000000E-03 0. -1.
         11   -1    0    0    0    0 -0.00000000000E+00 -0.00000000000E+00 -0.45593999997E+02  0.45594000000E+02  0.51100000000E-03 0.  1.
    9900012    2    1    2    0    0 -0.29415944585E+02 -0.33588569481E+02 -0.59685637052E+01  0.46142317096E+02  0.99999939341E+01 0.  0.
         12    1    1    2    0    0  0.29415944585E+02  0.33588569481E+02  0.59685637052E+01  0.45045682904E+02  0.00000000000E+00 0. -1.
         11    1    3    3    0    0 -0.10375326674E+02 -0.17365211077E+02 -0.24321010988E+01  0.20374323924E+02  0.51100000000E-03 0. -1.
        -11    1    3    3    0    0 -0.42040003309E+01 -0.62339761494E+01  0.82188991612E-01  0.75194968385E+01  0.51100000000E-03 0.  1.
         12    1    3    3    0    0 -0.14836617580E+02 -0.99893822544E+01 -0.36186515980E+01  0.18248496333E+02  0.00000000000E+00 0. -1.
</event>
<event>
 7    1  0.1485408E-008  0.4614232E+02  0.7816164E-02  0.1320468E+00
        -11   -1    0    0    0    0  0.00000000000E+00  0.00000000000E+00  0.45593999997E+02  0.45594000000E+02  0.51100000000E-03 0. -1.
         11   -1    0    0    0    0 -0.00000000000E+00 -0.00000000000E+00 -0.45593999997E+02  0.45594000000E+02  0.51100000000E-03 0.  1.
    9900012    2    1    2    0    0  0.36214624212E+02 -0.23190262211E+02 -0.13409929580E+02  0.46142317859E+02  0.10000000893E+02 0.  0.
         12    1    1    2    0    0 -0.36214624212E+02  0.23190262211E+02  0.13409929580E+02  0.45045682141E+02  0.00000000000E+00 0. -1.
         11    1    3    3    0    0  0.22785006917E+02 -0.13351946897E+02 -0.92017782766E+01  0.27966117890E+02  0.51100000000E-03 0.  1.
        -11    1    3    3    0    0  0.51482240400E+01 -0.59828383704E+01  0.48195038949E+00  0.79076445400E+01  0.51100000000E-03 0. -1.
         12    1    3    3    0    0  0.82813932551E+01 -0.38554769434E+01 -0.46901016926E+01  0.10268555429E+02  0.00000000000E+00 0. -1.
</event>
<event>
 7    1  0.1485408E-008  0.4614232E+02  0.7816164E-02  0.1320468E+00
        -11   -1    0    0    0    0  0.00000000000E+00  0.00000000000E+00  0.45593999997E+02  0.45594000000E+02  0.51100000000E-03 0.  1.
         11   -1    0    0    0    0 -0.00000000000E+00 -0.00000000000E+00 -0.45593999997E+02  0.45594000000E+02  0.51100000000E-03 0. -1.
    9900012    2    1    2    0    0 -0.30827913272E+02  0.97421835643E+01  0.31366274072E+02  0.46142317338E+02  0.99999961390E+01 0.  0.
         12    1    1    2    0    0  0.30827913272E+02 -0.97421835643E+01 -0.31366274072E+02  0.45045682662E+02  0.00000000000E+00 0. -1.
         11    1    3    3    0    0 -0.48774541790E+01 -0.15951349914E+00  0.98771816822E+01  0.11016974270E+02  0.51100000000E-03 0. -1.
        -11    1    3    3    0    0 -0.24349241678E+02  0.93424796448E+01  0.19957014905E+02  0.32839761576E+02  0.51100000000E-03 0.  1.
         12    1    3    3    0    0 -0.16012174151E+01  0.55921741861E+00  0.15320774854E+01  0.22855814912E+01  0.00000000000E+00 0. -1.
</event>
<event>
 7    1  0.1485408E-008  0.4614231E+02  0.7816164E-02  0.1320468E+00
        -11   -1    0    0    0    0  0.00000000000E+00  0.00000000000E+00  0.45593999997E+02  0.45594000000E+02  0.51100000000E-03 0.  1.
         11   -1    0    0    0    0 -0.00000000000E+00 -0.00000000000E+00 -0.45593999997E+02  0.45594000000E+02  0.51100000000E-03 0. -1.
    9900012    2    1    2    0    0 -0.44725909179E+02  0.45657749445E+01  0.28036645279E+01  0.46142314441E+02  0.99999697236E+01 0.  0.
         12    1    1    2    0    0  0.44725909179E+02 -0.45657749445E+01 -0.28036645279E+01  0.45045685559E+02  0.00000000000E+00 0. -1.
         11    1    3    3    0    0 -0.61350540247E+01  0.18814529005E+01 -0.10977994361E+01  0.65102931398E+01  0.51100000000E-03 0. -1.
        -11    1    3    3    0    0 -0.35301154161E+02  0.30414866237E+01  0.56656949672E+01  0.35882059942E+02  0.51100000000E-03 0.  1.
        -12    1    3    3    0    0 -0.32897009934E+01 -0.35716457969E+00 -0.17642310032E+01  0.37499613592E+01  0.00000000000E+00 0.  1.
</event>
<event>
 7    1  0.1485408E-008  0.4614232E+02  0.7816164E-02  0.1320468E+00
        -11   -1    0    0    0    0  0.00000000000E+00  0.00000000000E+00  0.45593999997E+02  0.45594000000E+02  0.51100000000E-03 0. -1.
         11   -1    0    0    0    0 -0.00000000000E+00 -0.00000000000E+00 -0.45593999997E+02  0.45594000000E+02  0.51100000000E-03 0.  1.
    9900012    2    1    2    0    0  0.14519594691E+02 -0.39810721134E+02 -0.15277477926E+02  0.46142317866E+02  0.10000000952E+02 0.  0.
         12    1    1    2    0    0 -0.14519594691E+02  0.39810721134E+02  0.15277477926E+02  0.45045682134E+02  0.00000000000E+00 0. -1.
         11    1    3    3    0    0  0.47589033643E+01 -0.90694950308E+01 -0.53304559318E+01  0.11546283473E+02  0.51100000000E-03 0. -1.
        -11    1    3    3    0    0  0.47056027819E+00 -0.83798733034E+01 -0.53384191087E+01  0.99469805669E+01  0.51100000000E-03 0.  1.
        -12    1    3    3    0    0  0.92901310486E+01 -0.22361352800E+02 -0.46086028853E+01  0.24649053825E+02  0.00000000000E+00 0.  1.
</event>
<event>
 7    1  0.1485408E-008  0.4614232E+02  0.7816164E-02  0.1320468E+00
        -11   -1    0    0    0    0  0.00000000000E+00  0.00000000000E+00  0.45593999997E+02  0.45594000000E+02  0.51100000000E-03 0.  1.
         11   -1    0    0    0    0 -0.00000000000E+00 -0.00000000000E+00 -0.45593999997E+02  0.45594000000E+02  0.51100000000E-03 0. -1.
    9900012    2    1    2    0    0  0.40609982381E+02  0.16474748019E+02 -0.10417558062E+02  0.46142317551E+02  0.99999980857E+01 0.  0.
         12    1    1    2    0    0 -0.40609982381E+02 -0.16474748019E+02  0.10417558062E+02  0.45045682449E+02  0.00000000000E+00 0. -1.
         11    1    3    3    0    0  0.94275159031E+01  0.23525679172E+01 -0.35300162394E+01  0.10337971117E+02  0.51100000000E-03 0. -1.
        -11    1    3    3    0    0  0.28386511454E+02  0.11441678967E+02 -0.37793269555E+01  0.30838115419E+02  0.51100000000E-03 0.  1.
        -12    1    3    3    0    0  0.27959550240E+01  0.26805011352E+01 -0.31082148668E+01  0.49662310146E+01  0.00000000000E+00 0.  1.
</event>
<event>
 7    1  0.1485408E-008  0.4614232E+02  0.7816164E-02  0.1320468E+00
        -11   -1    0    0    0    0  0.00000000000E+00  0.00000000000E+00  0.45593999997E+02  0.45594000000E+02  0.51100000000E-03 0.  1.
         11   -1    0    0    0    0 -0.00000000000E+00 -0.00000000000E+00 -0.45593999997E+02  0.45594000000E+02  0.51100000000E-03 0. -1.
    9900012    2    1    2    0    0  0.33584545277E+02 -0.13304991589E+00  0.30019562897E+02  0.46142317185E+02  0.99999947439E+01 0.  0.
         12    1    1    2    0    0 -0.33584545277E+02  0.13304991589E+00 -0.30019562897E+02  0.45045682815E+02  0.00000000000E+00 0. -1.
         11    1    3    3    0    0  0.11009737273E+01 -0.59611715534E+00 -0.38506442751E+00  0.13098754466E+01  0.51100000000E-03 0. -1.
        -11    1    3    3    0    0  0.24843269184E+02 -0.19735265062E+01  0.22630616982E+02  0.33663446881E+02  0.51100000000E-03 0.  1.
        -12    1    3    3    0    0  0.76403023652E+01  0.24365937456E+01  0.77740103427E+01  0.11168994857E+02  0.00000000000E+00 0.  1.
</event>
<event>
 7    1  0.1485408E-008  0.4614232E+02  0.7816164E-02  0.1320468E+00
        -11   -1    0    0    0    0  0.00000000000E+00  0.00000000000E+00  0.45593999997E+02  0.45594000000E+02  0.51100000000E-03 0. -1.
         11   -1    0    0    0    0 -0.00000000000E+00 -0.00000000000E+00 -0.45593999997E+02  0.45594000000E+02  0.51100000000E-03 0.  1.
    9900012    2    1    2    0    0  0.32241009421E+02  0.30500071718E+02  0.77056116726E+01  0.46142317471E+02  0.99999973528E+01 0.  0.
         12    1    1    2    0    0 -0.32241009421E+02 -0.30500071718E+02 -0.77056116726E+01  0.45045682529E+02  0.00000000000E+00 0. -1.
         11    1    3    3    0    0  0.51129463831E+01  0.97012520431E+01  0.14807687464E+01  0.11065676132E+02  0.51100000000E-03 0. -1.
        -11    1    3    3    0    0  0.17042313783E+02  0.15046966073E+02  0.24410922371E+01  0.22865051468E+02  0.51100000000E-03 0.  1.
         12    1    3    3    0    0  0.10085749255E+02  0.57518536025E+01  0.37837506891E+01  0.12211589871E+02  0.00000000000E+00 0. -1.
</event>
<event>
 7    1  0.1485408E-008  0.4614232E+02  0.7816164E-02  0.1320468E+00
        -11   -1    0    0    0    0  0.00000000000E+00  0.00000000000E+00  0.45593999997E+02  0.45594000000E+02  0.51100000000E-03 0.  1.
         11   -1    0    0    0    0 -0.00000000000E+00 -0.00000000000E+00 -0.45593999997E+02  0.45594000000E+02  0.51100000000E-03 0. -1.
    9900012    2    1    2    0    0 -0.58870841601E+01 -0.26160185570E+02  0.36195308942E+02  0.46142318094E+02  0.10000003035E+02 0.  0.
         12    1    1    2    0    0  0.58870841601E+01  0.26160185570E+02 -0.36195308942E+02  0.45045681906E+02  0.00000000000E+00 0. -1.
         11    1    3    3    0    0 -0.46233288334E+01 -0.17200230724E+02  0.23417900447E+02  0.29421440619E+02  0.51100000000E-03 0. -1.
        -11    1    3    3    0    0  0.32845777390E+00 -0.52506488055E+00  0.53025885759E+01  0.53386349852E+01  0.51100000000E-03 0.  1.
         12    1    3    3    0    0 -0.15922131006E+01 -0.84348899647E+01  0.74748199196E+01  0.11382242490E+02  0.00000000000E+00 0. -1.
</event>
<event>
 7    1  0.1485408E-008  0.4614232E+02  0.7816164E-02  0.1320468E+00
        -11   -1    0    0    0    0  0.00000000000E+00  0.00000000000E+00  0.45593999997E+02  0.45594000000E+02  0.51100000000E-03 0.  1.
         11   -1    0    0    0    0 -0.00000000000E+00 -0.00000000000E+00 -0.45593999997E+02  0.45594000000E+02  0.51100000000E-03 0. -1.
    9900012    2    1    2    0    0  0.62293025582E+01 -0.99461060285E+01  0.43490047679E+02  0.46142317825E+02  0.10000000580E+02 0.  0.
         12    1    1    2    0    0 -0.62293025582E+01  0.99461060285E+01 -0.43490047679E+02  0.45045682175E+02  0.00000000000E+00 0. -1.
         11    1    3    3    0    0  0.32185532760E+01 -0.23502964754E+01  0.28355426934E+02  0.28634126765E+02  0.51100000000E-03 0. -1.
        -11    1    3    3    0    0  0.14276191980E+01 -0.12073817723E+01  0.57448330626E+01  0.60414381150E+01  0.51100000000E-03 0.  1.
         12    1    3    3    0    0  0.15831300842E+01 -0.63884277808E+01  0.93897876826E+01  0.11466752945E+02  0.00000000000E+00 0. -1.
</event>
<event>
 7    1  0.1485408E-008  0.4614232E+02  0.7816164E-02  0.1320468E+00
        -11   -1    0    0    0    0  0.00000000000E+00  0.00000000000E+00  0.45593999997E+02  0.45594000000E+02  0.51100000000E-03 0.  1.
         11   -1    0    0    0    0 -0.00000000000E+00 -0.00000000000E+00 -0.45593999997E+02  0.45594000000E+02  0.51100000000E-03 0. -1.
    9900012    2    1    2    0    0  0.58028937316E+01  0.20396286542E+02  0.39742060703E+02  0.46142317973E+02  0.10000001930E+02 0.  0.
         12    1    1    2    0    0 -0.58028937316E+01 -0.20396286542E+02 -0.39742060703E+02  0.45045682027E+02  0.00000000000E+00 0. -1.
         11    1    3    3    0    0  0.10034362993E+01  0.89556420502E+01  0.25350852572E+02  0.26904946299E+02  0.51100000000E-03 0. -1.
        -11    1    3    3    0    0  0.48729872591E+01  0.11398467356E+02  0.14514507506E+02  0.19087744531E+02  0.51100000000E-03 0.  1.
         12    1    3    3    0    0 -0.73529826719E-01  0.42177135640E-01 -0.12329937450E+00  0.14962714306E+00  0.00000000000E+00 0. -1.
</event>
<event>
 7    1  0.1485408E-008  0.4614232E+02  0.7816164E-02  0.1320468E+00
        -11   -1    0    0    0    0  0.00000000000E+00  0.00000000000E+00  0.45593999997E+02  0.45594000000E+02  0.51100000000E-03 0.  1.
         11   -1    0    0    0    0 -0.00000000000E+00 -0.00000000000E+00 -0.45593999997E+02  0.45594000000E+02  0.51100000000E-03 0. -1.
    9900012    2    1    2    0    0  0.27940033447E+02 -0.20888739442E+02  0.28497870286E+02  0.46142317461E+02  0.99999972648E+01 0.  0.
         12    1    1    2    0    0 -0.27940033447E+02  0.20888739442E+02 -0.28497870286E+02  0.45045682539E+02  0.00000000000E+00 0. -1.
         11    1    3    3    0    0  0.12573028367E+02 -0.76191204893E+01  0.84195505724E+01  0.16941690337E+02  0.51100000000E-03 0. -1.
        -11    1    3    3    0    0  0.87034920714E+01 -0.10873262313E+02  0.11389266541E+02  0.17991497997E+02  0.51100000000E-03 0.  1.
         12    1    3    3    0    0  0.66635130087E+01 -0.23963566398E+01  0.86890531725E+01  0.11209129128E+02  0.00000000000E+00 0. -1.
</event>
<event>
 7    1  0.1485408E-008  0.4614232E+02  0.7816164E-02  0.1320468E+00
        -11   -1    0    0    0    0  0.00000000000E+00  0.00000000000E+00  0.45593999997E+02  0.45594000000E+02  0.51100000000E-03 0.  1.
         11   -1    0    0    0    0 -0.00000000000E+00 -0.00000000000E+00 -0.45593999997E+02  0.45594000000E+02  0.51100000000E-03 0. -1.
    9900012    2    1    2    0    0 -0.36540270750E+02  0.21379803949E+02 -0.15389155330E+02  0.46142317574E+02  0.99999982961E+01 0.  0.
         12    1    1    2    0    0  0.36540270750E+02 -0.21379803949E+02  0.15389155330E+02  0.45045682426E+02  0.00000000000E+00 0. -1.
         11    1    3    3    0    0 -0.10997285786E+02  0.62675751454E+01 -0.91056112737E+01  0.15592785184E+02  0.51100000000E-03 0. -1.
        -11    1    3    3    0    0 -0.22906937831E+02  0.13738548290E+02 -0.45125637508E+01  0.27089458130E+02  0.51100000000E-03 0.  1.
        -12    1    3    3    0    0 -0.26360471332E+01  0.13736805141E+01 -0.17709803059E+01  0.34600742604E+01  0.00000000000E+00 0.  1.
</event>
<event>
 7    1  0.1485408E-008  0.4614232E+02  0.7816164E-02  0.1320468E+00
        -11   -1    0    0    0    0  0.00000000000E+00  0.00000000000E+00  0.45593999997E+02  0.45594000000E+02  0.51100000000E-03 0.  1.
         11   -1    0    0    0    0 -0.00000000000E+00 -0.00000000000E+00 -0.45593999997E+02  0.45594000000E+02  0.51100000000E-03 0. -1.
    9900012    2    1    2    0    0 -0.17741558786E+02 -0.11937572039E+02  0.39646500309E+02  0.46142317397E+02  0.99999966836E+01 0.  0.
         12    1    1    2    0    0  0.17741558786E+02  0.11937572039E+02 -0.39646500309E+02  0.45045682603E+02  0.00000000000E+00 0. -1.
         11    1    3    3    0    0 -0.56210445729E+01 -0.26276544900E+01  0.99605754580E+01  0.11735151210E+02  0.51100000000E-03 0.  1.
        -11    1    3    3    0    0 -0.30267613141E+01 -0.16619114150E+01  0.13984856055E+01  0.37254524361E+01  0.51100000000E-03 0. -1.
        -12    1    3    3    0    0 -0.90937528991E+01 -0.76480061341E+01  0.28287439246E+02  0.30681713751E+02  0.00000000000E+00 0.  1.
</event>
<event>
 7    1  0.1485408E-008  0.4614232E+02  0.7816164E-02  0.1320468E+00
        -11   -1    0    0    0    0  0.00000000000E+00  0.00000000000E+00  0.45593999997E+02  0.45594000000E+02  0.51100000000E-03 0.  1.
         11   -1    0    0    0    0 -0.00000000000E+00 -0.00000000000E+00 -0.45593999997E+02  0.45594000000E+02  0.51100000000E-03 0. -1.
    9900012    2    1    2    0    0 -0.82067547199E+01  0.26968974364E+02  0.35134556941E+02  0.46142317713E+02  0.99999995613E+01 0.  0.
         12    1    1    2    0    0  0.82067547199E+01 -0.26968974364E+02 -0.35134556941E+02  0.45045682287E+02  0.00000000000E+00 0. -1.
         11    1    3    3    0    0 -0.17349165918E+01  0.15406795470E+02  0.23926428073E+02  0.28510581243E+02  0.51100000000E-03 0. -1.
        -11    1    3    3    0    0 -0.40933238717E+01  0.53056701915E+01  0.71728346758E+01  0.98160579688E+01  0.51100000000E-03 0.  1.
         12    1    3    3    0    0 -0.23785142564E+01  0.62565087026E+01  0.40352941917E+01  0.78156785008E+01  0.00000000000E+00 0. -1.
</event>
<event>
 7    1  0.1485408E-008  0.4614232E+02  0.7816164E-02  0.1320468E+00
        -11   -1    0    0    0    0  0.00000000000E+00  0.00000000000E+00  0.45593999997E+02  0.45594000000E+02  0.51100000000E-03 0.  1.
         11   -1    0    0    0    0 -0.00000000000E+00 -0.00000000000E+00 -0.45593999997E+02  0.45594000000E+02  0.51100000000E-03 0. -1.
    9900012    2    1    2    0    0 -0.38880763014E+02  0.20492391931E+02  0.98722559113E+01  0.46142319892E+02  0.10000019434E+02 0.  0.
         12    1    1    2    0    0  0.38880763014E+02 -0.20492391931E+02 -0.98722559113E+01  0.45045680108E+02  0.00000000000E+00 0. -1.
         11    1    3    3    0    0 -0.23188292013E+02  0.99864557861E+01  0.79257197508E+01  0.26462109128E+02  0.51100000000E-03 0. -1.
        -11    1    3    3    0    0 -0.12732039148E+02  0.59624710201E+01  0.50067998187E+00  0.14067926721E+02  0.51100000000E-03 0.  1.
         12    1    3    3    0    0 -0.29604318529E+01  0.45434651249E+01  0.14458561786E+01  0.56122840437E+01  0.00000000000E+00 0. -1.
</event>
<event>
 7    1  0.1485408E-008  0.4614232E+02  0.7816164E-02  0.1320468E+00
        -11   -1    0    0    0    0  0.00000000000E+00  0.00000000000E+00  0.45593999997E+02  0.45594000000E+02  0.51100000000E-03 0.  1.
         11   -1    0    0    0    0 -0.00000000000E+00 -0.00000000000E+00 -0.45593999997E+02  0.45594000000E+02  0.51100000000E-03 0. -1.
    9900012    2    1    2    0    0 -0.20912462630E+02  0.19276804836E+02  0.34931176113E+02  0.46142319158E+02  0.10000012737E+02 0.  0.
         12    1    1    2    0    0  0.20912462630E+02 -0.19276804836E+02 -0.34931176113E+02  0.45045680842E+02  0.00000000000E+00 0. -1.
         11    1    3    3    0    0 -0.79548233118E+00  0.55155637364E+00 -0.32779803277E+00  0.10219874676E+01  0.51100000000E-03 0. -1.
        -11    1    3    3    0    0 -0.19976098480E+02  0.18968242952E+02  0.35358299620E+02  0.44822406266E+02  0.51100000000E-03 0.  1.
        -12    1    3    3    0    0 -0.14088181854E+00 -0.24299448973E+00 -0.99325474405E-01  0.29792542473E+00  0.00000000000E+00 0.  1.
</event>
<event>
 7    1  0.1485408E-008  0.4614232E+02  0.7816164E-02  0.1320468E+00
        -11   -1    0    0    0    0  0.00000000000E+00  0.00000000000E+00  0.45593999997E+02  0.45594000000E+02  0.51100000000E-03 0.  1.
         11   -1    0    0    0    0 -0.00000000000E+00 -0.00000000000E+00 -0.45593999997E+02  0.45594000000E+02  0.51100000000E-03 0. -1.
    9900012    2    1    2    0    0  0.39579104950E+02  0.42616674207E+01  0.21081894696E+02  0.46142316057E+02  0.99999844646E+01 0.  0.
         12    1    1    2    0    0 -0.39579104950E+02 -0.42616674207E+01 -0.21081894696E+02  0.45045683943E+02  0.00000000000E+00 0. -1.
         11    1    3    3    0    0  0.60167932352E+01 -0.17389218669E+01  0.18252230555E+01  0.65235795050E+01  0.51100000000E-03 0. -1.
        -11    1    3    3    0    0  0.32614195826E+02  0.68369065180E+01  0.18189494805E+02  0.37964282973E+02  0.51100000000E-03 0.  1.
        -12    1    3    3    0    0  0.94811588927E+00 -0.83631723036E+00  0.10671768358E+01  0.16544535799E+01  0.00000000000E+00 0.  1.
</event>
<event>
 7    1  0.1485408E-008  0.4614232E+02  0.7816164E-02  0.1320468E+00
        -11   -1    0    0    0    0  0.00000000000E+00  0.00000000000E+00  0.45593999997E+02  0.45594000000E+02  0.51100000000E-03 0. -1.
         11   -1    0    0    0    0 -0.00000000000E+00 -0.00000000000E+00 -0.45593999997E+02  0.45594000000E+02  0.51100000000E-03 0.  1.
    9900012    2    1    2    0    0 -0.98596756244E+01 -0.23309635260E+02 -0.37263401355E+02  0.46142318965E+02  0.10000010974E+02 0.  0.
         12    1    1    2    0    0  0.98596756244E+01  0.23309635260E+02  0.37263401355E+02  0.45045681035E+02  0.00000000000E+00 0. -1.
         11    1    3    3    0    0 -0.30816975082E+01 -0.23170201182E+01 -0.86491409226E+01  0.94695871462E+01  0.51100000000E-03 0. -1.
        -11    1    3    3    0    0 -0.52390375595E+01 -0.69477813546E+01 -0.12653143632E+02  0.15356471741E+02  0.51100000000E-03 0.  1.
         12    1    3    3    0    0 -0.15389405567E+01 -0.14044833788E+02 -0.15961116800E+02  0.21316260077E+02  0.00000000000E+00 0. -1.
</event>
<event>
 7    1  0.1485408E-008  0.4614232E+02  0.7816164E-02  0.1320468E+00
        -11   -1    0    0    0    0  0.00000000000E+00  0.00000000000E+00  0.45593999997E+02  0.45594000000E+02  0.51100000000E-03 0.  1.
         11   -1    0    0    0    0 -0.00000000000E+00 -0.00000000000E+00 -0.45593999997E+02  0.45594000000E+02  0.51100000000E-03 0. -1.
    9900012    2    1    2    0    0  0.16240543056E+01  0.15715614339E+02  0.42184064309E+02  0.46142319097E+02  0.10000012181E+02 0.  0.
         12    1    1    2    0    0 -0.16240543056E+01 -0.15715614339E+02 -0.42184064309E+02  0.45045680903E+02  0.00000000000E+00 0. -1.
         11    1    3    3    0    0  0.41451559608E+01  0.73698951798E+01  0.15715279104E+02  0.17845662512E+02  0.51100000000E-03 0. -1.
        -11    1    3    3    0    0 -0.19528654465E+01  0.70838361995E+01  0.25665120183E+02  0.26696307105E+02  0.51100000000E-03 0.  1.
        -12    1    3    3    0    0 -0.56823620874E+00  0.12618829597E+01  0.80366502108E+00  0.16003494802E+01  0.00000000000E+00 0.  1.
</event>
<event>
 7    1  0.1485408E-008  0.4614232E+02  0.7816164E-02  0.1320468E+00
        -11   -1    0    0    0    0  0.00000000000E+00  0.00000000000E+00  0.45593999997E+02  0.45594000000E+02  0.51100000000E-03 0.  1.
         11   -1    0    0    0    0 -0.00000000000E+00 -0.00000000000E+00 -0.45593999997E+02  0.45594000000E+02  0.51100000000E-03 0. -1.
    9900012    2    1    2    0    0 -0.13608640548E+02 -0.15028464173E+02  0.40225162200E+02  0.46142317555E+02  0.99999981168E+01 0.  0.
         12    1    1    2    0    0  0.13608640548E+02  0.15028464173E+02 -0.40225162200E+02  0.45045682445E+02  0.00000000000E+00 0. -1.
         11    1    3    3    0    0 -0.22550199400E+01 -0.82688894075E-01  0.43410533031E+01  0.48925143254E+01  0.51100000000E-03 0. -1.
        -11    1    3    3    0    0 -0.12317421646E+02 -0.12492106619E+02  0.32763572135E+02  0.37164812162E+02  0.51100000000E-03 0.  1.
        -12    1    3    3    0    0  0.96380103766E+00 -0.24536686596E+01  0.31205367621E+01  0.40849910667E+01  0.00000000000E+00 0.  1.
</event>
<event>
 7    1  0.1485408E-008  0.4614232E+02  0.7816164E-02  0.1320468E+00
        -11   -1    0    0    0    0  0.00000000000E+00  0.00000000000E+00  0.45593999997E+02  0.45594000000E+02  0.51100000000E-03 0.  1.
         11   -1    0    0    0    0 -0.00000000000E+00 -0.00000000000E+00 -0.45593999997E+02  0.45594000000E+02  0.51100000000E-03 0. -1.
    9900012    2    1    2    0    0 -0.22873919881E+01  0.55666745915E+01  0.44641835266E+02  0.46142317809E+02  0.10000000438E+02 0.  0.
         12    1    1    2    0    0  0.22873919881E+01 -0.55666745915E+01 -0.44641835266E+02  0.45045682191E+02  0.00000000000E+00 0. -1.
         11    1    3    3    0    0 -0.39633944420E+01  0.32112568033E+01  0.20759337994E+02  0.21376874888E+02  0.51100000000E-03 0. -1.
        -11    1    3    3    0    0  0.13164930120E+01 -0.16599021414E+01  0.12764455935E+02  0.12939078968E+02  0.51100000000E-03 0.  1.
        -12    1    3    3    0    0  0.35950944192E+00  0.40153199297E+01  0.11118041337E+02  0.11826363953E+02  0.00000000000E+00 0.  1.
</event>
<event>
 7    1  0.1485408E-008  0.4614232E+02  0.7816164E-02  0.1320468E+00
        -11   -1    0    0    0    0  0.00000000000E+00  0.00000000000E+00  0.45593999997E+02  0.45594000000E+02  0.51100000000E-03 0. -1.
         11   -1    0    0    0    0 -0.00000000000E+00 -0.00000000000E+00 -0.45593999997E+02  0.45594000000E+02  0.51100000000E-03 0.  1.
    9900012    2    1    2    0    0  0.34533219421E+02  0.28040520985E+02 -0.70922093176E+01  0.46142317702E+02  0.99999994577E+01 0.  0.
         12    1    1    2    0    0 -0.34533219421E+02 -0.28040520985E+02  0.70922093176E+01  0.45045682298E+02  0.00000000000E+00 0. -1.
         11    1    3    3    0    0  0.16362442867E+00  0.59634161106E+00 -0.53434139440E+00  0.81726204955E+00  0.51100000000E-03 0. -1.
        -11    1    3    3    0    0  0.30505718639E+02  0.20101028778E+02 -0.48493098276E+01  0.36853304244E+02  0.51100000000E-03 0.  1.
        -12    1    3    3    0    0  0.38638763531E+01  0.73431505966E+01 -0.17085580957E+01  0.84717514082E+01  0.00000000000E+00 0.  1.
</event>
<event>
 7    1  0.1485408E-008  0.4614232E+02  0.7816164E-02  0.1320468E+00
        -11   -1    0    0    0    0  0.00000000000E+00  0.00000000000E+00  0.45593999997E+02  0.45594000000E+02  0.51100000000E-03 0. -1.
         11   -1    0    0    0    0 -0.00000000000E+00 -0.00000000000E+00 -0.45593999997E+02  0.45594000000E+02  0.51100000000E-03 0.  1.
    9900012    2    1    2    0    0  0.42839305672E+02  0.68190613438E+01 -0.12141154706E+02  0.46142319345E+02  0.10000014445E+02 0.  0.
         12    1    1    2    0    0 -0.42839305672E+02 -0.68190613438E+01  0.12141154706E+02  0.45045680655E+02  0.00000000000E+00 0. -1.
         11    1    3    3    0    0  0.64472435438E+01 -0.20406804222E+01 -0.82426743393E+00  0.68125430613E+01  0.51100000000E-03 0. -1.
        -11    1    3    3    0    0  0.24420079952E+02  0.42708887821E+01 -0.64524490453E+01  0.25616691722E+02  0.51100000000E-03 0.  1.
        -12    1    3    3    0    0  0.11971982176E+02  0.45888529840E+01 -0.48644382269E+01  0.13713084562E+02  0.00000000000E+00 0.  1.
</event>
<event>
 7    1  0.1485408E-008  0.4614232E+02  0.7816164E-02  0.1320468E+00
        -11   -1    0    0    0    0  0.00000000000E+00  0.00000000000E+00  0.45593999997E+02  0.45594000000E+02  0.51100000000E-03 0.  1.
         11   -1    0    0    0    0 -0.00000000000E+00 -0.00000000000E+00 -0.45593999997E+02  0.45594000000E+02  0.51100000000E-03 0. -1.
    9900012    2    1    2    0    0  0.15742610972E+02  0.23413880359E+02  0.35115150925E+02  0.46142318541E+02  0.10000007109E+02 0.  0.
         12    1    1    2    0    0 -0.15742610972E+02 -0.23413880359E+02 -0.35115150925E+02  0.45045681459E+02  0.00000000000E+00 0. -1.
         11    1    3    3    0    0  0.10078922565E+02  0.89566437106E+01  0.14867681744E+02  0.20071225855E+02  0.51100000000E-03 0. -1.
        -11    1    3    3    0    0  0.12413336107E+01  0.98234594908E+01  0.10746884432E+02  0.14612898095E+02  0.51100000000E-03 0.  1.
        -12    1    3    3    0    0  0.44223547961E+01  0.46337771575E+01  0.95005847492E+01  0.11458194590E+02  0.00000000000E+00 0.  1.
</event>
<event>
 7    1  0.1485408E-008  0.4614232E+02  0.7816164E-02  0.1320468E+00
        -11   -1    0    0    0    0  0.00000000000E+00  0.00000000000E+00  0.45593999997E+02  0.45594000000E+02  0.51100000000E-03 0.  1.
         11   -1    0    0    0    0 -0.00000000000E+00 -0.00000000000E+00 -0.45593999997E+02  0.45594000000E+02  0.51100000000E-03 0. -1.
    9900012    2    1    2    0    0 -0.38764998460E+01  0.22277872802E+02  0.38958724981E+02  0.46142321853E+02  0.10000037309E+02 0.  0.
         12    1    1    2    0    0  0.38764998460E+01 -0.22277872802E+02 -0.38958724981E+02  0.45045678147E+02  0.00000000000E+00 0. -1.
         11    1    3    3    0    0  0.21703911464E+00  0.45963118280E+01  0.26076999487E+01  0.52889779430E+01  0.51100000000E-03 0. -1.
        -11    1    3    3    0    0 -0.33284914831E+01  0.83504714433E+01  0.21419139181E+02  0.23229049753E+02  0.51100000000E-03 0.  1.
        -12    1    3    3    0    0 -0.76504747750E+00  0.93310895310E+01  0.14931885851E+02  0.17624294157E+02  0.00000000000E+00 0.  1.
</event>
<event>
 7    1  0.1485408E-008  0.4614232E+02  0.7816164E-02  0.1320468E+00
        -11   -1    0    0    0    0  0.00000000000E+00  0.00000000000E+00  0.45593999997E+02  0.45594000000E+02  0.51100000000E-03 0.  1.
         11   -1    0    0    0    0 -0.00000000000E+00 -0.00000000000E+00 -0.45593999997E+02  0.45594000000E+02  0.51100000000E-03 0. -1.
    9900012    2    1    2    0    0 -0.88263109185E+01 -0.35317708277E+02  0.26530532563E+02  0.46142318293E+02  0.10000004852E+02 0.  0.
         12    1    1    2    0    0  0.88263109185E+01  0.35317708277E+02 -0.26530532563E+02  0.45045681707E+02  0.00000000000E+00 0. -1.
         11    1    3    3    0    0 -0.64608962846E+00 -0.49283924110E+00  0.18495897543E+01  0.20202239594E+01  0.51100000000E-03 0. -1.
        -11    1    3    3    0    0 -0.46066778324E+01 -0.21855236103E+02  0.19683234356E+02  0.29770833726E+02  0.51100000000E-03 0.  1.
        -12    1    3    3    0    0 -0.35735434576E+01 -0.12969632933E+02  0.49977084526E+01  0.14351260608E+02  0.00000000000E+00 0.  1.
</event>
<event>
 7    1  0.1485408E-008  0.4614231E+02  0.7816164E-02  0.1320468E+00
        -11   -1    0    0    0    0  0.00000000000E+00  0.00000000000E+00  0.45593999997E+02  0.45594000000E+02  0.51100000000E-03 0. -1.
         11   -1    0    0    0    0 -0.00000000000E+00 -0.00000000000E+00 -0.45593999997E+02  0.45594000000E+02  0.51100000000E-03 0.  1.
    9900012    2    1    2    0    0  0.35629302569E+02 -0.22616834130E+02 -0.15752630586E+02  0.46142314768E+02  0.99999727080E+01 0.  0.
         12    1    1    2    0    0 -0.35629302569E+02  0.22616834130E+02  0.15752630586E+02  0.45045685232E+02  0.00000000000E+00 0. -1.
         11    1    3    3    0    0  0.59068995007E+01 -0.61428009974E+01 -0.92354393437E-01  0.85225580315E+01  0.51100000000E-03 0. -1.
        -11    1    3    3    0    0  0.13583291563E+02 -0.55664947833E+01 -0.57642244956E+01  0.15770794468E+02  0.51100000000E-03 0.  1.
         12    1    3    3    0    0  0.16139111505E+02 -0.10907538349E+02 -0.98960516970E+01  0.21848962269E+02  0.00000000000E+00 0. -1.
</event>
<event>
 7    1  0.1485408E-008  0.4614232E+02  0.7816164E-02  0.1320468E+00
        -11   -1    0    0    0    0  0.00000000000E+00  0.00000000000E+00  0.45593999997E+02  0.45594000000E+02  0.51100000000E-03 0.  1.
         11   -1    0    0    0    0 -0.00000000000E+00 -0.00000000000E+00 -0.45593999997E+02  0.45594000000E+02  0.51100000000E-03 0. -1.
    9900012    2    1    2    0    0 -0.16148537557E+02  0.75894534205E+01  0.41361073679E+02  0.46142317806E+02  0.10000000413E+02 0.  0.
         12    1    1    2    0    0  0.16148537557E+02 -0.75894534205E+01 -0.41361073679E+02  0.45045682194E+02  0.00000000000E+00 0. -1.
         11    1    3    3    0    0 -0.98000249482E+01  0.85991131996E+01  0.20574996179E+02  0.24358072683E+02  0.51100000000E-03 0. -1.
        -11    1    3    3    0    0 -0.41108816501E+01 -0.61392960518E+00  0.15080324460E+02  0.15642648228E+02  0.51100000000E-03 0.  1.
         12    1    3    3    0    0 -0.22376309588E+01 -0.39573017396E+00  0.57057530394E+01  0.61415968954E+01  0.00000000000E+00 0. -1.
</event>
<event>
 7    1  0.1485408E-008  0.4614232E+02  0.7816164E-02  0.1320468E+00
        -11   -1    0    0    0    0  0.00000000000E+00  0.00000000000E+00  0.45593999997E+02  0.45594000000E+02  0.51100000000E-03 0.  1.
         11   -1    0    0    0    0 -0.00000000000E+00 -0.00000000000E+00 -0.45593999997E+02  0.45594000000E+02  0.51100000000E-03 0. -1.
    9900012    2    1    2    0    0  0.41332708829E+02  0.13694873405E+02  0.11539976083E+02  0.46142318467E+02  0.10000006441E+02 0.  0.
         12    1    1    2    0    0 -0.41332708829E+02 -0.13694873405E+02 -0.11539976083E+02  0.45045681533E+02  0.00000000000E+00 0. -1.
         11    1    3    3    0    0  0.48851692698E+01 -0.37459010552E+00  0.30828018652E+01  0.57886841461E+01  0.51100000000E-03 0. -1.
        -11    1    3    3    0    0  0.36380405509E+02  0.13750416196E+02  0.78678089072E+01  0.39680099141E+02  0.51100000000E-03 0.  1.
        -12    1    3    3    0    0  0.67134049913E-01  0.31904731466E+00  0.58936531066E+00  0.67353518026E+00  0.00000000000E+00 0.  1.
</event>
<event>
 7    1  0.1485408E-008  0.4614232E+02  0.7816164E-02  0.1320468E+00
        -11   -1    0    0    0    0  0.00000000000E+00  0.00000000000E+00  0.45593999997E+02  0.45594000000E+02  0.51100000000E-03 0.  1.
         11   -1    0    0    0    0 -0.00000000000E+00 -0.00000000000E+00 -0.45593999997E+02  0.45594000000E+02  0.51100000000E-03 0. -1.
    9900012    2    1    2    0    0  0.39989106474E+02 -0.16671916312E+02  0.12330126126E+02  0.46142318294E+02  0.10000004861E+02 0.  0.
         12    1    1    2    0    0 -0.39989106474E+02  0.16671916312E+02 -0.12330126126E+02  0.45045681706E+02  0.00000000000E+00 0. -1.
         11    1    3    3    0    0  0.77414756887E+00 -0.11114645049E+01 -0.73373056638E+00  0.15404605185E+01  0.51100000000E-03 0. -1.
        -11    1    3    3    0    0  0.73419518624E+01 -0.56166494853E+01  0.33001942783E+01  0.98154108995E+01  0.51100000000E-03 0.  1.
        -12    1    3    3    0    0  0.31873007042E+02 -0.99438023221E+01  0.97636624137E+01  0.34786446876E+02  0.00000000000E+00 0.  1.
</event>
<event>
 7    1  0.1485408E-008  0.4614232E+02  0.7816164E-02  0.1320468E+00
        -11   -1    0    0    0    0  0.00000000000E+00  0.00000000000E+00  0.45593999997E+02  0.45594000000E+02  0.51100000000E-03 0.  1.
         11   -1    0    0    0    0 -0.00000000000E+00 -0.00000000000E+00 -0.45593999997E+02  0.45594000000E+02  0.51100000000E-03 0. -1.
    9900012    2    1    2    0    0  0.16500914636E+02  0.14283211266E+02  0.39405878183E+02  0.46142317152E+02  0.99999944429E+01 0.  0.
         12    1    1    2    0    0 -0.16500914636E+02 -0.14283211266E+02 -0.39405878183E+02  0.45045682848E+02  0.00000000000E+00 0. -1.
         11    1    3    3    0    0  0.62358445783E+01  0.59517527067E+01  0.87473275075E+01  0.12281077179E+02  0.51100000000E-03 0. -1.
        -11    1    3    3    0    0  0.10670278691E+02  0.65060640324E+01  0.27029225025E+02  0.29778561454E+02  0.51100000000E-03 0.  1.
         12    1    3    3    0    0 -0.40520863305E+00  0.18253945265E+01  0.36293256506E+01  0.40826785193E+01  0.00000000000E+00 0. -1.
</event>
<event>
 7    1  0.1485408E-008  0.4614232E+02  0.7816164E-02  0.1320468E+00
        -11   -1    0    0    0    0  0.00000000000E+00  0.00000000000E+00  0.45593999997E+02  0.45594000000E+02  0.51100000000E-03 0.  1.
         11   -1    0    0    0    0 -0.00000000000E+00 -0.00000000000E+00 -0.45593999997E+02  0.45594000000E+02  0.51100000000E-03 0. -1.
    9900012    2    1    2    0    0 -0.33126962888E+02 -0.28907833736E+02  0.98007656940E+01  0.46142317302E+02  0.99999958174E+01 0.  0.
         12    1    1    2    0    0  0.33126962888E+02  0.28907833736E+02 -0.98007656940E+01  0.45045682698E+02  0.00000000000E+00 0. -1.
         11    1    3    3    0    0 -0.55083330801E+00  0.76356576437E+00  0.60945171912E+00  0.11215532394E+01  0.51100000000E-03 0. -1.
        -11    1    3    3    0    0 -0.17748759263E+02 -0.16130403160E+02  0.54547793565E+01  0.24595995194E+02  0.51100000000E-03 0.  1.
         12    1    3    3    0    0 -0.14827370317E+02 -0.13540996340E+02  0.37365346184E+01  0.20424768869E+02  0.00000000000E+00 0. -1.
</event>
<event>
 7    1  0.1485408E-008  0.4614232E+02  0.7816164E-02  0.1320468E+00
        -11   -1    0    0    0    0  0.00000000000E+00  0.00000000000E+00  0.45593999997E+02  0.45594000000E+02  0.51100000000E-03 0.  1.
         11   -1    0    0    0    0 -0.00000000000E+00 -0.00000000000E+00 -0.45593999997E+02  0.45594000000E+02  0.51100000000E-03 0. -1.
    9900012    2    1    2    0    0 -0.68251938430E+01  0.31317978657E+02  0.31649872273E+02  0.46142317931E+02  0.10000001552E+02 0.  0.
         12    1    1    2    0    0  0.68251938430E+01 -0.31317978657E+02 -0.31649872273E+02  0.45045682069E+02  0.00000000000E+00 0. -1.
         11    1    3    3    0    0  0.20023778705E+00  0.12729352253E+02  0.14773116927E+02  0.19501832938E+02  0.51100000000E-03 0. -1.
        -11    1    3    3    0    0 -0.39289042628E+00  0.86584847477E+01  0.73582368834E+01  0.11369580964E+02  0.51100000000E-03 0.  1.
        -12    1    3    3    0    0 -0.66325412038E+01  0.99301416566E+01  0.95185184626E+01  0.15270904029E+02  0.00000000000E+00 0.  1.
</event>
<event>
 7    1  0.1485408E-008  0.4614232E+02  0.7816164E-02  0.1320468E+00
        -11   -1    0    0    0    0  0.00000000000E+00  0.00000000000E+00  0.45593999997E+02  0.45594000000E+02  0.51100000000E-03 0.  1.
         11   -1    0    0    0    0 -0.00000000000E+00 -0.00000000000E+00 -0.45593999997E+02  0.45594000000E+02  0.51100000000E-03 0. -1.
    9900012    2    1    2    0    0  0.98613511875E+01  0.43632915847E+02  0.52948912383E+01  0.46142318012E+02  0.10000002290E+02 0.  0.
         12    1    1    2    0    0 -0.98613511875E+01 -0.43632915847E+02 -0.52948912383E+01  0.45045681988E+02  0.00000000000E+00 0. -1.
         11    1    3    3    0    0  0.20307667533E+01  0.24798847349E+02  0.80379516832E+00  0.24894837424E+02  0.51100000000E-03 0. -1.
        -11    1    3    3    0    0  0.40374371473E+01  0.81773208295E+01  0.39050328935E+01  0.99206228044E+01  0.51100000000E-03 0.  1.
         12    1    3    3    0    0  0.37931472869E+01  0.10656747668E+02  0.58606317652E+00  0.11326857784E+02  0.00000000000E+00 0. -1.
</event>
<event>
 7    1  0.1485408E-008  0.4614231E+02  0.7816164E-02  0.1320468E+00
        -11   -1    0    0    0    0  0.00000000000E+00  0.00000000000E+00  0.45593999997E+02  0.45594000000E+02  0.51100000000E-03 0.  1.
         11   -1    0    0    0    0 -0.00000000000E+00 -0.00000000000E+00 -0.45593999997E+02  0.45594000000E+02  0.51100000000E-03 0. -1.
    9900012    2    1    2    0    0  0.20851843961E+02 -0.11829382984E+02  0.38136335459E+02  0.46142314517E+02  0.99999704186E+01 0.  0.
         12    1    1    2    0    0 -0.20851843961E+02  0.11829382984E+02 -0.38136335459E+02  0.45045685483E+02  0.00000000000E+00 0. -1.
         11    1    3    3    0    0  0.13001403131E+02 -0.90450750991E+01  0.30617686897E+02  0.34471620474E+02  0.51100000000E-03 0.  1.
        -11    1    3    3    0    0  0.66425954738E+01 -0.18135158118E+01  0.74128377267E+01  0.10117463993E+02  0.51100000000E-03 0. -1.
         12    1    3    3    0    0  0.12078453568E+01 -0.97079207339E+00  0.10581083546E+00  0.15532300501E+01  0.00000000000E+00 0. -1.
</event>
<event>
 7    1  0.1485408E-008  0.4614232E+02  0.7816164E-02  0.1320468E+00
        -11   -1    0    0    0    0  0.00000000000E+00  0.00000000000E+00  0.45593999997E+02  0.45594000000E+02  0.51100000000E-03 0. -1.
         11   -1    0    0    0    0 -0.00000000000E+00 -0.00000000000E+00 -0.45593999997E+02  0.45594000000E+02  0.51100000000E-03 0.  1.
    9900012    2    1    2    0    0  0.27256030598E+02 -0.22075925348E+01 -0.35795934128E+02  0.46142316868E+02  0.99999918549E+01 0.  0.
         12    1    1    2    0    0 -0.27256030598E+02  0.22075925348E+01  0.35795934128E+02  0.45045683132E+02  0.00000000000E+00 0. -1.
         11    1    3    3    0    0  0.35111897538E+01  0.22945964851E+01 -0.52779758823E+01  0.67417101830E+01  0.51100000000E-03 0. -1.
        -11    1    3    3    0    0  0.18450547087E+02 -0.40324044563E+01 -0.19385357359E+02  0.27064276338E+02  0.51100000000E-03 0.  1.
        -12    1    3    3    0    0  0.52942937570E+01 -0.46978456354E+00 -0.11132600887E+02  0.12336330347E+02  0.00000000000E+00 0.  1.
</event>
<event>
 7    1  0.1485408E-008  0.4614232E+02  0.7816164E-02  0.1320468E+00
        -11   -1    0    0    0    0  0.00000000000E+00  0.00000000000E+00  0.45593999997E+02  0.45594000000E+02  0.51100000000E-03 0. -1.
         11   -1    0    0    0    0 -0.00000000000E+00 -0.00000000000E+00 -0.45593999997E+02  0.45594000000E+02  0.51100000000E-03 0.  1.
    9900012    2    1    2    0    0  0.42071685850E+02 -0.41636734495E+01  0.15548332019E+02  0.46142317017E+02  0.99999932138E+01 0.  0.
         12    1    1    2    0    0 -0.42071685850E+02  0.41636734495E+01 -0.15548332019E+02  0.45045682983E+02  0.00000000000E+00 0. -1.
         11    1    3    3    0    0  0.43183319675E+01 -0.20788981675E+01  0.33299272653E+01  0.58359424625E+01  0.51100000000E-03 0. -1.
        -11    1    3    3    0    0  0.13808616266E+02 -0.35472645927E+01  0.63647317279E+01  0.15613160459E+02  0.51100000000E-03 0.  1.
        -12    1    3    3    0    0  0.23944737616E+02  0.14624893107E+01  0.58536730262E+01  0.24693214096E+02  0.00000000000E+00 0.  1.
</event>
<event>
 7    1  0.1485408E-008  0.4614232E+02  0.7816164E-02  0.1320468E+00
        -11   -1    0    0    0    0  0.00000000000E+00  0.00000000000E+00  0.45593999997E+02  0.45594000000E+02  0.51100000000E-03 0. -1.
         11   -1    0    0    0    0 -0.00000000000E+00 -0.00000000000E+00 -0.45593999997E+02  0.45594000000E+02  0.51100000000E-03 0.  1.
    9900012    2    1    2    0    0 -0.22539442865E+02 -0.29678279815E+02 -0.25303888225E+02  0.46142317224E+02  0.99999951027E+01 0.  0.
         12    1    1    2    0    0  0.22539442865E+02  0.29678279815E+02  0.25303888225E+02  0.45045682776E+02  0.00000000000E+00 0. -1.
         11    1    3    3    0    0 -0.72501988520E+00 -0.51694746606E+00  0.67108751365E+00  0.11150099680E+01  0.51100000000E-03 0. -1.
        -11    1    3    3    0    0 -0.17903251926E+02 -0.21051193754E+02 -0.21240021238E+02  0.34854234899E+02  0.51100000000E-03 0.  1.
         12    1    3    3    0    0 -0.39111710542E+01 -0.81101385955E+01 -0.47349545005E+01  0.10173072357E+02  0.00000000000E+00 0. -1.
</event>
<event>
 7    1  0.1485408E-008  0.4614231E+02  0.7816164E-02  0.1320468E+00
        -11   -1    0    0    0    0  0.00000000000E+00  0.00000000000E+00  0.45593999997E+02  0.45594000000E+02  0.51100000000E-03 0.  1.
         11   -1    0    0    0    0 -0.00000000000E+00 -0.00000000000E+00 -0.45593999997E+02  0.45594000000E+02  0.51100000000E-03 0. -1.
    9900012    2    1    2    0    0  0.25101102501E+02 -0.36147220929E+02 -0.96138866382E+01  0.46142314924E+02  0.99999741272E+01 0.  0.
         12    1    1    2    0    0 -0.25101102501E+02  0.36147220929E+02  0.96138866382E+01  0.45045685076E+02  0.00000000000E+00 0. -1.
         11    1    3    3    0    0  0.18680883819E+02 -0.30373133316E+02 -0.74398886960E+01  0.36426015315E+02  0.51100000000E-03 0. -1.
        -11    1    3    3    0    0  0.63113640794E+01 -0.62811784961E+01 -0.22694257729E+01  0.91889506170E+01  0.51100000000E-03 0.  1.
         12    1    3    3    0    0  0.10885460320E+00  0.50709088277E+00  0.95427830647E-01  0.52734899155E+00  0.00000000000E+00 0. -1.
</event>
<event>
 7    1  0.1485408E-008  0.4614232E+02  0.7816164E-02  0.1320468E+00
        -11   -1    0    0    0    0  0.00000000000E+00  0.00000000000E+00  0.45593999997E+02  0.45594000000E+02  0.51100000000E-03 0. -1.
         11   -1    0    0    0    0 -0.00000000000E+00 -0.00000000000E+00 -0.45593999997E+02  0.45594000000E+02  0.51100000000E-03 0.  1.
    9900012    2    1    2    0    0 -0.30324300666E+02  0.33308726146E+02  0.28045198426E+00  0.46142322054E+02  0.10000039142E+02 0.  0.
         12    1    1    2    0    0  0.30324300666E+02 -0.33308726146E+02 -0.28045198426E+00  0.45045677946E+02  0.00000000000E+00 0. -1.
         11    1    3    3    0    0 -0.22926139185E+02  0.22697639290E+02  0.15099993771E+01  0.32296606411E+02  0.51100000000E-03 0. -1.
        -11    1    3    3    0    0 -0.58008401711E+01  0.45074481315E+01  0.30517707545E+00  0.73525484465E+01  0.51100000000E-03 0.  1.
         12    1    3    3    0    0 -0.15973213093E+01  0.61036387242E+01 -0.15347244683E+01  0.64931671960E+01  0.00000000000E+00 0. -1.
</event>
<event>
 7    1  0.1485408E-008  0.4614232E+02  0.7816164E-02  0.1320468E+00
        -11   -1    0    0    0    0  0.00000000000E+00  0.00000000000E+00  0.45593999997E+02  0.45594000000E+02  0.51100000000E-03 0.  1.
         11   -1    0    0    0    0 -0.00000000000E+00 -0.00000000000E+00 -0.45593999997E+02  0.45594000000E+02  0.51100000000E-03 0. -1.
    9900012    2    1    2    0    0 -0.17392055610E+02 -0.14075796125E+01  0.41528890157E+02  0.46142316562E+02  0.99999890678E+01 0.  0.
         12    1    1    2    0    0  0.17392055610E+02  0.14075796125E+01 -0.41528890157E+02  0.45045683438E+02  0.00000000000E+00 0. -1.
         11    1    3    3    0    0 -0.19884629687E+01 -0.14658626224E+01  0.14495936691E+01  0.28642730792E+01  0.51100000000E-03 0. -1.
        -11    1    3    3    0    0 -0.14645081785E+01  0.17563351548E+01  0.56764568031E+01  0.61197760972E+01  0.51100000000E-03 0.  1.
         12    1    3    3    0    0 -0.13939084463E+02 -0.16980521449E+01  0.34402839685E+02  0.37158267386E+02  0.00000000000E+00 0. -1.
</event>
<event>
 7    1  0.1485408E-008  0.4614232E+02  0.7816164E-02  0.1320468E+00
        -11   -1    0    0    0    0  0.00000000000E+00  0.00000000000E+00  0.45593999997E+02  0.45594000000E+02  0.51100000000E-03 0.  1.
         11   -1    0    0    0    0 -0.00000000000E+00 -0.00000000000E+00 -0.45593999997E+02  0.45594000000E+02  0.51100000000E-03 0. -1.
    9900012    2    1    2    0    0 -0.19746754307E+01  0.22703467798E+02  0.38855717514E+02  0.46142316781E+02  0.99999910648E+01 0.  0.
         12    1    1    2    0    0  0.19746754307E+01 -0.22703467798E+02 -0.38855717514E+02  0.45045683219E+02  0.00000000000E+00 0. -1.
         11    1    3    3    0    0 -0.27679061618E+01  0.29901242116E+01  0.88015325128E+01  0.96989237627E+01  0.51100000000E-03 0. -1.
        -11    1    3    3    0    0  0.94447426136E+00  0.17188638355E+02  0.28954638952E+02  0.33685492979E+02  0.51100000000E-03 0.  1.
        -12    1    3    3    0    0 -0.15124353030E+00  0.25247052322E+01  0.10995460488E+01  0.27579000396E+01  0.00000000000E+00 0.  1.
</event>
<event>
 7    1  0.1485408E-008  0.4614232E+02  0.7816164E-02  0.1320468E+00
        -11   -1    0    0    0    0  0.00000000000E+00  0.00000000000E+00  0.45593999997E+02  0.45594000000E+02  0.51100000000E-03 0.  1.
         11   -1    0    0    0    0 -0.00000000000E+00 -0.00000000000E+00 -0.45593999997E+02  0.45594000000E+02  0.51100000000E-03 0. -1.
    9900012    2    1    2    0    0 -0.12307719326E+01 -0.43359233550E+02  0.12148068705E+02  0.46142317556E+02  0.99999981294E+01 0.  0.
         12    1    1    2    0    0  0.12307719326E+01  0.43359233550E+02 -0.12148068705E+02  0.45045682444E+02  0.00000000000E+00 0. -1.
         11    1    3    3    0    0 -0.19906187678E+01 -0.88506441575E+01 -0.51661659205E+00  0.90864381386E+01  0.51100000000E-03 0. -1.
        -11    1    3    3    0    0 -0.33127334558E+00 -0.30049123680E+02  0.96450899550E+01  0.31560851326E+02  0.51100000000E-03 0.  1.
         12    1    3    3    0    0  0.10911201808E+01 -0.44594657128E+01  0.30195953418E+01  0.54950280910E+01  0.00000000000E+00 0. -1.
</event>
<event>
 7    1  0.1485408E-008  0.4614231E+02  0.7816164E-02  0.1320468E+00
        -11   -1    0    0    0    0  0.00000000000E+00  0.00000000000E+00  0.45593999997E+02  0.45594000000E+02  0.51100000000E-03 0.  1.
         11   -1    0    0    0    0 -0.00000000000E+00 -0.00000000000E+00 -0.45593999997E+02  0.45594000000E+02  0.51100000000E-03 0. -1.
    9900012    2    1    2    0    0 -0.20419660676E+02  0.63890055816E+01  0.39640028535E+02  0.46142314338E+02  0.99999687888E+01 0.  0.
         12    1    1    2    0    0  0.20419660676E+02 -0.63890055816E+01 -0.39640028535E+02  0.45045685662E+02  0.00000000000E+00 0. -1.
         11    1    3    3    0    0 -0.11484899050E+01  0.77154817861E+00  0.62374544267E+00  0.15176871523E+01  0.51100000000E-03 0. -1.
        -11    1    3    3    0    0 -0.16052280191E+02  0.16619554815E+01  0.25492629689E+02  0.30171376569E+02  0.51100000000E-03 0.  1.
        -12    1    3    3    0    0 -0.32188905802E+01  0.39555019215E+01  0.13523653404E+02  0.14453250617E+02  0.00000000000E+00 0.  1.
</event>
<event>
 7    1  0.1485408E-008  0.4614232E+02  0.7816164E-02  0.1320468E+00
        -11   -1    0    0    0    0  0.00000000000E+00  0.00000000000E+00  0.45593999997E+02  0.45594000000E+02  0.51100000000E-03 0.  1.
         11   -1    0    0    0    0 -0.00000000000E+00 -0.00000000000E+00 -0.45593999997E+02  0.45594000000E+02  0.51100000000E-03 0. -1.
    9900012    2    1    2    0    0  0.89904400425E+01 -0.43484470264E+02  0.75753784086E+01  0.46142317362E+02  0.99999963613E+01 0.  0.
         12    1    1    2    0    0 -0.89904400425E+01  0.43484470264E+02 -0.75753784086E+01  0.45045682638E+02  0.00000000000E+00 0. -1.
         11    1    3    3    0    0 -0.19899754401E+01 -0.60549007795E+01  0.20483173636E+01  0.66945821367E+01  0.51100000000E-03 0. -1.
        -11    1    3    3    0    0  0.54472420536E+00 -0.35589371914E+01  0.84258471678E+00  0.36976624587E+01  0.51100000000E-03 0.  1.
         12    1    3    3    0    0  0.10435691277E+02 -0.33870632293E+02  0.46844763282E+01  0.35750072767E+02  0.00000000000E+00 0. -1.
</event>
<event>
 7    1  0.1485408E-008  0.4614232E+02  0.7816164E-02  0.1320468E+00
        -11   -1    0    0    0    0  0.00000000000E+00  0.00000000000E+00  0.45593999997E+02  0.45594000000E+02  0.51100000000E-03 0. -1.
         11   -1    0    0    0    0 -0.00000000000E+00 -0.00000000000E+00 -0.45593999997E+02  0.45594000000E+02  0.51100000000E-03 0.  1.
    9900012    2    1    2    0    0  0.33126585498E+02 -0.27805963969E+02 -0.12592506463E+02  0.46142317433E+02  0.99999970037E+01 0.  0.
         12    1    1    2    0    0 -0.33126585498E+02  0.27805963969E+02  0.12592506463E+02  0.45045682567E+02  0.00000000000E+00 0. -1.
         11    1    3    3    0    0  0.44054760332E+01 -0.33236487557E+01 -0.27244259382E+00  0.55253131458E+01  0.51100000000E-03 0. -1.
        -11    1    3    3    0    0  0.22273684890E+02 -0.17485174286E+02 -0.53387187608E+01  0.28815799081E+02  0.51100000000E-03 0.  1.
        -12    1    3    3    0    0  0.64474245741E+01 -0.69971409268E+01 -0.69813451084E+01  0.11801205206E+02  0.00000000000E+00 0.  1.
</event>
<event>
 7    1  0.1485408E-008  0.4614232E+02  0.7816164E-02  0.1320468E+00
        -11   -1    0    0    0    0  0.00000000000E+00  0.00000000000E+00  0.45593999997E+02  0.45594000000E+02  0.51100000000E-03 0.  1.
         11   -1    0    0    0    0 -0.00000000000E+00 -0.00000000000E+00 -0.45593999997E+02  0.45594000000E+02  0.51100000000E-03 0. -1.
    9900012    2    1    2    0    0  0.14026946078E+02 -0.29691689208E+02  0.30834425378E+02  0.46142318601E+02  0.10000007663E+02 0.  0.
         12    1    1    2    0    0 -0.14026946078E+02  0.29691689208E+02 -0.30834425378E+02  0.45045681399E+02  0.00000000000E+00 0. -1.
         11    1    3    3    0    0  0.88041180843E+00 -0.41889936524E+01  0.96844160380E+00  0.43886982322E+01  0.51100000000E-03 0. -1.
        -11    1    3    3    0    0  0.13168221149E+02 -0.22622310415E+02  0.25655221900E+02  0.36651894736E+02  0.51100000000E-03 0.  1.
        -12    1    3    3    0    0 -0.21686879754E-01 -0.28803851411E+01  0.42107618737E+01  0.51017256334E+01  0.00000000000E+00 0.  1.
</event>
<event>
 7    1  0.1485408E-008  0.4614232E+02  0.7816164E-02  0.1320468E+00
        -11   -1    0    0    0    0  0.00000000000E+00  0.00000000000E+00  0.45593999997E+02  0.45594000000E+02  0.51100000000E-03 0.  1.
         11   -1    0    0    0    0 -0.00000000000E+00 -0.00000000000E+00 -0.45593999997E+02  0.45594000000E+02  0.51100000000E-03 0. -1.
    9900012    2    1    2    0    0 -0.14813942070E+02  0.10331831694E+02  0.41266377622E+02  0.46142317101E+02  0.99999939790E+01 0.  0.
         12    1    1    2    0    0  0.14813942070E+02 -0.10331831694E+02 -0.41266377622E+02  0.45045682899E+02  0.00000000000E+00 0. -1.
         11    1    3    3    0    0 -0.69236505773E+01  0.50142691294E+01  0.25678168495E+02  0.27063779664E+02  0.51100000000E-03 0. -1.
        -11    1    3    3    0    0 -0.71696558626E+01  0.30881588496E+01  0.14558223099E+02  0.16519157071E+02  0.51100000000E-03 0.  1.
         12    1    3    3    0    0 -0.72063563053E+00  0.22294037154E+01  0.10299860283E+01  0.25593803658E+01  0.00000000000E+00 0. -1.
</event>
<event>
 7    1  0.1485408E-008  0.4614232E+02  0.7816164E-02  0.1320468E+00
        -11   -1    0    0    0    0  0.00000000000E+00  0.00000000000E+00  0.45593999997E+02  0.45594000000E+02  0.51100000000E-03 0.  1.
         11   -1    0    0    0    0 -0.00000000000E+00 -0.00000000000E+00 -0.45593999997E+02  0.45594000000E+02  0.51100000000E-03 0. -1.
    9900012    2    1    2    0    0 -0.28702246745E+02 -0.32784664066E+02  0.11421923851E+02  0.46142317514E+02  0.99999977487E+01 0.  0.
         12    1    1    2    0    0  0.28702246745E+02  0.32784664066E+02 -0.11421923851E+02  0.45045682486E+02  0.00000000000E+00 0. -1.
         11    1    3    3    0    0 -0.68989150651E+01 -0.14149625076E+02  0.33773942599E+01  0.16100115252E+02  0.51100000000E-03 0. -1.
        -11    1    3    3    0    0 -0.16699866504E+02 -0.15039884067E+02  0.78193690475E+01  0.23795507697E+02  0.51100000000E-03 0.  1.
        -12    1    3    3    0    0 -0.51034651759E+01 -0.35951549236E+01  0.22516054344E+00  0.62466945657E+01  0.00000000000E+00 0.  1.
</event>
<event>
 7    1  0.1485408E-008  0.4614232E+02  0.7816164E-02  0.1320468E+00
        -11   -1    0    0    0    0  0.00000000000E+00  0.00000000000E+00  0.45593999997E+02  0.45594000000E+02  0.51100000000E-03 0.  1.
         11   -1    0    0    0    0 -0.00000000000E+00 -0.00000000000E+00 -0.45593999997E+02  0.45594000000E+02  0.51100000000E-03 0. -1.
    9900012    2    1    2    0    0  0.31246537613E+02  0.27543887352E+02 -0.17149389645E+02  0.46142318648E+02  0.10000008085E+02 0.  0.
         12    1    1    2    0    0 -0.31246537613E+02 -0.27543887352E+02  0.17149389645E+02  0.45045681352E+02  0.00000000000E+00 0. -1.
         11    1    3    3    0    0  0.17282532679E+02  0.13533713713E+02 -0.44743264348E+01  0.22402386926E+02  0.51100000000E-03 0. -1.
        -11    1    3    3    0    0  0.75867651602E+01  0.52932429586E+01 -0.53000332438E+01  0.10661509239E+02  0.51100000000E-03 0.  1.
         12    1    3    3    0    0  0.63772397739E+01  0.87169306803E+01 -0.73750299660E+01  0.13078422482E+02  0.00000000000E+00 0. -1.
</event>
<event>
 7    1  0.1485408E-008  0.4614232E+02  0.7816164E-02  0.1320468E+00
        -11   -1    0    0    0    0  0.00000000000E+00  0.00000000000E+00  0.45593999997E+02  0.45594000000E+02  0.51100000000E-03 0. -1.
         11   -1    0    0    0    0 -0.00000000000E+00 -0.00000000000E+00 -0.45593999997E+02  0.45594000000E+02  0.51100000000E-03 0.  1.
    9900012    2    1    2    0    0  0.11808512760E+02 -0.29364825270E+02 -0.32052762406E+02  0.46142317470E+02  0.99999973424E+01 0.  0.
         12    1    1    2    0    0 -0.11808512760E+02  0.29364825270E+02  0.32052762406E+02  0.45045682530E+02  0.00000000000E+00 0. -1.
         11    1    3    3    0    0  0.40961372040E+01 -0.15116320339E+02 -0.93520928205E+01  0.18241247791E+02  0.51100000000E-03 0. -1.
        -11    1    3    3    0    0  0.54847655513E+01 -0.94328989421E+01 -0.14965332023E+02  0.18520890865E+02  0.51100000000E-03 0.  1.
         12    1    3    3    0    0  0.22276100047E+01 -0.48156059896E+01 -0.77353375623E+01  0.93801788140E+01  0.00000000000E+00 0. -1.
</event>
<event>
 7    1  0.1485408E-008  0.4614232E+02  0.7816164E-02  0.1320468E+00
        -11   -1    0    0    0    0  0.00000000000E+00  0.00000000000E+00  0.45593999997E+02  0.45594000000E+02  0.51100000000E-03 0. -1.
         11   -1    0    0    0    0 -0.00000000000E+00 -0.00000000000E+00 -0.45593999997E+02  0.45594000000E+02  0.51100000000E-03 0.  1.
    9900012    2    1    2    0    0 -0.29842257005E+02 -0.31621904128E+02 -0.11773205521E+02  0.46142317720E+02  0.99999996287E+01 0.  0.
         12    1    1    2    0    0  0.29842257005E+02  0.31621904128E+02  0.11773205521E+02  0.45045682280E+02  0.00000000000E+00 0. -1.
         11    1    3    3    0    0 -0.14931828301E+02 -0.97199882653E+01 -0.67621451664E+01  0.19056869518E+02  0.51100000000E-03 0. -1.
        -11    1    3    3    0    0 -0.13258860421E+02 -0.19539777619E+02 -0.52605122164E+01  0.24192421915E+02  0.51100000000E-03 0.  1.
         12    1    3    3    0    0 -0.16515682821E+01 -0.23621382430E+01  0.24945186168E+00  0.28930262876E+01  0.00000000000E+00 0. -1.
</event>
<event>
 7    1  0.1485408E-008  0.4614232E+02  0.7816164E-02  0.1320468E+00
        -11   -1    0    0    0    0  0.00000000000E+00  0.00000000000E+00  0.45593999997E+02  0.45594000000E+02  0.51100000000E-03 0. -1.
         11   -1    0    0    0    0 -0.00000000000E+00 -0.00000000000E+00 -0.45593999997E+02  0.45594000000E+02  0.51100000000E-03 0.  1.
    9900012    2    1    2    0    0 -0.32575410072E+02  0.22901951349E+02 -0.21058414680E+02  0.46142317124E+02  0.99999941869E+01 0.  0.
         12    1    1    2    0    0  0.32575410072E+02 -0.22901951349E+02  0.21058414680E+02  0.45045682876E+02  0.00000000000E+00 0. -1.
         11    1    3    3    0    0 -0.21252078381E+02  0.16195153872E+02 -0.93429467185E+01  0.28305909243E+02  0.51100000000E-03 0. -1.
        -11    1    3    3    0    0 -0.10100689040E+02  0.66407183315E+01 -0.97932393595E+01  0.15557332562E+02  0.51100000000E-03 0.  1.
         12    1    3    3    0    0 -0.12226426513E+01  0.66079145471E-01 -0.19222286023E+01  0.22790753181E+01  0.00000000000E+00 0. -1.
</event>
<event>
 7    1  0.1485408E-008  0.4614232E+02  0.7816164E-02  0.1320468E+00
        -11   -1    0    0    0    0  0.00000000000E+00  0.00000000000E+00  0.45593999997E+02  0.45594000000E+02  0.51100000000E-03 0. -1.
         11   -1    0    0    0    0 -0.00000000000E+00 -0.00000000000E+00 -0.45593999997E+02  0.45594000000E+02  0.51100000000E-03 0.  1.
    9900012    2    1    2    0    0 -0.89340201661E+01 -0.30757493502E+02 -0.31674490360E+02  0.46142318049E+02  0.10000002629E+02 0.  0.
         12    1    1    2    0    0  0.89340201661E+01  0.30757493502E+02  0.31674490360E+02  0.45045681951E+02  0.00000000000E+00 0. -1.
         11    1    3    3    0    0 -0.14459193207E+01 -0.25049887437E+01 -0.33533325677E+01  0.44283733875E+01  0.51100000000E-03 0. -1.
        -11    1    3    3    0    0  0.66454866225E-01 -0.80229908935E+01 -0.33330349625E+01  0.86880332325E+01  0.51100000000E-03 0.  1.
        -12    1    3    3    0    0 -0.75545557116E+01 -0.20229513865E+02 -0.24988122830E+02  0.33025911429E+02  0.00000000000E+00 0.  1.
</event>
<event>
 7    1  0.1485408E-008  0.4614232E+02  0.7816164E-02  0.1320468E+00
        -11   -1    0    0    0    0  0.00000000000E+00  0.00000000000E+00  0.45593999997E+02  0.45594000000E+02  0.51100000000E-03 0. -1.
         11   -1    0    0    0    0 -0.00000000000E+00 -0.00000000000E+00 -0.45593999997E+02  0.45594000000E+02  0.51100000000E-03 0.  1.
    9900012    2    1    2    0    0 -0.44821598515E+02  0.51613170132E+00  0.44577362527E+01  0.46142317656E+02  0.99999990388E+01 0.  0.
         12    1    1    2    0    0  0.44821598515E+02 -0.51613170132E+00 -0.44577362527E+01  0.45045682344E+02  0.00000000000E+00 0. -1.
         11    1    3    3    0    0 -0.63609280563E+01  0.32496037795E+01  0.95001294557E-01  0.71435534553E+01  0.51100000000E-03 0. -1.
        -11    1    3    3    0    0 -0.14518825639E+02 -0.27170083326E+01  0.79175827834E+00  0.14792069282E+02  0.51100000000E-03 0.  1.
        -12    1    3    3    0    0 -0.23941844819E+02 -0.16463745568E-01  0.35709766798E+01  0.24206694918E+02  0.00000000000E+00 0.  1.
</event>
<event>
 7    1  0.1485408E-008  0.4614232E+02  0.7816164E-02  0.1320468E+00
        -11   -1    0    0    0    0  0.00000000000E+00  0.00000000000E+00  0.45593999997E+02  0.45594000000E+02  0.51100000000E-03 0.  1.
         11   -1    0    0    0    0 -0.00000000000E+00 -0.00000000000E+00 -0.45593999997E+02  0.45594000000E+02  0.51100000000E-03 0. -1.
    9900012    2    1    2    0    0  0.25557666261E+02 -0.26665246199E+02  0.25785341426E+02  0.46142317720E+02  0.99999996293E+01 0.  0.
         12    1    1    2    0    0 -0.25557666261E+02  0.26665246199E+02 -0.25785341426E+02  0.45045682280E+02  0.00000000000E+00 0. -1.
         11    1    3    3    0    0  0.35764323313E+01 -0.57606402540E+01  0.14042930599E+01  0.69244410327E+01  0.51100000000E-03 0. -1.
        -11    1    3    3    0    0  0.15412123074E+02 -0.17327372332E+02  0.19359948996E+02  0.30208922440E+02  0.51100000000E-03 0.  1.
        -12    1    3    3    0    0  0.65691108561E+01 -0.35772336137E+01  0.50210993695E+01  0.90089542481E+01  0.00000000000E+00 0.  1.
</event>
<event>
 7    1  0.1485408E-008  0.4614232E+02  0.7816164E-02  0.1320468E+00
        -11   -1    0    0    0    0  0.00000000000E+00  0.00000000000E+00  0.45593999997E+02  0.45594000000E+02  0.51100000000E-03 0. -1.
         11   -1    0    0    0    0 -0.00000000000E+00 -0.00000000000E+00 -0.45593999997E+02  0.45594000000E+02  0.51100000000E-03 0.  1.
    9900012    2    1    2    0    0 -0.35294810092E+02  0.27939749879E+02 -0.16614442533E+01  0.46142316081E+02  0.99999846765E+01 0.  0.
         12    1    1    2    0    0  0.35294810092E+02 -0.27939749879E+02  0.16614442533E+01  0.45045683919E+02  0.00000000000E+00 0. -1.
         11    1    3    3    0    0 -0.63436289684E+00  0.36814908588E+00  0.85944524012E+00  0.11298656629E+01  0.51100000000E-03 0. -1.
        -11    1    3    3    0    0 -0.33352868362E+02  0.26807205349E+02 -0.38947880933E+01  0.42967539622E+02  0.51100000000E-03 0.  1.
        -12    1    3    3    0    0 -0.13075788332E+01  0.76439544437E+00  0.13738986000E+01  0.20449107959E+01  0.00000000000E+00 0.  1.
</event>
<event>
 7    1  0.1485408E-008  0.4614232E+02  0.7816164E-02  0.1320468E+00
        -11   -1    0    0    0    0  0.00000000000E+00  0.00000000000E+00  0.45593999997E+02  0.45594000000E+02  0.51100000000E-03 0.  1.
         11   -1    0    0    0    0 -0.00000000000E+00 -0.00000000000E+00 -0.45593999997E+02  0.45594000000E+02  0.51100000000E-03 0. -1.
    9900012    2    1    2    0    0  0.33017188703E+02  0.73297228413E+01  0.29753217314E+02  0.46142317329E+02  0.99999960591E+01 0.  0.
         12    1    1    2    0    0 -0.33017188703E+02 -0.73297228413E+01 -0.29753217314E+02  0.45045682671E+02  0.00000000000E+00 0. -1.
         11    1    3    3    0    0  0.19486959167E+02  0.37475911975E+01  0.14064405828E+02  0.24322695757E+02  0.51100000000E-03 0. -1.
        -11    1    3    3    0    0 -0.42870652089E+00 -0.43314414369E+00  0.38786282433E+00  0.72238560471E+00  0.51100000000E-03 0.  1.
        -12    1    3    3    0    0  0.13958936057E+02  0.40152757875E+01  0.15300948662E+02  0.21097235967E+02  0.00000000000E+00 0.  1.
</event>
<event>
 7    1  0.1485408E-008  0.4614232E+02  0.7816164E-02  0.1320468E+00
        -11   -1    0    0    0    0  0.00000000000E+00  0.00000000000E+00  0.45593999997E+02  0.45594000000E+02  0.51100000000E-03 0.  1.
         11   -1    0    0    0    0 -0.00000000000E+00 -0.00000000000E+00 -0.45593999997E+02  0.45594000000E+02  0.51100000000E-03 0. -1.
    9900012    2    1    2    0    0 -0.35130707627E+02  0.41189184683E+01  0.27892318664E+02  0.46142317097E+02  0.99999939415E+01 0.  0.
         12    1    1    2    0    0  0.35130707627E+02 -0.41189184683E+01 -0.27892318664E+02  0.45045682903E+02  0.00000000000E+00 0. -1.
         11    1    3    3    0    0 -0.11759852964E+02  0.37117077261E+01  0.13568983448E+02  0.18335436402E+02  0.51100000000E-03 0. -1.
        -11    1    3    3    0    0 -0.17403363199E+02  0.11997587187E+01  0.12681743969E+02  0.21567176495E+02  0.51100000000E-03 0.  1.
         12    1    3    3    0    0 -0.59674914644E+01 -0.79254797655E+00  0.16415912474E+01  0.62397041994E+01  0.00000000000E+00 0. -1.
</event>
